<event>
 4    1  0.6934088E+001  0.5540438E+02  0.7546771E-02  0.1276300E+00
          2   -1    0    0  502    0  0.00000000000E+00  0.00000000000E+00  0.38231030515E+03  0.38231030515E+03  0.00000000000E+00 0. -1.
         -2   -1    0    0    0  501 -0.00000000000E+00 -0.00000000000E+00 -0.16572517687E+02  0.16572517687E+02  0.00000000000E+00 0.  1.
          1    1    1    2  502    0  0.20523261135E+02 -0.51463002361E+02  0.39671721887E+02  0.68143160898E+02  0.00000000000E+00 0.  1.
         -1    1    1    2    0  501 -0.20523261135E+02  0.51463002361E+02  0.32606606558E+03  0.33073966194E+03  0.00000000000E+00 0. -1.
</event>
<event>
 4    1  0.6934088E+001  0.2938858E+02  0.7546771E-02  0.1424985E+00
          2   -1    0    0  502    0  0.00000000000E+00  0.00000000000E+00  0.93175720976E+03  0.93175720976E+03  0.00000000000E+00 0. -1.
         -2   -1    0    0    0  501 -0.00000000000E+00 -0.00000000000E+00 -0.14595592097E+01  0.14595592097E+01  0.00000000000E+00 0.  1.
          1    1    1    2  502    0 -0.10768049978E+02  0.27344788699E+02  0.74701811125E+03  0.74759597839E+03  0.00000000000E+00 0. -1.
         -1    1    1    2    0  501  0.10768049978E+02 -0.27344788699E+02  0.18327953930E+03  0.18562079058E+03  0.00000000000E+00 0.  1.
</event>
<event>
 4    1  0.6934088E+001  0.3041068E+02  0.7546771E-02  0.1416061E+00
          2   -1    0    0  502    0  0.00000000000E+00  0.00000000000E+00  0.13511598439E+04  0.13511598439E+04  0.00000000000E+00 0. -1.
         -2   -1    0    0    0  501 -0.00000000000E+00 -0.00000000000E+00 -0.10146649204E+01  0.10146649204E+01  0.00000000000E+00 0.  1.
          1    1    1    2  502    0  0.29468502511E+02  0.75111162126E+01  0.10607603033E+04  0.10611961320E+04  0.00000000000E+00 0. -1.
         -1    1    1    2    0  501 -0.29468502511E+02 -0.75111162126E+01  0.28938487566E+03  0.29097837681E+03  0.00000000000E+00 0.  1.
</event>
<event>
 4    1  0.6934088E+001  0.2057696E+02  0.7546771E-02  0.1525391E+00
          2   -1    0    0  502    0  0.00000000000E+00  0.00000000000E+00  0.12379948196E+04  0.12379948196E+04  0.00000000000E+00 0. -1.
         -2   -1    0    0    0  501 -0.00000000000E+00 -0.00000000000E+00 -0.41961971372E+00  0.41961971372E+00  0.00000000000E+00 0.  1.
          1    1    1    2  502    0 -0.19677573159E+02 -0.60169987626E+01  0.88507819257E+03  0.88531735447E+03  0.00000000000E+00 0. -1.
         -1    1    1    2    0  501  0.19677573159E+02  0.60169987626E+01  0.35249700733E+03  0.35309708486E+03  0.00000000000E+00 0.  1.
</event>
<event>
 4    1  0.6934088E+001  0.2064359E+02  0.7546771E-02  0.1524415E+00
          2   -1    0    0  502    0  0.00000000000E+00  0.00000000000E+00  0.87628572203E+03  0.87628572203E+03  0.00000000000E+00 0. -1.
         -2   -1    0    0    0  501 -0.00000000000E+00 -0.00000000000E+00 -0.55350158416E+00  0.55350158416E+00  0.00000000000E+00 0.  1.
          1    1    1    2  502    0  0.16938922261E+02  0.11799613543E+02  0.59060362476E+03  0.59096429634E+03  0.00000000000E+00 0. -1.
         -1    1    1    2    0  501 -0.16938922261E+02 -0.11799613543E+02  0.28512859568E+03  0.28587492727E+03  0.00000000000E+00 0.  1.
</event>
<event>
 4    1  0.6934088E+001  0.3298794E+02  0.7546771E-02  0.1395288E+00
          2   -1    0    0  502    0  0.00000000000E+00  0.00000000000E+00  0.34098861210E+04  0.34098861210E+04  0.00000000000E+00 0. -1.
         -2   -1    0    0    0  501 -0.00000000000E+00 -0.00000000000E+00 -0.34423839265E+00  0.34423839265E+00  0.00000000000E+00 0.  1.
          1    1    1    2  502    0 -0.32323794516E+02 -0.65860848227E+01  0.21652555743E+04  0.21655068474E+04  0.00000000000E+00 0. -1.
         -1    1    1    2    0  501  0.32323794516E+02  0.65860848227E+01  0.12442863083E+04  0.12447235120E+04  0.00000000000E+00 0.  1.
</event>
<event>
 4    1  0.6934088E+001  0.2245474E+02  0.7546771E-02  0.1499461E+00
          2   -1    0    0  502    0  0.00000000000E+00  0.00000000000E+00  0.13570834428E+01  0.13570834428E+01  0.00000000000E+00 0.  1.
         -2   -1    0    0    0  501 -0.00000000000E+00 -0.00000000000E+00 -0.37216244786E+03  0.37216244786E+03  0.00000000000E+00 0. -1.
          1    1    1    2  502    0 -0.15919819889E+02 -0.15835865470E+02 -0.17778533139E+03  0.17919776605E+03  0.00000000000E+00 0. -1.
         -1    1    1    2    0  501  0.15919819889E+02  0.15835865470E+02 -0.19302003303E+03  0.19432176526E+03  0.00000000000E+00 0.  1.
</event>
<event>
 4    1  0.6934088E+001  0.4411610E+02  0.7546771E-02  0.1325919E+00
          2   -1    0    0  502    0  0.00000000000E+00  0.00000000000E+00  0.19074858323E+04  0.19074858323E+04  0.00000000000E+00 0.  1.
         -2   -1    0    0    0  501 -0.00000000000E+00 -0.00000000000E+00 -0.11668104613E+01  0.11668104613E+01  0.00000000000E+00 0. -1.
          1    1    1    2  502    0 -0.43259480056E+02  0.86514307231E+01  0.61500599202E+03  0.61658624708E+03  0.00000000000E+00 0. -1.
         -1    1    1    2    0  501  0.43259480056E+02 -0.86514307231E+01  0.12913130298E+04  0.12920663957E+04  0.00000000000E+00 0.  1.
</event>
<event>
 4    1  0.6934088E+001  0.2192617E+02  0.7546771E-02  0.1506441E+00
          2   -1    0    0  502    0  0.00000000000E+00  0.00000000000E+00  0.12630396975E+03  0.12630396975E+03  0.00000000000E+00 0.  1.
         -2   -1    0    0    0  501 -0.00000000000E+00 -0.00000000000E+00 -0.42046274231E+01  0.42046274231E+01  0.00000000000E+00 0. -1.
          1    1    1    2  502    0 -0.20333267504E+02 -0.82045692885E+01  0.40966148202E+02  0.46464847177E+02  0.00000000000E+00 0. -1.
         -1    1    1    2    0  501  0.20333267504E+02  0.82045692885E+01  0.81133194124E+02  0.84043749996E+02  0.00000000000E+00 0.  1.
</event>
<event>
 4    1  0.6934088E+001  0.2728553E+02  0.7546771E-02  0.1444761E+00
          2   -1    0    0  502    0  0.00000000000E+00  0.00000000000E+00  0.10641765547E+04  0.10641765547E+04  0.00000000000E+00 0.  1.
         -2   -1    0    0    0  501 -0.00000000000E+00 -0.00000000000E+00 -0.12238432176E+01  0.12238432176E+01  0.00000000000E+00 0. -1.
          1    1    1    2  502    0  0.24521057215E+02 -0.11967362726E+02  0.88012305595E+03  0.88054590660E+03  0.00000000000E+00 0. -1.
         -1    1    1    2    0  501 -0.24521057215E+02  0.11967362726E+02  0.18282965551E+03  0.18485449129E+03  0.00000000000E+00 0.  1.
</event>
<event>
 4    1  0.6934088E+001  0.2124129E+02  0.7546771E-02  0.1515848E+00
          2   -1    0    0  502    0  0.00000000000E+00  0.00000000000E+00  0.71749699109E+01  0.71749699109E+01  0.00000000000E+00 0. -1.
         -2   -1    0    0    0  501 -0.00000000000E+00 -0.00000000000E+00 -0.80966281757E+02  0.80966281757E+02  0.00000000000E+00 0.  1.
          1    1    1    2  502    0 -0.20461884309E+02 -0.57011857352E+01 -0.16068912878E+02  0.26634605109E+02  0.00000000000E+00 0. -1.
         -1    1    1    2    0  501  0.20461884309E+02  0.57011857352E+01 -0.57722398968E+02  0.61506646559E+02  0.00000000000E+00 0.  1.
</event>
<event>
 4    1  0.6934088E+001  0.2864109E+02  0.7546771E-02  0.1431785E+00
          2   -1    0    0  502    0  0.00000000000E+00  0.00000000000E+00  0.84894492104E+03  0.84894492104E+03  0.00000000000E+00 0. -1.
         -2   -1    0    0    0  501 -0.00000000000E+00 -0.00000000000E+00 -0.15719762163E+01  0.15719762163E+01  0.00000000000E+00 0.  1.
          1    1    1    2  502    0  0.24624449760E+02 -0.14626978247E+02  0.68765985146E+03  0.68825604489E+03  0.00000000000E+00 0. -1.
         -1    1    1    2    0  501 -0.24624449760E+02  0.14626978247E+02  0.15971309337E+03  0.16226085237E+03  0.00000000000E+00 0.  1.
</event>
<event>
 4    1  0.6934088E+001  0.2621052E+02  0.7546771E-02  0.1455704E+00
          2   -1    0    0  502    0  0.00000000000E+00  0.00000000000E+00  0.38914817637E+03  0.38914817637E+03  0.00000000000E+00 0. -1.
         -2   -1    0    0    0  501 -0.00000000000E+00 -0.00000000000E+00 -0.21730956648E+01  0.21730956648E+01  0.00000000000E+00 0.  1.
          1    1    1    2  502    0  0.92048138269E+01  0.24541038741E+02  0.27823899369E+03  0.27947080132E+03  0.00000000000E+00 0. -1.
         -1    1    1    2    0  501 -0.92048138269E+01 -0.24541038741E+02  0.10873608701E+03  0.11185047071E+03  0.00000000000E+00 0.  1.
</event>
<event>
 4    1  0.6934088E+001  0.2022794E+02  0.7546771E-02  0.1530579E+00
          2   -1    0    0  502    0  0.00000000000E+00  0.00000000000E+00  0.31353225203E+03  0.31353225203E+03  0.00000000000E+00 0.  1.
         -2   -1    0    0    0  501 -0.00000000000E+00 -0.00000000000E+00 -0.13158260460E+01  0.13158260460E+01  0.00000000000E+00 0. -1.
          1    1    1    2  502    0  0.16119213792E+02  0.12220490128E+02  0.17036678762E+03  0.17156343362E+03  0.00000000000E+00 0.  1.
         -1    1    1    2    0  501 -0.16119213792E+02 -0.12220490128E+02  0.14184963837E+03  0.14328464446E+03  0.00000000000E+00 0. -1.
</event>
<event>
 4    1  0.6934088E+001  0.2496837E+02  0.7546771E-02  0.1469158E+00
          2   -1    0    0  502    0  0.00000000000E+00  0.00000000000E+00  0.11692789200E+02  0.11692789200E+02  0.00000000000E+00 0.  1.
         -2   -1    0    0    0  501 -0.00000000000E+00 -0.00000000000E+00 -0.53580860578E+02  0.53580860578E+02  0.00000000000E+00 0. -1.
          1    1    1    2  502    0  0.21817091404E+02 -0.12142242152E+02 -0.18651921143E+02  0.31165905797E+02  0.00000000000E+00 0. -1.
         -1    1    1    2    0  501 -0.21817091404E+02  0.12142242152E+02 -0.23236150235E+02  0.34107743982E+02  0.00000000000E+00 0.  1.
</event>
<event>
 4    1  0.6934088E+001  0.2410344E+02  0.7546771E-02  0.1479088E+00
          2   -1    0    0  502    0  0.00000000000E+00  0.00000000000E+00  0.11312257729E+01  0.11312257729E+01  0.00000000000E+00 0.  1.
         -2   -1    0    0    0  501 -0.00000000000E+00 -0.00000000000E+00 -0.55565659278E+03  0.55565659278E+03  0.00000000000E+00 0. -1.
          1    1    1    2  502    0  0.16061456185E+02 -0.17972347025E+02 -0.20065477897E+03  0.20209729330E+03  0.00000000000E+00 0. -1.
         -1    1    1    2    0  501 -0.16061456185E+02  0.17972347025E+02 -0.35387058804E+03  0.35469052526E+03  0.00000000000E+00 0.  1.
</event>
<event>
 4    1  0.6934088E+001  0.2256085E+02  0.7546771E-02  0.1498087E+00
          2   -1    0    0  502    0  0.00000000000E+00  0.00000000000E+00  0.94245383195E+03  0.94245383195E+03  0.00000000000E+00 0.  1.
         -2   -1    0    0    0  501 -0.00000000000E+00 -0.00000000000E+00 -0.54387504105E+00  0.54387504105E+00  0.00000000000E+00 0. -1.
          1    1    1    2  502    0  0.21627182792E+02  0.64231435646E+01  0.43152157548E+03  0.43211093704E+03  0.00000000000E+00 0. -1.
         -1    1    1    2    0  501 -0.21627182792E+02 -0.64231435646E+01  0.51038838144E+03  0.51088676996E+03  0.00000000000E+00 0.  1.
</event>
<event>
 4    1  0.6934088E+001  0.2907430E+02  0.7546771E-02  0.1427815E+00
          2   -1    0    0  502    0  0.00000000000E+00  0.00000000000E+00  0.18913020806E+04  0.18913020806E+04  0.00000000000E+00 0.  1.
         -2   -1    0    0    0  501 -0.00000000000E+00 -0.00000000000E+00 -0.50678129027E+00  0.50678129027E+00  0.00000000000E+00 0. -1.
          1    1    1    2  502    0 -0.43342875220E+01 -0.28749418397E+02  0.62038094447E+03  0.62106185792E+03  0.00000000000E+00 0. -1.
         -1    1    1    2    0  501  0.43342875220E+01  0.28749418397E+02  0.12704143548E+04  0.12707470039E+04  0.00000000000E+00 0.  1.
</event>
<event>
 4    1  0.6934088E+001  0.2697091E+02  0.7546771E-02  0.1447901E+00
          2   -1    0    0  502    0  0.00000000000E+00  0.00000000000E+00  0.36432348687E+01  0.36432348687E+01  0.00000000000E+00 0. -1.
         -2   -1    0    0    0  501 -0.00000000000E+00 -0.00000000000E+00 -0.26420794167E+03  0.26420794167E+03  0.00000000000E+00 0.  1.
          1    1    1    2  502    0 -0.21943690653E+02  0.15681338673E+02 -0.64089390886E+02  0.69533301131E+02  0.00000000000E+00 0. -1.
         -1    1    1    2    0  501  0.21943690653E+02 -0.15681338673E+02 -0.19647531592E+03  0.19831787541E+03  0.00000000000E+00 0.  1.
</event>
<event>
 4    1  0.6934088E+001  0.2968204E+02  0.7546771E-02  0.1422380E+00
          2   -1    0    0  502    0  0.00000000000E+00  0.00000000000E+00  0.11098074024E+02  0.11098074024E+02  0.00000000000E+00 0. -1.
         -2   -1    0    0    0  501 -0.00000000000E+00 -0.00000000000E+00 -0.79724706349E+02  0.79724706349E+02  0.00000000000E+00 0.  1.
          1    1    1    2  502    0 -0.28146078657E+02  0.94245136896E+01 -0.31350050354E+02  0.43172315889E+02  0.00000000000E+00 0. -1.
         -1    1    1    2    0  501  0.28146078657E+02 -0.94245136896E+01 -0.37276581971E+02  0.47650464483E+02  0.00000000000E+00 0.  1.
</event>
<event>
 4    1  0.6934088E+001  0.7733169E+02  0.7546771E-02  0.1210181E+00
          2   -1    0    0  502    0  0.00000000000E+00  0.00000000000E+00  0.11921444169E+04  0.11921444169E+04  0.00000000000E+00 0. -1.
         -2   -1    0    0    0  501 -0.00000000000E+00 -0.00000000000E+00 -0.65899947862E+01  0.65899947862E+01  0.00000000000E+00 0.  1.
          1    1    1    2  502    0  0.62748684764E+02  0.45197269738E+02  0.88566850246E+03  0.88903818078E+03  0.00000000000E+00 0. -1.
         -1    1    1    2    0  501 -0.62748684764E+02 -0.45197269738E+02  0.29988591961E+03  0.30969623087E+03  0.00000000000E+00 0.  1.
</event>
<event>
 4    1  0.6934088E+001  0.2122018E+02  0.7546771E-02  0.1516144E+00
          2   -1    0    0  502    0  0.00000000000E+00  0.00000000000E+00  0.19505564520E+04  0.19505564520E+04  0.00000000000E+00 0.  1.
         -2   -1    0    0    0  501 -0.00000000000E+00 -0.00000000000E+00 -0.23458340203E+00  0.23458340203E+00  0.00000000000E+00 0. -1.
          1    1    1    2  502    0  0.18021338576E+02  0.11203896178E+02  0.10981274303E+04  0.10983324402E+04  0.00000000000E+00 0.  1.
         -1    1    1    2    0  501 -0.18021338576E+02 -0.11203896178E+02  0.85219443832E+03  0.85245859527E+03  0.00000000000E+00 0. -1.
</event>
<event>
 4    1  0.6934088E+001  0.2037788E+02  0.7546771E-02  0.1528335E+00
          2   -1    0    0  502    0  0.00000000000E+00  0.00000000000E+00  0.15072009915E+03  0.15072009915E+03  0.00000000000E+00 0. -1.
         -2   -1    0    0    0  501 -0.00000000000E+00 -0.00000000000E+00 -0.35596438937E+01  0.35596438937E+01  0.00000000000E+00 0.  1.
          1    1    1    2  502    0 -0.59855902070E+01  0.19478982848E+02  0.36908262934E+02  0.42160146296E+02  0.00000000000E+00 0. -1.
         -1    1    1    2    0  501  0.59855902070E+01 -0.19478982848E+02  0.11025219232E+03  0.11211959675E+03  0.00000000000E+00 0.  1.
</event>
<event>
 4    1  0.6934088E+001  0.3008003E+02  0.7546771E-02  0.1418902E+00
          2   -1    0    0  502    0  0.00000000000E+00  0.00000000000E+00  0.26197299948E+02  0.26197299948E+02  0.00000000000E+00 0. -1.
         -2   -1    0    0    0  501 -0.00000000000E+00 -0.00000000000E+00 -0.36726612631E+02  0.36726612631E+02  0.00000000000E+00 0.  1.
          1    1    1    2  502    0  0.73589476836E+01  0.29165971995E+02  0.24152901508E+01  0.30176839794E+02  0.00000000000E+00 0.  1.
         -1    1    1    2    0  501 -0.73589476836E+01 -0.29165971995E+02 -0.12944602834E+02  0.32747072785E+02  0.00000000000E+00 0. -1.
</event>
<event>
 4    1  0.6934088E+001  0.2028494E+02  0.7546771E-02  0.1529724E+00
          2   -1    0    0  502    0  0.00000000000E+00  0.00000000000E+00  0.10274316460E+03  0.10274316460E+03  0.00000000000E+00 0.  1.
         -2   -1    0    0    0  501 -0.00000000000E+00 -0.00000000000E+00 -0.46897698582E+01  0.46897698582E+01  0.00000000000E+00 0. -1.
          1    1    1    2  502    0 -0.20225529243E+02  0.15514140334E+01  0.69553769336E+02  0.72451402661E+02  0.00000000000E+00 0. -1.
         -1    1    1    2    0  501  0.20225529243E+02 -0.15514140334E+01  0.28499625409E+02  0.34981531801E+02  0.00000000000E+00 0.  1.
</event>
<event>
 4    1  0.6934088E+001  0.2164947E+02  0.7546771E-02  0.1510191E+00
          2   -1    0    0  502    0  0.00000000000E+00  0.00000000000E+00  0.28871311939E+01  0.28871311939E+01  0.00000000000E+00 0. -1.
         -2   -1    0    0    0  501 -0.00000000000E+00 -0.00000000000E+00 -0.17732102534E+03  0.17732102534E+03  0.00000000000E+00 0.  1.
          1    1    1    2  502    0  0.21624976841E+02 -0.10295885710E+01 -0.11340607595E+03  0.11545405034E+03  0.00000000000E+00 0. -1.
         -1    1    1    2    0  501 -0.21624976841E+02  0.10295885710E+01 -0.61027818190E+02  0.64754106194E+02  0.00000000000E+00 0.  1.
</event>
<event>
 4    1  0.6934088E+001  0.2367280E+02  0.7546771E-02  0.1484218E+00
          2   -1    0    0  502    0  0.00000000000E+00  0.00000000000E+00  0.59660297961E+03  0.59660297961E+03  0.00000000000E+00 0. -1.
         -2   -1    0    0    0  501 -0.00000000000E+00 -0.00000000000E+00 -0.94888315388E+00  0.94888315388E+00  0.00000000000E+00 0.  1.
          1    1    1    2  502    0 -0.47707198407E+01  0.23187104829E+02  0.26783395455E+03  0.26887809284E+03  0.00000000000E+00 0.  1.
         -1    1    1    2    0  501  0.47707198407E+01 -0.23187104829E+02  0.32782014190E+03  0.32867376992E+03  0.00000000000E+00 0. -1.
</event>
<event>
 4    1  0.6934088E+001  0.2128738E+02  0.7546771E-02  0.1515201E+00
          2   -1    0    0  502    0  0.00000000000E+00  0.00000000000E+00  0.21064062475E+01  0.21064062475E+01  0.00000000000E+00 0.  1.
         -2   -1    0    0    0  501 -0.00000000000E+00 -0.00000000000E+00 -0.38746582887E+03  0.38746582887E+03  0.00000000000E+00 0. -1.
          1    1    1    2  502    0 -0.17675995955E+01  0.21213868943E+02 -0.62774011073E+02  0.66285210342E+02  0.00000000000E+00 0.  1.
         -1    1    1    2    0  501  0.17675995955E+01 -0.21213868943E+02 -0.32258541155E+03  0.32328702477E+03  0.00000000000E+00 0. -1.
</event>
<event>
 4    1  0.6934088E+001  0.2170279E+02  0.7546771E-02  0.1509463E+00
          2   -1    0    0  502    0  0.00000000000E+00  0.00000000000E+00  0.99254505924E+01  0.99254505924E+01  0.00000000000E+00 0.  1.
         -2   -1    0    0    0  501 -0.00000000000E+00 -0.00000000000E+00 -0.48752531906E+02  0.48752531906E+02  0.00000000000E+00 0. -1.
          1    1    1    2  502    0 -0.21162381481E+02  0.48129598701E+01 -0.14626939053E+02  0.26171708364E+02  0.00000000000E+00 0.  1.
         -1    1    1    2    0  501  0.21162381481E+02 -0.48129598701E+01 -0.24200142261E+02  0.32506274134E+02  0.00000000000E+00 0. -1.
</event>
<event>
 4    1  0.6934088E+001  0.2078703E+02  0.7546771E-02  0.1522327E+00
          2   -1    0    0  502    0  0.00000000000E+00  0.00000000000E+00  0.18819664283E+02  0.18819664283E+02  0.00000000000E+00 0. -1.
         -2   -1    0    0    0  501 -0.00000000000E+00 -0.00000000000E+00 -0.24680514311E+02  0.24680514311E+02  0.00000000000E+00 0.  1.
          1    1    1    2  502    0  0.11874671436E+02  0.17061438005E+02 -0.86729964024E+01  0.22523795309E+02  0.00000000000E+00 0. -1.
         -1    1    1    2    0  501 -0.11874671436E+02 -0.17061438005E+02  0.28121463735E+01  0.20976383285E+02  0.00000000000E+00 0.  1.
</event>
<event>
 4    1  0.6934088E+001  0.2032528E+02  0.7546771E-02  0.1529120E+00
          2   -1    0    0  502    0  0.00000000000E+00  0.00000000000E+00  0.24384494651E+03  0.24384494651E+03  0.00000000000E+00 0. -1.
         -2   -1    0    0    0  501 -0.00000000000E+00 -0.00000000000E+00 -0.17987807726E+01  0.17987807726E+01  0.00000000000E+00 0.  1.
          1    1    1    2  502    0  0.17876261537E+02  0.96724422737E+01  0.91404987883E+02  0.93637538819E+02  0.00000000000E+00 0. -1.
         -1    1    1    2    0  501 -0.17876261537E+02 -0.96724422737E+01  0.15064117786E+03  0.15200618847E+03  0.00000000000E+00 0.  1.
</event>
<event>
 4    1  0.6934088E+001  0.3163695E+02  0.7546771E-02  0.1405885E+00
          2   -1    0    0  502    0  0.00000000000E+00  0.00000000000E+00  0.58687313544E+03  0.58687313544E+03  0.00000000000E+00 0. -1.
         -2   -1    0    0    0  501 -0.00000000000E+00 -0.00000000000E+00 -0.17138332994E+01  0.17138332994E+01  0.00000000000E+00 0.  1.
          1    1    1    2  502    0 -0.31027451937E+02 -0.61800983039E+01  0.27202534743E+03  0.27385887978E+03  0.00000000000E+00 0. -1.
         -1    1    1    2    0  501  0.31027451937E+02  0.61800983039E+01  0.31313395471E+03  0.31472808896E+03  0.00000000000E+00 0.  1.
</event>
<event>
 4    1  0.6934088E+001  0.2410505E+02  0.7546771E-02  0.1479069E+00
          2   -1    0    0  502    0  0.00000000000E+00  0.00000000000E+00  0.70375744486E+03  0.70375744486E+03  0.00000000000E+00 0. -1.
         -2   -1    0    0    0  501 -0.00000000000E+00 -0.00000000000E+00 -0.10357981925E+01  0.10357981925E+01  0.00000000000E+00 0.  1.
          1    1    1    2  502    0  0.22289187914E+02  0.91785474098E+01  0.51009207085E+03  0.51066131082E+03  0.00000000000E+00 0.  1.
         -1    1    1    2    0  501 -0.22289187914E+02 -0.91785474098E+01  0.19262957582E+03  0.19413193223E+03  0.00000000000E+00 0. -1.
</event>
<event>
 4    1  0.6934088E+001  0.3152002E+02  0.7546771E-02  0.1406832E+00
          2   -1    0    0  502    0  0.00000000000E+00  0.00000000000E+00  0.85761551481E+03  0.85761551481E+03  0.00000000000E+00 0.  1.
         -2   -1    0    0    0  501 -0.00000000000E+00 -0.00000000000E+00 -0.11649683806E+01  0.11649683806E+01  0.00000000000E+00 0. -1.
          1    1    1    2  502    0 -0.23624891634E+02 -0.20865667939E+02  0.39612591307E+03  0.39737796945E+03  0.00000000000E+00 0.  1.
         -1    1    1    2    0  501  0.23624891634E+02  0.20865667939E+02  0.46032463336E+03  0.46140251374E+03  0.00000000000E+00 0. -1.
</event>
<event>
 4    1  0.6934088E+001  0.3023065E+02  0.7546771E-02  0.1417602E+00
          2   -1    0    0  502    0  0.00000000000E+00  0.00000000000E+00  0.62006542730E+02  0.62006542730E+02  0.00000000000E+00 0. -1.
         -2   -1    0    0    0  501 -0.00000000000E+00 -0.00000000000E+00 -0.28992388774E+02  0.28992388774E+02  0.00000000000E+00 0.  1.
          1    1    1    2  502    0  0.26239346572E+02 -0.15012956181E+02  0.48409879447E+02  0.57073711899E+02  0.00000000000E+00 0. -1.
         -1    1    1    2    0  501 -0.26239346572E+02  0.15012956181E+02 -0.15395725492E+02  0.33925219605E+02  0.00000000000E+00 0.  1.
</event>
<event>
 4    1  0.6934088E+001  0.3400373E+02  0.7546771E-02  0.1387706E+00
          2   -1    0    0  502    0  0.00000000000E+00  0.00000000000E+00  0.32468764049E+04  0.32468764049E+04  0.00000000000E+00 0.  1.
         -2   -1    0    0    0  501 -0.00000000000E+00 -0.00000000000E+00 -0.35657285048E+00  0.35657285048E+00  0.00000000000E+00 0. -1.
          1    1    1    2  502    0  0.17908410688E+01  0.33956534581E+02  0.16815966585E+04  0.16819404196E+04  0.00000000000E+00 0. -1.
         -1    1    1    2    0  501 -0.17908410688E+01 -0.33956534581E+02  0.15649231735E+04  0.15652925581E+04  0.00000000000E+00 0.  1.
</event>
<event>
 4    1  0.6934088E+001  0.2363706E+02  0.7546771E-02  0.1484650E+00
          2   -1    0    0  502    0  0.00000000000E+00  0.00000000000E+00  0.85189537234E+03  0.85189537234E+03  0.00000000000E+00 0. -1.
         -2   -1    0    0    0  501 -0.00000000000E+00 -0.00000000000E+00 -0.78678194401E+00  0.78678194401E+00  0.00000000000E+00 0.  1.
          1    1    1    2  502    0 -0.22161341703E+02  0.82210455898E+01  0.59947944187E+03  0.59994525740E+03  0.00000000000E+00 0.  1.
         -1    1    1    2    0  501  0.22161341703E+02 -0.82210455898E+01  0.25162914853E+03  0.25273689689E+03  0.00000000000E+00 0. -1.
</event>
<event>
 4    1  0.6934088E+001  0.3039606E+02  0.7546771E-02  0.1416185E+00
          2   -1    0    0  502    0  0.00000000000E+00  0.00000000000E+00  0.23017371779E+04  0.23017371779E+04  0.00000000000E+00 0. -1.
         -2   -1    0    0    0  501 -0.00000000000E+00 -0.00000000000E+00 -0.42979309288E+00  0.42979309288E+00  0.00000000000E+00 0.  1.
          1    1    1    2  502    0  0.28089803446E+01 -0.30265993111E+02  0.85480330634E+03  0.85534356445E+03  0.00000000000E+00 0.  1.
         -1    1    1    2    0  501 -0.28089803446E+01  0.30265993111E+02  0.14465040784E+04  0.14468234065E+04  0.00000000000E+00 0. -1.
</event>
<event>
 4    1  0.6934088E+001  0.2734131E+02  0.7546771E-02  0.1444209E+00
          2   -1    0    0  502    0  0.00000000000E+00  0.00000000000E+00  0.48811097548E+02  0.48811097548E+02  0.00000000000E+00 0. -1.
         -2   -1    0    0    0  501 -0.00000000000E+00 -0.00000000000E+00 -0.23059547081E+02  0.23059547081E+02  0.00000000000E+00 0.  1.
          1    1    1    2  502    0 -0.99140706212E+01 -0.25480549376E+02  0.33701070309E+02  0.43397112032E+02  0.00000000000E+00 0. -1.
         -1    1    1    2    0  501  0.99140706212E+01  0.25480549376E+02 -0.79495198426E+01  0.28473532596E+02  0.00000000000E+00 0.  1.
</event>
<event>
 4    1  0.6934088E+001  0.2436544E+02  0.7546771E-02  0.1476029E+00
          2   -1    0    0  502    0  0.00000000000E+00  0.00000000000E+00  0.22150218203E+03  0.22150218203E+03  0.00000000000E+00 0. -1.
         -2   -1    0    0    0  501 -0.00000000000E+00 -0.00000000000E+00 -0.38228564531E+01  0.38228564531E+01  0.00000000000E+00 0.  1.
          1    1    1    2  502    0 -0.10757567926E+02  0.21862056324E+02  0.17043379377E+03  0.17216664263E+03  0.00000000000E+00 0. -1.
         -1    1    1    2    0  501  0.10757567926E+02 -0.21862056324E+02  0.47245531811E+02  0.53158395861E+02  0.00000000000E+00 0.  1.
</event>
<event>
 4    1  0.6934088E+001  0.2439845E+02  0.7546771E-02  0.1475647E+00
          2   -1    0    0  502    0  0.00000000000E+00  0.00000000000E+00  0.34483768626E+01  0.34483768626E+01  0.00000000000E+00 0. -1.
         -2   -1    0    0    0  501 -0.00000000000E+00 -0.00000000000E+00 -0.18713157047E+03  0.18713157047E+03  0.00000000000E+00 0.  1.
          1    1    1    2  502    0  0.16951817585E+02  0.17547654468E+02 -0.11837055995E+03  0.12085890021E+03  0.00000000000E+00 0.  1.
         -1    1    1    2    0  501 -0.16951817585E+02 -0.17547654468E+02 -0.65312633651E+02  0.69721047118E+02  0.00000000000E+00 0. -1.
</event>
<event>
 4    1  0.6934088E+001  0.2218401E+02  0.7546771E-02  0.1503007E+00
          2   -1    0    0  502    0  0.00000000000E+00  0.00000000000E+00  0.66431145612E+03  0.66431145612E+03  0.00000000000E+00 0. -1.
         -2   -1    0    0    0  501 -0.00000000000E+00 -0.00000000000E+00 -0.19138746319E+01  0.19138746319E+01  0.00000000000E+00 0.  1.
          1    1    1    2  502    0  0.18659068005E+02 -0.11998724172E+02  0.70406398275E+02  0.73818636662E+02  0.00000000000E+00 0.  1.
         -1    1    1    2    0  501 -0.18659068005E+02  0.11998724172E+02  0.59199118321E+03  0.59240669409E+03  0.00000000000E+00 0. -1.
</event>
<event>
 4    1  0.6934088E+001  0.2933737E+02  0.7546771E-02  0.1425443E+00
          2   -1    0    0  502    0  0.00000000000E+00  0.00000000000E+00  0.28461189763E+02  0.28461189763E+02  0.00000000000E+00 0.  1.
         -2   -1    0    0    0  501 -0.00000000000E+00 -0.00000000000E+00 -0.33570755218E+02  0.33570755218E+02  0.00000000000E+00 0. -1.
          1    1    1    2  502    0 -0.20411960500E+02 -0.21072098136E+02 -0.12323593030E+02  0.31820628473E+02  0.00000000000E+00 0. -1.
         -1    1    1    2    0  501  0.20411960500E+02  0.21072098136E+02  0.72140275749E+01  0.30211316508E+02  0.00000000000E+00 0.  1.
</event>
<event>
 4    1  0.6934088E+001  0.3295006E+02  0.7546771E-02  0.1395577E+00
          2   -1    0    0  502    0  0.00000000000E+00  0.00000000000E+00  0.10994570708E+04  0.10994570708E+04  0.00000000000E+00 0. -1.
         -2   -1    0    0    0  501 -0.00000000000E+00 -0.00000000000E+00 -0.10082413533E+01  0.10082413533E+01  0.00000000000E+00 0.  1.
          1    1    1    2  502    0 -0.83219360435E+01  0.31881844088E+02  0.47029266483E+03  0.47144554001E+03  0.00000000000E+00 0.  1.
         -1    1    1    2    0  501  0.83219360435E+01 -0.31881844088E+02  0.62815616461E+03  0.62901977214E+03  0.00000000000E+00 0. -1.
</event>
<event>
 4    1  0.6934088E+001  0.2286066E+02  0.7546771E-02  0.1494255E+00
          2   -1    0    0  502    0  0.00000000000E+00  0.00000000000E+00  0.90837897454E+03  0.90837897454E+03  0.00000000000E+00 0.  1.
         -2   -1    0    0    0  501 -0.00000000000E+00 -0.00000000000E+00 -0.57539606890E+00  0.57539606890E+00  0.00000000000E+00 0. -1.
          1    1    1    2  502    0 -0.72132044965E+01  0.21692845910E+02  0.44872528817E+03  0.44930723801E+03  0.00000000000E+00 0.  1.
         -1    1    1    2    0  501  0.72132044965E+01 -0.21692845910E+02  0.45907829030E+03  0.45964713260E+03  0.00000000000E+00 0. -1.
</event>
<event>
 4    1  0.6934088E+001  0.2053665E+02  0.7546771E-02  0.1525984E+00
          2   -1    0    0  502    0  0.00000000000E+00  0.00000000000E+00  0.12876990597E+02  0.12876990597E+02  0.00000000000E+00 0. -1.
         -2   -1    0    0    0  501 -0.00000000000E+00 -0.00000000000E+00 -0.37355397730E+02  0.37355397730E+02  0.00000000000E+00 0.  1.
          1    1    1    2  502    0 -0.76663319530E+01 -0.19052066532E+02 -0.21055615940E+02  0.29412460750E+02  0.00000000000E+00 0. -1.
         -1    1    1    2    0  501  0.76663319530E+01  0.19052066532E+02 -0.34227911927E+01  0.20819927576E+02  0.00000000000E+00 0.  1.
</event>
<event>
 4    1  0.6934088E+001  0.4158733E+02  0.7546771E-02  0.1339427E+00
          2   -1    0    0  502    0  0.00000000000E+00  0.00000000000E+00  0.39838263491E+01  0.39838263491E+01  0.00000000000E+00 0.  1.
         -2   -1    0    0    0  501 -0.00000000000E+00 -0.00000000000E+00 -0.44711370848E+03  0.44711370848E+03  0.00000000000E+00 0. -1.
          1    1    1    2  502    0 -0.37917627117E+02 -0.17080975081E+02 -0.25999745903E+03  0.26330245889E+03  0.00000000000E+00 0. -1.
         -1    1    1    2    0  501  0.37917627117E+02  0.17080975081E+02 -0.18313242310E+03  0.18779507594E+03  0.00000000000E+00 0.  1.
</event>
<event>
 4    1  0.6934088E+001  0.3301380E+02  0.7546771E-02  0.1395091E+00
          2   -1    0    0  502    0  0.00000000000E+00  0.00000000000E+00  0.25964036800E+04  0.25964036800E+04  0.00000000000E+00 0.  1.
         -2   -1    0    0    0  501 -0.00000000000E+00 -0.00000000000E+00 -0.48106751849E+00  0.48106751849E+00  0.00000000000E+00 0. -1.
          1    1    1    2  502    0  0.32932249807E+02  0.23189925952E+01  0.17614252580E+04  0.17617346141E+04  0.00000000000E+00 0.  1.
         -1    1    1    2    0  501 -0.32932249807E+02 -0.23189925952E+01  0.83449735442E+03  0.83515013342E+03  0.00000000000E+00 0. -1.
</event>
<event>
 4    1  0.6934088E+001  0.2364059E+02  0.7546771E-02  0.1484607E+00
          2   -1    0    0  502    0  0.00000000000E+00  0.00000000000E+00  0.12769843327E+04  0.12769843327E+04  0.00000000000E+00 0.  1.
         -2   -1    0    0    0  501 -0.00000000000E+00 -0.00000000000E+00 -0.63286132183E+00  0.63286132183E+00  0.00000000000E+00 0. -1.
          1    1    1    2  502    0 -0.23597171671E+02  0.14321281312E+01  0.28339146931E+03  0.28437581188E+03  0.00000000000E+00 0. -1.
         -1    1    1    2    0  501  0.23597171671E+02 -0.14321281312E+01  0.99296000210E+03  0.99324138218E+03  0.00000000000E+00 0.  1.
</event>
<event>
 4    1  0.6934088E+001  0.3308241E+02  0.7546771E-02  0.1394570E+00
          2   -1    0    0  502    0  0.00000000000E+00  0.00000000000E+00  0.98514485611E+03  0.98514485611E+03  0.00000000000E+00 0.  1.
         -2   -1    0    0    0  501 -0.00000000000E+00 -0.00000000000E+00 -0.15115548050E+01  0.15115548050E+01  0.00000000000E+00 0. -1.
          1    1    1    2  502    0  0.14347091797E+02  0.29809506321E+02  0.74578676056E+03  0.74652015239E+03  0.00000000000E+00 0.  1.
         -1    1    1    2    0  501 -0.14347091797E+02 -0.29809506321E+02  0.23784654075E+03  0.24013625852E+03  0.00000000000E+00 0. -1.
</event>
<event>
 4    1  0.6934088E+001  0.2610389E+02  0.7546771E-02  0.1456823E+00
          2   -1    0    0  502    0  0.00000000000E+00  0.00000000000E+00  0.77516153135E+02  0.77516153135E+02  0.00000000000E+00 0.  1.
         -2   -1    0    0    0  501 -0.00000000000E+00 -0.00000000000E+00 -0.37349832490E+02  0.37349832490E+02  0.00000000000E+00 0. -1.
          1    1    1    2  502    0  0.24464345125E+02 -0.91054271842E+01 -0.30138426933E+02  0.39871515705E+02  0.00000000000E+00 0. -1.
         -1    1    1    2    0  501 -0.24464345125E+02  0.91054271842E+01  0.70304747578E+02  0.74994469920E+02  0.00000000000E+00 0.  1.
</event>
<event>
 4    1  0.6934088E+001  0.2987278E+02  0.7546771E-02  0.1420705E+00
          2   -1    0    0  502    0  0.00000000000E+00  0.00000000000E+00  0.62682231330E+03  0.62682231330E+03  0.00000000000E+00 0.  1.
         -2   -1    0    0    0  501 -0.00000000000E+00 -0.00000000000E+00 -0.14556944282E+01  0.14556944282E+01  0.00000000000E+00 0. -1.
          1    1    1    2  502    0 -0.29864229411E+02 -0.71473918108E+00  0.26608369669E+03  0.26775532991E+03  0.00000000000E+00 0. -1.
         -1    1    1    2    0  501  0.29864229411E+02  0.71473918108E+00  0.35928292218E+03  0.36052267782E+03  0.00000000000E+00 0.  1.
</event>
<event>
 4    1  0.6934088E+001  0.2029995E+02  0.7546771E-02  0.1529499E+00
          2   -1    0    0  502    0  0.00000000000E+00  0.00000000000E+00  0.65997736266E+02  0.65997736266E+02  0.00000000000E+00 0.  1.
         -2   -1    0    0    0  501 -0.00000000000E+00 -0.00000000000E+00 -0.10480234662E+02  0.10480234662E+02  0.00000000000E+00 0. -1.
          1    1    1    2  502    0  0.18506715515E+02  0.83420326426E+01  0.52070280714E+02  0.55887406107E+02  0.00000000000E+00 0.  1.
         -1    1    1    2    0  501 -0.18506715515E+02 -0.83420326426E+01  0.34472208901E+01  0.20590564820E+02  0.00000000000E+00 0. -1.
</event>
<event>
 4    1  0.6934088E+001  0.2338013E+02  0.7546771E-02  0.1487779E+00
          2   -1    0    0  502    0  0.00000000000E+00  0.00000000000E+00  0.17358158253E+04  0.17358158253E+04  0.00000000000E+00 0.  1.
         -2   -1    0    0    0  501 -0.00000000000E+00 -0.00000000000E+00 -0.43963232046E+00  0.43963232046E+00  0.00000000000E+00 0. -1.
          1    1    1    2  502    0 -0.20888869378E+02  0.10501691281E+02  0.13300758007E+04  0.13302812732E+04  0.00000000000E+00 0.  1.
         -1    1    1    2    0  501  0.20888869378E+02 -0.10501691281E+02  0.40530039229E+03  0.40597418437E+03  0.00000000000E+00 0. -1.
</event>
<event>
 4    1  0.6934088E+001  0.2741981E+02  0.7546771E-02  0.1443436E+00
          2   -1    0    0  502    0  0.00000000000E+00  0.00000000000E+00  0.38260210914E+03  0.38260210914E+03  0.00000000000E+00 0. -1.
         -2   -1    0    0    0  501 -0.00000000000E+00 -0.00000000000E+00 -0.20889554794E+01  0.20889554794E+01  0.00000000000E+00 0.  1.
          1    1    1    2  502    0 -0.99345848939E+01 -0.25556794664E+02  0.23709487673E+03  0.23867514806E+03  0.00000000000E+00 0.  1.
         -1    1    1    2    0  501  0.99345848939E+01  0.25556794664E+02  0.14341827693E+03  0.14601591656E+03  0.00000000000E+00 0. -1.
</event>
<event>
 4    1  0.6934088E+001  0.2096657E+02  0.7546771E-02  0.1519743E+00
          2   -1    0    0  502    0  0.00000000000E+00  0.00000000000E+00  0.19362176820E+03  0.19362176820E+03  0.00000000000E+00 0.  1.
         -2   -1    0    0    0  501 -0.00000000000E+00 -0.00000000000E+00 -0.23212962898E+01  0.23212962898E+01  0.00000000000E+00 0. -1.
          1    1    1    2  502    0 -0.20333518782E+02  0.51132177414E+01  0.11015862234E+03  0.11213616302E+03  0.00000000000E+00 0.  1.
         -1    1    1    2    0  501  0.20333518782E+02 -0.51132177414E+01  0.81141849565E+02  0.83806901462E+02  0.00000000000E+00 0. -1.
</event>
<event>
 4    1  0.6934088E+001  0.2558155E+02  0.7546771E-02  0.1462402E+00
          2   -1    0    0  502    0  0.00000000000E+00  0.00000000000E+00  0.31936479233E+01  0.31936479233E+01  0.00000000000E+00 0. -1.
         -2   -1    0    0    0  501 -0.00000000000E+00 -0.00000000000E+00 -0.45304917852E+03  0.45304917852E+03  0.00000000000E+00 0.  1.
          1    1    1    2  502    0 -0.18129647181E+02  0.18048042269E+02 -0.56101687256E+02  0.61658861891E+02  0.00000000000E+00 0. -1.
         -1    1    1    2    0  501  0.18129647181E+02 -0.18048042269E+02 -0.39375384334E+03  0.39458396456E+03  0.00000000000E+00 0.  1.
</event>
<event>
 4    1  0.6934088E+001  0.3268372E+02  0.7546771E-02  0.1397622E+00
          2   -1    0    0  502    0  0.00000000000E+00  0.00000000000E+00  0.30729741723E+03  0.30729741723E+03  0.00000000000E+00 0.  1.
         -2   -1    0    0    0  501 -0.00000000000E+00 -0.00000000000E+00 -0.70371513907E+01  0.70371513907E+01  0.00000000000E+00 0. -1.
          1    1    1    2  502    0 -0.10083730866E+02  0.31089290470E+02  0.38328780679E+02  0.50371827825E+02  0.00000000000E+00 0. -1.
         -1    1    1    2    0  501  0.10083730866E+02 -0.31089290470E+02  0.26193148516E+03  0.26396274079E+03  0.00000000000E+00 0.  1.
</event>
<event>
 4    1  0.6934088E+001  0.5618585E+02  0.7546771E-02  0.1273373E+00
          2   -1    0    0  502    0  0.00000000000E+00  0.00000000000E+00  0.64167886491E+03  0.64167886491E+03  0.00000000000E+00 0.  1.
         -2   -1    0    0    0  501 -0.00000000000E+00 -0.00000000000E+00 -0.60747836066E+01  0.60747836066E+01  0.00000000000E+00 0. -1.
          1    1    1    2  502    0 -0.54649574846E+02 -0.13048912748E+02  0.45903181368E+03  0.46245762630E+03  0.00000000000E+00 0.  1.
         -1    1    1    2    0  501  0.54649574846E+02  0.13048912748E+02  0.17657226762E+03  0.18529602221E+03  0.00000000000E+00 0. -1.
</event>
<event>
 4    1  0.6934088E+001  0.3199490E+02  0.7546771E-02  0.1403018E+00
          2   -1    0    0  502    0  0.00000000000E+00  0.00000000000E+00  0.34062740774E+03  0.34062740774E+03  0.00000000000E+00 0. -1.
         -2   -1    0    0    0  501 -0.00000000000E+00 -0.00000000000E+00 -0.32128392694E+01  0.32128392694E+01  0.00000000000E+00 0.  1.
          1    1    1    2  502    0  0.29510485548E+02 -0.12361433572E+02  0.21240659545E+03  0.21480278300E+03  0.00000000000E+00 0. -1.
         -1    1    1    2    0  501 -0.29510485548E+02  0.12361433572E+02  0.12500797303E+03  0.12903746401E+03  0.00000000000E+00 0.  1.
</event>
<event>
 4    1  0.6934088E+001  0.2479934E+02  0.7546771E-02  0.1471061E+00
          2   -1    0    0  502    0  0.00000000000E+00  0.00000000000E+00  0.30350831835E+03  0.30350831835E+03  0.00000000000E+00 0. -1.
         -2   -1    0    0    0  501 -0.00000000000E+00 -0.00000000000E+00 -0.20575579206E+01  0.20575579206E+01  0.00000000000E+00 0.  1.
          1    1    1    2  502    0  0.16542926420E+02 -0.18475354975E+02  0.13190233269E+03  0.13421338430E+03  0.00000000000E+00 0. -1.
         -1    1    1    2    0  501 -0.16542926420E+02  0.18475354975E+02  0.16954842774E+03  0.17135249197E+03  0.00000000000E+00 0.  1.
</event>
<event>
 4    1  0.6934088E+001  0.2221715E+02  0.7546771E-02  0.1502570E+00
          2   -1    0    0  502    0  0.00000000000E+00  0.00000000000E+00  0.20282232835E+04  0.20282232835E+04  0.00000000000E+00 0.  1.
         -2   -1    0    0    0  501 -0.00000000000E+00 -0.00000000000E+00 -0.24387507476E+00  0.24387507476E+00  0.00000000000E+00 0. -1.
          1    1    1    2  502    0  0.10841096585E+01 -0.22190683039E+02  0.10603033973E+04  0.10605361361E+04  0.00000000000E+00 0. -1.
         -1    1    1    2    0  501 -0.10841096585E+01  0.22190683039E+02  0.96767601109E+03  0.96793102242E+03  0.00000000000E+00 0.  1.
</event>
<event>
 4    1  0.6934088E+001  0.3016082E+02  0.7546771E-02  0.1418204E+00
          2   -1    0    0  502    0  0.00000000000E+00  0.00000000000E+00  0.72781952147E+02  0.72781952147E+02  0.00000000000E+00 0.  1.
         -2   -1    0    0    0  501 -0.00000000000E+00 -0.00000000000E+00 -0.12639231176E+02  0.12639231176E+02  0.00000000000E+00 0. -1.
          1    1    1    2  502    0  0.30053190423E+02 -0.25457643414E+01  0.25566726098E+02  0.39539001682E+02  0.00000000000E+00 0.  1.
         -1    1    1    2    0  501 -0.30053190423E+02  0.25457643414E+01  0.34575994873E+02  0.45882181641E+02  0.00000000000E+00 0. -1.
</event>
<event>
 4    1  0.6934088E+001  0.2757450E+02  0.7546771E-02  0.1441921E+00
          2   -1    0    0  502    0  0.00000000000E+00  0.00000000000E+00  0.12663197101E+02  0.12663197101E+02  0.00000000000E+00 0.  1.
         -2   -1    0    0    0  501 -0.00000000000E+00 -0.00000000000E+00 -0.61293806358E+02  0.61293806358E+02  0.00000000000E+00 0. -1.
          1    1    1    2  502    0  0.26293794236E+02  0.83059902393E+01 -0.29594969543E+02  0.40450158361E+02  0.00000000000E+00 0. -1.
         -1    1    1    2    0  501 -0.26293794236E+02 -0.83059902393E+01 -0.19035639714E+02  0.33506845099E+02  0.00000000000E+00 0.  1.
</event>
<event>
 4    1  0.6934088E+001  0.2153177E+02  0.7546771E-02  0.1511806E+00
          2   -1    0    0  502    0  0.00000000000E+00  0.00000000000E+00  0.19271525435E+04  0.19271525435E+04  0.00000000000E+00 0. -1.
         -2   -1    0    0    0  501 -0.00000000000E+00 -0.00000000000E+00 -0.25591508575E+00  0.25591508575E+00  0.00000000000E+00 0.  1.
          1    1    1    2  502    0  0.15102041960E+02 -0.15347492206E+02  0.72747382582E+03  0.72779240477E+03  0.00000000000E+00 0.  1.
         -1    1    1    2    0  501 -0.15102041960E+02  0.15347492206E+02  0.11994228026E+04  0.11996160538E+04  0.00000000000E+00 0. -1.
</event>
<event>
 4    1  0.6934088E+001  0.2421491E+02  0.7546771E-02  0.1477781E+00
          2   -1    0    0  502    0  0.00000000000E+00  0.00000000000E+00  0.66170778993E+02  0.66170778993E+02  0.00000000000E+00 0. -1.
         -2   -1    0    0    0  501 -0.00000000000E+00 -0.00000000000E+00 -0.89954644224E+01  0.89954644224E+01  0.00000000000E+00 0.  1.
          1    1    1    2  502    0 -0.37789771672E+00  0.24211961063E+02  0.23998502819E+02  0.34092374555E+02  0.00000000000E+00 0. -1.
         -1    1    1    2    0  501  0.37789771672E+00 -0.24211961063E+02  0.33176811752E+02  0.41073868861E+02  0.00000000000E+00 0.  1.
</event>
<event>
 4    1  0.6934088E+001  0.2240654E+02  0.7546771E-02  0.1500088E+00
          2   -1    0    0  502    0  0.00000000000E+00  0.00000000000E+00  0.12477361955E+02  0.12477361955E+02  0.00000000000E+00 0. -1.
         -2   -1    0    0    0  501 -0.00000000000E+00 -0.00000000000E+00 -0.54233307041E+02  0.54233307041E+02  0.00000000000E+00 0.  1.
          1    1    1    2  502    0 -0.20340761101E+02  0.93971436390E+01 -0.37822810617E+02  0.43961549947E+02  0.00000000000E+00 0. -1.
         -1    1    1    2    0  501  0.20340761101E+02 -0.93971436390E+01 -0.39331344686E+01  0.22749119049E+02  0.00000000000E+00 0.  1.
</event>
<event>
 4    1  0.6934088E+001  0.2699219E+02  0.7546771E-02  0.1447687E+00
          2   -1    0    0  502    0  0.00000000000E+00  0.00000000000E+00  0.73820368041E+02  0.73820368041E+02  0.00000000000E+00 0.  1.
         -2   -1    0    0    0  501 -0.00000000000E+00 -0.00000000000E+00 -0.98776488122E+01  0.98776488122E+01  0.00000000000E+00 0. -1.
          1    1    1    2  502    0 -0.10783993560E+02  0.24744368692E+02  0.30777553842E+02  0.40936977411E+02  0.00000000000E+00 0.  1.
         -1    1    1    2    0  501  0.10783993560E+02 -0.24744368692E+02  0.33165165387E+02  0.42761039442E+02  0.00000000000E+00 0. -1.
</event>
<event>
 4    1  0.6934088E+001  0.2327906E+02  0.7546771E-02  0.1489023E+00
          2   -1    0    0  502    0  0.00000000000E+00  0.00000000000E+00  0.29624369058E+03  0.29624369058E+03  0.00000000000E+00 0. -1.
         -2   -1    0    0    0  501 -0.00000000000E+00 -0.00000000000E+00 -0.26100259063E+01  0.26100259063E+01  0.00000000000E+00 0.  1.
          1    1    1    2  502    0  0.19383573723E+02  0.12891541913E+02  0.65091043860E+02  0.69128566989E+02  0.00000000000E+00 0.  1.
         -1    1    1    2    0  501 -0.19383573723E+02 -0.12891541913E+02  0.22854262081E+03  0.22972514950E+03  0.00000000000E+00 0. -1.
</event>
<event>
 4    1  0.6934088E+001  0.2490073E+02  0.7546771E-02  0.1469917E+00
          2   -1    0    0  502    0  0.00000000000E+00  0.00000000000E+00  0.24150758932E+03  0.24150758932E+03  0.00000000000E+00 0.  1.
         -2   -1    0    0    0  501 -0.00000000000E+00 -0.00000000000E+00 -0.47551477900E+01  0.47551477900E+01  0.00000000000E+00 0. -1.
          1    1    1    2  502    0  0.19028918053E+02 -0.16060712237E+02  0.20189525849E+03  0.20342502698E+03  0.00000000000E+00 0.  1.
         -1    1    1    2    0  501 -0.19028918053E+02  0.16060712237E+02  0.34857183033E+02  0.42837710126E+02  0.00000000000E+00 0. -1.
</event>
<event>
 4    1  0.6934088E+001  0.2569533E+02  0.7546771E-02  0.1461173E+00
          2   -1    0    0  502    0  0.00000000000E+00  0.00000000000E+00  0.28934866192E+03  0.28934866192E+03  0.00000000000E+00 0.  1.
         -2   -1    0    0    0  501 -0.00000000000E+00 -0.00000000000E+00 -0.98897974629E+01  0.98897974629E+01  0.00000000000E+00 0. -1.
          1    1    1    2  502    0  0.20263401928E+02  0.15800149802E+02  0.85011411336E+01  0.27065099151E+02  0.00000000000E+00 0. -1.
         -1    1    1    2    0  501 -0.20263401928E+02 -0.15800149802E+02  0.27095772332E+03  0.27217336023E+03  0.00000000000E+00 0.  1.
</event>
<event>
 4    1  0.6934088E+001  0.2093853E+02  0.7546771E-02  0.1520144E+00
          2   -1    0    0  502    0  0.00000000000E+00  0.00000000000E+00  0.89107643989E+01  0.89107643989E+01  0.00000000000E+00 0.  1.
         -2   -1    0    0    0  501 -0.00000000000E+00 -0.00000000000E+00 -0.51719375446E+02  0.51719375446E+02  0.00000000000E+00 0. -1.
          1    1    1    2  502    0 -0.13670742062E+02  0.15859792606E+02 -0.28093232565E+02  0.35037864175E+02  0.00000000000E+00 0. -1.
         -1    1    1    2    0  501  0.13670742062E+02 -0.15859792606E+02 -0.14715378483E+02  0.25592275670E+02  0.00000000000E+00 0.  1.
</event>
<event>
 4    1  0.6934088E+001  0.2232222E+02  0.7546771E-02  0.1501189E+00
          2   -1    0    0  502    0  0.00000000000E+00  0.00000000000E+00  0.51713330750E+03  0.51713330750E+03  0.00000000000E+00 0. -1.
         -2   -1    0    0    0  501 -0.00000000000E+00 -0.00000000000E+00 -0.10161990241E+01  0.10161990241E+01  0.00000000000E+00 0.  1.
          1    1    1    2  502    0 -0.17582446685E+02  0.13752784538E+02  0.19908611542E+03  0.20033362890E+03  0.00000000000E+00 0. -1.
         -1    1    1    2    0  501  0.17582446685E+02 -0.13752784538E+02  0.31703099305E+03  0.31781587762E+03  0.00000000000E+00 0.  1.
</event>
<event>
 4    1  0.6934088E+001  0.2962035E+02  0.7546771E-02  0.1422925E+00
          2   -1    0    0  502    0  0.00000000000E+00  0.00000000000E+00  0.11681901385E+04  0.11681901385E+04  0.00000000000E+00 0.  1.
         -2   -1    0    0    0  501 -0.00000000000E+00 -0.00000000000E+00 -0.97933964587E+00  0.97933964587E+00  0.00000000000E+00 0. -1.
          1    1    1    2  502    0 -0.18709631126E+02 -0.22963333752E+02  0.86585110355E+03  0.86635760429E+03  0.00000000000E+00 0.  1.
         -1    1    1    2    0  501  0.18709631126E+02  0.22963333752E+02  0.30135969533E+03  0.30281187388E+03  0.00000000000E+00 0. -1.
</event>
<event>
 4    1  0.6934088E+001  0.2193358E+02  0.7546771E-02  0.1506342E+00
          2   -1    0    0  502    0  0.00000000000E+00  0.00000000000E+00  0.10779714366E+04  0.10779714366E+04  0.00000000000E+00 0. -1.
         -2   -1    0    0    0  501 -0.00000000000E+00 -0.00000000000E+00 -0.69465789552E+00  0.69465789552E+00  0.00000000000E+00 0.  1.
          1    1    1    2  502    0  0.90644992854E+01 -0.19972905802E+02  0.21614267805E+03  0.21725270859E+03  0.00000000000E+00 0. -1.
         -1    1    1    2    0  501 -0.90644992854E+01  0.19972905802E+02  0.86113410063E+03  0.86141338588E+03  0.00000000000E+00 0.  1.
</event>
<event>
 4    1  0.6934088E+001  0.2248623E+02  0.7546771E-02  0.1499052E+00
          2   -1    0    0  502    0  0.00000000000E+00  0.00000000000E+00  0.16197180280E+01  0.16197180280E+01  0.00000000000E+00 0. -1.
         -2   -1    0    0    0  501 -0.00000000000E+00 -0.00000000000E+00 -0.31958866287E+03  0.31958866287E+03  0.00000000000E+00 0.  1.
          1    1    1    2  502    0  0.74866666483E+01  0.21203314434E+02 -0.18345050642E+03  0.18482348072E+03  0.00000000000E+00 0.  1.
         -1    1    1    2    0  501 -0.74866666483E+01 -0.21203314434E+02 -0.13451843843E+03  0.13638490018E+03  0.00000000000E+00 0. -1.
</event>
<event>
 4    1  0.6934088E+001  0.2282879E+02  0.7546771E-02  0.1494659E+00
          2   -1    0    0  502    0  0.00000000000E+00  0.00000000000E+00  0.55737210892E+02  0.55737210892E+02  0.00000000000E+00 0. -1.
         -2   -1    0    0    0  501 -0.00000000000E+00 -0.00000000000E+00 -0.96840879012E+01  0.96840879012E+01  0.00000000000E+00 0.  1.
          1    1    1    2  502    0  0.22397940830E+02  0.44142773938E+01  0.16952689416E+02  0.28434965742E+02  0.00000000000E+00 0. -1.
         -1    1    1    2    0  501 -0.22397940830E+02 -0.44142773938E+01  0.29100433575E+02  0.36986333051E+02  0.00000000000E+00 0.  1.
</event>
<event>
 4    1  0.6934088E+001  0.3204937E+02  0.7546771E-02  0.1402585E+00
          2   -1    0    0  502    0  0.00000000000E+00  0.00000000000E+00  0.11440598922E+04  0.11440598922E+04  0.00000000000E+00 0. -1.
         -2   -1    0    0    0  501 -0.00000000000E+00 -0.00000000000E+00 -0.93576479638E+00  0.93576479638E+00  0.00000000000E+00 0.  1.
          1    1    1    2  502    0 -0.27604355713E+02  0.16283787272E+02  0.45628180267E+03  0.45740599650E+03  0.00000000000E+00 0.  1.
         -1    1    1    2    0  501  0.27604355713E+02 -0.16283787272E+02  0.68684232469E+03  0.68758966046E+03  0.00000000000E+00 0. -1.
</event>
<event>
 4    1  0.6934088E+001  0.5865338E+02  0.7546771E-02  0.1264478E+00
          2   -1    0    0  502    0  0.00000000000E+00  0.00000000000E+00  0.54654145930E+03  0.54654145930E+03  0.00000000000E+00 0.  1.
         -2   -1    0    0    0  501 -0.00000000000E+00 -0.00000000000E+00 -0.70543802416E+01  0.70543802416E+01  0.00000000000E+00 0. -1.
          1    1    1    2  502    0 -0.58613969970E+02  0.21497387657E+01  0.17889899849E+03  0.18826861266E+03  0.00000000000E+00 0. -1.
         -1    1    1    2    0  501  0.58613969970E+02 -0.21497387657E+01  0.36058808057E+03  0.36532722689E+03  0.00000000000E+00 0.  1.
</event>
<event>
 4    1  0.6934088E+001  0.2119493E+02  0.7546771E-02  0.1516500E+00
          2   -1    0    0  502    0  0.00000000000E+00  0.00000000000E+00  0.11589262023E+03  0.11589262023E+03  0.00000000000E+00 0. -1.
         -2   -1    0    0    0  501 -0.00000000000E+00 -0.00000000000E+00 -0.55664858375E+01  0.55664858375E+01  0.00000000000E+00 0.  1.
          1    1    1    2  502    0 -0.18231269044E+02 -0.10809533886E+02  0.21698350957E+02  0.30332220954E+02  0.00000000000E+00 0.  1.
         -1    1    1    2    0  501  0.18231269044E+02  0.10809533886E+02  0.88627783440E+02  0.91126885118E+02  0.00000000000E+00 0. -1.
</event>
<event>
 4    1  0.6934088E+001  0.2208452E+02  0.7546771E-02  0.1504325E+00
          2   -1    0    0  502    0  0.00000000000E+00  0.00000000000E+00  0.10706455677E+04  0.10706455677E+04  0.00000000000E+00 0. -1.
         -2   -1    0    0    0  501 -0.00000000000E+00 -0.00000000000E+00 -0.54955583702E+00  0.54955583702E+00  0.00000000000E+00 0.  1.
          1    1    1    2  502    0  0.21220904200E+02 -0.61154759880E+01  0.75657399685E+03  0.75689625348E+03  0.00000000000E+00 0. -1.
         -1    1    1    2    0  501 -0.21220904200E+02  0.61154759880E+01  0.31352201499E+03  0.31429887003E+03  0.00000000000E+00 0.  1.
</event>
<event>
 4    1  0.6934088E+001  0.3812463E+02  0.7546771E-02  0.1359840E+00
          2   -1    0    0  502    0  0.00000000000E+00  0.00000000000E+00  0.11971626411E+02  0.11971626411E+02  0.00000000000E+00 0. -1.
         -2   -1    0    0    0  501 -0.00000000000E+00 -0.00000000000E+00 -0.15327256198E+03  0.15327256198E+03  0.00000000000E+00 0.  1.
          1    1    1    2  502    0 -0.21277099765E+02  0.31634981993E+02 -0.32980299191E+02  0.50410189394E+02  0.00000000000E+00 0. -1.
         -1    1    1    2    0  501  0.21277099765E+02 -0.31634981993E+02 -0.10832063638E+03  0.11483399900E+03  0.00000000000E+00 0.  1.
</event>
<event>
 4    1  0.6934088E+001  0.2176261E+02  0.7546771E-02  0.1508649E+00
          2   -1    0    0  502    0  0.00000000000E+00  0.00000000000E+00  0.43016818864E+03  0.43016818864E+03  0.00000000000E+00 0.  1.
         -2   -1    0    0    0  501 -0.00000000000E+00 -0.00000000000E+00 -0.18560891768E+01  0.18560891768E+01  0.00000000000E+00 0. -1.
          1    1    1    2  502    0 -0.20007500434E+02  0.85622008696E+01  0.76377879321E+02  0.79417830535E+02  0.00000000000E+00 0. -1.
         -1    1    1    2    0  501  0.20007500434E+02 -0.85622008696E+01  0.35193422015E+03  0.35260644728E+03  0.00000000000E+00 0.  1.
</event>
<event>
 4    1  0.6934088E+001  0.2198717E+02  0.7546771E-02  0.1505623E+00
          2   -1    0    0  502    0  0.00000000000E+00  0.00000000000E+00  0.86015870193E+02  0.86015870193E+02  0.00000000000E+00 0.  1.
         -2   -1    0    0    0  501 -0.00000000000E+00 -0.00000000000E+00 -0.56387529569E+01  0.56387529569E+01  0.00000000000E+00 0. -1.
          1    1    1    2  502    0 -0.55369342571E+01 -0.21278583587E+02  0.42809523028E+02  0.48125783342E+02  0.00000000000E+00 0.  1.
         -1    1    1    2    0  501  0.55369342571E+01  0.21278583587E+02  0.37567594208E+02  0.43528839808E+02  0.00000000000E+00 0. -1.
</event>
<event>
 4    1  0.6934088E+001  0.2902944E+02  0.7546771E-02  0.1428222E+00
          2   -1    0    0  502    0  0.00000000000E+00  0.00000000000E+00  0.91599081369E+02  0.91599081369E+02  0.00000000000E+00 0. -1.
         -2   -1    0    0    0  501 -0.00000000000E+00 -0.00000000000E+00 -0.96645962791E+01  0.96645962791E+01  0.00000000000E+00 0.  1.
          1    1    1    2  502    0  0.21848404736E+02 -0.19114270059E+02  0.29865599649E+02  0.41649275525E+02  0.00000000000E+00 0. -1.
         -1    1    1    2    0  501 -0.21848404736E+02  0.19114270059E+02  0.52068885441E+02  0.59614402123E+02  0.00000000000E+00 0.  1.
</event>
<event>
 4    1  0.6934088E+001  0.5637406E+02  0.7546771E-02  0.1272676E+00
          2   -1    0    0  502    0  0.00000000000E+00  0.00000000000E+00  0.21966279901E+04  0.21966279901E+04  0.00000000000E+00 0.  1.
         -2   -1    0    0    0  501 -0.00000000000E+00 -0.00000000000E+00 -0.21025652533E+01  0.21025652533E+01  0.00000000000E+00 0. -1.
          1    1    1    2  502    0  0.52612132404E+02  0.20248401704E+02  0.17112347319E+04  0.17121630594E+04  0.00000000000E+00 0.  1.
         -1    1    1    2    0  501 -0.52612132404E+02 -0.20248401704E+02  0.48329069291E+03  0.48656749594E+03  0.00000000000E+00 0. -1.
</event>
<event>
 4    1  0.6934088E+001  0.4178047E+02  0.7546771E-02  0.1338357E+00
          2   -1    0    0  502    0  0.00000000000E+00  0.00000000000E+00  0.14498836435E+04  0.14498836435E+04  0.00000000000E+00 0.  1.
         -2   -1    0    0    0  501 -0.00000000000E+00 -0.00000000000E+00 -0.12119089621E+01  0.12119089621E+01  0.00000000000E+00 0. -1.
          1    1    1    2  502    0  0.45430029645E+01 -0.41532745830E+02  0.78308132199E+03  0.78419510627E+03  0.00000000000E+00 0.  1.
         -1    1    1    2    0  501 -0.45430029645E+01  0.41532745830E+02  0.66559041251E+03  0.66690044615E+03  0.00000000000E+00 0. -1.
</event>
<event>
 4    1  0.6934088E+001  0.2305833E+02  0.7546771E-02  0.1491767E+00
          2   -1    0    0  502    0  0.00000000000E+00  0.00000000000E+00  0.24107808162E+04  0.24107808162E+04  0.00000000000E+00 0.  1.
         -2   -1    0    0    0  501 -0.00000000000E+00 -0.00000000000E+00 -0.24565955472E+00  0.24565955472E+00  0.00000000000E+00 0. -1.
          1    1    1    2  502    0 -0.21962797285E+02 -0.70229839436E+01  0.15907138981E+04  0.15908810114E+04  0.00000000000E+00 0. -1.
         -1    1    1    2    0  501  0.21962797285E+02  0.70229839436E+01  0.81982125860E+03  0.82014546443E+03  0.00000000000E+00 0.  1.
</event>
<event>
 4    1  0.6934088E+001  0.3810887E+02  0.7546771E-02  0.1359939E+00
          2   -1    0    0  502    0  0.00000000000E+00  0.00000000000E+00  0.50629118296E+02  0.50629118296E+02  0.00000000000E+00 0. -1.
         -2   -1    0    0    0  501 -0.00000000000E+00 -0.00000000000E+00 -0.29390379587E+02  0.29390379587E+02  0.00000000000E+00 0.  1.
          1    1    1    2  502    0  0.20476275829E+02  0.32140446747E+02  0.44201659034E+01  0.38364359183E+02  0.00000000000E+00 0. -1.
         -1    1    1    2    0  501 -0.20476275829E+02 -0.32140446747E+02  0.16818572806E+02  0.41655138700E+02  0.00000000000E+00 0.  1.
</event>
<event>
 4    1  0.6934088E+001  0.3442380E+02  0.7546771E-02  0.1384660E+00
          2   -1    0    0  502    0  0.00000000000E+00  0.00000000000E+00  0.39263286152E+02  0.39263286152E+02  0.00000000000E+00 0. -1.
         -2   -1    0    0    0  501 -0.00000000000E+00 -0.00000000000E+00 -0.41220013104E+02  0.41220013104E+02  0.00000000000E+00 0.  1.
          1    1    1    2  502    0 -0.29550804986E+02 -0.17656376148E+02 -0.21803632354E+02  0.40747957959E+02  0.00000000000E+00 0.  1.
         -1    1    1    2    0  501  0.29550804986E+02  0.17656376148E+02  0.19846905401E+02  0.39735341297E+02  0.00000000000E+00 0. -1.
</event>
<event>
 4    1  0.6934088E+001  0.5322745E+02  0.7546771E-02  0.1284755E+00
          2   -1    0    0  502    0  0.00000000000E+00  0.00000000000E+00  0.20439588432E+03  0.20439588432E+03  0.00000000000E+00 0.  1.
         -2   -1    0    0    0  501 -0.00000000000E+00 -0.00000000000E+00 -0.20248110054E+02  0.20248110054E+02  0.00000000000E+00 0. -1.
          1    1    1    2  502    0 -0.38862194179E+02  0.36371577195E+02  0.15515795813E+03  0.16403400177E+03  0.00000000000E+00 0. -1.
         -1    1    1    2    0  501  0.38862194179E+02 -0.36371577195E+02  0.28989816132E+02  0.60609992604E+02  0.00000000000E+00 0.  1.
</event>
<event>
 4    1  0.6934088E+001  0.2365025E+02  0.7546771E-02  0.1484490E+00
          2   -1    0    0  502    0  0.00000000000E+00  0.00000000000E+00  0.10583784565E+02  0.10583784565E+02  0.00000000000E+00 0. -1.
         -2   -1    0    0    0  501 -0.00000000000E+00 -0.00000000000E+00 -0.77647090545E+02  0.77647090545E+02  0.00000000000E+00 0.  1.
          1    1    1    2  502    0  0.18714538666E+02 -0.14460308341E+02 -0.58462882703E+02  0.63065387724E+02  0.00000000000E+00 0.  1.
         -1    1    1    2    0  501 -0.18714538666E+02  0.14460308341E+02 -0.86004232765E+01  0.25165487385E+02  0.00000000000E+00 0. -1.
</event>
<event>
 4    1  0.6934088E+001  0.2242602E+02  0.7546771E-02  0.1499834E+00
          2   -1    0    0  502    0  0.00000000000E+00  0.00000000000E+00  0.16804784342E+02  0.16804784342E+02  0.00000000000E+00 0.  1.
         -2   -1    0    0    0  501 -0.00000000000E+00 -0.00000000000E+00 -0.31304029532E+02  0.31304029532E+02  0.00000000000E+00 0. -1.
          1    1    1    2  502    0  0.56405332434E+01  0.21705082934E+02 -0.12293649274E+02  0.25574597806E+02  0.00000000000E+00 0. -1.
         -1    1    1    2    0  501 -0.56405332434E+01 -0.21705082934E+02 -0.22055959163E+01  0.22534216068E+02  0.00000000000E+00 0.  1.
</event>
<event>
 4    1  0.6934088E+001  0.4480302E+02  0.7546771E-02  0.1322427E+00
          2   -1    0    0  502    0  0.00000000000E+00  0.00000000000E+00  0.19157457581E+03  0.19157457581E+03  0.00000000000E+00 0. -1.
         -2   -1    0    0    0  501 -0.00000000000E+00 -0.00000000000E+00 -0.25469379253E+02  0.25469379253E+02  0.00000000000E+00 0.  1.
          1    1    1    2  502    0 -0.43516766990E+02 -0.10658407961E+02 -0.20615421030E+00  0.44803495055E+02  0.00000000000E+00 0.  1.
         -1    1    1    2    0  501  0.43516766990E+02  0.10658407961E+02  0.16631135077E+03  0.17224046001E+03  0.00000000000E+00 0. -1.
</event>
<event>
 4    1  0.6934088E+001  0.1057097E+03  0.7546771E-02  0.1154265E+00
          2   -1    0    0  502    0  0.00000000000E+00  0.00000000000E+00  0.33680097267E+04  0.33680097267E+04  0.00000000000E+00 0.  1.
         -2   -1    0    0    0  501 -0.00000000000E+00 -0.00000000000E+00 -0.10719620048E+02  0.10719620048E+02  0.00000000000E+00 0. -1.
          1    1    1    2  502    0  0.45817489828E+02 -0.95264400044E+02  0.30824330700E+04  0.30842451555E+04  0.00000000000E+00 0.  1.
         -1    1    1    2    0  501 -0.45817489828E+02  0.95264400044E+02  0.27485703666E+03  0.29448419124E+03  0.00000000000E+00 0. -1.
</event>
<event>
 4    1  0.6934088E+001  0.2451281E+02  0.7546771E-02  0.1474328E+00
          2   -1    0    0  502    0  0.00000000000E+00  0.00000000000E+00  0.20413177380E+02  0.20413177380E+02  0.00000000000E+00 0. -1.
         -2   -1    0    0    0  501 -0.00000000000E+00 -0.00000000000E+00 -0.39290928007E+02  0.39290928007E+02  0.00000000000E+00 0.  1.
          1    1    1    2  502    0 -0.13222114167E+02  0.20641061369E+02 -0.24389513079E+02  0.34579272198E+02  0.00000000000E+00 0.  1.
         -1    1    1    2    0  501  0.13222114167E+02 -0.20641061369E+02  0.55117624519E+01  0.25124833190E+02  0.00000000000E+00 0. -1.
</event>
<event>
 4    1  0.6934088E+001  0.3104289E+02  0.7546771E-02  0.1410745E+00
          2   -1    0    0  502    0  0.00000000000E+00  0.00000000000E+00  0.90581499720E+01  0.90581499720E+01  0.00000000000E+00 0. -1.
         -2   -1    0    0    0  501 -0.00000000000E+00 -0.00000000000E+00 -0.11664418893E+03  0.11664418893E+03  0.00000000000E+00 0.  1.
          1    1    1    2  502    0  0.30599524500E+02  0.52278380320E+01 -0.72431700490E+02  0.78803632061E+02  0.00000000000E+00 0. -1.
         -1    1    1    2    0  501 -0.30599524500E+02 -0.52278380320E+01 -0.35154338463E+02  0.46898706836E+02  0.00000000000E+00 0.  1.
</event>
<event>
 4    1  0.6934088E+001  0.3325769E+02  0.7546771E-02  0.1393244E+00
          2   -1    0    0  502    0  0.00000000000E+00  0.00000000000E+00  0.16729638759E+03  0.16729638759E+03  0.00000000000E+00 0. -1.
         -2   -1    0    0    0  501 -0.00000000000E+00 -0.00000000000E+00 -0.69244411921E+01  0.69244411921E+01  0.00000000000E+00 0.  1.
          1    1    1    2  502    0  0.30642688671E+02 -0.12926700148E+02  0.98705695329E+02  0.10415799651E+03  0.00000000000E+00 0. -1.
         -1    1    1    2    0  501 -0.30642688671E+02  0.12926700148E+02  0.61666251068E+02  0.70062832276E+02  0.00000000000E+00 0.  1.
</event>
<event>
 4    1  0.6934088E+001  0.2049307E+02  0.7546771E-02  0.1526627E+00
          2   -1    0    0  502    0  0.00000000000E+00  0.00000000000E+00  0.41931283870E+01  0.41931283870E+01  0.00000000000E+00 0. -1.
         -2   -1    0    0    0  501 -0.00000000000E+00 -0.00000000000E+00 -0.10230339069E+03  0.10230339069E+03  0.00000000000E+00 0.  1.
          1    1    1    2  502    0 -0.17106263379E+02 -0.11284569761E+02 -0.41339970039E+02  0.46140642435E+02  0.00000000000E+00 0. -1.
         -1    1    1    2    0  501  0.17106263379E+02  0.11284569761E+02 -0.56770292262E+02  0.60355876640E+02  0.00000000000E+00 0.  1.
</event>
<event>
 4    1  0.6934088E+001  0.2459628E+02  0.7546771E-02  0.1473371E+00
          2   -1    0    0  502    0  0.00000000000E+00  0.00000000000E+00  0.64224713076E+03  0.64224713076E+03  0.00000000000E+00 0. -1.
         -2   -1    0    0    0  501 -0.00000000000E+00 -0.00000000000E+00 -0.12257211119E+01  0.12257211119E+01  0.00000000000E+00 0.  1.
          1    1    1    2  502    0 -0.75816245989E+01 -0.23398629576E+02  0.47531176799E+03  0.47594774260E+03  0.00000000000E+00 0. -1.
         -1    1    1    2    0  501  0.75816245989E+01  0.23398629576E+02  0.16570964165E+03  0.16752510927E+03  0.00000000000E+00 0.  1.
</event>
<event>
 4    1  0.6934088E+001  0.3983666E+02  0.7546771E-02  0.1349446E+00
          2   -1    0    0  502    0  0.00000000000E+00  0.00000000000E+00  0.21163148556E+02  0.21163148556E+02  0.00000000000E+00 0. -1.
         -2   -1    0    0    0  501 -0.00000000000E+00 -0.00000000000E+00 -0.47584764929E+03  0.47584764929E+03  0.00000000000E+00 0.  1.
          1    1    1    2  502    0 -0.10602801464E+02  0.38399738565E+02  0.74374528603E+00  0.39843600211E+02  0.00000000000E+00 0. -1.
         -1    1    1    2    0  501  0.10602801464E+02 -0.38399738565E+02 -0.45542824601E+03  0.45716719763E+03  0.00000000000E+00 0.  1.
</event>
<event>
 4    1  0.6934088E+001  0.2197493E+02  0.7546771E-02  0.1505787E+00
          2   -1    0    0  502    0  0.00000000000E+00  0.00000000000E+00  0.55408329868E+01  0.55408329868E+01  0.00000000000E+00 0.  1.
         -2   -1    0    0    0  501 -0.00000000000E+00 -0.00000000000E+00 -0.87170328453E+02  0.87170328453E+02  0.00000000000E+00 0. -1.
          1    1    1    2  502    0 -0.49971131265E+01 -0.21399219176E+02 -0.40152727498E+02  0.45772691055E+02  0.00000000000E+00 0.  1.
         -1    1    1    2    0  501  0.49971131265E+01  0.21399219176E+02 -0.41476767968E+02  0.46938470384E+02  0.00000000000E+00 0. -1.
</event>
<event>
 4    1  0.6934088E+001  0.2018865E+02  0.7546771E-02  0.1531171E+00
          2   -1    0    0  502    0  0.00000000000E+00  0.00000000000E+00  0.37598383027E+01  0.37598383027E+01  0.00000000000E+00 0. -1.
         -2   -1    0    0    0  501 -0.00000000000E+00 -0.00000000000E+00 -0.26649967767E+03  0.26649967767E+03  0.00000000000E+00 0.  1.
          1    1    1    2  502    0 -0.53771410708E+01 -0.19459388347E+02 -0.23544881617E+03  0.23631277256E+03  0.00000000000E+00 0.  1.
         -1    1    1    2    0  501  0.53771410708E+01  0.19459388347E+02 -0.27291023200E+02  0.33946743411E+02  0.00000000000E+00 0. -1.
</event>
<event>
 4    1  0.6934088E+001  0.3080409E+02  0.7546771E-02  0.1412735E+00
          2   -1    0    0  502    0  0.00000000000E+00  0.00000000000E+00  0.72717850876E+02  0.72717850876E+02  0.00000000000E+00 0.  1.
         -2   -1    0    0    0  501 -0.00000000000E+00 -0.00000000000E+00 -0.13049045978E+02  0.13049045978E+02  0.00000000000E+00 0. -1.
          1    1    1    2  502    0 -0.72663052598E+01  0.29934813400E+02  0.29945197357E+02  0.42960529445E+02  0.00000000000E+00 0. -1.
         -1    1    1    2    0  501  0.72663052598E+01 -0.29934813400E+02  0.29723607542E+02  0.42806367409E+02  0.00000000000E+00 0.  1.
</event>
<event>
 4    1  0.6934088E+001  0.2091123E+02  0.7546771E-02  0.1520536E+00
          2   -1    0    0  502    0  0.00000000000E+00  0.00000000000E+00  0.34672830429E+01  0.34672830429E+01  0.00000000000E+00 0.  1.
         -2   -1    0    0    0  501 -0.00000000000E+00 -0.00000000000E+00 -0.18072432767E+03  0.18072432767E+03  0.00000000000E+00 0. -1.
          1    1    1    2  502    0 -0.19746303263E+02  0.68820862013E+01 -0.38003959733E+02  0.43377189379E+02  0.00000000000E+00 0.  1.
         -1    1    1    2    0  501  0.19746303263E+02 -0.68820862013E+01 -0.13925308489E+03  0.14081442133E+03  0.00000000000E+00 0. -1.
</event>
<event>
 4    1  0.6934088E+001  0.2243682E+02  0.7546771E-02  0.1499694E+00
          2   -1    0    0  502    0  0.00000000000E+00  0.00000000000E+00  0.68361276905E+03  0.68361276905E+03  0.00000000000E+00 0.  1.
         -2   -1    0    0    0  501 -0.00000000000E+00 -0.00000000000E+00 -0.73640387995E+00  0.73640387995E+00  0.00000000000E+00 0. -1.
          1    1    1    2  502    0 -0.21684033167E+02 -0.57631235871E+01  0.34044893853E+03  0.34118747140E+03  0.00000000000E+00 0.  1.
         -1    1    1    2    0  501  0.21684033167E+02  0.57631235871E+01  0.34242742664E+03  0.34316170154E+03  0.00000000000E+00 0. -1.
</event>
<event>
 4    1  0.6934088E+001  0.2102686E+02  0.7546771E-02  0.1518882E+00
          2   -1    0    0  502    0  0.00000000000E+00  0.00000000000E+00  0.16037740086E+04  0.16037740086E+04  0.00000000000E+00 0.  1.
         -2   -1    0    0    0  501 -0.00000000000E+00 -0.00000000000E+00 -0.35188494587E+00  0.35188494587E+00  0.00000000000E+00 0. -1.
          1    1    1    2  502    0  0.12596193160E+02 -0.16836412628E+02  0.42846186378E+03  0.42897750243E+03  0.00000000000E+00 0. -1.
         -1    1    1    2    0  501 -0.12596193160E+02  0.16836412628E+02  0.11749602599E+04  0.11751483911E+04  0.00000000000E+00 0.  1.
</event>
<event>
 4    1  0.6934088E+001  0.4722000E+02  0.7546771E-02  0.1310697E+00
          2   -1    0    0  502    0  0.00000000000E+00  0.00000000000E+00  0.13792348362E+04  0.13792348362E+04  0.00000000000E+00 0.  1.
         -2   -1    0    0    0  501 -0.00000000000E+00 -0.00000000000E+00 -0.16321318933E+01  0.16321318933E+01  0.00000000000E+00 0. -1.
          1    1    1    2  502    0 -0.44892668614E+02 -0.14641623254E+02  0.62153934409E+03  0.62333047822E+03  0.00000000000E+00 0.  1.
         -1    1    1    2    0  501  0.44892668614E+02  0.14641623254E+02  0.75606336026E+03  0.75753648991E+03  0.00000000000E+00 0. -1.
</event>
<event>
 4    1  0.6934088E+001  0.2123566E+02  0.7546771E-02  0.1515927E+00
          2   -1    0    0  502    0  0.00000000000E+00  0.00000000000E+00  0.10153188634E+02  0.10153188634E+02  0.00000000000E+00 0. -1.
         -2   -1    0    0    0  501 -0.00000000000E+00 -0.00000000000E+00 -0.86901481768E+02  0.86901481768E+02  0.00000000000E+00 0.  1.
          1    1    1    2  502    0 -0.59697259815E+01  0.20379296212E+02 -0.72305290737E+02  0.75359195928E+02  0.00000000000E+00 0.  1.
         -1    1    1    2    0  501  0.59697259815E+01 -0.20379296212E+02 -0.44430023965E+01  0.21695474474E+02  0.00000000000E+00 0. -1.
</event>
<event>
 4    1  0.6934088E+001  0.3643047E+02  0.7546771E-02  0.1370776E+00
          2   -1    0    0  502    0  0.00000000000E+00  0.00000000000E+00  0.30121971778E+03  0.30121971778E+03  0.00000000000E+00 0.  1.
         -2   -1    0    0    0  501 -0.00000000000E+00 -0.00000000000E+00 -0.56706562115E+01  0.56706562115E+01  0.00000000000E+00 0. -1.
          1    1    1    2  502    0 -0.27304612276E+02  0.24117158778E+02  0.75310926421E+02  0.83659517316E+02  0.00000000000E+00 0. -1.
         -1    1    1    2    0  501  0.27304612276E+02 -0.24117158778E+02  0.22023813514E+03  0.22323085667E+03  0.00000000000E+00 0.  1.
</event>
<event>
 4    1  0.6934088E+001  0.2623841E+02  0.7546771E-02  0.1455412E+00
          2   -1    0    0  502    0  0.00000000000E+00  0.00000000000E+00  0.15539431829E+04  0.15539431829E+04  0.00000000000E+00 0. -1.
         -2   -1    0    0    0  501 -0.00000000000E+00 -0.00000000000E+00 -0.46697930201E+00  0.46697930201E+00  0.00000000000E+00 0.  1.
          1    1    1    2  502    0  0.25839658521E+02 -0.45570056804E+01  0.60075531457E+03  0.60132803214E+03  0.00000000000E+00 0. -1.
         -1    1    1    2    0  501 -0.25839658521E+02  0.45570056804E+01  0.95272088906E+03  0.95308213010E+03  0.00000000000E+00 0.  1.
</event>
<event>
 4    1  0.6934088E+001  0.2177902E+02  0.7546771E-02  0.1508427E+00
          2   -1    0    0  502    0  0.00000000000E+00  0.00000000000E+00  0.43715788433E+03  0.43715788433E+03  0.00000000000E+00 0.  1.
         -2   -1    0    0    0  501 -0.00000000000E+00 -0.00000000000E+00 -0.10930935913E+01  0.10930935913E+01  0.00000000000E+00 0. -1.
          1    1    1    2  502    0 -0.21669455298E+02 -0.21818682195E+01  0.23686232675E+03  0.23786148842E+03  0.00000000000E+00 0. -1.
         -1    1    1    2    0  501  0.21669455298E+02  0.21818682195E+01  0.19920246398E+03  0.20038948949E+03  0.00000000000E+00 0.  1.
</event>
<event>
 4    1  0.6934088E+001  0.2155085E+02  0.7546771E-02  0.1511543E+00
          2   -1    0    0  502    0  0.00000000000E+00  0.00000000000E+00  0.11051853179E+04  0.11051853179E+04  0.00000000000E+00 0.  1.
         -2   -1    0    0    0  501 -0.00000000000E+00 -0.00000000000E+00 -0.42645916392E+00  0.42645916392E+00  0.00000000000E+00 0. -1.
          1    1    1    2  502    0  0.19358473366E+02  0.94704197955E+01  0.61915504947E+03  0.61952999493E+03  0.00000000000E+00 0. -1.
         -1    1    1    2    0  501 -0.19358473366E+02 -0.94704197955E+01  0.48560380929E+03  0.48608178215E+03  0.00000000000E+00 0.  1.
</event>
<event>
 4    1  0.6934088E+001  0.2215626E+02  0.7546771E-02  0.1503374E+00
          2   -1    0    0  502    0  0.00000000000E+00  0.00000000000E+00  0.49902203658E+03  0.49902203658E+03  0.00000000000E+00 0. -1.
         -2   -1    0    0    0  501 -0.00000000000E+00 -0.00000000000E+00 -0.11777937525E+01  0.11777937525E+01  0.00000000000E+00 0.  1.
          1    1    1    2  502    0  0.84946283483E+01 -0.20463170485E+02  0.35044352558E+03  0.35114322531E+03  0.00000000000E+00 0. -1.
         -1    1    1    2    0  501 -0.84946283483E+01  0.20463170485E+02  0.14740071724E+03  0.14905660502E+03  0.00000000000E+00 0.  1.
</event>
<event>
 4    1  0.6934088E+001  0.3534418E+02  0.7546771E-02  0.1378160E+00
          2   -1    0    0  502    0  0.00000000000E+00  0.00000000000E+00  0.28301348461E+01  0.28301348461E+01  0.00000000000E+00 0.  1.
         -2   -1    0    0    0  501 -0.00000000000E+00 -0.00000000000E+00 -0.66534662558E+03  0.66534662558E+03  0.00000000000E+00 0. -1.
          1    1    1    2  502    0  0.15288812135E+02 -0.31866329522E+02 -0.13743165821E+03  0.14190373996E+03  0.00000000000E+00 0.  1.
         -1    1    1    2    0  501 -0.15288812135E+02  0.31866329522E+02 -0.52508483252E+03  0.52627302047E+03  0.00000000000E+00 0. -1.
</event>
<event>
 4    1  0.6934088E+001  0.2246088E+02  0.7546771E-02  0.1499381E+00
          2   -1    0    0  502    0  0.00000000000E+00  0.00000000000E+00  0.91626689256E+03  0.91626689256E+03  0.00000000000E+00 0. -1.
         -2   -1    0    0    0  501 -0.00000000000E+00 -0.00000000000E+00 -0.57141023309E+00  0.57141023309E+00  0.00000000000E+00 0.  1.
          1    1    1    2  502    0 -0.11224888604E+02  0.19454897803E+02  0.37035168867E+03  0.37103216097E+03  0.00000000000E+00 0.  1.
         -1    1    1    2    0  501  0.11224888604E+02 -0.19454897803E+02  0.54534379365E+03  0.54580614182E+03  0.00000000000E+00 0. -1.
</event>
<event>
 4    1  0.6934088E+001  0.3659348E+02  0.7546771E-02  0.1369694E+00
          2   -1    0    0  502    0  0.00000000000E+00  0.00000000000E+00  0.74359174412E+02  0.74359174412E+02  0.00000000000E+00 0.  1.
         -2   -1    0    0    0  501 -0.00000000000E+00 -0.00000000000E+00 -0.19318095156E+02  0.19318095156E+02  0.00000000000E+00 0. -1.
          1    1    1    2  502    0 -0.26634529920E+02 -0.25093511304E+02  0.15324372086E+02  0.39672646413E+02  0.00000000000E+00 0. -1.
         -1    1    1    2    0  501  0.26634529920E+02  0.25093511304E+02  0.39716707170E+02  0.54004623155E+02  0.00000000000E+00 0.  1.
</event>
<event>
 4    1  0.6934088E+001  0.2222752E+02  0.7546771E-02  0.1502433E+00
          2   -1    0    0  502    0  0.00000000000E+00  0.00000000000E+00  0.31197837829E+03  0.31197837829E+03  0.00000000000E+00 0. -1.
         -2   -1    0    0    0  501 -0.00000000000E+00 -0.00000000000E+00 -0.31728587745E+01  0.31728587745E+01  0.00000000000E+00 0.  1.
          1    1    1    2  502    0  0.18535449591E+02  0.12267827303E+02  0.26592334451E+03  0.26685068415E+03  0.00000000000E+00 0. -1.
         -1    1    1    2    0  501 -0.18535449591E+02 -0.12267827303E+02  0.42882175011E+02  0.48300552916E+02  0.00000000000E+00 0.  1.
</event>
<event>
 4    1  0.6934088E+001  0.7725881E+02  0.7546771E-02  0.1210358E+00
          2   -1    0    0  502    0  0.00000000000E+00  0.00000000000E+00  0.21710359088E+03  0.21710359088E+03  0.00000000000E+00 0. -1.
         -2   -1    0    0    0  501 -0.00000000000E+00 -0.00000000000E+00 -0.38782102621E+02  0.38782102621E+02  0.00000000000E+00 0.  1.
          1    1    1    2  502    0  0.40593071746E+02 -0.65735271444E+02  0.20133317344E+02  0.79839049674E+02  0.00000000000E+00 0.  1.
         -1    1    1    2    0  501 -0.40593071746E+02  0.65735271444E+02  0.15818817092E+03  0.17604664383E+03  0.00000000000E+00 0. -1.
</event>
<event>
 4    1  0.6934088E+001  0.4281115E+02  0.7546771E-02  0.1332756E+00
          2   -1    0    0  502    0  0.00000000000E+00  0.00000000000E+00  0.16905745933E+02  0.16905745933E+02  0.00000000000E+00 0. -1.
         -2   -1    0    0    0  501 -0.00000000000E+00 -0.00000000000E+00 -0.11924102361E+03  0.11924102361E+03  0.00000000000E+00 0.  1.
          1    1    1    2  502    0 -0.26988026089E+02  0.33233130163E+02 -0.71681563297E+02  0.83492760221E+02  0.00000000000E+00 0.  1.
         -1    1    1    2    0  501  0.26988026089E+02 -0.33233130163E+02 -0.30653714383E+02  0.52654009326E+02  0.00000000000E+00 0. -1.
</event>
<event>
 4    1  0.6934088E+001  0.3121030E+02  0.7546771E-02  0.1409363E+00
          2   -1    0    0  502    0  0.00000000000E+00  0.00000000000E+00  0.75865487422E+01  0.75865487422E+01  0.00000000000E+00 0. -1.
         -2   -1    0    0    0  501 -0.00000000000E+00 -0.00000000000E+00 -0.37566024097E+03  0.37566024097E+03  0.00000000000E+00 0.  1.
          1    1    1    2  502    0  0.23982118828E+02 -0.19973505732E+02 -0.28572244138E+02  0.42313781323E+02  0.00000000000E+00 0. -1.
         -1    1    1    2    0  501 -0.23982118828E+02  0.19973505732E+02 -0.33950144809E+03  0.34093300839E+03  0.00000000000E+00 0.  1.
</event>
<event>
 4    1  0.6934088E+001  0.3396647E+02  0.7546771E-02  0.1387978E+00
          2   -1    0    0  502    0  0.00000000000E+00  0.00000000000E+00  0.69534210777E+01  0.69534210777E+01  0.00000000000E+00 0. -1.
         -2   -1    0    0    0  501 -0.00000000000E+00 -0.00000000000E+00 -0.17351613830E+03  0.17351613830E+03  0.00000000000E+00 0.  1.
          1    1    1    2  502    0  0.36488831126E+01  0.33769911166E+02 -0.64403145163E+02  0.72811306505E+02  0.00000000000E+00 0. -1.
         -1    1    1    2    0  501 -0.36488831126E+01 -0.33769911166E+02 -0.10215957206E+03  0.10765825287E+03  0.00000000000E+00 0.  1.
</event>
<event>
 4    1  0.6934088E+001  0.3480037E+02  0.7546771E-02  0.1381972E+00
          2   -1    0    0  502    0  0.00000000000E+00  0.00000000000E+00  0.17229007216E+03  0.17229007216E+03  0.00000000000E+00 0.  1.
         -2   -1    0    0    0  501 -0.00000000000E+00 -0.00000000000E+00 -0.10710903827E+02  0.10710903827E+02  0.00000000000E+00 0. -1.
          1    1    1    2  502    0  0.21393132340E+02  0.27448124488E+02  0.27144082408E+02  0.44134644657E+02  0.00000000000E+00 0. -1.
         -1    1    1    2    0  501 -0.21393132340E+02 -0.27448124488E+02  0.13443508593E+03  0.13886633133E+03  0.00000000000E+00 0.  1.
</event>
<event>
 4    1  0.6934088E+001  0.2031196E+02  0.7546771E-02  0.1529319E+00
          2   -1    0    0  502    0  0.00000000000E+00  0.00000000000E+00  0.10663230169E+02  0.10663230169E+02  0.00000000000E+00 0. -1.
         -2   -1    0    0    0  501 -0.00000000000E+00 -0.00000000000E+00 -0.79899407564E+02  0.79899407564E+02  0.00000000000E+00 0.  1.
          1    1    1    2  502    0  0.11053890477E+01  0.20281856978E+02 -0.67137145925E+02  0.70142511863E+02  0.00000000000E+00 0.  1.
         -1    1    1    2    0  501 -0.11053890477E+01 -0.20281856978E+02 -0.20990314694E+01  0.20420125870E+02  0.00000000000E+00 0. -1.
</event>
<event>
 4    1  0.6934088E+001  0.2140247E+02  0.7546771E-02  0.1513595E+00
          2   -1    0    0  502    0  0.00000000000E+00  0.00000000000E+00  0.15719146213E+03  0.15719146213E+03  0.00000000000E+00 0. -1.
         -2   -1    0    0    0  501 -0.00000000000E+00 -0.00000000000E+00 -0.29225693057E+01  0.29225693057E+01  0.00000000000E+00 0.  1.
          1    1    1    2  502    0 -0.15536584765E+02 -0.14720067104E+02  0.81453459912E+02  0.84218358885E+02  0.00000000000E+00 0.  1.
         -1    1    1    2    0  501  0.15536584765E+02  0.14720067104E+02  0.72815432914E+02  0.75895672552E+02  0.00000000000E+00 0. -1.
</event>
<event>
 4    1  0.6934088E+001  0.2149571E+02  0.7546771E-02  0.1512304E+00
          2   -1    0    0  502    0  0.00000000000E+00  0.00000000000E+00  0.11259325202E+04  0.11259325202E+04  0.00000000000E+00 0. -1.
         -2   -1    0    0    0  501 -0.00000000000E+00 -0.00000000000E+00 -0.43446196572E+00  0.43446196572E+00  0.00000000000E+00 0.  1.
          1    1    1    2  502    0  0.14569237598E+02 -0.15805156542E+02  0.69532847252E+03  0.69566065747E+03  0.00000000000E+00 0. -1.
         -1    1    1    2    0  501 -0.14569237598E+02  0.15805156542E+02  0.43016958572E+03  0.43070632470E+03  0.00000000000E+00 0.  1.
</event>
<event>
 4    1  0.6934088E+001  0.2874988E+02  0.7546771E-02  0.1430780E+00
          2   -1    0    0  502    0  0.00000000000E+00  0.00000000000E+00  0.17965941489E+03  0.17965941489E+03  0.00000000000E+00 0. -1.
         -2   -1    0    0    0  501 -0.00000000000E+00 -0.00000000000E+00 -0.52836137384E+01  0.52836137384E+01  0.00000000000E+00 0.  1.
          1    1    1    2  502    0  0.24839408422E+02  0.14476162704E+02  0.12043331011E+03  0.12381735614E+03  0.00000000000E+00 0. -1.
         -1    1    1    2    0  501 -0.24839408422E+02 -0.14476162704E+02  0.53942491038E+02  0.61125672485E+02  0.00000000000E+00 0.  1.
</event>
<event>
 4    1  0.6934088E+001  0.2282305E+02  0.7546771E-02  0.1494732E+00
          2   -1    0    0  502    0  0.00000000000E+00  0.00000000000E+00  0.40295181458E+03  0.40295181458E+03  0.00000000000E+00 0. -1.
         -2   -1    0    0    0  501 -0.00000000000E+00 -0.00000000000E+00 -0.23367679934E+01  0.23367679934E+01  0.00000000000E+00 0.  1.
          1    1    1    2  502    0 -0.13456417838E+02  0.18434104905E+02  0.64853084501E+02  0.68751828878E+02  0.00000000000E+00 0.  1.
         -1    1    1    2    0  501  0.13456417838E+02 -0.18434104905E+02  0.33576196209E+03  0.33653675370E+03  0.00000000000E+00 0. -1.
</event>
<event>
 4    1  0.6934088E+001  0.2071899E+02  0.7546771E-02  0.1523315E+00
          2   -1    0    0  502    0  0.00000000000E+00  0.00000000000E+00  0.65528211632E+03  0.65528211632E+03  0.00000000000E+00 0.  1.
         -2   -1    0    0    0  501 -0.00000000000E+00 -0.00000000000E+00 -0.14398801338E+01  0.14398801338E+01  0.00000000000E+00 0. -1.
          1    1    1    2  502    0 -0.19497150345E+02  0.70098250344E+01  0.56933745769E+03  0.56971432950E+03  0.00000000000E+00 0.  1.
         -1    1    1    2    0  501  0.19497150345E+02 -0.70098250344E+01  0.84504778504E+02  0.87007666953E+02  0.00000000000E+00 0. -1.
</event>
<event>
 4    1  0.6934088E+001  0.2138260E+02  0.7546771E-02  0.1513872E+00
          2   -1    0    0  502    0  0.00000000000E+00  0.00000000000E+00  0.85194438385E+02  0.85194438385E+02  0.00000000000E+00 0.  1.
         -2   -1    0    0    0  501 -0.00000000000E+00 -0.00000000000E+00 -0.54111643498E+01  0.54111643498E+01  0.00000000000E+00 0. -1.
          1    1    1    2  502    0 -0.11742181828E+02  0.17869993865E+02  0.35786373570E+02  0.41687888506E+02  0.00000000000E+00 0.  1.
         -1    1    1    2    0  501  0.11742181828E+02 -0.17869993865E+02  0.43996900466E+02  0.48917714229E+02  0.00000000000E+00 0. -1.
</event>
<event>
 4    1  0.6934088E+001  0.2407508E+02  0.7546771E-02  0.1479422E+00
          2   -1    0    0  502    0  0.00000000000E+00  0.00000000000E+00  0.12138667847E+02  0.12138667847E+02  0.00000000000E+00 0. -1.
         -2   -1    0    0    0  501 -0.00000000000E+00 -0.00000000000E+00 -0.48167987499E+02  0.48167987499E+02  0.00000000000E+00 0.  1.
          1    1    1    2  502    0  0.84178073057E+01  0.22555491337E+02 -0.20826811037E+02  0.31833405839E+02  0.00000000000E+00 0.  1.
         -1    1    1    2    0  501 -0.84178073057E+01 -0.22555491337E+02 -0.15202508615E+02  0.28473249507E+02  0.00000000000E+00 0. -1.
</event>
<event>
 4    1  0.6934088E+001  0.2513612E+02  0.7546771E-02  0.1467286E+00
          2   -1    0    0  502    0  0.00000000000E+00  0.00000000000E+00  0.53212848021E+03  0.53212848021E+03  0.00000000000E+00 0.  1.
         -2   -1    0    0    0  501 -0.00000000000E+00 -0.00000000000E+00 -0.30931254832E+01  0.30931254832E+01  0.00000000000E+00 0. -1.
          1    1    1    2  502    0 -0.78301221467E+01  0.23885426238E+02  0.54459116233E+02  0.59980161222E+02  0.00000000000E+00 0. -1.
         -1    1    1    2    0  501  0.78301221467E+01 -0.23885426238E+02  0.47457623849E+03  0.47524144447E+03  0.00000000000E+00 0.  1.
</event>
<event>
 4    1  0.6934088E+001  0.3320873E+02  0.7546771E-02  0.1393613E+00
          2   -1    0    0  502    0  0.00000000000E+00  0.00000000000E+00  0.12876706298E+02  0.12876706298E+02  0.00000000000E+00 0. -1.
         -2   -1    0    0    0  501 -0.00000000000E+00 -0.00000000000E+00 -0.86950602530E+02  0.86950602530E+02  0.00000000000E+00 0.  1.
          1    1    1    2  502    0  0.28319035513E+02  0.17345083963E+02 -0.30919596074E+02  0.45374454613E+02  0.00000000000E+00 0. -1.
         -1    1    1    2    0  501 -0.28319035513E+02 -0.17345083963E+02 -0.43154300158E+02  0.54452854215E+02  0.00000000000E+00 0.  1.
</event>
<event>
 4    1  0.6934088E+001  0.2162644E+02  0.7546771E-02  0.1510506E+00
          2   -1    0    0  502    0  0.00000000000E+00  0.00000000000E+00  0.11480048666E+02  0.11480048666E+02  0.00000000000E+00 0. -1.
         -2   -1    0    0    0  501 -0.00000000000E+00 -0.00000000000E+00 -0.45215329363E+02  0.45215329363E+02  0.00000000000E+00 0.  1.
          1    1    1    2  502    0  0.25518888789E+01 -0.21475351821E+02 -0.25785553966E+02  0.33654088400E+02  0.00000000000E+00 0.  1.
         -1    1    1    2    0  501 -0.25518888789E+01  0.21475351821E+02 -0.79497267314E+01  0.23041289629E+02  0.00000000000E+00 0. -1.
</event>
<event>
 4    1  0.6934088E+001  0.2847846E+02  0.7546771E-02  0.1433296E+00
          2   -1    0    0  502    0  0.00000000000E+00  0.00000000000E+00  0.70336684656E+03  0.70336684656E+03  0.00000000000E+00 0. -1.
         -2   -1    0    0    0  501 -0.00000000000E+00 -0.00000000000E+00 -0.51783617579E+01  0.51783617579E+01  0.00000000000E+00 0.  1.
          1    1    1    2  502    0 -0.19914042460E+02  0.20358131752E+02  0.36744812590E+02  0.46488749906E+02  0.00000000000E+00 0.  1.
         -1    1    1    2    0  501  0.19914042460E+02 -0.20358131752E+02  0.66144367222E+03  0.66205645842E+03  0.00000000000E+00 0. -1.
</event>
<event>
 4    1  0.6934088E+001  0.2780601E+02  0.7546771E-02  0.1439675E+00
          2   -1    0    0  502    0  0.00000000000E+00  0.00000000000E+00  0.18029728973E+04  0.18029728973E+04  0.00000000000E+00 0. -1.
         -2   -1    0    0    0  501 -0.00000000000E+00 -0.00000000000E+00 -0.16366445811E+01  0.16366445811E+01  0.00000000000E+00 0.  1.
          1    1    1    2  502    0  0.26949165078E+02  0.68495914150E+01  0.16758000928E+04  0.16760307651E+04  0.00000000000E+00 0. -1.
         -1    1    1    2    0  501 -0.26949165078E+02 -0.68495914150E+01  0.12553615983E+03  0.12857877673E+03  0.00000000000E+00 0.  1.
</event>
<event>
 4    1  0.6934088E+001  0.2962088E+02  0.7546771E-02  0.1422920E+00
          2   -1    0    0  502    0  0.00000000000E+00  0.00000000000E+00  0.57664091367E+02  0.57664091367E+02  0.00000000000E+00 0.  1.
         -2   -1    0    0    0  501 -0.00000000000E+00 -0.00000000000E+00 -0.27369024252E+02  0.27369024252E+02  0.00000000000E+00 0. -1.
          1    1    1    2  502    0 -0.12049614680E+02 -0.27059254598E+02 -0.13184446281E+02  0.32422617061E+02  0.00000000000E+00 0. -1.
         -1    1    1    2    0  501  0.12049614680E+02  0.27059254598E+02  0.43479513396E+02  0.52610498558E+02  0.00000000000E+00 0.  1.
</event>
<event>
 4    1  0.6934088E+001  0.2659963E+02  0.7546771E-02  0.1451672E+00
          2   -1    0    0  502    0  0.00000000000E+00  0.00000000000E+00  0.50316389345E+00  0.50316389345E+00  0.00000000000E+00 0.  1.
         -2   -1    0    0    0  501 -0.00000000000E+00 -0.00000000000E+00 -0.15921767156E+04  0.15921767156E+04  0.00000000000E+00 0. -1.
          1    1    1    2  502    0 -0.15717214114E+02  0.21459479805E+02 -0.52365880379E+03  0.52433394214E+03  0.00000000000E+00 0.  1.
         -1    1    1    2    0  501  0.15717214114E+02 -0.21459479805E+02 -0.10680147479E+04  0.10683459373E+04  0.00000000000E+00 0. -1.
</event>
<event>
 4    1  0.6934088E+001  0.2868457E+02  0.7546771E-02  0.1431383E+00
          2   -1    0    0  502    0  0.00000000000E+00  0.00000000000E+00  0.59853934284E+01  0.59853934284E+01  0.00000000000E+00 0. -1.
         -2   -1    0    0    0  501 -0.00000000000E+00 -0.00000000000E+00 -0.24567515416E+03  0.24567515416E+03  0.00000000000E+00 0.  1.
          1    1    1    2  502    0 -0.21673649866E+02 -0.18789820774E+02 -0.20335344819E+03  0.20536657312E+03  0.00000000000E+00 0.  1.
         -1    1    1    2    0  501  0.21673649866E+02  0.18789820774E+02 -0.36336312544E+02  0.46293974474E+02  0.00000000000E+00 0. -1.
</event>
<event>
 4    1  0.6934088E+001  0.2128960E+02  0.7546771E-02  0.1515170E+00
          2   -1    0    0  502    0  0.00000000000E+00  0.00000000000E+00  0.30520186715E+03  0.30520186715E+03  0.00000000000E+00 0. -1.
         -2   -1    0    0    0  501 -0.00000000000E+00 -0.00000000000E+00 -0.54742183149E+01  0.54742183149E+01  0.00000000000E+00 0.  1.
          1    1    1    2  502    0 -0.88532364023E+01  0.19361489331E+02  0.17259801914E+02  0.27407076203E+02  0.00000000000E+00 0.  1.
         -1    1    1    2    0  501  0.88532364023E+01 -0.19361489331E+02  0.28246784692E+03  0.28326900926E+03  0.00000000000E+00 0. -1.
</event>
<event>
 4    1  0.6934088E+001  0.2087829E+02  0.7546771E-02  0.1521010E+00
          2   -1    0    0  502    0  0.00000000000E+00  0.00000000000E+00  0.11593369641E+04  0.11593369641E+04  0.00000000000E+00 0. -1.
         -2   -1    0    0    0  501 -0.00000000000E+00 -0.00000000000E+00 -0.62915390294E+00  0.62915390294E+00  0.00000000000E+00 0.  1.
          1    1    1    2  502    0  0.42789630955E+01  0.20435099717E+02  0.21144949035E+03  0.21247773952E+03  0.00000000000E+00 0.  1.
         -1    1    1    2    0  501 -0.42789630955E+01 -0.20435099717E+02  0.94725831984E+03  0.94748837847E+03  0.00000000000E+00 0. -1.
</event>
<event>
 4    1  0.6934088E+001  0.3623051E+02  0.7546771E-02  0.1372113E+00
          2   -1    0    0  502    0  0.00000000000E+00  0.00000000000E+00  0.65104208952E+01  0.65104208952E+01  0.00000000000E+00 0.  1.
         -2   -1    0    0    0  501 -0.00000000000E+00 -0.00000000000E+00 -0.28032961602E+03  0.28032961602E+03  0.00000000000E+00 0. -1.
          1    1    1    2  502    0 -0.34976822164E+02  0.94483914570E+01 -0.21290390713E+03  0.21596463567E+03  0.00000000000E+00 0. -1.
         -1    1    1    2    0  501  0.34976822164E+02 -0.94483914570E+01 -0.60915287993E+02  0.70875401241E+02  0.00000000000E+00 0.  1.
</event>
<event>
 4    1  0.6934088E+001  0.2069750E+02  0.7546771E-02  0.1523628E+00
          2   -1    0    0  502    0  0.00000000000E+00  0.00000000000E+00  0.48977847987E+03  0.48977847987E+03  0.00000000000E+00 0. -1.
         -2   -1    0    0    0  501 -0.00000000000E+00 -0.00000000000E+00 -0.90994762243E+00  0.90994762243E+00  0.00000000000E+00 0.  1.
          1    1    1    2  502    0 -0.18621794937E+02  0.90341134234E+01  0.19611515488E+03  0.19720431138E+03  0.00000000000E+00 0.  1.
         -1    1    1    2    0  501  0.18621794937E+02 -0.90341134234E+01  0.29275337737E+03  0.29348411611E+03  0.00000000000E+00 0. -1.
</event>
<event>
 4    1  0.6934088E+001  0.4670898E+02  0.7546771E-02  0.1313108E+00
          2   -1    0    0  502    0  0.00000000000E+00  0.00000000000E+00  0.10663285285E+04  0.10663285285E+04  0.00000000000E+00 0. -1.
         -2   -1    0    0    0  501 -0.00000000000E+00 -0.00000000000E+00 -0.25313136554E+01  0.25313136554E+01  0.00000000000E+00 0.  1.
          1    1    1    2  502    0  0.37165287593E+02  0.28292580222E+02  0.76590106888E+03  0.76732403586E+03  0.00000000000E+00 0. -1.
         -1    1    1    2    0  501 -0.37165287593E+02 -0.28292580222E+02  0.29789614596E+03  0.30153580629E+03  0.00000000000E+00 0.  1.
</event>
<event>
 4    1  0.6934088E+001  0.2183458E+02  0.7546771E-02  0.1507675E+00
          2   -1    0    0  502    0  0.00000000000E+00  0.00000000000E+00  0.18596258506E+03  0.18596258506E+03  0.00000000000E+00 0.  1.
         -2   -1    0    0    0  501 -0.00000000000E+00 -0.00000000000E+00 -0.37590609089E+01  0.37590609089E+01  0.00000000000E+00 0. -1.
          1    1    1    2  502    0  0.11946749626E+02  0.18276327265E+02  0.14459513336E+03  0.14623440620E+03  0.00000000000E+00 0.  1.
         -1    1    1    2    0  501 -0.11946749626E+02 -0.18276327265E+02  0.37608390791E+02  0.43487239770E+02  0.00000000000E+00 0. -1.
</event>
<event>
 4    1  0.6934088E+001  0.2720736E+02  0.7546771E-02  0.1445536E+00
          2   -1    0    0  502    0  0.00000000000E+00  0.00000000000E+00  0.22538686052E+03  0.22538686052E+03  0.00000000000E+00 0. -1.
         -2   -1    0    0    0  501 -0.00000000000E+00 -0.00000000000E+00 -0.39060459687E+01  0.39060459687E+01  0.00000000000E+00 0.  1.
          1    1    1    2  502    0  0.45471011191E+01 -0.26824695892E+02  0.15648025998E+03  0.15882793269E+03  0.00000000000E+00 0.  1.
         -1    1    1    2    0  501 -0.45471011191E+01  0.26824695892E+02  0.65000554570E+02  0.70464973800E+02  0.00000000000E+00 0. -1.
</event>
<event>
 4    1  0.6934088E+001  0.2466279E+02  0.7546771E-02  0.1472611E+00
          2   -1    0    0  502    0  0.00000000000E+00  0.00000000000E+00  0.12849597810E+04  0.12849597810E+04  0.00000000000E+00 0.  1.
         -2   -1    0    0    0  501 -0.00000000000E+00 -0.00000000000E+00 -0.49906666900E+00  0.49906666900E+00  0.00000000000E+00 0. -1.
          1    1    1    2  502    0  0.13087650737E+01 -0.24628037328E+02  0.49636839818E+03  0.49698072377E+03  0.00000000000E+00 0. -1.
         -1    1    1    2    0  501 -0.13087650737E+01  0.24628037328E+02  0.78809231615E+03  0.78847812390E+03  0.00000000000E+00 0.  1.
</event>
<event>
 4    1  0.6934088E+001  0.4746859E+02  0.7546771E-02  0.1309537E+00
          2   -1    0    0  502    0  0.00000000000E+00  0.00000000000E+00  0.10198564254E+03  0.10198564254E+03  0.00000000000E+00 0. -1.
         -2   -1    0    0    0  501 -0.00000000000E+00 -0.00000000000E+00 -0.22119663900E+02  0.22119663900E+02  0.00000000000E+00 0.  1.
          1    1    1    2  502    0 -0.47220703568E+02 -0.48448216631E+01  0.37817871692E+02  0.60691503208E+02  0.00000000000E+00 0. -1.
         -1    1    1    2    0  501  0.47220703568E+02  0.48448216631E+01  0.42048106949E+02  0.63413803232E+02  0.00000000000E+00 0.  1.
</event>
<event>
 4    1  0.6934088E+001  0.3770946E+02  0.7546771E-02  0.1362457E+00
          2   -1    0    0  502    0  0.00000000000E+00  0.00000000000E+00  0.38506662764E+01  0.38506662764E+01  0.00000000000E+00 0. -1.
         -2   -1    0    0    0  501 -0.00000000000E+00 -0.00000000000E+00 -0.37662911614E+03  0.37662911614E+03  0.00000000000E+00 0.  1.
          1    1    1    2  502    0  0.30811109432E+02 -0.21741181069E+02 -0.15982869908E+03  0.16421697984E+03  0.00000000000E+00 0.  1.
         -1    1    1    2    0  501 -0.30811109432E+02  0.21741181069E+02 -0.21294975079E+03  0.21626280258E+03  0.00000000000E+00 0. -1.
</event>
<event>
 4    1  0.6934088E+001  0.2366169E+02  0.7546771E-02  0.1484352E+00
          2   -1    0    0  502    0  0.00000000000E+00  0.00000000000E+00  0.16526788495E+03  0.16526788495E+03  0.00000000000E+00 0. -1.
         -2   -1    0    0    0  501 -0.00000000000E+00 -0.00000000000E+00 -0.47188447481E+01  0.47188447481E+01  0.00000000000E+00 0.  1.
          1    1    1    2  502    0  0.93087310367E+01  0.21753688503E+02  0.35132357211E+02  0.42357501818E+02  0.00000000000E+00 0.  1.
         -1    1    1    2    0  501 -0.93087310367E+01 -0.21753688503E+02  0.12541668299E+03  0.12762922788E+03  0.00000000000E+00 0. -1.
</event>
<event>
 4    1  0.6934088E+001  0.2001530E+02  0.7546771E-02  0.1533802E+00
          2   -1    0    0  502    0  0.00000000000E+00  0.00000000000E+00  0.70603180818E+03  0.70603180818E+03  0.00000000000E+00 0.  1.
         -2   -1    0    0    0  501 -0.00000000000E+00 -0.00000000000E+00 -0.58335487818E+00  0.58335487818E+00  0.00000000000E+00 0. -1.
          1    1    1    2  502    0  0.18134136411E+02 -0.84714409969E+01  0.41112853813E+03  0.41161546020E+03  0.00000000000E+00 0. -1.
         -1    1    1    2    0  501 -0.18134136411E+02  0.84714409969E+01  0.29431991517E+03  0.29499970285E+03  0.00000000000E+00 0.  1.
</event>
<event>
 4    1  0.6934088E+001  0.4697015E+02  0.7546771E-02  0.1311872E+00
          2   -1    0    0  502    0  0.00000000000E+00  0.00000000000E+00  0.12604021896E+03  0.12604021896E+03  0.00000000000E+00 0. -1.
         -2   -1    0    0    0  501 -0.00000000000E+00 -0.00000000000E+00 -0.19971802918E+02  0.19971802918E+02  0.00000000000E+00 0.  1.
          1    1    1    2  502    0 -0.14602035142E+02 -0.44642754574E+02  0.27370800882E+02  0.54363183379E+02  0.00000000000E+00 0. -1.
         -1    1    1    2    0  501  0.14602035142E+02  0.44642754574E+02  0.78697615158E+02  0.91648838496E+02  0.00000000000E+00 0.  1.
</event>
<event>
 4    1  0.6934088E+001  0.5450372E+02  0.7546771E-02  0.1279744E+00
          2   -1    0    0  502    0  0.00000000000E+00  0.00000000000E+00  0.77347194176E+03  0.77347194176E+03  0.00000000000E+00 0.  1.
         -2   -1    0    0    0  501 -0.00000000000E+00 -0.00000000000E+00 -0.52082235143E+01  0.52082235143E+01  0.00000000000E+00 0. -1.
          1    1    1    2  502    0  0.54499689229E+02  0.66321687940E+00  0.58363757626E+03  0.58617700091E+03  0.00000000000E+00 0.  1.
         -1    1    1    2    0  501 -0.54499689229E+02 -0.66321687940E+00  0.18462614199E+03  0.19250316436E+03  0.00000000000E+00 0. -1.
</event>
<event>
 4    1  0.6934088E+001  0.3949712E+02  0.7546771E-02  0.1351458E+00
          2   -1    0    0  502    0  0.00000000000E+00  0.00000000000E+00  0.67818618534E+03  0.67818618534E+03  0.00000000000E+00 0. -1.
         -2   -1    0    0    0  501 -0.00000000000E+00 -0.00000000000E+00 -0.30921237342E+01  0.30921237342E+01  0.00000000000E+00 0.  1.
          1    1    1    2  502    0  0.36204525401E+02  0.15787805412E+02  0.50992593716E+03  0.51145330564E+03  0.00000000000E+00 0. -1.
         -1    1    1    2    0  501 -0.36204525401E+02 -0.15787805412E+02  0.16516812444E+03  0.16982500344E+03  0.00000000000E+00 0.  1.
</event>
<event>
 4    1  0.6934088E+001  0.2131886E+02  0.7546771E-02  0.1514761E+00
          2   -1    0    0  502    0  0.00000000000E+00  0.00000000000E+00  0.23972609984E+01  0.23972609984E+01  0.00000000000E+00 0.  1.
         -2   -1    0    0    0  501 -0.00000000000E+00 -0.00000000000E+00 -0.22485625112E+03  0.22485625112E+03  0.00000000000E+00 0. -1.
          1    1    1    2  502    0  0.77499334742E+01 -0.19860325097E+02 -0.15622973063E+03  0.15767759103E+03  0.00000000000E+00 0. -1.
         -1    1    1    2    0  501 -0.77499334742E+01  0.19860325097E+02 -0.66229259494E+02  0.69575921086E+02  0.00000000000E+00 0.  1.
</event>
<event>
 4    1  0.6934088E+001  0.2411249E+02  0.7546771E-02  0.1478982E+00
          2   -1    0    0  502    0  0.00000000000E+00  0.00000000000E+00  0.21283005255E+03  0.21283005255E+03  0.00000000000E+00 0. -1.
         -2   -1    0    0    0  501 -0.00000000000E+00 -0.00000000000E+00 -0.45972703560E+01  0.45972703560E+01  0.00000000000E+00 0.  1.
          1    1    1    2  502    0  0.16624286934E+02 -0.17465538191E+02  0.34865280319E+02  0.42391033392E+02  0.00000000000E+00 0.  1.
         -1    1    1    2    0  501 -0.16624286934E+02  0.17465538191E+02  0.17336750187E+03  0.17503628951E+03  0.00000000000E+00 0. -1.
</event>
<event>
 4    1  0.6934088E+001  0.2548714E+02  0.7546771E-02  0.1463427E+00
          2   -1    0    0  502    0  0.00000000000E+00  0.00000000000E+00  0.49322541717E+01  0.49322541717E+01  0.00000000000E+00 0. -1.
         -2   -1    0    0    0  501 -0.00000000000E+00 -0.00000000000E+00 -0.13437916435E+03  0.13437916435E+03  0.00000000000E+00 0.  1.
          1    1    1    2  502    0 -0.11922270509E+02 -0.22526734708E+02 -0.54894209913E+02  0.60522463537E+02  0.00000000000E+00 0. -1.
         -1    1    1    2    0  501  0.11922270509E+02  0.22526734708E+02 -0.74552700270E+02  0.78788954989E+02  0.00000000000E+00 0.  1.
</event>
<event>
 4    1  0.6934088E+001  0.2209128E+02  0.7546771E-02  0.1504235E+00
          2   -1    0    0  502    0  0.00000000000E+00  0.00000000000E+00  0.27931045445E+03  0.27931045445E+03  0.00000000000E+00 0.  1.
         -2   -1    0    0    0  501 -0.00000000000E+00 -0.00000000000E+00 -0.17588984118E+01  0.17588984118E+01  0.00000000000E+00 0. -1.
          1    1    1    2  502    0  0.20626991960E+02 -0.79089849172E+01  0.12733857175E+03  0.12924061550E+03  0.00000000000E+00 0. -1.
         -1    1    1    2    0  501 -0.20626991960E+02  0.79089849172E+01  0.15021298429E+03  0.15182873736E+03  0.00000000000E+00 0.  1.
</event>
<event>
 4    1  0.6934088E+001  0.4934763E+02  0.7546771E-02  0.1301026E+00
          2   -1    0    0  502    0  0.00000000000E+00  0.00000000000E+00  0.67911550656E+03  0.67911550656E+03  0.00000000000E+00 0. -1.
         -2   -1    0    0    0  501 -0.00000000000E+00 -0.00000000000E+00 -0.45960306598E+01  0.45960306598E+01  0.00000000000E+00 0.  1.
          1    1    1    2  502    0 -0.62146882783E+01 -0.48954738034E+02  0.17698814485E+03  0.18373892387E+03  0.00000000000E+00 0.  1.
         -1    1    1    2    0  501  0.62146882783E+01  0.48954738034E+02  0.49753133104E+03  0.49997261335E+03  0.00000000000E+00 0. -1.
</event>
<event>
 4    1  0.6934088E+001  0.3834427E+02  0.7546771E-02  0.1358471E+00
          2   -1    0    0  502    0  0.00000000000E+00  0.00000000000E+00  0.24643288618E+03  0.24643288618E+03  0.00000000000E+00 0. -1.
         -2   -1    0    0    0  501 -0.00000000000E+00 -0.00000000000E+00 -0.10160511949E+02  0.10160511949E+02  0.00000000000E+00 0.  1.
          1    1    1    2  502    0  0.48248776318E+01 -0.38039501021E+02  0.35706270907E+02  0.52394855322E+02  0.00000000000E+00 0.  1.
         -1    1    1    2    0  501 -0.48248776318E+01  0.38039501021E+02  0.20056610332E+03  0.20419854281E+03  0.00000000000E+00 0. -1.
</event>
<event>
 4    1  0.6934088E+001  0.2012863E+02  0.7546771E-02  0.1532078E+00
          2   -1    0    0  502    0  0.00000000000E+00  0.00000000000E+00  0.16396054169E+03  0.16396054169E+03  0.00000000000E+00 0. -1.
         -2   -1    0    0    0  501 -0.00000000000E+00 -0.00000000000E+00 -0.28586164573E+01  0.28586164573E+01  0.00000000000E+00 0.  1.
          1    1    1    2  502    0 -0.49783150490E+01 -0.19503285529E+02  0.11126146446E+03  0.11306756936E+03  0.00000000000E+00 0. -1.
         -1    1    1    2    0  501  0.49783150490E+01  0.19503285529E+02  0.49840460774E+02  0.53751588789E+02  0.00000000000E+00 0.  1.
</event>
<event>
 4    1  0.6934088E+001  0.3866240E+02  0.7546771E-02  0.1356507E+00
          2   -1    0    0  502    0  0.00000000000E+00  0.00000000000E+00  0.49915735960E+02  0.49915735960E+02  0.00000000000E+00 0.  1.
         -2   -1    0    0    0  501 -0.00000000000E+00 -0.00000000000E+00 -0.33675939965E+02  0.33675939965E+02  0.00000000000E+00 0. -1.
          1    1    1    2  502    0 -0.19361816248E+02 -0.33464926791E+02 -0.57898320218E+01  0.39093521310E+02  0.00000000000E+00 0. -1.
         -1    1    1    2    0  501  0.19361816248E+02  0.33464926791E+02  0.22029628017E+02  0.44498154615E+02  0.00000000000E+00 0.  1.
</event>
<event>
 4    1  0.6934088E+001  0.5616751E+02  0.7546771E-02  0.1273441E+00
          2   -1    0    0  502    0  0.00000000000E+00  0.00000000000E+00  0.50961372788E+03  0.50961372788E+03  0.00000000000E+00 0. -1.
         -2   -1    0    0    0  501 -0.00000000000E+00 -0.00000000000E+00 -0.61979282740E+01  0.61979282740E+01  0.00000000000E+00 0.  1.
          1    1    1    2  502    0  0.28043606534E+01 -0.56097461119E+02  0.24280980937E+03  0.24922157432E+03  0.00000000000E+00 0.  1.
         -1    1    1    2    0  501 -0.28043606534E+01  0.56097461119E+02  0.26060599024E+03  0.26659008183E+03  0.00000000000E+00 0. -1.
</event>
<event>
 4    1  0.6934088E+001  0.3206773E+02  0.7546771E-02  0.1402440E+00
          2   -1    0    0  502    0  0.00000000000E+00  0.00000000000E+00  0.56839118678E+02  0.56839118678E+02  0.00000000000E+00 0.  1.
         -2   -1    0    0    0  501 -0.00000000000E+00 -0.00000000000E+00 -0.20048974190E+02  0.20048974190E+02  0.00000000000E+00 0. -1.
          1    1    1    2  502    0 -0.21463642415E+02  0.23825437048E+02  0.30405645348E+02  0.44190979456E+02  0.00000000000E+00 0.  1.
         -1    1    1    2    0  501  0.21463642415E+02 -0.23825437048E+02  0.63844991401E+01  0.32697113412E+02  0.00000000000E+00 0. -1.
</event>
<event>
 4    1  0.6934088E+001  0.2932821E+02  0.7546771E-02  0.1425525E+00
          2   -1    0    0  502    0  0.00000000000E+00  0.00000000000E+00  0.47330384774E+02  0.47330384774E+02  0.00000000000E+00 0. -1.
         -2   -1    0    0    0  501 -0.00000000000E+00 -0.00000000000E+00 -0.27568987115E+02  0.27568987115E+02  0.00000000000E+00 0.  1.
          1    1    1    2  502    0 -0.41882324392E+00  0.29325222475E+02  0.31743438564E+02  0.43217935837E+02  0.00000000000E+00 0. -1.
         -1    1    1    2    0  501  0.41882324392E+00 -0.29325222475E+02 -0.11982040905E+02  0.31681436053E+02  0.00000000000E+00 0.  1.
</event>
<event>
 4    1  0.6934088E+001  0.3747690E+02  0.7546771E-02  0.1363941E+00
          2   -1    0    0  502    0  0.00000000000E+00  0.00000000000E+00  0.43259866933E+01  0.43259866933E+01  0.00000000000E+00 0.  1.
         -2   -1    0    0    0  501 -0.00000000000E+00 -0.00000000000E+00 -0.36335840861E+03  0.36335840861E+03  0.00000000000E+00 0. -1.
          1    1    1    2  502    0  0.36201278115E+02  0.96945987483E+01 -0.11952765045E+03  0.12526522663E+03  0.00000000000E+00 0.  1.
         -1    1    1    2    0  501 -0.36201278115E+02 -0.96945987483E+01 -0.23950477147E+03  0.24241916867E+03  0.00000000000E+00 0. -1.
</event>
<event>
 4    1  0.6934088E+001  0.3244946E+02  0.7546771E-02  0.1399439E+00
          2   -1    0    0  502    0  0.00000000000E+00  0.00000000000E+00  0.34811596657E+03  0.34811596657E+03  0.00000000000E+00 0. -1.
         -2   -1    0    0    0  501 -0.00000000000E+00 -0.00000000000E+00 -0.60631766229E+01  0.60631766229E+01  0.00000000000E+00 0.  1.
          1    1    1    2  502    0 -0.13899067131E+02  0.29322057662E+02  0.29638858300E+03  0.29815962044E+03  0.00000000000E+00 0. -1.
         -1    1    1    2    0  501  0.13899067131E+02 -0.29322057662E+02  0.45664206953E+02  0.56019522751E+02  0.00000000000E+00 0.  1.
</event>
<event>
 4    1  0.6934088E+001  0.4590986E+02  0.7546771E-02  0.1316951E+00
          2   -1    0    0  502    0  0.00000000000E+00  0.00000000000E+00  0.64441921349E+02  0.64441921349E+02  0.00000000000E+00 0. -1.
         -2   -1    0    0    0  501 -0.00000000000E+00 -0.00000000000E+00 -0.37098905187E+02  0.37098905187E+02  0.00000000000E+00 0.  1.
          1    1    1    2  502    0 -0.43101638224E+02 -0.15810254010E+02 -0.37966183696E+01  0.46066578563E+02  0.00000000000E+00 0.  1.
         -1    1    1    2    0  501  0.43101638224E+02  0.15810254010E+02  0.31139634531E+02  0.55474247973E+02  0.00000000000E+00 0. -1.
</event>
<event>
 4    1  0.6934088E+001  0.2325889E+02  0.7546771E-02  0.1489273E+00
          2   -1    0    0  502    0  0.00000000000E+00  0.00000000000E+00  0.16285635297E+04  0.16285635297E+04  0.00000000000E+00 0.  1.
         -2   -1    0    0    0  501 -0.00000000000E+00 -0.00000000000E+00 -0.42493551084E+00  0.42493551084E+00  0.00000000000E+00 0. -1.
          1    1    1    2  502    0  0.15288299520E+02 -0.17528377534E+02  0.43353261905E+03  0.43415608702E+03  0.00000000000E+00 0. -1.
         -1    1    1    2    0  501 -0.15288299520E+02  0.17528377534E+02  0.11946059751E+04  0.11948323782E+04  0.00000000000E+00 0.  1.
</event>
<event>
 4    1  0.6934088E+001  0.2355840E+02  0.7546771E-02  0.1485603E+00
          2   -1    0    0  502    0  0.00000000000E+00  0.00000000000E+00  0.61409695584E+01  0.61409695584E+01  0.00000000000E+00 0.  1.
         -2   -1    0    0    0  501 -0.00000000000E+00 -0.00000000000E+00 -0.12654155303E+03  0.12654155303E+03  0.00000000000E+00 0. -1.
          1    1    1    2  502    0 -0.14055572040E+02  0.18906061149E+02 -0.95666336253E+02  0.98524342909E+02  0.00000000000E+00 0. -1.
         -1    1    1    2    0  501  0.14055572040E+02 -0.18906061149E+02 -0.24734247217E+02  0.34158179678E+02  0.00000000000E+00 0.  1.
</event>
<event>
 4    1  0.6934088E+001  0.3609727E+02  0.7546771E-02  0.1373009E+00
          2   -1    0    0  502    0  0.00000000000E+00  0.00000000000E+00  0.24947140814E+04  0.24947140814E+04  0.00000000000E+00 0.  1.
         -2   -1    0    0    0  501 -0.00000000000E+00 -0.00000000000E+00 -0.58168522975E+00  0.58168522975E+00  0.00000000000E+00 0. -1.
          1    1    1    2  502    0  0.10408077302E+02 -0.34564210871E+02  0.84845208635E+03  0.84921961563E+03  0.00000000000E+00 0. -1.
         -1    1    1    2    0  501 -0.10408077302E+02  0.34564210871E+02  0.16456803098E+04  0.16460761510E+04  0.00000000000E+00 0.  1.
</event>
<event>
 4    1  0.6934088E+001  0.3165675E+02  0.7546771E-02  0.1405726E+00
          2   -1    0    0  502    0  0.00000000000E+00  0.00000000000E+00  0.84293699519E+03  0.84293699519E+03  0.00000000000E+00 0. -1.
         -2   -1    0    0    0  501 -0.00000000000E+00 -0.00000000000E+00 -0.13066193572E+01  0.13066193572E+01  0.00000000000E+00 0.  1.
          1    1    1    2  502    0 -0.30243954718E+02  0.93516376573E+01  0.54752968005E+03  0.54844407231E+03  0.00000000000E+00 0.  1.
         -1    1    1    2    0  501  0.30243954718E+02 -0.93516376573E+01  0.29410069579E+03  0.29579954224E+03  0.00000000000E+00 0. -1.
</event>
<event>
 4    1  0.6934088E+001  0.3601548E+02  0.7546771E-02  0.1373561E+00
          2   -1    0    0  502    0  0.00000000000E+00  0.00000000000E+00  0.13289286940E+02  0.13289286940E+02  0.00000000000E+00 0. -1.
         -2   -1    0    0    0  501 -0.00000000000E+00 -0.00000000000E+00 -0.15790039771E+03  0.15790039771E+03  0.00000000000E+00 0.  1.
          1    1    1    2  502    0 -0.97920458517E+01 -0.34658778900E+02 -0.19413042502E+02  0.40914317005E+02  0.00000000000E+00 0. -1.
         -1    1    1    2    0  501  0.97920458517E+01  0.34658778900E+02 -0.12519806827E+03  0.13027536764E+03  0.00000000000E+00 0.  1.
</event>
<event>
 4    1  0.6934088E+001  0.3222055E+02  0.7546771E-02  0.1401233E+00
          2   -1    0    0  502    0  0.00000000000E+00  0.00000000000E+00  0.25692913538E+02  0.25692913538E+02  0.00000000000E+00 0.  1.
         -2   -1    0    0    0  501 -0.00000000000E+00 -0.00000000000E+00 -0.45504731917E+02  0.45504731917E+02  0.00000000000E+00 0. -1.
          1    1    1    2  502    0 -0.30347603958E+02 -0.10825276843E+02 -0.21821407779E+02  0.38914489874E+02  0.00000000000E+00 0. -1.
         -1    1    1    2    0  501  0.30347603958E+02  0.10825276843E+02  0.20095894004E+01  0.32283155581E+02  0.00000000000E+00 0.  1.
</event>
<event>
 4    1  0.6934088E+001  0.2688778E+02  0.7546771E-02  0.1448739E+00
          2   -1    0    0  502    0  0.00000000000E+00  0.00000000000E+00  0.82883835817E+03  0.82883835817E+03  0.00000000000E+00 0. -1.
         -2   -1    0    0    0  501 -0.00000000000E+00 -0.00000000000E+00 -0.11854273176E+01  0.11854273176E+01  0.00000000000E+00 0.  1.
          1    1    1    2  502    0  0.21346298919E+02  0.16348956395E+02  0.20051244449E+03  0.20230717547E+03  0.00000000000E+00 0.  1.
         -1    1    1    2    0  501 -0.21346298919E+02 -0.16348956395E+02  0.62714048636E+03  0.62771661001E+03  0.00000000000E+00 0. -1.
</event>
<event>
 4    1  0.6934088E+001  0.3936041E+02  0.7546771E-02  0.1352275E+00
          2   -1    0    0  502    0  0.00000000000E+00  0.00000000000E+00  0.15898829723E+02  0.15898829723E+02  0.00000000000E+00 0. -1.
         -2   -1    0    0    0  501 -0.00000000000E+00 -0.00000000000E+00 -0.97792125319E+02  0.97792125319E+02  0.00000000000E+00 0.  1.
          1    1    1    2  502    0  0.35053033235E+02 -0.17903258082E+02 -0.44339459982E+02  0.59289370889E+02  0.00000000000E+00 0. -1.
         -1    1    1    2    0  501 -0.35053033235E+02  0.17903258082E+02 -0.37553835614E+02  0.54401584152E+02  0.00000000000E+00 0.  1.
</event>
<event>
 4    1  0.6934088E+001  0.3069393E+02  0.7546771E-02  0.1413660E+00
          2   -1    0    0  502    0  0.00000000000E+00  0.00000000000E+00  0.38282832861E+03  0.38282832861E+03  0.00000000000E+00 0.  1.
         -2   -1    0    0    0  501 -0.00000000000E+00 -0.00000000000E+00 -0.36870309844E+01  0.36870309844E+01  0.00000000000E+00 0. -1.
          1    1    1    2  502    0  0.18226057926E+02 -0.24696727645E+02  0.78125872069E+02  0.83939081663E+02  0.00000000000E+00 0. -1.
         -1    1    1    2    0  501 -0.18226057926E+02  0.24696727645E+02  0.30101542556E+03  0.30257627794E+03  0.00000000000E+00 0.  1.
</event>
<event>
 4    1  0.6934088E+001  0.2436125E+02  0.7546771E-02  0.1476077E+00
          2   -1    0    0  502    0  0.00000000000E+00  0.00000000000E+00  0.14725580609E+02  0.14725580609E+02  0.00000000000E+00 0.  1.
         -2   -1    0    0    0  501 -0.00000000000E+00 -0.00000000000E+00 -0.54234603509E+02  0.54234603509E+02  0.00000000000E+00 0. -1.
          1    1    1    2  502    0 -0.16791385801E+02 -0.17649926238E+02 -0.37230676058E+02  0.44492626053E+02  0.00000000000E+00 0. -1.
         -1    1    1    2    0  501  0.16791385801E+02  0.17649926238E+02 -0.22783468428E+01  0.24467558065E+02  0.00000000000E+00 0.  1.
</event>
<event>
 4    1  0.6934088E+001  0.2308478E+02  0.7546771E-02  0.1491436E+00
          2   -1    0    0  502    0  0.00000000000E+00  0.00000000000E+00  0.15495685450E+03  0.15495685450E+03  0.00000000000E+00 0. -1.
         -2   -1    0    0    0  501 -0.00000000000E+00 -0.00000000000E+00 -0.43207948244E+01  0.43207948244E+01  0.00000000000E+00 0.  1.
          1    1    1    2  502    0 -0.18210225795E+02  0.14187838931E+02  0.39342255852E+02  0.45614911954E+02  0.00000000000E+00 0.  1.
         -1    1    1    2    0  501  0.18210225795E+02 -0.14187838931E+02  0.11129380382E+03  0.11366273737E+03  0.00000000000E+00 0. -1.
</event>
<event>
 4    1  0.6934088E+001  0.2625539E+02  0.7546771E-02  0.1455235E+00
          2   -1    0    0  502    0  0.00000000000E+00  0.00000000000E+00  0.55184390847E+02  0.55184390847E+02  0.00000000000E+00 0.  1.
         -2   -1    0    0    0  501 -0.00000000000E+00 -0.00000000000E+00 -0.22757553197E+02  0.22757553197E+02  0.00000000000E+00 0. -1.
          1    1    1    2  502    0 -0.20943157268E+02  0.15834438621E+02 -0.99609719699E+01  0.28081421713E+02  0.00000000000E+00 0. -1.
         -1    1    1    2    0  501  0.20943157268E+02 -0.15834438621E+02  0.42387809620E+02  0.49860522331E+02  0.00000000000E+00 0.  1.
</event>
<event>
 4    1  0.6934088E+001  0.2069181E+02  0.7546771E-02  0.1523711E+00
          2   -1    0    0  502    0  0.00000000000E+00  0.00000000000E+00  0.59793043651E+03  0.59793043651E+03  0.00000000000E+00 0.  1.
         -2   -1    0    0    0  501 -0.00000000000E+00 -0.00000000000E+00 -0.88232550273E+00  0.88232550273E+00  0.00000000000E+00 0. -1.
          1    1    1    2  502    0 -0.12595748139E+02  0.16416395198E+02  0.42849749913E+03  0.42899680379E+03  0.00000000000E+00 0.  1.
         -1    1    1    2    0  501  0.12595748139E+02 -0.16416395198E+02  0.16855061187E+03  0.16981595822E+03  0.00000000000E+00 0. -1.
</event>
<event>
 4    1  0.6934088E+001  0.2035279E+02  0.7546771E-02  0.1528709E+00
          2   -1    0    0  502    0  0.00000000000E+00  0.00000000000E+00  0.10780299327E+03  0.10780299327E+03  0.00000000000E+00 0.  1.
         -2   -1    0    0    0  501 -0.00000000000E+00 -0.00000000000E+00 -0.40447590904E+01  0.40447590904E+01  0.00000000000E+00 0. -1.
          1    1    1    2  502    0  0.88175823509E+01 -0.18343562224E+02  0.64383859883E+02  0.67524198973E+02  0.00000000000E+00 0.  1.
         -1    1    1    2    0  501 -0.88175823509E+01  0.18343562224E+02  0.39374374297E+02  0.44323553387E+02  0.00000000000E+00 0. -1.
</event>
<event>
 4    1  0.6934088E+001  0.4312211E+02  0.7546771E-02  0.1331101E+00
          2   -1    0    0  502    0  0.00000000000E+00  0.00000000000E+00  0.28698699870E+03  0.28698699870E+03  0.00000000000E+00 0. -1.
         -2   -1    0    0    0  501 -0.00000000000E+00 -0.00000000000E+00 -0.72419574747E+01  0.72419574747E+01  0.00000000000E+00 0.  1.
          1    1    1    2  502    0 -0.22961982950E+02  0.36500184596E+02  0.92135947217E+02  0.10172781776E+03  0.00000000000E+00 0. -1.
         -1    1    1    2    0  501  0.22961982950E+02 -0.36500184596E+02  0.18760909401E+03  0.19250113841E+03  0.00000000000E+00 0.  1.
</event>
<event>
 4    1  0.6934088E+001  0.2365054E+02  0.7546771E-02  0.1484487E+00
          2   -1    0    0  502    0  0.00000000000E+00  0.00000000000E+00  0.39871177452E+01  0.39871177452E+01  0.00000000000E+00 0.  1.
         -2   -1    0    0    0  501 -0.00000000000E+00 -0.00000000000E+00 -0.31885115927E+03  0.31885115927E+03  0.00000000000E+00 0. -1.
          1    1    1    2  502    0  0.20391688042E+02 -0.11980282099E+02 -0.27822896302E+03  0.27923234763E+03  0.00000000000E+00 0. -1.
         -1    1    1    2    0  501 -0.20391688042E+02  0.11980282099E+02 -0.36635078505E+02  0.43605929384E+02  0.00000000000E+00 0.  1.
</event>
<event>
 4    1  0.6934088E+001  0.5641552E+02  0.7546771E-02  0.1272523E+00
          2   -1    0    0  502    0  0.00000000000E+00  0.00000000000E+00  0.75461778152E+03  0.75461778152E+03  0.00000000000E+00 0. -1.
         -2   -1    0    0    0  501 -0.00000000000E+00 -0.00000000000E+00 -0.49932629765E+01  0.49932629765E+01  0.00000000000E+00 0.  1.
          1    1    1    2  502    0  0.19044511307E+02  0.53103835424E+02  0.52450222149E+03  0.52752752639E+03  0.00000000000E+00 0. -1.
         -1    1    1    2    0  501 -0.19044511307E+02 -0.53103835424E+02  0.22512229705E+03  0.23208351811E+03  0.00000000000E+00 0.  1.
</event>
<event>
 4    1  0.6934088E+001  0.4557962E+02  0.7546771E-02  0.1318566E+00
          2   -1    0    0  502    0  0.00000000000E+00  0.00000000000E+00  0.55993552185E+02  0.55993552185E+02  0.00000000000E+00 0.  1.
         -2   -1    0    0    0  501 -0.00000000000E+00 -0.00000000000E+00 -0.44727771448E+02  0.44727771448E+02  0.00000000000E+00 0. -1.
          1    1    1    2  502    0 -0.37299157139E+02  0.26196851187E+02 -0.15160713136E+02  0.48034876477E+02  0.00000000000E+00 0. -1.
         -1    1    1    2    0  501  0.37299157139E+02 -0.26196851187E+02  0.26426493874E+02  0.52686447155E+02  0.00000000000E+00 0.  1.
</event>
<event>
 4    1  0.6934088E+001  0.2934817E+02  0.7546771E-02  0.1425347E+00
          2   -1    0    0  502    0  0.00000000000E+00  0.00000000000E+00  0.66813905702E+02  0.66813905702E+02  0.00000000000E+00 0. -1.
         -2   -1    0    0    0  501 -0.00000000000E+00 -0.00000000000E+00 -0.17585273735E+02  0.17585273735E+02  0.00000000000E+00 0.  1.
          1    1    1    2  502    0 -0.17328392302E+02 -0.23686319169E+02  0.28118202486E+01  0.29482558041E+02  0.00000000000E+00 0.  1.
         -1    1    1    2    0  501  0.17328392302E+02  0.23686319169E+02  0.46416811718E+02  0.54916621396E+02  0.00000000000E+00 0. -1.
</event>
<event>
 4    1  0.6934088E+001  0.4785297E+02  0.7546771E-02  0.1307760E+00
          2   -1    0    0  502    0  0.00000000000E+00  0.00000000000E+00  0.86210998261E+03  0.86210998261E+03  0.00000000000E+00 0.  1.
         -2   -1    0    0    0  501 -0.00000000000E+00 -0.00000000000E+00 -0.27371248910E+01  0.27371248910E+01  0.00000000000E+00 0. -1.
          1    1    1    2  502    0  0.41206932797E+02  0.24328901138E+02  0.50405609168E+03  0.50632247659E+03  0.00000000000E+00 0.  1.
         -1    1    1    2    0  501 -0.41206932797E+02 -0.24328901138E+02  0.35531676604E+03  0.35852463091E+03  0.00000000000E+00 0. -1.
</event>
<event>
 4    1  0.6934088E+001  0.2432236E+02  0.7546771E-02  0.1476529E+00
          2   -1    0    0  502    0  0.00000000000E+00  0.00000000000E+00  0.91870503075E+02  0.91870503075E+02  0.00000000000E+00 0.  1.
         -2   -1    0    0    0  501 -0.00000000000E+00 -0.00000000000E+00 -0.65104035244E+01  0.65104035244E+01  0.00000000000E+00 0. -1.
          1    1    1    2  502    0 -0.19971004982E+02 -0.13882943906E+02  0.47822545405E+02  0.53652334716E+02  0.00000000000E+00 0.  1.
         -1    1    1    2    0  501  0.19971004982E+02  0.13882943906E+02  0.37537554145E+02  0.44728571883E+02  0.00000000000E+00 0. -1.
</event>
<event>
 4    1  0.6934088E+001  0.2222583E+02  0.7546771E-02  0.1502455E+00
          2   -1    0    0  502    0  0.00000000000E+00  0.00000000000E+00  0.19297474122E+04  0.19297474122E+04  0.00000000000E+00 0. -1.
         -2   -1    0    0    0  501 -0.00000000000E+00 -0.00000000000E+00 -0.28088948856E+00  0.28088948856E+00  0.00000000000E+00 0.  1.
          1    1    1    2  502    0 -0.14831601008E+02 -0.16553280983E+02  0.12520756803E+04  0.12522729322E+04  0.00000000000E+00 0. -1.
         -1    1    1    2    0  501  0.14831601008E+02  0.16553280983E+02  0.67739084235E+03  0.67775536944E+03  0.00000000000E+00 0.  1.
</event>
<event>
 4    1  0.6934088E+001  0.4621159E+02  0.7546771E-02  0.1315490E+00
          2   -1    0    0  502    0  0.00000000000E+00  0.00000000000E+00  0.18220669791E+02  0.18220669791E+02  0.00000000000E+00 0.  1.
         -2   -1    0    0    0  501 -0.00000000000E+00 -0.00000000000E+00 -0.14789525922E+03  0.14789525922E+03  0.00000000000E+00 0. -1.
          1    1    1    2  502    0 -0.31058139672E+02  0.34218464931E+02 -0.26999934451E+02  0.53521097172E+02  0.00000000000E+00 0.  1.
         -1    1    1    2    0  501  0.31058139672E+02 -0.34218464931E+02 -0.10267465498E+03  0.11259483184E+03  0.00000000000E+00 0. -1.
</event>
<event>
 4    1  0.6934088E+001  0.2897676E+02  0.7546771E-02  0.1428702E+00
          2   -1    0    0  502    0  0.00000000000E+00  0.00000000000E+00  0.56905793660E+03  0.56905793660E+03  0.00000000000E+00 0.  1.
         -2   -1    0    0    0  501 -0.00000000000E+00 -0.00000000000E+00 -0.20179044360E+01  0.20179044360E+01  0.00000000000E+00 0. -1.
          1    1    1    2  502    0 -0.28969689987E+02  0.63983833552E+00  0.13548312927E+03  0.13854721450E+03  0.00000000000E+00 0. -1.
         -1    1    1    2    0  501  0.28969689987E+02 -0.63983833552E+00  0.43155690290E+03  0.43252862653E+03  0.00000000000E+00 0.  1.
</event>
<event>
 4    1  0.6934088E+001  0.2003460E+02  0.7546771E-02  0.1533507E+00
          2   -1    0    0  502    0  0.00000000000E+00  0.00000000000E+00  0.24703185128E+01  0.24703185128E+01  0.00000000000E+00 0.  1.
         -2   -1    0    0    0  501 -0.00000000000E+00 -0.00000000000E+00 -0.33807109427E+03  0.33807109427E+03  0.00000000000E+00 0. -1.
          1    1    1    2  502    0 -0.49794535872E+01  0.19405931416E+02 -0.29051132306E+03  0.29120132891E+03  0.00000000000E+00 0. -1.
         -1    1    1    2    0  501  0.49794535872E+01 -0.19405931416E+02 -0.45089452692E+02  0.49340083869E+02  0.00000000000E+00 0.  1.
</event>
<event>
 4    1  0.6934088E+001  0.2271554E+02  0.7546771E-02  0.1496101E+00
          2   -1    0    0  502    0  0.00000000000E+00  0.00000000000E+00  0.57952452177E+03  0.57952452177E+03  0.00000000000E+00 0. -1.
         -2   -1    0    0    0  501 -0.00000000000E+00 -0.00000000000E+00 -0.98138288878E+00  0.98138288878E+00  0.00000000000E+00 0.  1.
          1    1    1    2  502    0 -0.22576281548E+02  0.25114176374E+01  0.37765899772E+03  0.37834153125E+03  0.00000000000E+00 0.  1.
         -1    1    1    2    0  501  0.22576281548E+02 -0.25114176374E+01  0.20088414116E+03  0.20216437341E+03  0.00000000000E+00 0. -1.
</event>
<event>
 4    1  0.6934088E+001  0.3269955E+02  0.7546771E-02  0.1397500E+00
          2   -1    0    0  502    0  0.00000000000E+00  0.00000000000E+00  0.20868824692E+04  0.20868824692E+04  0.00000000000E+00 0. -1.
         -2   -1    0    0    0  501 -0.00000000000E+00 -0.00000000000E+00 -0.65996346550E+00  0.65996346550E+00  0.00000000000E+00 0.  1.
          1    1    1    2  502    0 -0.12586383878E+02  0.30180188957E+02  0.15367116313E+04  0.15370594974E+04  0.00000000000E+00 0. -1.
         -1    1    1    2    0  501  0.12586383878E+02 -0.30180188957E+02  0.54951087444E+03  0.55048293524E+03  0.00000000000E+00 0.  1.
</event>
<event>
 4    1  0.6934088E+001  0.4166987E+02  0.7546771E-02  0.1338969E+00
          2   -1    0    0  502    0  0.00000000000E+00  0.00000000000E+00  0.93553439322E+03  0.93553439322E+03  0.00000000000E+00 0. -1.
         -2   -1    0    0    0  501 -0.00000000000E+00 -0.00000000000E+00 -0.32828718953E+01  0.32828718953E+01  0.00000000000E+00 0.  1.
          1    1    1    2  502    0 -0.38438908513E+02  0.16088144362E+02  0.77559132286E+03  0.77670990606E+03  0.00000000000E+00 0. -1.
         -1    1    1    2    0  501  0.38438908513E+02 -0.16088144362E+02  0.15666019846E+03  0.16210735905E+03  0.00000000000E+00 0.  1.
</event>
<event>
 4    1  0.6934088E+001  0.2081262E+02  0.7546771E-02  0.1521957E+00
          2   -1    0    0  502    0  0.00000000000E+00  0.00000000000E+00  0.17997850382E+01  0.17997850382E+01  0.00000000000E+00 0.  1.
         -2   -1    0    0    0  501 -0.00000000000E+00 -0.00000000000E+00 -0.24121089097E+03  0.24121089097E+03  0.00000000000E+00 0. -1.
          1    1    1    2  502    0 -0.17196420200E+02 -0.11723827070E+02 -0.11398357144E+03  0.11586811273E+03  0.00000000000E+00 0. -1.
         -1    1    1    2    0  501  0.17196420200E+02  0.11723827070E+02 -0.12542753449E+03  0.12714256328E+03  0.00000000000E+00 0.  1.
</event>
<event>
 4    1  0.6934088E+001  0.3647348E+02  0.7546771E-02  0.1370490E+00
          2   -1    0    0  502    0  0.00000000000E+00  0.00000000000E+00  0.11662448457E+02  0.11662448457E+02  0.00000000000E+00 0.  1.
         -2   -1    0    0    0  501 -0.00000000000E+00 -0.00000000000E+00 -0.14549621728E+03  0.14549621728E+03  0.00000000000E+00 0. -1.
          1    1    1    2  502    0  0.36107268177E+00 -0.36471690927E+02 -0.30396031380E+02  0.47478767215E+02  0.00000000000E+00 0.  1.
         -1    1    1    2    0  501 -0.36107268177E+00  0.36471690927E+02 -0.10343773744E+03  0.10967989852E+03  0.00000000000E+00 0. -1.
</event>
<event>
 4    1  0.6934088E+001  0.2860043E+02  0.7546771E-02  0.1432162E+00
          2   -1    0    0  502    0  0.00000000000E+00  0.00000000000E+00  0.60178884126E+01  0.60178884126E+01  0.00000000000E+00 0. -1.
         -2   -1    0    0    0  501 -0.00000000000E+00 -0.00000000000E+00 -0.13614670692E+03  0.13614670692E+03  0.00000000000E+00 0.  1.
          1    1    1    2  502    0 -0.19927730425E+02  0.20515116776E+02 -0.67929662272E+02  0.73704975901E+02  0.00000000000E+00 0.  1.
         -1    1    1    2    0  501  0.19927730425E+02 -0.20515116776E+02 -0.62199156233E+02  0.68459619429E+02  0.00000000000E+00 0. -1.
</event>
<event>
 4    1  0.6934088E+001  0.4591060E+02  0.7546771E-02  0.1316948E+00
          2   -1    0    0  502    0  0.00000000000E+00  0.00000000000E+00  0.52625116041E+03  0.52625116041E+03  0.00000000000E+00 0.  1.
         -2   -1    0    0    0  501 -0.00000000000E+00 -0.00000000000E+00 -0.45763421538E+01  0.45763421538E+01  0.00000000000E+00 0. -1.
          1    1    1    2  502    0  0.17614883197E+02  0.42396924720E+02  0.35459486247E+03  0.35755461097E+03  0.00000000000E+00 0.  1.
         -1    1    1    2    0  501 -0.17614883197E+02 -0.42396924720E+02  0.16707995579E+03  0.17327289159E+03  0.00000000000E+00 0. -1.
</event>
<event>
 4    1  0.6934088E+001  0.2325495E+02  0.7546771E-02  0.1489321E+00
          2   -1    0    0  502    0  0.00000000000E+00  0.00000000000E+00  0.19669966716E+02  0.19669966716E+02  0.00000000000E+00 0.  1.
         -2   -1    0    0    0  501 -0.00000000000E+00 -0.00000000000E+00 -0.27991039264E+02  0.27991039264E+02  0.00000000000E+00 0. -1.
          1    1    1    2  502    0 -0.66386180410E+01  0.22287248403E+02 -0.98281436538E+00  0.23275708688E+02  0.00000000000E+00 0. -1.
         -1    1    1    2    0  501  0.66386180410E+01 -0.22287248403E+02 -0.73382581832E+01  0.24385297292E+02  0.00000000000E+00 0.  1.
</event>
<event>
 4    1  0.6934088E+001  0.4335185E+02  0.7546771E-02  0.1329889E+00
          2   -1    0    0  502    0  0.00000000000E+00  0.00000000000E+00  0.94465288076E+02  0.94465288076E+02  0.00000000000E+00 0. -1.
         -2   -1    0    0    0  501 -0.00000000000E+00 -0.00000000000E+00 -0.22106238828E+02  0.22106238828E+02  0.00000000000E+00 0.  1.
          1    1    1    2  502    0 -0.24041827100E+02  0.36074550464E+02  0.17745196232E+02  0.46843085198E+02  0.00000000000E+00 0.  1.
         -1    1    1    2    0  501  0.24041827100E+02 -0.36074550464E+02  0.54613853016E+02  0.69728441706E+02  0.00000000000E+00 0. -1.
</event>
<event>
 4    1  0.6934088E+001  0.4089544E+02  0.7546771E-02  0.1343317E+00
          2   -1    0    0  502    0  0.00000000000E+00  0.00000000000E+00  0.52793931383E+03  0.52793931383E+03  0.00000000000E+00 0. -1.
         -2   -1    0    0    0  501 -0.00000000000E+00 -0.00000000000E+00 -0.35251759519E+01  0.35251759519E+01  0.00000000000E+00 0.  1.
          1    1    1    2  502    0  0.81617637489E+01 -0.40072714922E+02  0.17760496343E+03  0.18225246200E+03  0.00000000000E+00 0.  1.
         -1    1    1    2    0  501 -0.81617637489E+01  0.40072714922E+02  0.34680917445E+03  0.34921202778E+03  0.00000000000E+00 0. -1.
</event>
<event>
 4    1  0.6934088E+001  0.2296363E+02  0.7546771E-02  0.1492955E+00
          2   -1    0    0  502    0  0.00000000000E+00  0.00000000000E+00  0.37391003520E+03  0.37391003520E+03  0.00000000000E+00 0. -1.
         -2   -1    0    0    0  501 -0.00000000000E+00 -0.00000000000E+00 -0.14103375031E+01  0.14103375031E+01  0.00000000000E+00 0.  1.
          1    1    1    2  502    0  0.22959308484E+02 -0.44550263688E+00  0.18539172387E+03  0.18680851051E+03  0.00000000000E+00 0.  1.
         -1    1    1    2    0  501 -0.22959308484E+02  0.44550263688E+00  0.18710797382E+03  0.18851186219E+03  0.00000000000E+00 0. -1.
</event>
<event>
 4    1  0.6934088E+001  0.3012251E+02  0.7546771E-02  0.1418535E+00
          2   -1    0    0  502    0  0.00000000000E+00  0.00000000000E+00  0.24984000870E+01  0.24984000870E+01  0.00000000000E+00 0. -1.
         -2   -1    0    0    0  501 -0.00000000000E+00 -0.00000000000E+00 -0.61318090135E+03  0.61318090135E+03  0.00000000000E+00 0.  1.
          1    1    1    2  502    0  0.29862656092E+02 -0.39481020470E+01 -0.50190442147E+03  0.50280753180E+03  0.00000000000E+00 0.  1.
         -1    1    1    2    0  501 -0.29862656092E+02  0.39481020470E+01 -0.10877807979E+03  0.11287176964E+03  0.00000000000E+00 0. -1.
</event>
<event>
 4    1  0.6934088E+001  0.8157915E+02  0.7546771E-02  0.1200228E+00
          2   -1    0    0  502    0  0.00000000000E+00  0.00000000000E+00  0.13375581363E+04  0.13375581363E+04  0.00000000000E+00 0. -1.
         -2   -1    0    0    0  501 -0.00000000000E+00 -0.00000000000E+00 -0.53813089627E+01  0.53813089627E+01  0.00000000000E+00 0.  1.
          1    1    1    2  502    0  0.47400035084E+02 -0.66395737377E+02  0.48171912950E+03  0.48857801525E+03  0.00000000000E+00 0.  1.
         -1    1    1    2    0  501 -0.47400035084E+02  0.66395737377E+02  0.85045769784E+03  0.85436143000E+03  0.00000000000E+00 0. -1.
</event>
<event>
 4    1  0.6934088E+001  0.2165932E+02  0.7546771E-02  0.1510056E+00
          2   -1    0    0  502    0  0.00000000000E+00  0.00000000000E+00  0.39514834234E+02  0.39514834234E+02  0.00000000000E+00 0. -1.
         -2   -1    0    0    0  501 -0.00000000000E+00 -0.00000000000E+00 -0.12016137322E+02  0.12016137322E+02  0.00000000000E+00 0.  1.
          1    1    1    2  502    0  0.21592052479E+02  0.17056567964E+01  0.10928890071E+02  0.24260392279E+02  0.00000000000E+00 0.  1.
         -1    1    1    2    0  501 -0.21592052479E+02 -0.17056567964E+01  0.16569806841E+02  0.27270579277E+02  0.00000000000E+00 0. -1.
</event>
<event>
 4    1  0.6934088E+001  0.2889039E+02  0.7546771E-02  0.1429490E+00
          2   -1    0    0  502    0  0.00000000000E+00  0.00000000000E+00  0.22012909427E+04  0.22012909427E+04  0.00000000000E+00 0.  1.
         -2   -1    0    0    0  501 -0.00000000000E+00 -0.00000000000E+00 -0.58798653774E+00  0.58798653774E+00  0.00000000000E+00 0. -1.
          1    1    1    2  502    0 -0.55783556322E+01  0.28346722276E+02  0.17564458879E+04  0.17566834695E+04  0.00000000000E+00 0.  1.
         -1    1    1    2    0  501  0.55783556322E+01 -0.28346722276E+02  0.44425706828E+03  0.44519545980E+03  0.00000000000E+00 0. -1.
</event>
<event>
 4    1  0.6934088E+001  0.2398498E+02  0.7546771E-02  0.1480487E+00
          2   -1    0    0  502    0  0.00000000000E+00  0.00000000000E+00  0.43532451144E+03  0.43532451144E+03  0.00000000000E+00 0. -1.
         -2   -1    0    0    0  501 -0.00000000000E+00 -0.00000000000E+00 -0.16449301950E+02  0.16449301950E+02  0.00000000000E+00 0.  1.
          1    1    1    2  502    0  0.27502151550E+01 -0.23826779058E+02 -0.71857670160E+01  0.25038257353E+02  0.00000000000E+00 0.  1.
         -1    1    1    2    0  501 -0.27502151550E+01  0.23826779058E+02  0.42606097650E+03  0.42673555603E+03  0.00000000000E+00 0. -1.
</event>
<event>
 4    1  0.6934088E+001  0.2197522E+02  0.7546771E-02  0.1505783E+00
          2   -1    0    0  502    0  0.00000000000E+00  0.00000000000E+00  0.56979409320E+01  0.56979409320E+01  0.00000000000E+00 0.  1.
         -2   -1    0    0    0  501 -0.00000000000E+00 -0.00000000000E+00 -0.85750188911E+02  0.85750188911E+02  0.00000000000E+00 0. -1.
          1    1    1    2  502    0 -0.21831828110E+02 -0.25063212835E+01 -0.35092206633E+02  0.41404991624E+02  0.00000000000E+00 0. -1.
         -1    1    1    2    0  501  0.21831828110E+02  0.25063212835E+01 -0.44960041346E+02  0.50043138219E+02  0.00000000000E+00 0.  1.
</event>
<event>
 4    1  0.6934088E+001  0.5049543E+02  0.7546771E-02  0.1296039E+00
          2   -1    0    0  502    0  0.00000000000E+00  0.00000000000E+00  0.75320086364E+03  0.75320086364E+03  0.00000000000E+00 0.  1.
         -2   -1    0    0    0  501 -0.00000000000E+00 -0.00000000000E+00 -0.45964458149E+01  0.45964458149E+01  0.00000000000E+00 0. -1.
          1    1    1    2  502    0 -0.21904788743E+02  0.45496905821E+02  0.56880041707E+03  0.57103739165E+03  0.00000000000E+00 0.  1.
         -1    1    1    2    0  501  0.21904788743E+02 -0.45496905821E+02  0.17980400076E+03  0.18675991780E+03  0.00000000000E+00 0. -1.
</event>
<event>
 4    1  0.6934088E+001  0.3292902E+02  0.7546771E-02  0.1395738E+00
          2   -1    0    0  502    0  0.00000000000E+00  0.00000000000E+00  0.16801261730E+02  0.16801261730E+02  0.00000000000E+00 0. -1.
         -2   -1    0    0    0  501 -0.00000000000E+00 -0.00000000000E+00 -0.65781664513E+02  0.65781664513E+02  0.00000000000E+00 0.  1.
          1    1    1    2  502    0 -0.26682448817E+02 -0.19296819578E+02 -0.30167665004E+02  0.44658799049E+02  0.00000000000E+00 0.  1.
         -1    1    1    2    0  501  0.26682448817E+02  0.19296819578E+02 -0.18812737778E+02  0.37924127194E+02  0.00000000000E+00 0. -1.
</event>
<event>
 4    1  0.6934088E+001  0.3933575E+02  0.7546771E-02  0.1352423E+00
          2   -1    0    0  502    0  0.00000000000E+00  0.00000000000E+00  0.13928837951E+04  0.13928837951E+04  0.00000000000E+00 0.  1.
         -2   -1    0    0    0  501 -0.00000000000E+00 -0.00000000000E+00 -0.11353335391E+01  0.11353335391E+01  0.00000000000E+00 0. -1.
          1    1    1    2  502    0 -0.10704876793E+02 -0.37851112679E+02  0.79820617234E+03  0.79917482110E+03  0.00000000000E+00 0. -1.
         -1    1    1    2    0  501  0.10704876793E+02  0.37851112679E+02  0.59354228920E+03  0.59484430752E+03  0.00000000000E+00 0.  1.
</event>
<event>
 4    1  0.6934088E+001  0.3722635E+02  0.7546771E-02  0.1365553E+00
          2   -1    0    0  502    0  0.00000000000E+00  0.00000000000E+00  0.91600814902E+02  0.91600814902E+02  0.00000000000E+00 0. -1.
         -2   -1    0    0    0  501 -0.00000000000E+00 -0.00000000000E+00 -0.35751679350E+02  0.35751679350E+02  0.00000000000E+00 0.  1.
          1    1    1    2  502    0 -0.36105735126E+02  0.90651672230E+01  0.76286642778E+02  0.84884941139E+02  0.00000000000E+00 0. -1.
         -1    1    1    2    0  501  0.36105735126E+02 -0.90651672230E+01 -0.20437507227E+02  0.42467553113E+02  0.00000000000E+00 0.  1.
</event>
<event>
 4    1  0.6934088E+001  0.2495887E+02  0.7546771E-02  0.1469264E+00
          2   -1    0    0  502    0  0.00000000000E+00  0.00000000000E+00  0.12126516734E+02  0.12126516734E+02  0.00000000000E+00 0. -1.
         -2   -1    0    0    0  501 -0.00000000000E+00 -0.00000000000E+00 -0.53134725096E+02  0.53134725096E+02  0.00000000000E+00 0.  1.
          1    1    1    2  502    0 -0.24595695956E+02  0.42422534230E+01 -0.14558230249E+02  0.28894411945E+02  0.00000000000E+00 0. -1.
         -1    1    1    2    0  501  0.24595695956E+02 -0.42422534230E+01 -0.26449978113E+02  0.36366829885E+02  0.00000000000E+00 0.  1.
</event>
<event>
 4    1  0.6934088E+001  0.2011416E+02  0.7546771E-02  0.1532298E+00
          2   -1    0    0  502    0  0.00000000000E+00  0.00000000000E+00  0.25876784307E+03  0.25876784307E+03  0.00000000000E+00 0.  1.
         -2   -1    0    0    0  501 -0.00000000000E+00 -0.00000000000E+00 -0.16769279406E+01  0.16769279406E+01  0.00000000000E+00 0. -1.
          1    1    1    2  502    0 -0.11396121157E+01 -0.20081846385E+02  0.94675088477E+02  0.96788179279E+02  0.00000000000E+00 0.  1.
         -1    1    1    2    0  501  0.11396121157E+01  0.20081846385E+02  0.16241582665E+03  0.16365659173E+03  0.00000000000E+00 0. -1.
</event>
<event>
 4    1  0.6934088E+001  0.5988662E+02  0.7546771E-02  0.1260218E+00
          2   -1    0    0  502    0  0.00000000000E+00  0.00000000000E+00  0.35423260666E+03  0.35423260666E+03  0.00000000000E+00 0.  1.
         -2   -1    0    0    0  501 -0.00000000000E+00 -0.00000000000E+00 -0.14309657670E+02  0.14309657670E+02  0.00000000000E+00 0. -1.
          1    1    1    2  502    0  0.13826094824E+02 -0.58268746674E+02  0.70305907182E+02  0.92354362765E+02  0.00000000000E+00 0. -1.
         -1    1    1    2    0  501 -0.13826094824E+02  0.58268746674E+02  0.26961704181E+03  0.27618790157E+03  0.00000000000E+00 0.  1.
</event>
<event>
 4    1  0.6934088E+001  0.4012569E+02  0.7546771E-02  0.1347751E+00
          2   -1    0    0  502    0  0.00000000000E+00  0.00000000000E+00  0.58946957650E+01  0.58946957650E+01  0.00000000000E+00 0. -1.
         -2   -1    0    0    0  501 -0.00000000000E+00 -0.00000000000E+00 -0.40367042066E+03  0.40367042066E+03  0.00000000000E+00 0.  1.
          1    1    1    2  502    0  0.23181831419E+02 -0.32751693767E+02 -0.31533724474E+03  0.31787992808E+03  0.00000000000E+00 0.  1.
         -1    1    1    2    0  501 -0.23181831419E+02  0.32751693767E+02 -0.82438480154E+02  0.91685188349E+02  0.00000000000E+00 0. -1.
</event>
<event>
 4    1  0.6934088E+001  0.2211166E+02  0.7546771E-02  0.1503965E+00
          2   -1    0    0  502    0  0.00000000000E+00  0.00000000000E+00  0.16444174991E+02  0.16444174991E+02  0.00000000000E+00 0. -1.
         -2   -1    0    0    0  501 -0.00000000000E+00 -0.00000000000E+00 -0.29790774904E+02  0.29790774904E+02  0.00000000000E+00 0.  1.
          1    1    1    2  502    0 -0.16419151603E+02  0.14810023825E+02 -0.76963258997E+01  0.23412790894E+02  0.00000000000E+00 0. -1.
         -1    1    1    2    0  501  0.16419151603E+02 -0.14810023825E+02 -0.56502740132E+01  0.22822159002E+02  0.00000000000E+00 0.  1.
</event>
<event>
 4    1  0.6934088E+001  0.2410293E+02  0.7546771E-02  0.1479094E+00
          2   -1    0    0  502    0  0.00000000000E+00  0.00000000000E+00  0.14014997073E+04  0.14014997073E+04  0.00000000000E+00 0. -1.
         -2   -1    0    0    0  501 -0.00000000000E+00 -0.00000000000E+00 -0.45234688126E+00  0.45234688126E+00  0.00000000000E+00 0.  1.
          1    1    1    2  502    0  0.16184972236E+02 -0.17860506453E+02  0.49781979653E+03  0.49840295026E+03  0.00000000000E+00 0. -1.
         -1    1    1    2    0  501 -0.16184972236E+02  0.17860506453E+02  0.90322756388E+03  0.90354910391E+03  0.00000000000E+00 0.  1.
</event>
<event>
 4    1  0.6934088E+001  0.2156458E+02  0.7546771E-02  0.1511355E+00
          2   -1    0    0  502    0  0.00000000000E+00  0.00000000000E+00  0.32857639729E+01  0.32857639729E+01  0.00000000000E+00 0.  1.
         -2   -1    0    0    0  501 -0.00000000000E+00 -0.00000000000E+00 -0.14216632559E+03  0.14216632559E+03  0.00000000000E+00 0. -1.
          1    1    1    2  502    0  0.62904333430E+01  0.20626717925E+02 -0.74309465372E+02  0.77375239502E+02  0.00000000000E+00 0.  1.
         -1    1    1    2    0  501 -0.62904333430E+01 -0.20626717925E+02 -0.64571096240E+02  0.68076850057E+02  0.00000000000E+00 0. -1.
</event>
<event>
 4    1  0.6934088E+001  0.2243341E+02  0.7546771E-02  0.1499738E+00
          2   -1    0    0  502    0  0.00000000000E+00  0.00000000000E+00  0.10435852693E+04  0.10435852693E+04  0.00000000000E+00 0. -1.
         -2   -1    0    0    0  501 -0.00000000000E+00 -0.00000000000E+00 -0.48398505447E+00  0.48398505447E+00  0.00000000000E+00 0.  1.
          1    1    1    2  502    0  0.21152709842E+02  0.74713272947E+01  0.49019824919E+03  0.49071130145E+03  0.00000000000E+00 0.  1.
         -1    1    1    2    0  501 -0.21152709842E+02 -0.74713272947E+01  0.55290303507E+03  0.55335795291E+03  0.00000000000E+00 0. -1.
</event>
<event>
 4    1  0.6934088E+001  0.2483422E+02  0.7546771E-02  0.1470667E+00
          2   -1    0    0  502    0  0.00000000000E+00  0.00000000000E+00  0.12014542164E+04  0.12014542164E+04  0.00000000000E+00 0. -1.
         -2   -1    0    0    0  501 -0.00000000000E+00 -0.00000000000E+00 -0.84783575809E+00  0.84783575809E+00  0.00000000000E+00 0.  1.
          1    1    1    2  502    0 -0.22030714416E+01 -0.24736310926E+02  0.97790288052E+03  0.97821816704E+03  0.00000000000E+00 0. -1.
         -1    1    1    2    0  501  0.22030714416E+01  0.24736310926E+02  0.22270350008E+03  0.22408388507E+03  0.00000000000E+00 0.  1.
</event>
<event>
 4    1  0.6934088E+001  0.2474307E+02  0.7546771E-02  0.1471698E+00
          2   -1    0    0  502    0  0.00000000000E+00  0.00000000000E+00  0.48675297630E+02  0.48675297630E+02  0.00000000000E+00 0.  1.
         -2   -1    0    0    0  501 -0.00000000000E+00 -0.00000000000E+00 -0.15272808430E+02  0.15272808430E+02  0.00000000000E+00 0. -1.
          1    1    1    2  502    0 -0.16861496289E+02  0.18108268292E+02  0.30132998881E+02  0.38989961006E+02  0.00000000000E+00 0.  1.
         -1    1    1    2    0  501  0.16861496289E+02 -0.18108268292E+02  0.32694903187E+01  0.24958145055E+02  0.00000000000E+00 0. -1.
</event>
<event>
 4    1  0.6934088E+001  0.2509192E+02  0.7546771E-02  0.1467778E+00
          2   -1    0    0  502    0  0.00000000000E+00  0.00000000000E+00  0.10187740474E+02  0.10187740474E+02  0.00000000000E+00 0. -1.
         -2   -1    0    0    0  501 -0.00000000000E+00 -0.00000000000E+00 -0.13909059707E+03  0.13909059707E+03  0.00000000000E+00 0.  1.
          1    1    1    2  502    0 -0.24656876920E+02  0.46521996235E+01 -0.12009059776E+03  0.12268396884E+03  0.00000000000E+00 0.  1.
         -1    1    1    2    0  501  0.24656876920E+02 -0.46521996235E+01 -0.88122588370E+01  0.26594368701E+02  0.00000000000E+00 0. -1.
</event>
<event>
 4    1  0.6934088E+001  0.3327343E+02  0.7546771E-02  0.1393125E+00
          2   -1    0    0  502    0  0.00000000000E+00  0.00000000000E+00  0.28427994675E+03  0.28427994675E+03  0.00000000000E+00 0. -1.
         -2   -1    0    0    0  501 -0.00000000000E+00 -0.00000000000E+00 -0.38966864127E+01  0.38966864127E+01  0.00000000000E+00 0.  1.
          1    1    1    2  502    0  0.21691452288E+02  0.25230979846E+02  0.14362335159E+03  0.14742723143E+03  0.00000000000E+00 0. -1.
         -1    1    1    2    0  501 -0.21691452288E+02 -0.25230979846E+02  0.13675990874E+03  0.14074940172E+03  0.00000000000E+00 0.  1.
</event>
<event>
 4    1  0.6934088E+001  0.3323521E+02  0.7546771E-02  0.1393413E+00
          2   -1    0    0  502    0  0.00000000000E+00  0.00000000000E+00  0.16842730733E+03  0.16842730733E+03  0.00000000000E+00 0. -1.
         -2   -1    0    0    0  501 -0.00000000000E+00 -0.00000000000E+00 -0.65584025231E+01  0.65584025231E+01  0.00000000000E+00 0.  1.
          1    1    1    2  502    0  0.22066343618E+02 -0.24852680962E+02  0.81425577683E+02  0.87947165802E+02  0.00000000000E+00 0. -1.
         -1    1    1    2    0  501 -0.22066343618E+02  0.24852680962E+02  0.80443327122E+02  0.87038544049E+02  0.00000000000E+00 0.  1.
</event>
<event>
 4    1  0.6934088E+001  0.3674136E+02  0.7546771E-02  0.1368717E+00
          2   -1    0    0  502    0  0.00000000000E+00  0.00000000000E+00  0.11489413205E+01  0.11489413205E+01  0.00000000000E+00 0. -1.
         -2   -1    0    0    0  501 -0.00000000000E+00 -0.00000000000E+00 -0.12541313225E+04  0.12541313225E+04  0.00000000000E+00 0.  1.
          1    1    1    2  502    0  0.33401782980E+02 -0.15305179533E+02 -0.46876615317E+03  0.47020382174E+03  0.00000000000E+00 0. -1.
         -1    1    1    2    0  501 -0.33401782980E+02  0.15305179533E+02 -0.78421622798E+03  0.78507644205E+03  0.00000000000E+00 0.  1.
</event>
<event>
 4    1  0.6934088E+001  0.2015573E+02  0.7546771E-02  0.1531668E+00
          2   -1    0    0  502    0  0.00000000000E+00  0.00000000000E+00  0.10774798377E+04  0.10774798377E+04  0.00000000000E+00 0.  1.
         -2   -1    0    0    0  501 -0.00000000000E+00 -0.00000000000E+00 -0.42506252220E+00  0.42506252220E+00  0.00000000000E+00 0. -1.
          1    1    1    2  502    0  0.19975237876E+02 -0.26913303856E+01  0.35737465407E+03  0.35794258863E+03  0.00000000000E+00 0. -1.
         -1    1    1    2    0  501 -0.19975237876E+02  0.26913303856E+01  0.71968012107E+03  0.71996231155E+03  0.00000000000E+00 0.  1.
</event>
<event>
 4    1  0.6934088E+001  0.3035936E+02  0.7546771E-02  0.1416499E+00
          2   -1    0    0  502    0  0.00000000000E+00  0.00000000000E+00  0.55882258746E+03  0.55882258746E+03  0.00000000000E+00 0.  1.
         -2   -1    0    0    0  501 -0.00000000000E+00 -0.00000000000E+00 -0.29040715826E+01  0.29040715826E+01  0.00000000000E+00 0. -1.
          1    1    1    2  502    0  0.29535403750E+02 -0.70250136470E+01  0.93344659908E+02  0.98157610122E+02  0.00000000000E+00 0. -1.
         -1    1    1    2    0  501 -0.29535403750E+02  0.70250136470E+01  0.46257385597E+03  0.46356904892E+03  0.00000000000E+00 0.  1.
</event>
<event>
 4    1  0.6934088E+001  0.4141618E+02  0.7546771E-02  0.1340381E+00
          2   -1    0    0  502    0  0.00000000000E+00  0.00000000000E+00  0.86729910219E+02  0.86729910219E+02  0.00000000000E+00 0. -1.
         -2   -1    0    0    0  501 -0.00000000000E+00 -0.00000000000E+00 -0.19807090418E+02  0.19807090418E+02  0.00000000000E+00 0.  1.
          1    1    1    2  502    0 -0.38299605824E+02 -0.15761971675E+02  0.31402009733E+02  0.51974857119E+02  0.00000000000E+00 0.  1.
         -1    1    1    2    0  501  0.38299605824E+02  0.15761971675E+02  0.35520810068E+02  0.54562143517E+02  0.00000000000E+00 0. -1.
</event>
<event>
 4    1  0.6934088E+001  0.2320044E+02  0.7546771E-02  0.1489996E+00
          2   -1    0    0  502    0  0.00000000000E+00  0.00000000000E+00  0.53935010283E+03  0.53935010283E+03  0.00000000000E+00 0.  1.
         -2   -1    0    0    0  501 -0.00000000000E+00 -0.00000000000E+00 -0.22224525014E+01  0.22224525014E+01  0.00000000000E+00 0. -1.
          1    1    1    2  502    0 -0.11469764825E+02  0.20166929584E+02  0.67568967304E+02  0.71441065897E+02  0.00000000000E+00 0. -1.
         -1    1    1    2    0  501  0.11469764825E+02 -0.20166929584E+02  0.46955868302E+03  0.47013148943E+03  0.00000000000E+00 0.  1.
</event>
<event>
 4    1  0.6934088E+001  0.2595589E+02  0.7546771E-02  0.1458388E+00
          2   -1    0    0  502    0  0.00000000000E+00  0.00000000000E+00  0.40645999717E+01  0.40645999717E+01  0.00000000000E+00 0. -1.
         -2   -1    0    0    0  501 -0.00000000000E+00 -0.00000000000E+00 -0.16856427322E+03  0.16856427322E+03  0.00000000000E+00 0.  1.
          1    1    1    2  502    0 -0.24562041863E+02 -0.83913134274E+01 -0.71097330115E+02  0.75687108486E+02  0.00000000000E+00 0.  1.
         -1    1    1    2    0  501  0.24562041863E+02  0.83913134274E+01 -0.93402343138E+02  0.96941764711E+02  0.00000000000E+00 0. -1.
</event>
<event>
 4    1  0.6934088E+001  0.3495766E+02  0.7546771E-02  0.1380861E+00
          2   -1    0    0  502    0  0.00000000000E+00  0.00000000000E+00  0.35134511018E+02  0.35134511018E+02  0.00000000000E+00 0.  1.
         -2   -1    0    0    0  501 -0.00000000000E+00 -0.00000000000E+00 -0.37621410067E+02  0.37621410067E+02  0.00000000000E+00 0. -1.
          1    1    1    2  502    0  0.23645665993E+01 -0.34877596076E+02  0.87509824254E+01  0.36036336893E+02  0.00000000000E+00 0.  1.
         -1    1    1    2    0  501 -0.23645665993E+01  0.34877596076E+02 -0.11237881475E+02  0.36719584193E+02  0.00000000000E+00 0. -1.
</event>
<event>
 4    1  0.6934088E+001  0.5016615E+02  0.7546771E-02  0.1297454E+00
          2   -1    0    0  502    0  0.00000000000E+00  0.00000000000E+00  0.24208232758E+02  0.24208232758E+02  0.00000000000E+00 0. -1.
         -2   -1    0    0    0  501 -0.00000000000E+00 -0.00000000000E+00 -0.11337710069E+03  0.11337710069E+03  0.00000000000E+00 0.  1.
          1    1    1    2  502    0 -0.48859171366E+02 -0.11376486500E+02 -0.24756349838E+02  0.55942112303E+02  0.00000000000E+00 0. -1.
         -1    1    1    2    0  501  0.48859171366E+02  0.11376486500E+02 -0.64412518091E+02  0.81643221142E+02  0.00000000000E+00 0.  1.
</event>
<event>
 4    1  0.6934088E+001  0.4723678E+02  0.7546771E-02  0.1310619E+00
          2   -1    0    0  502    0  0.00000000000E+00  0.00000000000E+00  0.45707839192E+03  0.45707839192E+03  0.00000000000E+00 0. -1.
         -2   -1    0    0    0  501 -0.00000000000E+00 -0.00000000000E+00 -0.93037866184E+01  0.93037866184E+01  0.00000000000E+00 0.  1.
          1    1    1    2  502    0 -0.23613587057E+02 -0.40911026781E+02  0.38465409452E+03  0.38754365695E+03  0.00000000000E+00 0. -1.
         -1    1    1    2    0  501  0.23613587057E+02  0.40911026781E+02  0.63120510781E+02  0.78838521594E+02  0.00000000000E+00 0.  1.
</event>
<event>
 4    1  0.6934088E+001  0.2275467E+02  0.7546771E-02  0.1495602E+00
          2   -1    0    0  502    0  0.00000000000E+00  0.00000000000E+00  0.50148437311E+02  0.50148437311E+02  0.00000000000E+00 0.  1.
         -2   -1    0    0    0  501 -0.00000000000E+00 -0.00000000000E+00 -0.18976228647E+02  0.18976228647E+02  0.00000000000E+00 0. -1.
          1    1    1    2  502    0 -0.38289286643E+00  0.22751449310E+02 -0.77506673893E+01  0.24038467040E+02  0.00000000000E+00 0. -1.
         -1    1    1    2    0  501  0.38289286643E+00 -0.22751449310E+02  0.38922876053E+02  0.45086198918E+02  0.00000000000E+00 0.  1.
</event>
<event>
 4    1  0.6934088E+001  0.3494246E+02  0.7546771E-02  0.1380968E+00
          2   -1    0    0  502    0  0.00000000000E+00  0.00000000000E+00  0.12809614078E+04  0.12809614078E+04  0.00000000000E+00 0. -1.
         -2   -1    0    0    0  501 -0.00000000000E+00 -0.00000000000E+00 -0.95406782442E+00  0.95406782442E+00  0.00000000000E+00 0.  1.
          1    1    1    2  502    0  0.33411516504E+02  0.10229665639E+02  0.62035422179E+03  0.62133753789E+03  0.00000000000E+00 0.  1.
         -1    1    1    2    0  501 -0.33411516504E+02 -0.10229665639E+02  0.65965311819E+03  0.66057793774E+03  0.00000000000E+00 0. -1.
</event>
<event>
 4    1  0.6934088E+001  0.2775790E+02  0.7546771E-02  0.1440140E+00
          2   -1    0    0  502    0  0.00000000000E+00  0.00000000000E+00  0.75520684146E+03  0.75520684146E+03  0.00000000000E+00 0. -1.
         -2   -1    0    0    0  501 -0.00000000000E+00 -0.00000000000E+00 -0.24174179014E+01  0.24174179014E+01  0.00000000000E+00 0.  1.
          1    1    1    2  502    0 -0.26630332348E+02 -0.78311125577E+01  0.66438117487E+03  0.66496078565E+03  0.00000000000E+00 0. -1.
         -1    1    1    2    0  501  0.26630332348E+02  0.78311125577E+01  0.88408248685E+02  0.92663473713E+02  0.00000000000E+00 0.  1.
</event>
<event>
 4    1  0.6934088E+001  0.2217641E+02  0.7546771E-02  0.1503107E+00
          2   -1    0    0  502    0  0.00000000000E+00  0.00000000000E+00  0.10300659305E+02  0.10300659305E+02  0.00000000000E+00 0.  1.
         -2   -1    0    0    0  501 -0.00000000000E+00 -0.00000000000E+00 -0.61547669291E+02  0.61547669291E+02  0.00000000000E+00 0. -1.
          1    1    1    2  502    0 -0.21827415792E+02  0.39187860976E+01 -0.42636499333E+02  0.48058964201E+02  0.00000000000E+00 0. -1.
         -1    1    1    2    0  501  0.21827415792E+02 -0.39187860976E+01 -0.86105106526E+01  0.23789364395E+02  0.00000000000E+00 0.  1.
</event>
<event>
 4    1  0.6934088E+001  0.3951946E+02  0.7546771E-02  0.1351325E+00
          2   -1    0    0  502    0  0.00000000000E+00  0.00000000000E+00  0.23997078100E+02  0.23997078100E+02  0.00000000000E+00 0.  1.
         -2   -1    0    0    0  501 -0.00000000000E+00 -0.00000000000E+00 -0.67517406380E+02  0.67517406380E+02  0.00000000000E+00 0. -1.
          1    1    1    2  502    0  0.12107998470E+02  0.37618930670E+02 -0.30449798707E+02  0.49889656373E+02  0.00000000000E+00 0.  1.
         -1    1    1    2    0  501 -0.12107998470E+02 -0.37618930670E+02 -0.13070529572E+02  0.41624828108E+02  0.00000000000E+00 0. -1.
</event>
<event>
 4    1  0.6934088E+001  0.3498573E+02  0.7546771E-02  0.1380664E+00
          2   -1    0    0  502    0  0.00000000000E+00  0.00000000000E+00  0.99507107331E+01  0.99507107331E+01  0.00000000000E+00 0. -1.
         -2   -1    0    0    0  501 -0.00000000000E+00 -0.00000000000E+00 -0.17274580593E+03  0.17274580593E+03  0.00000000000E+00 0.  1.
          1    1    1    2  502    0  0.34976137958E+02 -0.81917126202E+00 -0.32380546107E+02  0.47670756594E+02  0.00000000000E+00 0. -1.
         -1    1    1    2    0  501 -0.34976137958E+02  0.81917126202E+00 -0.13041454909E+03  0.13502576007E+03  0.00000000000E+00 0.  1.
</event>
<event>
 4    1  0.6934088E+001  0.3878193E+02  0.7546771E-02  0.1355775E+00
          2   -1    0    0  502    0  0.00000000000E+00  0.00000000000E+00  0.64815400907E+03  0.64815400907E+03  0.00000000000E+00 0. -1.
         -2   -1    0    0    0  501 -0.00000000000E+00 -0.00000000000E+00 -0.31371635948E+01  0.31371635948E+01  0.00000000000E+00 0.  1.
          1    1    1    2  502    0  0.37113596242E+02  0.11252526445E+02  0.15635876844E+03  0.16109656373E+03  0.00000000000E+00 0.  1.
         -1    1    1    2    0  501 -0.37113596242E+02 -0.11252526445E+02  0.48865807703E+03  0.49019460893E+03  0.00000000000E+00 0. -1.
</event>
<event>
 4    1  0.6934088E+001  0.2289041E+02  0.7546771E-02  0.1493879E+00
          2   -1    0    0  502    0  0.00000000000E+00  0.00000000000E+00  0.48092326365E+02  0.48092326365E+02  0.00000000000E+00 0.  1.
         -2   -1    0    0    0  501 -0.00000000000E+00 -0.00000000000E+00 -0.13269132429E+02  0.13269132429E+02  0.00000000000E+00 0. -1.
          1    1    1    2  502    0 -0.12710985015E+02  0.19036846441E+02  0.44341931028E+01  0.23315932984E+02  0.00000000000E+00 0. -1.
         -1    1    1    2    0  501  0.12710985015E+02 -0.19036846441E+02  0.30389000834E+02  0.38045525810E+02  0.00000000000E+00 0.  1.
</event>
<event>
 4    1  0.6934088E+001  0.2076675E+02  0.7546771E-02  0.1522621E+00
          2   -1    0    0  502    0  0.00000000000E+00  0.00000000000E+00  0.46259419159E+03  0.46259419159E+03  0.00000000000E+00 0. -1.
         -2   -1    0    0    0  501 -0.00000000000E+00 -0.00000000000E+00 -0.11479396888E+01  0.11479396888E+01  0.00000000000E+00 0.  1.
          1    1    1    2  502    0 -0.23452442100E+00 -0.20765421856E+02  0.13021704684E+03  0.13186256873E+03  0.00000000000E+00 0. -1.
         -1    1    1    2    0  501  0.23452442100E+00  0.20765421856E+02  0.33122920507E+03  0.33187956254E+03  0.00000000000E+00 0.  1.
</event>
<event>
 4    1  0.6934088E+001  0.2115964E+02  0.7546771E-02  0.1516998E+00
          2   -1    0    0  502    0  0.00000000000E+00  0.00000000000E+00  0.46355994133E+02  0.46355994133E+02  0.00000000000E+00 0.  1.
         -2   -1    0    0    0  501 -0.00000000000E+00 -0.00000000000E+00 -0.11019497829E+02  0.11019497829E+02  0.00000000000E+00 0. -1.
          1    1    1    2  502    0  0.90201289008E+01  0.19140727126E+02  0.75863682742E+01  0.22478504040E+02  0.00000000000E+00 0. -1.
         -1    1    1    2    0  501 -0.90201289008E+01 -0.19140727126E+02  0.27750128030E+02  0.34896987921E+02  0.00000000000E+00 0.  1.
</event>
<event>
 4    1  0.6934088E+001  0.2388376E+02  0.7546771E-02  0.1481689E+00
          2   -1    0    0  502    0  0.00000000000E+00  0.00000000000E+00  0.13801342489E+04  0.13801342489E+04  0.00000000000E+00 0.  1.
         -2   -1    0    0    0  501 -0.00000000000E+00 -0.00000000000E+00 -0.49827773141E+00  0.49827773141E+00  0.00000000000E+00 0. -1.
          1    1    1    2  502    0 -0.23882079812E+02  0.28312277906E+00  0.40476884702E+03  0.40547287630E+03  0.00000000000E+00 0. -1.
         -1    1    1    2    0  501  0.23882079812E+02 -0.28312277906E+00  0.97486712412E+03  0.97515965031E+03  0.00000000000E+00 0.  1.
</event>
<event>
 4    1  0.6934088E+001  0.2323825E+02  0.7546771E-02  0.1489528E+00
          2   -1    0    0  502    0  0.00000000000E+00  0.00000000000E+00  0.18912047208E+03  0.18912047208E+03  0.00000000000E+00 0.  1.
         -2   -1    0    0    0  501 -0.00000000000E+00 -0.00000000000E+00 -0.28939670782E+01  0.28939670782E+01  0.00000000000E+00 0. -1.
          1    1    1    2  502    0 -0.22086700325E+02 -0.72245223781E+01  0.82031153327E+02  0.85259170598E+02  0.00000000000E+00 0.  1.
         -1    1    1    2    0  501  0.22086700325E+02  0.72245223781E+01  0.10419535168E+03  0.10675526856E+03  0.00000000000E+00 0. -1.
</event>
<event>
 4    1  0.6934088E+001  0.2770525E+02  0.7546771E-02  0.1440650E+00
          2   -1    0    0  502    0  0.00000000000E+00  0.00000000000E+00  0.35077312466E+02  0.35077312466E+02  0.00000000000E+00 0.  1.
         -2   -1    0    0    0  501 -0.00000000000E+00 -0.00000000000E+00 -0.24648534593E+02  0.24648534593E+02  0.00000000000E+00 0. -1.
          1    1    1    2  502    0  0.27148520186E+02  0.55261975589E+01  0.15218113581E+02  0.31609681882E+02  0.00000000000E+00 0. -1.
         -1    1    1    2    0  501 -0.27148520186E+02 -0.55261975589E+01 -0.47893357074E+01  0.28116165177E+02  0.00000000000E+00 0.  1.
</event>
<event>
 4    1  0.6934088E+001  0.4035603E+02  0.7546771E-02  0.1346412E+00
          2   -1    0    0  502    0  0.00000000000E+00  0.00000000000E+00  0.26335442428E+02  0.26335442428E+02  0.00000000000E+00 0. -1.
         -2   -1    0    0    0  501 -0.00000000000E+00 -0.00000000000E+00 -0.62510112671E+02  0.62510112671E+02  0.00000000000E+00 0.  1.
          1    1    1    2  502    0  0.20224440507E+02 -0.34922504993E+02 -0.13491235928E+02  0.42551413556E+02  0.00000000000E+00 0.  1.
         -1    1    1    2    0  501 -0.20224440507E+02  0.34922504993E+02 -0.22683434316E+02  0.46294141543E+02  0.00000000000E+00 0. -1.
</event>
<event>
 4    1  0.6934088E+001  0.2275308E+02  0.7546771E-02  0.1495622E+00
          2   -1    0    0  502    0  0.00000000000E+00  0.00000000000E+00  0.18422166122E+02  0.18422166122E+02  0.00000000000E+00 0.  1.
         -2   -1    0    0    0  501 -0.00000000000E+00 -0.00000000000E+00 -0.31184454883E+02  0.31184454883E+02  0.00000000000E+00 0. -1.
          1    1    1    2  502    0 -0.16857211518E+02  0.15281920884E+02 -0.14179042635E+02  0.26809474745E+02  0.00000000000E+00 0. -1.
         -1    1    1    2    0  501  0.16857211518E+02 -0.15281920884E+02  0.14167538751E+01  0.22797146260E+02  0.00000000000E+00 0.  1.
</event>
<event>
 4    1  0.6934088E+001  0.2394095E+02  0.7546771E-02  0.1481009E+00
          2   -1    0    0  502    0  0.00000000000E+00  0.00000000000E+00  0.30154233782E+03  0.30154233782E+03  0.00000000000E+00 0.  1.
         -2   -1    0    0    0  501 -0.00000000000E+00 -0.00000000000E+00 -0.29423324101E+01  0.29423324101E+01  0.00000000000E+00 0. -1.
          1    1    1    2  502    0  0.18044134767E+02 -0.15734618010E+02  0.23987906300E+03  0.24107080676E+03  0.00000000000E+00 0.  1.
         -1    1    1    2    0  501 -0.18044134767E+02  0.15734618010E+02  0.58720942410E+02  0.63413863476E+02  0.00000000000E+00 0. -1.
</event>
<event>
 4    1  0.6934088E+001  0.2626799E+02  0.7546771E-02  0.1455103E+00
          2   -1    0    0  502    0  0.00000000000E+00  0.00000000000E+00  0.47684799492E+03  0.47684799492E+03  0.00000000000E+00 0. -1.
         -2   -1    0    0    0  501 -0.00000000000E+00 -0.00000000000E+00 -0.29834288831E+01  0.29834288831E+01  0.00000000000E+00 0.  1.
          1    1    1    2  502    0 -0.12110286613E+02  0.23309826499E+02  0.64763383117E+02  0.69887787531E+02  0.00000000000E+00 0.  1.
         -1    1    1    2    0  501  0.12110286613E+02 -0.23309826499E+02  0.40910118292E+03  0.40994363628E+03  0.00000000000E+00 0. -1.
</event>
<event>
 4    1  0.6934088E+001  0.2235974E+02  0.7546771E-02  0.1500698E+00
          2   -1    0    0  502    0  0.00000000000E+00  0.00000000000E+00  0.44044079082E+01  0.44044079082E+01  0.00000000000E+00 0.  1.
         -2   -1    0    0    0  501 -0.00000000000E+00 -0.00000000000E+00 -0.17816187798E+03  0.17816187798E+03  0.00000000000E+00 0. -1.
          1    1    1    2  502    0 -0.11366225004E+02 -0.19255303550E+02 -0.14186617664E+03  0.14361744274E+03  0.00000000000E+00 0. -1.
         -1    1    1    2    0  501  0.11366225004E+02  0.19255303550E+02 -0.31891293437E+02  0.38948843150E+02  0.00000000000E+00 0.  1.
</event>
<event>
 4    1  0.6934088E+001  0.2438094E+02  0.7546771E-02  0.1475849E+00
          2   -1    0    0  502    0  0.00000000000E+00  0.00000000000E+00  0.11286163781E+04  0.11286163781E+04  0.00000000000E+00 0.  1.
         -2   -1    0    0    0  501 -0.00000000000E+00 -0.00000000000E+00 -0.52946803076E+00  0.52946803076E+00  0.00000000000E+00 0. -1.
          1    1    1    2  502    0 -0.21914283906E+02  0.10686173931E+02  0.52314332960E+03  0.52371115461E+03  0.00000000000E+00 0. -1.
         -1    1    1    2    0  501  0.21914283906E+02 -0.10686173931E+02  0.60494358050E+03  0.60543469156E+03  0.00000000000E+00 0.  1.
</event>
<event>
 4    1  0.6934088E+001  0.2223999E+02  0.7546771E-02  0.1502269E+00
          2   -1    0    0  502    0  0.00000000000E+00  0.00000000000E+00  0.15578043746E+04  0.15578043746E+04  0.00000000000E+00 0. -1.
         -2   -1    0    0    0  501 -0.00000000000E+00 -0.00000000000E+00 -0.51693795670E+00  0.51693795670E+00  0.00000000000E+00 0.  1.
          1    1    1    2  502    0 -0.10699807151E+02  0.19496958290E+02  0.12625950288E+04  0.12627908869E+04  0.00000000000E+00 0. -1.
         -1    1    1    2    0  501  0.10699807151E+02 -0.19496958290E+02  0.29469240780E+03  0.29553042562E+03  0.00000000000E+00 0.  1.
</event>
<event>
 4    1  0.6934088E+001  0.2159235E+02  0.7546771E-02  0.1510973E+00
          2   -1    0    0  502    0  0.00000000000E+00  0.00000000000E+00  0.68482359522E+01  0.68482359522E+01  0.00000000000E+00 0.  1.
         -2   -1    0    0    0  501 -0.00000000000E+00 -0.00000000000E+00 -0.78414940601E+02  0.78414940601E+02  0.00000000000E+00 0. -1.
          1    1    1    2  502    0 -0.16449720355E+01  0.21529603411E+02 -0.51260125336E+02  0.55622209642E+02  0.00000000000E+00 0.  1.
         -1    1    1    2    0  501  0.16449720355E+01 -0.21529603411E+02 -0.20306579314E+02  0.29640966912E+02  0.00000000000E+00 0. -1.
</event>
<event>
 4    1  0.6934088E+001  0.2489466E+02  0.7546771E-02  0.1469985E+00
          2   -1    0    0  502    0  0.00000000000E+00  0.00000000000E+00  0.15022403448E+03  0.15022403448E+03  0.00000000000E+00 0.  1.
         -2   -1    0    0    0  501 -0.00000000000E+00 -0.00000000000E+00 -0.55784718607E+01  0.55784718607E+01  0.00000000000E+00 0. -1.
          1    1    1    2  502    0  0.22939134422E+02 -0.96716067322E+01  0.32565124174E+02  0.40990623040E+02  0.00000000000E+00 0. -1.
         -1    1    1    2    0  501 -0.22939134422E+02  0.96716067322E+01  0.11208043845E+03  0.11481188330E+03  0.00000000000E+00 0.  1.
</event>
<event>
 4    1  0.6934088E+001  0.2609435E+02  0.7546771E-02  0.1456924E+00
          2   -1    0    0  502    0  0.00000000000E+00  0.00000000000E+00  0.89376238848E+03  0.89376238848E+03  0.00000000000E+00 0. -1.
         -2   -1    0    0    0  501 -0.00000000000E+00 -0.00000000000E+00 -0.93335815221E+00  0.93335815221E+00  0.00000000000E+00 0.  1.
          1    1    1    2  502    0 -0.14741112776E+02  0.21531708891E+02  0.63817571563E+03  0.63870897827E+03  0.00000000000E+00 0. -1.
         -1    1    1    2    0  501  0.14741112776E+02 -0.21531708891E+02  0.25465331469E+03  0.25598676837E+03  0.00000000000E+00 0.  1.
</event>
<event>
 4    1  0.6934088E+001  0.2977591E+02  0.7546771E-02  0.1421554E+00
          2   -1    0    0  502    0  0.00000000000E+00  0.00000000000E+00  0.26316279669E+01  0.26316279669E+01  0.00000000000E+00 0. -1.
         -2   -1    0    0    0  501 -0.00000000000E+00 -0.00000000000E+00 -0.40669175968E+03  0.40669175968E+03  0.00000000000E+00 0.  1.
          1    1    1    2  502    0  0.71033192715E+01 -0.28916221159E+02 -0.11724981723E+03  0.12097158605E+03  0.00000000000E+00 0. -1.
         -1    1    1    2    0  501 -0.71033192715E+01  0.28916221159E+02 -0.28681031448E+03  0.28835180159E+03  0.00000000000E+00 0.  1.
</event>
<event>
 4    1  0.6934088E+001  0.2223709E+02  0.7546771E-02  0.1502307E+00
          2   -1    0    0  502    0  0.00000000000E+00  0.00000000000E+00  0.15107509066E+03  0.15107509066E+03  0.00000000000E+00 0.  1.
         -2   -1    0    0    0  501 -0.00000000000E+00 -0.00000000000E+00 -0.41381224035E+01  0.41381224035E+01  0.00000000000E+00 0. -1.
          1    1    1    2  502    0 -0.22052739618E+02 -0.28574145031E+01  0.10895011891E+03  0.11119629739E+03  0.00000000000E+00 0. -1.
         -1    1    1    2    0  501  0.22052739618E+02  0.28574145031E+01  0.37986849347E+02  0.44016915676E+02  0.00000000000E+00 0.  1.
</event>
<event>
 4    1  0.6934088E+001  0.5488203E+02  0.7546771E-02  0.1278288E+00
          2   -1    0    0  502    0  0.00000000000E+00  0.00000000000E+00  0.46130343780E+01  0.46130343780E+01  0.00000000000E+00 0.  1.
         -2   -1    0    0    0  501 -0.00000000000E+00 -0.00000000000E+00 -0.68491700008E+03  0.68491700008E+03  0.00000000000E+00 0. -1.
          1    1    1    2  502    0  0.17493594694E+02  0.52019339134E+02 -0.26565839211E+03  0.27126816769E+03  0.00000000000E+00 0. -1.
         -1    1    1    2    0  501 -0.17493594694E+02 -0.52019339134E+02 -0.41464557359E+03  0.41826186678E+03  0.00000000000E+00 0.  1.
</event>
<event>
 4    1  0.6934088E+001  0.2064024E+02  0.7546771E-02  0.1524464E+00
          2   -1    0    0  502    0  0.00000000000E+00  0.00000000000E+00  0.78119502796E+02  0.78119502796E+02  0.00000000000E+00 0.  1.
         -2   -1    0    0    0  501 -0.00000000000E+00 -0.00000000000E+00 -0.54639929631E+01  0.54639929631E+01  0.00000000000E+00 0. -1.
          1    1    1    2  502    0  0.13268115587E+02 -0.15810651395E+02  0.38164870966E+02  0.43388673229E+02  0.00000000000E+00 0.  1.
         -1    1    1    2    0  501 -0.13268115587E+02  0.15810651395E+02  0.34490638867E+02  0.40194822530E+02  0.00000000000E+00 0. -1.
</event>
<event>
 4    1  0.6934088E+001  0.6313556E+02  0.7546771E-02  0.1249536E+00
          2   -1    0    0  502    0  0.00000000000E+00  0.00000000000E+00  0.11149534543E+03  0.11149534543E+03  0.00000000000E+00 0. -1.
         -2   -1    0    0    0  501 -0.00000000000E+00 -0.00000000000E+00 -0.47789892571E+02  0.47789892571E+02  0.00000000000E+00 0.  1.
          1    1    1    2  502    0  0.33239916947E+02 -0.53676879882E+02  0.71825659490E+02  0.95629623411E+02  0.00000000000E+00 0.  1.
         -1    1    1    2    0  501 -0.33239916947E+02  0.53676879882E+02 -0.81202066338E+01  0.63655614586E+02  0.00000000000E+00 0. -1.
</event>
<event>
 4    1  0.6934088E+001  0.2644129E+02  0.7546771E-02  0.1453303E+00
          2   -1    0    0  502    0  0.00000000000E+00  0.00000000000E+00  0.54981828282E+01  0.54981828282E+01  0.00000000000E+00 0.  1.
         -2   -1    0    0    0  501 -0.00000000000E+00 -0.00000000000E+00 -0.20592114929E+03  0.20592114929E+03  0.00000000000E+00 0. -1.
          1    1    1    2  502    0 -0.80559787047E+01  0.25184180389E+02 -0.16558831249E+03  0.16768610845E+03  0.00000000000E+00 0. -1.
         -1    1    1    2    0  501  0.80559787047E+01 -0.25184180389E+02 -0.34834653970E+02  0.43733223663E+02  0.00000000000E+00 0.  1.
</event>
<event>
 4    1  0.6934088E+001  0.2387420E+02  0.7546771E-02  0.1481803E+00
          2   -1    0    0  502    0  0.00000000000E+00  0.00000000000E+00  0.14581087171E+04  0.14581087171E+04  0.00000000000E+00 0.  1.
         -2   -1    0    0    0  501 -0.00000000000E+00 -0.00000000000E+00 -0.75450712716E+00  0.75450712716E+00  0.00000000000E+00 0. -1.
          1    1    1    2  502    0 -0.23149587661E+02 -0.58372812430E+01  0.22230700781E+03  0.22358529242E+03  0.00000000000E+00 0. -1.
         -1    1    1    2    0  501  0.23149587661E+02  0.58372812430E+01  0.12350472021E+04  0.12352779318E+04  0.00000000000E+00 0.  1.
</event>
<event>
 4    1  0.6934088E+001  0.4326690E+02  0.7546771E-02  0.1330337E+00
          2   -1    0    0  502    0  0.00000000000E+00  0.00000000000E+00  0.13649336430E+02  0.13649336430E+02  0.00000000000E+00 0.  1.
         -2   -1    0    0    0  501 -0.00000000000E+00 -0.00000000000E+00 -0.20070239553E+03  0.20070239553E+03  0.00000000000E+00 0. -1.
          1    1    1    2  502    0 -0.40540541589E+02  0.15115867510E+02 -0.33217538638E+02  0.54547500731E+02  0.00000000000E+00 0. -1.
         -1    1    1    2    0  501  0.40540541589E+02 -0.15115867510E+02 -0.15383552047E+03  0.15980423123E+03  0.00000000000E+00 0.  1.
</event>
<event>
 4    1  0.6934088E+001  0.2098460E+02  0.7546771E-02  0.1519485E+00
          2   -1    0    0  502    0  0.00000000000E+00  0.00000000000E+00  0.24306912987E+04  0.24306912987E+04  0.00000000000E+00 0.  1.
         -2   -1    0    0    0  501 -0.00000000000E+00 -0.00000000000E+00 -0.18119951826E+00  0.18119951826E+00  0.00000000000E+00 0. -1.
          1    1    1    2  502    0  0.13652987262E+02  0.15935787898E+02  0.12323074877E+04  0.12324861450E+04  0.00000000000E+00 0.  1.
         -1    1    1    2    0  501 -0.13652987262E+02 -0.15935787898E+02  0.11982026115E+04  0.11983863532E+04  0.00000000000E+00 0. -1.
</event>
<event>
 4    1  0.6934088E+001  0.2810357E+02  0.7546771E-02  0.1436827E+00
          2   -1    0    0  502    0  0.00000000000E+00  0.00000000000E+00  0.12744444469E+04  0.12744444469E+04  0.00000000000E+00 0. -1.
         -2   -1    0    0    0  501 -0.00000000000E+00 -0.00000000000E+00 -0.64364106762E+00  0.64364106762E+00  0.00000000000E+00 0.  1.
          1    1    1    2  502    0  0.11326193816E+02  0.25720182266E+02  0.75978431687E+03  0.76030389885E+03  0.00000000000E+00 0. -1.
         -1    1    1    2    0  501 -0.11326193816E+02 -0.25720182266E+02  0.51401648899E+03  0.51478418915E+03  0.00000000000E+00 0.  1.
</event>
<event>
 4    1  0.6934088E+001  0.2527469E+02  0.7546771E-02  0.1465754E+00
          2   -1    0    0  502    0  0.00000000000E+00  0.00000000000E+00  0.17181699624E+04  0.17181699624E+04  0.00000000000E+00 0.  1.
         -2   -1    0    0    0  501 -0.00000000000E+00 -0.00000000000E+00 -0.37747575878E+00  0.37747575878E+00  0.00000000000E+00 0. -1.
          1    1    1    2  502    0  0.39240396128E+01 -0.24968213768E+02  0.75349925201E+03  0.75392302827E+03  0.00000000000E+00 0. -1.
         -1    1    1    2    0  501 -0.39240396128E+01  0.24968213768E+02  0.96429323460E+03  0.96462440985E+03  0.00000000000E+00 0.  1.
</event>
<event>
 4    1  0.6934088E+001  0.2272666E+02  0.7546771E-02  0.1495959E+00
          2   -1    0    0  502    0  0.00000000000E+00  0.00000000000E+00  0.87228696640E+01  0.87228696640E+01  0.00000000000E+00 0.  1.
         -2   -1    0    0    0  501 -0.00000000000E+00 -0.00000000000E+00 -0.67320520779E+02  0.67320520779E+02  0.00000000000E+00 0. -1.
          1    1    1    2  502    0 -0.19531165005E+02 -0.11620451250E+02 -0.16103498401E+02  0.27853616542E+02  0.00000000000E+00 0.  1.
         -1    1    1    2    0  501  0.19531165005E+02  0.11620451250E+02 -0.42494152714E+02  0.48189773901E+02  0.00000000000E+00 0. -1.
</event>
<event>
 4    1  0.6934088E+001  0.2723900E+02  0.7546771E-02  0.1445222E+00
          2   -1    0    0  502    0  0.00000000000E+00  0.00000000000E+00  0.15356388578E+03  0.15356388578E+03  0.00000000000E+00 0.  1.
         -2   -1    0    0    0  501 -0.00000000000E+00 -0.00000000000E+00 -0.48830921979E+01  0.48830921979E+01  0.00000000000E+00 0. -1.
          1    1    1    2  502    0  0.27194943462E+02 -0.15486381215E+01  0.82473728008E+02  0.86855506685E+02  0.00000000000E+00 0.  1.
         -1    1    1    2    0  501 -0.27194943462E+02  0.15486381215E+01  0.66207065569E+02  0.71591471288E+02  0.00000000000E+00 0. -1.
</event>
<event>
 4    1  0.6934088E+001  0.2069935E+02  0.7546771E-02  0.1523601E+00
          2   -1    0    0  502    0  0.00000000000E+00  0.00000000000E+00  0.64870032656E+02  0.64870032656E+02  0.00000000000E+00 0.  1.
         -2   -1    0    0    0  501 -0.00000000000E+00 -0.00000000000E+00 -0.97250049406E+01  0.97250049406E+01  0.00000000000E+00 0. -1.
          1    1    1    2  502    0  0.18355553440E+02  0.95674765743E+01  0.48698478383E+02  0.52915071075E+02  0.00000000000E+00 0.  1.
         -1    1    1    2    0  501 -0.18355553440E+02 -0.95674765743E+01  0.64465493326E+01  0.21679966521E+02  0.00000000000E+00 0. -1.
</event>
<event>
 4    1  0.6934088E+001  0.2182163E+02  0.7546771E-02  0.1507850E+00
          2   -1    0    0  502    0  0.00000000000E+00  0.00000000000E+00  0.75891853690E+03  0.75891853690E+03  0.00000000000E+00 0. -1.
         -2   -1    0    0    0  501 -0.00000000000E+00 -0.00000000000E+00 -0.65122104159E+00  0.65122104159E+00  0.00000000000E+00 0.  1.
          1    1    1    2  502    0  0.54138427986E+01  0.21139385962E+02  0.45169391388E+03  0.45222071511E+03  0.00000000000E+00 0. -1.
         -1    1    1    2    0  501 -0.54138427986E+01 -0.21139385962E+02  0.30657340198E+03  0.30734904283E+03  0.00000000000E+00 0.  1.
</event>
<event>
 4    1  0.6934088E+001  0.9210024E+02  0.7546771E-02  0.1178249E+00
          2   -1    0    0  502    0  0.00000000000E+00  0.00000000000E+00  0.99448022549E+03  0.99448022549E+03  0.00000000000E+00 0.  1.
         -2   -1    0    0    0  501 -0.00000000000E+00 -0.00000000000E+00 -0.11530644419E+02  0.11530644419E+02  0.00000000000E+00 0. -1.
          1    1    1    2  502    0 -0.91543030555E+02 -0.10115721554E+02  0.74809258936E+03  0.75374065601E+03  0.00000000000E+00 0. -1.
         -1    1    1    2    0  501  0.91543030555E+02  0.10115721554E+02  0.23485699171E+03  0.25227021390E+03  0.00000000000E+00 0.  1.
</event>
<event>
 4    1  0.6934088E+001  0.2068342E+02  0.7546771E-02  0.1523833E+00
          2   -1    0    0  502    0  0.00000000000E+00  0.00000000000E+00  0.50562420609E+02  0.50562420609E+02  0.00000000000E+00 0. -1.
         -2   -1    0    0    0  501 -0.00000000000E+00 -0.00000000000E+00 -0.85227013021E+01  0.85227013021E+01  0.00000000000E+00 0.  1.
          1    1    1    2  502    0 -0.24062922240E+01 -0.20542965197E+02  0.18504193651E+02  0.27752636704E+02  0.00000000000E+00 0.  1.
         -1    1    1    2    0  501  0.24062922240E+01  0.20542965197E+02  0.23535525656E+02  0.31332485207E+02  0.00000000000E+00 0. -1.
</event>
<event>
 4    1  0.6934088E+001  0.2343143E+02  0.7546771E-02  0.1487151E+00
          2   -1    0    0  502    0  0.00000000000E+00  0.00000000000E+00  0.39747733039E+01  0.39747733039E+01  0.00000000000E+00 0. -1.
         -2   -1    0    0    0  501 -0.00000000000E+00 -0.00000000000E+00 -0.22437268096E+03  0.22437268096E+03  0.00000000000E+00 0.  1.
          1    1    1    2  502    0  0.12078528484E+02 -0.20078372334E+02 -0.39413411565E+02  0.45852468823E+02  0.00000000000E+00 0. -1.
         -1    1    1    2    0  501 -0.12078528484E+02  0.20078372334E+02 -0.18098449609E+03  0.18249498544E+03  0.00000000000E+00 0.  1.
</event>
<event>
 4    1  0.6934088E+001  0.3416321E+02  0.7546771E-02  0.1386543E+00
          2   -1    0    0  502    0  0.00000000000E+00  0.00000000000E+00  0.17003284839E+04  0.17003284839E+04  0.00000000000E+00 0.  1.
         -2   -1    0    0    0  501 -0.00000000000E+00 -0.00000000000E+00 -0.76192608605E+00  0.76192608605E+00  0.00000000000E+00 0. -1.
          1    1    1    2  502    0 -0.19503709459E+02 -0.28048707127E+02  0.58201629328E+03  0.58301808746E+03  0.00000000000E+00 0. -1.
         -1    1    1    2    0  501  0.19503709459E+02  0.28048707127E+02  0.11175502645E+04  0.11180723225E+04  0.00000000000E+00 0.  1.
</event>
<event>
 4    1  0.6934088E+001  0.2652908E+02  0.7546771E-02  0.1452397E+00
          2   -1    0    0  502    0  0.00000000000E+00  0.00000000000E+00  0.13670978598E+04  0.13670978598E+04  0.00000000000E+00 0. -1.
         -2   -1    0    0    0  501 -0.00000000000E+00 -0.00000000000E+00 -0.65020743019E+00  0.65020743019E+00  0.00000000000E+00 0.  1.
          1    1    1    2  502    0 -0.26527433842E+02 -0.29515563303E+00  0.99529941774E+03  0.99565291282E+03  0.00000000000E+00 0. -1.
         -1    1    1    2    0  501  0.26527433842E+02  0.29515563303E+00  0.37114823462E+03  0.37209515439E+03  0.00000000000E+00 0.  1.
</event>
<event>
 4    1  0.6934088E+001  0.2546851E+02  0.7546771E-02  0.1463630E+00
          2   -1    0    0  502    0  0.00000000000E+00  0.00000000000E+00  0.12087809305E+03  0.12087809305E+03  0.00000000000E+00 0. -1.
         -2   -1    0    0    0  501 -0.00000000000E+00 -0.00000000000E+00 -0.98674285323E+01  0.98674285323E+01  0.00000000000E+00 0.  1.
          1    1    1    2  502    0  0.10886364682E+02  0.23024597534E+02  0.99658793199E+02  0.10286165510E+03  0.00000000000E+00 0. -1.
         -1    1    1    2    0  501 -0.10886364682E+02 -0.23024597534E+02  0.11351871316E+02  0.27883866481E+02  0.00000000000E+00 0.  1.
</event>
<event>
 4    1  0.6934088E+001  0.2087174E+02  0.7546771E-02  0.1521104E+00
          2   -1    0    0  502    0  0.00000000000E+00  0.00000000000E+00  0.12226889759E+04  0.12226889759E+04  0.00000000000E+00 0. -1.
         -2   -1    0    0    0  501 -0.00000000000E+00 -0.00000000000E+00 -0.36450942357E+00  0.36450942357E+00  0.00000000000E+00 0.  1.
          1    1    1    2  502    0  0.20870713826E+02  0.20669943530E+00  0.51932170760E+03  0.51974095991E+03  0.00000000000E+00 0.  1.
         -1    1    1    2    0  501 -0.20870713826E+02 -0.20669943530E+00  0.70300275886E+03  0.70331252540E+03  0.00000000000E+00 0. -1.
</event>
<event>
 4    1  0.6934088E+001  0.2610464E+02  0.7546771E-02  0.1456815E+00
          2   -1    0    0  502    0  0.00000000000E+00  0.00000000000E+00  0.37451790437E+02  0.37451790437E+02  0.00000000000E+00 0. -1.
         -2   -1    0    0    0  501 -0.00000000000E+00 -0.00000000000E+00 -0.25947733656E+02  0.25947733656E+02  0.00000000000E+00 0.  1.
          1    1    1    2  502    0 -0.23116273865E+02  0.12128079754E+02  0.23078930545E+02  0.34843786691E+02  0.00000000000E+00 0. -1.
         -1    1    1    2    0  501  0.23116273865E+02 -0.12128079754E+02 -0.11574873763E+02  0.28555737401E+02  0.00000000000E+00 0.  1.
</event>
<event>
 4    1  0.6934088E+001  0.3309704E+02  0.7546771E-02  0.1394459E+00
          2   -1    0    0  502    0  0.00000000000E+00  0.00000000000E+00  0.27276681177E+02  0.27276681177E+02  0.00000000000E+00 0. -1.
         -2   -1    0    0    0  501 -0.00000000000E+00 -0.00000000000E+00 -0.43936170689E+02  0.43936170689E+02  0.00000000000E+00 0.  1.
          1    1    1    2  502    0 -0.92222009521E+01 -0.31786242973E+02 -0.18769240543E+02  0.38048634973E+02  0.00000000000E+00 0. -1.
         -1    1    1    2    0  501  0.92222009521E+01  0.31786242973E+02  0.21097510311E+01  0.33164216893E+02  0.00000000000E+00 0.  1.
</event>
<event>
 4    1  0.6934088E+001  0.2105519E+02  0.7546771E-02  0.1518478E+00
          2   -1    0    0  502    0  0.00000000000E+00  0.00000000000E+00  0.95628623458E+01  0.95628623458E+01  0.00000000000E+00 0.  1.
         -2   -1    0    0    0  501 -0.00000000000E+00 -0.00000000000E+00 -0.50624227239E+02  0.50624227239E+02  0.00000000000E+00 0. -1.
          1    1    1    2  502    0 -0.64125700739E+01  0.20054921270E+02 -0.11795227425E+02  0.24133965942E+02  0.00000000000E+00 0. -1.
         -1    1    1    2    0  501  0.64125700739E+01 -0.20054921270E+02 -0.29266137467E+02  0.36053123642E+02  0.00000000000E+00 0.  1.
</event>
<event>
 4    1  0.6934088E+001  0.3130793E+02  0.7546771E-02  0.1408561E+00
          2   -1    0    0  502    0  0.00000000000E+00  0.00000000000E+00  0.10359518857E+03  0.10359518857E+03  0.00000000000E+00 0. -1.
         -2   -1    0    0    0  501 -0.00000000000E+00 -0.00000000000E+00 -0.12161030115E+02  0.12161030115E+02  0.00000000000E+00 0.  1.
          1    1    1    2  502    0  0.29854862517E+02  0.94272783604E+01  0.72985331998E+02  0.79416906765E+02  0.00000000000E+00 0.  1.
         -1    1    1    2    0  501 -0.29854862517E+02 -0.94272783604E+01  0.18448826458E+02  0.36339311921E+02  0.00000000000E+00 0. -1.
</event>
<event>
 4    1  0.6934088E+001  0.4636975E+02  0.7546771E-02  0.1314729E+00
          2   -1    0    0  502    0  0.00000000000E+00  0.00000000000E+00  0.37601839332E+03  0.37601839332E+03  0.00000000000E+00 0. -1.
         -2   -1    0    0    0  501 -0.00000000000E+00 -0.00000000000E+00 -0.92541178257E+01  0.92541178257E+01  0.00000000000E+00 0.  1.
          1    1    1    2  502    0  0.25882479202E+02  0.38474033810E+02  0.64307113748E+02  0.79281516673E+02  0.00000000000E+00 0.  1.
         -1    1    1    2    0  501 -0.25882479202E+02 -0.38474033810E+02  0.30245716175E+03  0.30599099447E+03  0.00000000000E+00 0. -1.
</event>
<event>
 4    1  0.6934088E+001  0.2916765E+02  0.7546771E-02  0.1426970E+00
          2   -1    0    0  502    0  0.00000000000E+00  0.00000000000E+00  0.46230843332E+03  0.46230843332E+03  0.00000000000E+00 0. -1.
         -2   -1    0    0    0  501 -0.00000000000E+00 -0.00000000000E+00 -0.19130810556E+01  0.19130810556E+01  0.00000000000E+00 0.  1.
          1    1    1    2  502    0 -0.28538521233E+02 -0.60253403953E+01  0.27549358023E+03  0.27703332772E+03  0.00000000000E+00 0. -1.
         -1    1    1    2    0  501  0.28538521233E+02  0.60253403953E+01  0.18490177204E+03  0.18718818665E+03  0.00000000000E+00 0.  1.
</event>
<event>
 4    1  0.6934088E+001  0.4435533E+02  0.7546771E-02  0.1324695E+00
          2   -1    0    0  502    0  0.00000000000E+00  0.00000000000E+00  0.19457895411E+04  0.19457895411E+04  0.00000000000E+00 0. -1.
         -2   -1    0    0    0  501 -0.00000000000E+00 -0.00000000000E+00 -0.11382745070E+01  0.11382745070E+01  0.00000000000E+00 0.  1.
          1    1    1    2  502    0  0.39845533764E+02  0.19486636194E+02  0.12977046807E+04  0.12984624884E+04  0.00000000000E+00 0.  1.
         -1    1    1    2    0  501 -0.39845533764E+02 -0.19486636194E+02  0.64694658587E+03  0.64846532715E+03  0.00000000000E+00 0. -1.
</event>
<event>
 4    1  0.6934088E+001  0.2354447E+02  0.7546771E-02  0.1485772E+00
          2   -1    0    0  502    0  0.00000000000E+00  0.00000000000E+00  0.86759298630E+03  0.86759298630E+03  0.00000000000E+00 0.  1.
         -2   -1    0    0    0  501 -0.00000000000E+00 -0.00000000000E+00 -0.72928210063E+00  0.72928210063E+00  0.00000000000E+00 0. -1.
          1    1    1    2  502    0 -0.18162477674E+02 -0.14982212879E+02  0.58623824045E+03  0.58671084605E+03  0.00000000000E+00 0.  1.
         -1    1    1    2    0  501  0.18162477674E+02  0.14982212879E+02  0.28062546375E+03  0.28161142236E+03  0.00000000000E+00 0. -1.
</event>
<event>
 4    1  0.6934088E+001  0.2210694E+02  0.7546771E-02  0.1504028E+00
          2   -1    0    0  502    0  0.00000000000E+00  0.00000000000E+00  0.23284215386E+01  0.23284215386E+01  0.00000000000E+00 0. -1.
         -2   -1    0    0    0  501 -0.00000000000E+00 -0.00000000000E+00 -0.21367429074E+03  0.21367429074E+03  0.00000000000E+00 0.  1.
          1    1    1    2  502    0  0.18628272054E+01  0.22028310269E+02 -0.91303415248E+02  0.93941631955E+02  0.00000000000E+00 0. -1.
         -1    1    1    2    0  501 -0.18628272054E+01 -0.22028310269E+02 -0.12004245395E+03  0.12206108032E+03  0.00000000000E+00 0.  1.
</event>
<event>
 4    1  0.6934088E+001  0.2122868E+02  0.7546771E-02  0.1516025E+00
          2   -1    0    0  502    0  0.00000000000E+00  0.00000000000E+00  0.59176258981E+03  0.59176258981E+03  0.00000000000E+00 0.  1.
         -2   -1    0    0    0  501 -0.00000000000E+00 -0.00000000000E+00 -0.10764690743E+01  0.10764690743E+01  0.00000000000E+00 0. -1.
          1    1    1    2  502    0  0.16186157462E+02  0.13735537970E+02  0.13501643977E+03  0.13667514663E+03  0.00000000000E+00 0. -1.
         -1    1    1    2    0  501 -0.16186157462E+02 -0.13735537970E+02  0.45566968096E+03  0.45616391226E+03  0.00000000000E+00 0.  1.
</event>
<event>
 4    1  0.6934088E+001  0.2142968E+02  0.7546771E-02  0.1513218E+00
          2   -1    0    0  502    0  0.00000000000E+00  0.00000000000E+00  0.78407101103E+02  0.78407101103E+02  0.00000000000E+00 0. -1.
         -2   -1    0    0    0  501 -0.00000000000E+00 -0.00000000000E+00 -0.68851334536E+01  0.68851334536E+01  0.00000000000E+00 0.  1.
          1    1    1    2  502    0  0.21261224335E+02 -0.26817314311E+01  0.19281428263E+02  0.28827154206E+02  0.00000000000E+00 0.  1.
         -1    1    1    2    0  501 -0.21261224335E+02  0.26817314311E+01  0.52240539386E+02  0.56465080352E+02  0.00000000000E+00 0. -1.
</event>
<event>
 4    1  0.6934088E+001  0.2274522E+02  0.7546771E-02  0.1495722E+00
          2   -1    0    0  502    0  0.00000000000E+00  0.00000000000E+00  0.18098152860E+02  0.18098152860E+02  0.00000000000E+00 0. -1.
         -2   -1    0    0    0  501 -0.00000000000E+00 -0.00000000000E+00 -0.35874545023E+02  0.35874545023E+02  0.00000000000E+00 0.  1.
          1    1    1    2  502    0 -0.27696113641E+01 -0.22575964078E+02  0.32760723704E+01  0.22979938018E+02  0.00000000000E+00 0. -1.
         -1    1    1    2    0  501  0.27696113641E+01  0.22575964078E+02 -0.21052464533E+02  0.30992759865E+02  0.00000000000E+00 0.  1.
</event>
<event>
 4    1  0.6934088E+001  0.2385868E+02  0.7546771E-02  0.1481988E+00
          2   -1    0    0  502    0  0.00000000000E+00  0.00000000000E+00  0.15906941303E+03  0.15906941303E+03  0.00000000000E+00 0.  1.
         -2   -1    0    0    0  501 -0.00000000000E+00 -0.00000000000E+00 -0.39080134802E+01  0.39080134802E+01  0.00000000000E+00 0. -1.
          1    1    1    2  502    0 -0.62320797059E+01  0.23030367969E+02  0.10124142058E+03  0.10401471967E+03  0.00000000000E+00 0.  1.
         -1    1    1    2    0  501  0.62320797059E+01 -0.23030367969E+02  0.53919978971E+02  0.58962706845E+02  0.00000000000E+00 0. -1.
</event>
<event>
 4    1  0.6934088E+001  0.2061312E+02  0.7546771E-02  0.1524861E+00
          2   -1    0    0  502    0  0.00000000000E+00  0.00000000000E+00  0.78602577648E+03  0.78602577648E+03  0.00000000000E+00 0. -1.
         -2   -1    0    0    0  501 -0.00000000000E+00 -0.00000000000E+00 -0.62281754176E+00  0.62281754176E+00  0.00000000000E+00 0.  1.
          1    1    1    2  502    0  0.95372358596E+00  0.20591042550E+02  0.53563572524E+03  0.53603221057E+03  0.00000000000E+00 0. -1.
         -1    1    1    2    0  501 -0.95372358596E+00 -0.20591042550E+02  0.24976723370E+03  0.25061638345E+03  0.00000000000E+00 0.  1.
</event>
<event>
 4    1  0.6934088E+001  0.2314152E+02  0.7546771E-02  0.1490729E+00
          2   -1    0    0  502    0  0.00000000000E+00  0.00000000000E+00  0.58910243573E+03  0.58910243573E+03  0.00000000000E+00 0.  1.
         -2   -1    0    0    0  501 -0.00000000000E+00 -0.00000000000E+00 -0.12688278336E+01  0.12688278336E+01  0.00000000000E+00 0. -1.
          1    1    1    2  502    0  0.40747126067E+01 -0.22779959452E+02  0.45109946857E+03  0.45169266142E+03  0.00000000000E+00 0.  1.
         -1    1    1    2    0  501 -0.40747126067E+01  0.22779959452E+02  0.13673413932E+03  0.13867860214E+03  0.00000000000E+00 0. -1.
</event>
<event>
 4    1  0.6934088E+001  0.2007266E+02  0.7546771E-02  0.1532928E+00
          2   -1    0    0  502    0  0.00000000000E+00  0.00000000000E+00  0.29545121876E+03  0.29545121876E+03  0.00000000000E+00 0. -1.
         -2   -1    0    0    0  501 -0.00000000000E+00 -0.00000000000E+00 -0.13702772716E+01  0.13702772716E+01  0.00000000000E+00 0.  1.
          1    1    1    2  502    0 -0.13138411379E+02 -0.15175433291E+02  0.13677103108E+03  0.13823612614E+03  0.00000000000E+00 0. -1.
         -1    1    1    2    0  501  0.13138411379E+02  0.15175433291E+02  0.15730991041E+03  0.15858536989E+03  0.00000000000E+00 0.  1.
</event>
<event>
 4    1  0.6934088E+001  0.3336397E+02  0.7546771E-02  0.1392445E+00
          2   -1    0    0  502    0  0.00000000000E+00  0.00000000000E+00  0.23248920803E+02  0.23248920803E+02  0.00000000000E+00 0.  1.
         -2   -1    0    0    0  501 -0.00000000000E+00 -0.00000000000E+00 -0.66864175909E+02  0.66864175909E+02  0.00000000000E+00 0. -1.
          1    1    1    2  502    0 -0.28785939570E+02  0.16867848612E+02 -0.45815786783E+02  0.56676634976E+02  0.00000000000E+00 0. -1.
         -1    1    1    2    0  501  0.28785939570E+02 -0.16867848612E+02  0.22005316766E+01  0.33436461736E+02  0.00000000000E+00 0.  1.
</event>
<event>
 4    1  0.6934088E+001  0.2770702E+02  0.7546771E-02  0.1440632E+00
          2   -1    0    0  502    0  0.00000000000E+00  0.00000000000E+00  0.86485240456E+03  0.86485240456E+03  0.00000000000E+00 0. -1.
         -2   -1    0    0    0  501 -0.00000000000E+00 -0.00000000000E+00 -0.89927239237E+00  0.89927239237E+00  0.00000000000E+00 0.  1.
          1    1    1    2  502    0 -0.27699100664E+02 -0.66249949284E+00  0.38274768440E+03  0.38374922671E+03  0.00000000000E+00 0. -1.
         -1    1    1    2    0  501  0.27699100664E+02  0.66249949284E+00  0.48120544776E+03  0.48200245024E+03  0.00000000000E+00 0.  1.
</event>
<event>
 4    1  0.6934088E+001  0.2792967E+02  0.7546771E-02  0.1438486E+00
          2   -1    0    0  502    0  0.00000000000E+00  0.00000000000E+00  0.10204646643E+03  0.10204646643E+03  0.00000000000E+00 0. -1.
         -2   -1    0    0    0  501 -0.00000000000E+00 -0.00000000000E+00 -0.93819206799E+01  0.93819206799E+01  0.00000000000E+00 0.  1.
          1    1    1    2  502    0 -0.24838468053E+02  0.12771727920E+02  0.70309909056E+02  0.75654146223E+02  0.00000000000E+00 0. -1.
         -1    1    1    2    0  501  0.24838468053E+02 -0.12771727920E+02  0.22354636693E+02  0.35774240886E+02  0.00000000000E+00 0.  1.
</event>
<event>
 4    1  0.6934088E+001  0.4487080E+02  0.7546771E-02  0.1322087E+00
          2   -1    0    0  502    0  0.00000000000E+00  0.00000000000E+00  0.10464603864E+04  0.10464603864E+04  0.00000000000E+00 0. -1.
         -2   -1    0    0    0  501 -0.00000000000E+00 -0.00000000000E+00 -0.19352554238E+01  0.19352554238E+01  0.00000000000E+00 0.  1.
          1    1    1    2  502    0 -0.39928565463E+02 -0.20471886254E+02  0.48228362662E+03  0.48436647796E+03  0.00000000000E+00 0.  1.
         -1    1    1    2    0  501  0.39928565463E+02  0.20471886254E+02  0.56224150436E+03  0.56402916387E+03  0.00000000000E+00 0. -1.
</event>
<event>
 4    1  0.6934088E+001  0.2119913E+02  0.7546771E-02  0.1516441E+00
          2   -1    0    0  502    0  0.00000000000E+00  0.00000000000E+00  0.17216581747E+03  0.17216581747E+03  0.00000000000E+00 0.  1.
         -2   -1    0    0    0  501 -0.00000000000E+00 -0.00000000000E+00 -0.32842528777E+01  0.32842528777E+01  0.00000000000E+00 0. -1.
          1    1    1    2  502    0 -0.47841608790E+01  0.20652237502E+02  0.12418029164E+03  0.12597677541E+03  0.00000000000E+00 0.  1.
         -1    1    1    2    0  501  0.47841608790E+01 -0.20652237502E+02  0.44701272952E+02  0.49473294944E+02  0.00000000000E+00 0. -1.
</event>
<event>
 4    1  0.6934088E+001  0.2135101E+02  0.7546771E-02  0.1514312E+00
          2   -1    0    0  502    0  0.00000000000E+00  0.00000000000E+00  0.46673645935E+03  0.46673645935E+03  0.00000000000E+00 0.  1.
         -2   -1    0    0    0  501 -0.00000000000E+00 -0.00000000000E+00 -0.12789130309E+01  0.12789130309E+01  0.00000000000E+00 0. -1.
          1    1    1    2  502    0  0.42142703375E+01 -0.20930973052E+02  0.11897659223E+03  0.12087719059E+03  0.00000000000E+00 0. -1.
         -1    1    1    2    0  501 -0.42142703375E+01  0.20930973052E+02  0.34648095409E+03  0.34713818179E+03  0.00000000000E+00 0.  1.
</event>
<event>
 4    1  0.6934088E+001  0.3921792E+02  0.7546771E-02  0.1353131E+00
          2   -1    0    0  502    0  0.00000000000E+00  0.00000000000E+00  0.16579515639E+03  0.16579515639E+03  0.00000000000E+00 0. -1.
         -2   -1    0    0    0  501 -0.00000000000E+00 -0.00000000000E+00 -0.96901537430E+01  0.96901537430E+01  0.00000000000E+00 0.  1.
          1    1    1    2  502    0 -0.37445963835E+02 -0.11655267333E+02  0.96174914002E+02  0.10386365845E+03  0.00000000000E+00 0. -1.
         -1    1    1    2    0  501  0.37445963835E+02  0.11655267333E+02  0.59930088644E+02  0.71621651677E+02  0.00000000000E+00 0.  1.
</event>
<event>
 4    1  0.6934088E+001  0.3494101E+02  0.7546771E-02  0.1380978E+00
          2   -1    0    0  502    0  0.00000000000E+00  0.00000000000E+00  0.11772997790E+04  0.11772997790E+04  0.00000000000E+00 0.  1.
         -2   -1    0    0    0  501 -0.00000000000E+00 -0.00000000000E+00 -0.10532598727E+01  0.10532598727E+01  0.00000000000E+00 0. -1.
          1    1    1    2  502    0 -0.31374335061E+02  0.15379383893E+02  0.51494670959E+03  0.51613078582E+03  0.00000000000E+00 0. -1.
         -1    1    1    2    0  501  0.31374335061E+02 -0.15379383893E+02  0.66129980953E+03  0.66222225305E+03  0.00000000000E+00 0.  1.
</event>
<event>
 4    1  0.6934088E+001  0.2113675E+02  0.7546771E-02  0.1517321E+00
          2   -1    0    0  502    0  0.00000000000E+00  0.00000000000E+00  0.34898992399E+02  0.34898992399E+02  0.00000000000E+00 0.  1.
         -2   -1    0    0    0  501 -0.00000000000E+00 -0.00000000000E+00 -0.13615080027E+02  0.13615080027E+02  0.00000000000E+00 0. -1.
          1    1    1    2  502    0 -0.14768169972E+02 -0.15121621102E+02  0.47126179595E+01  0.21655739127E+02  0.00000000000E+00 0. -1.
         -1    1    1    2    0  501  0.14768169972E+02  0.15121621102E+02  0.16571294413E+02  0.26858333299E+02  0.00000000000E+00 0.  1.
</event>
<event>
 4    1  0.6934088E+001  0.2073206E+02  0.7546771E-02  0.1523125E+00
          2   -1    0    0  502    0  0.00000000000E+00  0.00000000000E+00  0.12538189354E+04  0.12538189354E+04  0.00000000000E+00 0. -1.
         -2   -1    0    0    0  501 -0.00000000000E+00 -0.00000000000E+00 -0.45484705151E+00  0.45484705151E+00  0.00000000000E+00 0.  1.
          1    1    1    2  502    0  0.16129094110E+02 -0.13025774818E+02  0.93793638176E+03  0.93816548365E+03  0.00000000000E+00 0. -1.
         -1    1    1    2    0  501 -0.16129094110E+02  0.13025774818E+02  0.31542770656E+03  0.31610829878E+03  0.00000000000E+00 0.  1.
</event>
<event>
 4    1  0.6934088E+001  0.3580981E+02  0.7546771E-02  0.1374958E+00
          2   -1    0    0  502    0  0.00000000000E+00  0.00000000000E+00  0.57540336504E+01  0.57540336504E+01  0.00000000000E+00 0.  1.
         -2   -1    0    0    0  501 -0.00000000000E+00 -0.00000000000E+00 -0.25957642566E+03  0.25957642566E+03  0.00000000000E+00 0. -1.
          1    1    1    2  502    0 -0.17494303086E+02  0.31245670430E+02 -0.17680608994E+03  0.18039605318E+03  0.00000000000E+00 0. -1.
         -1    1    1    2    0  501  0.17494303086E+02 -0.31245670430E+02 -0.77016302062E+02  0.84934406129E+02  0.00000000000E+00 0.  1.
</event>
<event>
 4    1  0.6934088E+001  0.2706284E+02  0.7546771E-02  0.1446978E+00
          2   -1    0    0  502    0  0.00000000000E+00  0.00000000000E+00  0.60537206344E+03  0.60537206344E+03  0.00000000000E+00 0.  1.
         -2   -1    0    0    0  501 -0.00000000000E+00 -0.00000000000E+00 -0.12349344134E+01  0.12349344134E+01  0.00000000000E+00 0. -1.
          1    1    1    2  502    0 -0.26722985613E+02  0.42754237918E+01  0.25882399461E+03  0.26023500416E+03  0.00000000000E+00 0. -1.
         -1    1    1    2    0  501  0.26722985613E+02 -0.42754237918E+01  0.34531313442E+03  0.34637199369E+03  0.00000000000E+00 0.  1.
</event>
<event>
 4    1  0.6934088E+001  0.2096203E+02  0.7546771E-02  0.1519808E+00
          2   -1    0    0  502    0  0.00000000000E+00  0.00000000000E+00  0.18133620739E+03  0.18133620739E+03  0.00000000000E+00 0. -1.
         -2   -1    0    0    0  501 -0.00000000000E+00 -0.00000000000E+00 -0.87176419976E+01  0.87176419976E+01  0.00000000000E+00 0.  1.
          1    1    1    2  502    0 -0.26498982445E+01  0.20793861788E+02  0.55621412603E+01  0.21687417185E+02  0.00000000000E+00 0.  1.
         -1    1    1    2    0  501  0.26498982445E+01 -0.20793861788E+02  0.16705642413E+03  0.16836643220E+03  0.00000000000E+00 0. -1.
</event>
<event>
 4    1  0.6934088E+001  0.5042807E+02  0.7546771E-02  0.1296327E+00
          2   -1    0    0  502    0  0.00000000000E+00  0.00000000000E+00  0.11813898197E+02  0.11813898197E+02  0.00000000000E+00 0.  1.
         -2   -1    0    0    0  501 -0.00000000000E+00 -0.00000000000E+00 -0.21750077077E+03  0.21750077077E+03  0.00000000000E+00 0. -1.
          1    1    1    2  502    0 -0.50418480408E+02 -0.98363561557E+00 -0.11449637818E+03  0.12510959724E+03  0.00000000000E+00 0.  1.
         -1    1    1    2    0  501  0.50418480408E+02  0.98363561557E+00 -0.91190494396E+02  0.10420507173E+03  0.00000000000E+00 0. -1.
</event>
<event>
 4    1  0.6934088E+001  0.5192144E+02  0.7546771E-02  0.1290050E+00
          2   -1    0    0  502    0  0.00000000000E+00  0.00000000000E+00  0.32356188699E+03  0.32356188699E+03  0.00000000000E+00 0. -1.
         -2   -1    0    0    0  501 -0.00000000000E+00 -0.00000000000E+00 -0.16707568913E+02  0.16707568913E+02  0.00000000000E+00 0.  1.
          1    1    1    2  502    0 -0.39128259561E+02 -0.34129385141E+02  0.32965158802E+02  0.61502335900E+02  0.00000000000E+00 0.  1.
         -1    1    1    2    0  501  0.39128259561E+02  0.34129385141E+02  0.27388915927E+03  0.27876712000E+03  0.00000000000E+00 0. -1.
</event>
<event>
 4    1  0.6934088E+001  0.3755960E+02  0.7546771E-02  0.1363412E+00
          2   -1    0    0  502    0  0.00000000000E+00  0.00000000000E+00  0.44005813500E+03  0.44005813500E+03  0.00000000000E+00 0. -1.
         -2   -1    0    0    0  501 -0.00000000000E+00 -0.00000000000E+00 -0.35702912104E+01  0.35702912104E+01  0.00000000000E+00 0.  1.
          1    1    1    2  502    0 -0.30912880287E+02  0.21333481530E+02  0.28912022744E+03  0.29154970333E+03  0.00000000000E+00 0. -1.
         -1    1    1    2    0  501  0.30912880287E+02 -0.21333481530E+02  0.14736761636E+03  0.15207872288E+03  0.00000000000E+00 0.  1.
</event>
<event>
 4    1  0.6934088E+001  0.2504554E+02  0.7546771E-02  0.1468295E+00
          2   -1    0    0  502    0  0.00000000000E+00  0.00000000000E+00  0.82506648664E+03  0.82506648664E+03  0.00000000000E+00 0.  1.
         -2   -1    0    0    0  501 -0.00000000000E+00 -0.00000000000E+00 -0.17517726747E+01  0.17517726747E+01  0.00000000000E+00 0. -1.
          1    1    1    2  502    0  0.14001695186E+02  0.20766120613E+02  0.72267609793E+03  0.72310996518E+03  0.00000000000E+00 0.  1.
         -1    1    1    2    0  501 -0.14001695186E+02 -0.20766120613E+02  0.10063861603E+03  0.10370829413E+03  0.00000000000E+00 0. -1.
</event>
<event>
 4    1  0.6934088E+001  0.3896536E+02  0.7546771E-02  0.1354658E+00
          2   -1    0    0  502    0  0.00000000000E+00  0.00000000000E+00  0.56569433693E+02  0.56569433693E+02  0.00000000000E+00 0.  1.
         -2   -1    0    0    0  501 -0.00000000000E+00 -0.00000000000E+00 -0.26984287841E+02  0.26984287841E+02  0.00000000000E+00 0. -1.
          1    1    1    2  502    0 -0.28363040181E+02 -0.26717728065E+02  0.11733093253E+02  0.40693543942E+02  0.00000000000E+00 0.  1.
         -1    1    1    2    0  501  0.28363040181E+02  0.26717728065E+02  0.17852052599E+02  0.42860177592E+02  0.00000000000E+00 0. -1.
</event>
<event>
 4    1  0.6934088E+001  0.3619409E+02  0.7546771E-02  0.1372357E+00
          2   -1    0    0  502    0  0.00000000000E+00  0.00000000000E+00  0.21839202457E+03  0.21839202457E+03  0.00000000000E+00 0. -1.
         -2   -1    0    0    0  501 -0.00000000000E+00 -0.00000000000E+00 -0.88672035628E+01  0.88672035628E+01  0.00000000000E+00 0.  1.
          1    1    1    2  502    0 -0.12080484375E+02 -0.34118526361E+02  0.40130736990E+02  0.54041539533E+02  0.00000000000E+00 0.  1.
         -1    1    1    2    0  501  0.12080484375E+02  0.34118526361E+02  0.16939408402E+03  0.17321768860E+03  0.00000000000E+00 0. -1.
</event>
<event>
 4    1  0.6934088E+001  0.3307180E+02  0.7546771E-02  0.1394650E+00
          2   -1    0    0  502    0  0.00000000000E+00  0.00000000000E+00  0.43571917234E+03  0.43571917234E+03  0.00000000000E+00 0.  1.
         -2   -1    0    0    0  501 -0.00000000000E+00 -0.00000000000E+00 -0.26125967642E+01  0.26125967642E+01  0.00000000000E+00 0. -1.
          1    1    1    2  502    0  0.31847749657E+02 -0.89142926000E+01  0.25994157984E+03  0.26203696056E+03  0.00000000000E+00 0.  1.
         -1    1    1    2    0  501 -0.31847749657E+02  0.89142926000E+01  0.17316499573E+03  0.17629480854E+03  0.00000000000E+00 0. -1.
</event>
<event>
 4    1  0.6934088E+001  0.2124305E+02  0.7546771E-02  0.1515823E+00
          2   -1    0    0  502    0  0.00000000000E+00  0.00000000000E+00  0.64886982266E+03  0.64886982266E+03  0.00000000000E+00 0. -1.
         -2   -1    0    0    0  501 -0.00000000000E+00 -0.00000000000E+00 -0.91279097528E+00  0.91279097528E+00  0.00000000000E+00 0.  1.
          1    1    1    2  502    0 -0.74632578517E+01 -0.19888869595E+02  0.48250672242E+03  0.48297412408E+03  0.00000000000E+00 0. -1.
         -1    1    1    2    0  501  0.74632578517E+01  0.19888869595E+02  0.16545030927E+03  0.16680848956E+03  0.00000000000E+00 0.  1.
</event>
<event>
 4    1  0.6934088E+001  0.2519425E+02  0.7546771E-02  0.1466642E+00
          2   -1    0    0  502    0  0.00000000000E+00  0.00000000000E+00  0.40217922034E+01  0.40217922034E+01  0.00000000000E+00 0.  1.
         -2   -1    0    0    0  501 -0.00000000000E+00 -0.00000000000E+00 -0.30564738609E+03  0.30564738609E+03  0.00000000000E+00 0. -1.
          1    1    1    2  502    0  0.24223188087E+02  0.69272770552E+01 -0.25849002220E+03  0.25971492369E+03  0.00000000000E+00 0. -1.
         -1    1    1    2    0  501 -0.24223188087E+02 -0.69272770552E+01 -0.43135571679E+02  0.49954254600E+02  0.00000000000E+00 0.  1.
</event>
<event>
 4    1  0.6934088E+001  0.2118212E+02  0.7546771E-02  0.1516680E+00
          2   -1    0    0  502    0  0.00000000000E+00  0.00000000000E+00  0.60902733264E+03  0.60902733264E+03  0.00000000000E+00 0. -1.
         -2   -1    0    0    0  501 -0.00000000000E+00 -0.00000000000E+00 -0.74814188376E+00  0.74814188376E+00  0.00000000000E+00 0.  1.
          1    1    1    2  502    0  0.72710530783E+01 -0.19895076933E+02  0.34181229566E+03  0.34246799524E+03  0.00000000000E+00 0. -1.
         -1    1    1    2    0  501 -0.72710530783E+01  0.19895076933E+02  0.26646689509E+03  0.26730747928E+03  0.00000000000E+00 0.  1.
</event>
<event>
 4    1  0.6934088E+001  0.2000250E+02  0.7546771E-02  0.1533997E+00
          2   -1    0    0  502    0  0.00000000000E+00  0.00000000000E+00  0.89705154199E+01  0.89705154199E+01  0.00000000000E+00 0. -1.
         -2   -1    0    0    0  501 -0.00000000000E+00 -0.00000000000E+00 -0.64503839186E+02  0.64503839186E+02  0.00000000000E+00 0.  1.
          1    1    1    2  502    0  0.12672356623E+02  0.15476157843E+02 -0.73604181901E+01  0.21313747673E+02  0.00000000000E+00 0. -1.
         -1    1    1    2    0  501 -0.12672356623E+02 -0.15476157843E+02 -0.48172905576E+02  0.52160606933E+02  0.00000000000E+00 0.  1.
</event>
<event>
 4    1  0.6934088E+001  0.2536232E+02  0.7546771E-02  0.1464791E+00
          2   -1    0    0  502    0  0.00000000000E+00  0.00000000000E+00  0.16564418104E+04  0.16564418104E+04  0.00000000000E+00 0.  1.
         -2   -1    0    0    0  501 -0.00000000000E+00 -0.00000000000E+00 -0.43887299227E+00  0.43887299227E+00  0.00000000000E+00 0. -1.
          1    1    1    2  502    0  0.13096473211E+02  0.21719332811E+02  0.54686334370E+03  0.54745115190E+03  0.00000000000E+00 0. -1.
         -1    1    1    2    0  501 -0.13096473211E+02 -0.21719332811E+02  0.11091395937E+04  0.11094295315E+04  0.00000000000E+00 0.  1.
</event>
<event>
 4    1  0.6934088E+001  0.2394083E+02  0.7546771E-02  0.1481010E+00
          2   -1    0    0  502    0  0.00000000000E+00  0.00000000000E+00  0.11977365122E+04  0.11977365122E+04  0.00000000000E+00 0. -1.
         -2   -1    0    0    0  501 -0.00000000000E+00 -0.00000000000E+00 -0.48162344390E+00  0.48162344390E+00  0.00000000000E+00 0.  1.
          1    1    1    2  502    0 -0.22325269156E+02  0.86455702182E+01  0.55068206876E+03  0.55120223546E+03  0.00000000000E+00 0. -1.
         -1    1    1    2    0  501  0.22325269156E+02 -0.86455702182E+01  0.64657282004E+03  0.64701590022E+03  0.00000000000E+00 0.  1.
</event>
<event>
 4    1  0.6934088E+001  0.2797698E+02  0.7546771E-02  0.1438034E+00
          2   -1    0    0  502    0  0.00000000000E+00  0.00000000000E+00  0.13153429042E+04  0.13153429042E+04  0.00000000000E+00 0. -1.
         -2   -1    0    0    0  501 -0.00000000000E+00 -0.00000000000E+00 -0.68070465352E+00  0.68070465352E+00  0.00000000000E+00 0.  1.
          1    1    1    2  502    0  0.16632521255E+02 -0.22496011682E+02  0.89072955844E+03  0.89116881543E+03  0.00000000000E+00 0. -1.
         -1    1    1    2    0  501 -0.16632521255E+02  0.22496011682E+02  0.42393264113E+03  0.42485479346E+03  0.00000000000E+00 0.  1.
</event>
<event>
 4    1  0.6934088E+001  0.2557294E+02  0.7546771E-02  0.1462495E+00
          2   -1    0    0  502    0  0.00000000000E+00  0.00000000000E+00  0.66115343585E+02  0.66115343585E+02  0.00000000000E+00 0.  1.
         -2   -1    0    0    0  501 -0.00000000000E+00 -0.00000000000E+00 -0.16723936785E+02  0.16723936785E+02  0.00000000000E+00 0. -1.
          1    1    1    2  502    0 -0.19445248659E+02  0.16608956527E+02  0.51170167404E+02  0.57204555452E+02  0.00000000000E+00 0.  1.
         -1    1    1    2    0  501  0.19445248659E+02 -0.16608956527E+02 -0.17787606041E+01  0.25634724918E+02  0.00000000000E+00 0. -1.
</event>
<event>
 4    1  0.6934088E+001  0.2289790E+02  0.7546771E-02  0.1493784E+00
          2   -1    0    0  502    0  0.00000000000E+00  0.00000000000E+00  0.21706486954E+04  0.21706486954E+04  0.00000000000E+00 0.  1.
         -2   -1    0    0    0  501 -0.00000000000E+00 -0.00000000000E+00 -0.27181944250E+00  0.27181944250E+00  0.00000000000E+00 0. -1.
          1    1    1    2  502    0  0.76735585824E+01  0.21573833588E+02  0.14474289463E+04  0.14476100540E+04  0.00000000000E+00 0.  1.
         -1    1    1    2    0  501 -0.76735585824E+01 -0.21573833588E+02  0.72294792968E+03  0.72331046088E+03  0.00000000000E+00 0. -1.
</event>
<event>
 4    1  0.6934088E+001  0.4232951E+02  0.7546771E-02  0.1335350E+00
          2   -1    0    0  502    0  0.00000000000E+00  0.00000000000E+00  0.94113791226E+01  0.94113791226E+01  0.00000000000E+00 0. -1.
         -2   -1    0    0    0  501 -0.00000000000E+00 -0.00000000000E+00 -0.22638040069E+03  0.22638040069E+03  0.00000000000E+00 0.  1.
          1    1    1    2  502    0 -0.39104841417E+02 -0.16204909073E+02 -0.61473315483E+02  0.74637498730E+02  0.00000000000E+00 0. -1.
         -1    1    1    2    0  501  0.39104841417E+02  0.16204909073E+02 -0.15549570608E+03  0.16115428108E+03  0.00000000000E+00 0.  1.
</event>
<event>
 4    1  0.6934088E+001  0.2768430E+02  0.7546771E-02  0.1440853E+00
          2   -1    0    0  502    0  0.00000000000E+00  0.00000000000E+00  0.58805271979E+03  0.58805271979E+03  0.00000000000E+00 0.  1.
         -2   -1    0    0    0  501 -0.00000000000E+00 -0.00000000000E+00 -0.15245228423E+01  0.15245228423E+01  0.00000000000E+00 0. -1.
          1    1    1    2  502    0  0.20376674909E+02 -0.18740647260E+02  0.40555364233E+03  0.40649745085E+03  0.00000000000E+00 0.  1.
         -1    1    1    2    0  501 -0.20376674909E+02  0.18740647260E+02  0.18097455461E+03  0.18307979178E+03  0.00000000000E+00 0. -1.
</event>
<event>
 4    1  0.6934088E+001  0.2183080E+02  0.7546771E-02  0.1507726E+00
          2   -1    0    0  502    0  0.00000000000E+00  0.00000000000E+00  0.11713945425E+03  0.11713945425E+03  0.00000000000E+00 0.  1.
         -2   -1    0    0    0  501 -0.00000000000E+00 -0.00000000000E+00 -0.50785687981E+01  0.50785687981E+01  0.00000000000E+00 0. -1.
          1    1    1    2  502    0  0.14952247542E+02 -0.15906424097E+02  0.28777958682E+02  0.36121391723E+02  0.00000000000E+00 0. -1.
         -1    1    1    2    0  501 -0.14952247542E+02  0.15906424097E+02  0.83282926767E+02  0.86096631322E+02  0.00000000000E+00 0.  1.
</event>
<event>
 4    1  0.6934088E+001  0.2165188E+02  0.7546771E-02  0.1510158E+00
          2   -1    0    0  502    0  0.00000000000E+00  0.00000000000E+00  0.11611059380E+01  0.11611059380E+01  0.00000000000E+00 0.  1.
         -2   -1    0    0    0  501 -0.00000000000E+00 -0.00000000000E+00 -0.45807738434E+03  0.45807738434E+03  0.00000000000E+00 0. -1.
          1    1    1    2  502    0 -0.29545495896E+01  0.21449344140E+02 -0.30753027214E+03  0.30829153736E+03  0.00000000000E+00 0. -1.
         -1    1    1    2    0  501  0.29545495896E+01 -0.21449344140E+02 -0.14938600627E+03  0.15094695292E+03  0.00000000000E+00 0.  1.
</event>
<event>
 4    1  0.6934088E+001  0.2084343E+02  0.7546771E-02  0.1521512E+00
          2   -1    0    0  502    0  0.00000000000E+00  0.00000000000E+00  0.26425125344E+03  0.26425125344E+03  0.00000000000E+00 0.  1.
         -2   -1    0    0    0  501 -0.00000000000E+00 -0.00000000000E+00 -0.16818538557E+01  0.16818538557E+01  0.00000000000E+00 0. -1.
          1    1    1    2  502    0  0.18987269596E+02 -0.85983768284E+01  0.11135590025E+03  0.11328982748E+03  0.00000000000E+00 0. -1.
         -1    1    1    2    0  501 -0.18987269596E+02  0.85983768284E+01  0.15121349934E+03  0.15264327981E+03  0.00000000000E+00 0.  1.
</event>
<event>
 4    1  0.6934088E+001  0.1029601E+03  0.7546771E-02  0.1158775E+00
          2   -1    0    0  502    0  0.00000000000E+00  0.00000000000E+00  0.45143501435E+03  0.45143501435E+03  0.00000000000E+00 0.  1.
         -2   -1    0    0    0  501 -0.00000000000E+00 -0.00000000000E+00 -0.26036212923E+02  0.26036212923E+02  0.00000000000E+00 0. -1.
          1    1    1    2  502    0  0.45714074805E+02  0.92255156629E+02  0.13793060278E+03  0.17212100901E+03  0.00000000000E+00 0. -1.
         -1    1    1    2    0  501 -0.45714074805E+02 -0.92255156629E+02  0.28746819864E+03  0.30535021826E+03  0.00000000000E+00 0.  1.
</event>
<event>
 4    1  0.6934088E+001  0.2236579E+02  0.7546771E-02  0.1500619E+00
          2   -1    0    0  502    0  0.00000000000E+00  0.00000000000E+00  0.20356996323E+04  0.20356996323E+04  0.00000000000E+00 0. -1.
         -2   -1    0    0    0  501 -0.00000000000E+00 -0.00000000000E+00 -0.39025969398E+00  0.39025969398E+00  0.00000000000E+00 0.  1.
          1    1    1    2  502    0 -0.15316056421E+02  0.16298685499E+02  0.16371976119E+04  0.16373503746E+04  0.00000000000E+00 0. -1.
         -1    1    1    2    0  501  0.15316056421E+02 -0.16298685499E+02  0.39811176066E+03  0.39873951736E+03  0.00000000000E+00 0.  1.
</event>
<event>
 4    1  0.6934088E+001  0.2491414E+02  0.7546771E-02  0.1469766E+00
          2   -1    0    0  502    0  0.00000000000E+00  0.00000000000E+00  0.70317015057E+03  0.70317015057E+03  0.00000000000E+00 0. -1.
         -2   -1    0    0    0  501 -0.00000000000E+00 -0.00000000000E+00 -0.97682332734E+00  0.97682332734E+00  0.00000000000E+00 0.  1.
          1    1    1    2  502    0  0.23401363994E+02 -0.85492913274E+01  0.46036362465E+03  0.46103728821E+03  0.00000000000E+00 0. -1.
         -1    1    1    2    0  501 -0.23401363994E+02  0.85492913274E+01  0.24182970258E+03  0.24310968568E+03  0.00000000000E+00 0.  1.
</event>
<event>
 4    1  0.6934088E+001  0.2376153E+02  0.7546771E-02  0.1483151E+00
          2   -1    0    0  502    0  0.00000000000E+00  0.00000000000E+00  0.53970936449E+03  0.53970936449E+03  0.00000000000E+00 0. -1.
         -2   -1    0    0    0  501 -0.00000000000E+00 -0.00000000000E+00 -0.10699956035E+01  0.10699956035E+01  0.00000000000E+00 0.  1.
          1    1    1    2  502    0 -0.21584746163E+02  0.99352373769E+01  0.30969510113E+03  0.31060532171E+03  0.00000000000E+00 0. -1.
         -1    1    1    2    0  501  0.21584746163E+02 -0.99352373769E+01  0.22894426775E+03  0.23017403838E+03  0.00000000000E+00 0.  1.
</event>
<event>
 4    1  0.6934088E+001  0.3068296E+02  0.7546771E-02  0.1413753E+00
          2   -1    0    0  502    0  0.00000000000E+00  0.00000000000E+00  0.23923981033E+02  0.23923981033E+02  0.00000000000E+00 0.  1.
         -2   -1    0    0    0  501 -0.00000000000E+00 -0.00000000000E+00 -0.42323382259E+02  0.42323382259E+02  0.00000000000E+00 0. -1.
          1    1    1    2  502    0 -0.23489715442E+02  0.19740243398E+02 -0.17977103774E+02  0.35561498858E+02  0.00000000000E+00 0. -1.
         -1    1    1    2    0  501  0.23489715442E+02 -0.19740243398E+02 -0.42229745198E+00  0.30685864434E+02  0.00000000000E+00 0.  1.
</event>
<event>
 4    1  0.6934088E+001  0.3255813E+02  0.7546771E-02  0.1398594E+00
          2   -1    0    0  502    0  0.00000000000E+00  0.00000000000E+00  0.16060354134E+02  0.16060354134E+02  0.00000000000E+00 0. -1.
         -2   -1    0    0    0  501 -0.00000000000E+00 -0.00000000000E+00 -0.97438481174E+02  0.97438481174E+02  0.00000000000E+00 0.  1.
          1    1    1    2  502    0  0.54614140130E+00 -0.32553548730E+02 -0.72922462542E+02  0.79860611997E+02  0.00000000000E+00 0.  1.
         -1    1    1    2    0  501 -0.54614140130E+00  0.32553548730E+02 -0.84556644977E+01  0.33638223310E+02  0.00000000000E+00 0. -1.
</event>
<event>
 4    1  0.6934088E+001  0.2190821E+02  0.7546771E-02  0.1506682E+00
          2   -1    0    0  502    0  0.00000000000E+00  0.00000000000E+00  0.42153196062E+02  0.42153196062E+02  0.00000000000E+00 0.  1.
         -2   -1    0    0    0  501 -0.00000000000E+00 -0.00000000000E+00 -0.11427909216E+02  0.11427909216E+02  0.00000000000E+00 0. -1.
          1    1    1    2  502    0  0.14187204650E+02 -0.16694097956E+02  0.16978864130E+02  0.27717350333E+02  0.00000000000E+00 0. -1.
         -1    1    1    2    0  501 -0.14187204650E+02  0.16694097956E+02  0.13746422716E+02  0.25863754944E+02  0.00000000000E+00 0.  1.
</event>
<event>
 4    1  0.6934088E+001  0.2301994E+02  0.7546771E-02  0.1492248E+00
          2   -1    0    0  502    0  0.00000000000E+00  0.00000000000E+00  0.62468298334E+03  0.62468298334E+03  0.00000000000E+00 0. -1.
         -2   -1    0    0    0  501 -0.00000000000E+00 -0.00000000000E+00 -0.84922139759E+00  0.84922139759E+00  0.00000000000E+00 0.  1.
          1    1    1    2  502    0 -0.14934293807E+02  0.17518116394E+02  0.32222846108E+03  0.32304968452E+03  0.00000000000E+00 0. -1.
         -1    1    1    2    0  501  0.14934293807E+02 -0.17518116394E+02  0.30160530086E+03  0.30248252022E+03  0.00000000000E+00 0.  1.
</event>
<event>
 4    1  0.6934088E+001  0.2674555E+02  0.7546771E-02  0.1450181E+00
          2   -1    0    0  502    0  0.00000000000E+00  0.00000000000E+00  0.42157526358E+03  0.42157526358E+03  0.00000000000E+00 0.  1.
         -2   -1    0    0    0  501 -0.00000000000E+00 -0.00000000000E+00 -0.24832210978E+01  0.24832210978E+01  0.00000000000E+00 0. -1.
          1    1    1    2  502    0 -0.21664361086E+02  0.15683739910E+02  0.90224521749E+02  0.94105199451E+02  0.00000000000E+00 0. -1.
         -1    1    1    2    0  501  0.21664361086E+02 -0.15683739910E+02  0.32886752073E+03  0.32995328522E+03  0.00000000000E+00 0.  1.
</event>
<event>
 4    1  0.6934088E+001  0.2758960E+02  0.7546771E-02  0.1441774E+00
          2   -1    0    0  502    0  0.00000000000E+00  0.00000000000E+00  0.76385149371E+01  0.76385149371E+01  0.00000000000E+00 0. -1.
         -2   -1    0    0    0  501 -0.00000000000E+00 -0.00000000000E+00 -0.11184670336E+03  0.11184670336E+03  0.00000000000E+00 0.  1.
          1    1    1    2  502    0 -0.14403511498E+02  0.23531364531E+02 -0.32376478460E+02  0.42537308538E+02  0.00000000000E+00 0. -1.
         -1    1    1    2    0  501  0.14403511498E+02 -0.23531364531E+02 -0.71831709961E+02  0.76947909758E+02  0.00000000000E+00 0.  1.
</event>
<event>
 4    1  0.6934088E+001  0.4694423E+02  0.7546771E-02  0.1311994E+00
          2   -1    0    0  502    0  0.00000000000E+00  0.00000000000E+00  0.12664177873E+04  0.12664177873E+04  0.00000000000E+00 0.  1.
         -2   -1    0    0    0  501 -0.00000000000E+00 -0.00000000000E+00 -0.17531425826E+01  0.17531425826E+01  0.00000000000E+00 0. -1.
          1    1    1    2  502    0  0.37859981896E+02 -0.27755760997E+02  0.68691308559E+03  0.68851532129E+03  0.00000000000E+00 0.  1.
         -1    1    1    2    0  501 -0.37859981896E+02  0.27755760997E+02  0.57775155917E+03  0.57965560864E+03  0.00000000000E+00 0. -1.
</event>
<event>
 4    1  0.6934088E+001  0.4022593E+02  0.7546771E-02  0.1347167E+00
          2   -1    0    0  502    0  0.00000000000E+00  0.00000000000E+00  0.12851473955E+03  0.12851473955E+03  0.00000000000E+00 0. -1.
         -2   -1    0    0    0  501 -0.00000000000E+00 -0.00000000000E+00 -0.12841197614E+02  0.12841197614E+02  0.00000000000E+00 0.  1.
          1    1    1    2  502    0  0.11997425382E+02  0.38395148239E+02  0.47970654192E+02  0.62604387128E+02  0.00000000000E+00 0.  1.
         -1    1    1    2    0  501 -0.11997425382E+02 -0.38395148239E+02  0.67702887743E+02  0.78751550034E+02  0.00000000000E+00 0. -1.
</event>
<event>
 4    1  0.6934088E+001  0.2554415E+02  0.7546771E-02  0.1462807E+00
          2   -1    0    0  502    0  0.00000000000E+00  0.00000000000E+00  0.20103584163E+02  0.20103584163E+02  0.00000000000E+00 0.  1.
         -2   -1    0    0    0  501 -0.00000000000E+00 -0.00000000000E+00 -0.41663458572E+02  0.41663458572E+02  0.00000000000E+00 0. -1.
          1    1    1    2  502    0 -0.25477602731E+02  0.18426978626E+01 -0.25297489790E+02  0.35950893814E+02  0.00000000000E+00 0.  1.
         -1    1    1    2    0  501  0.25477602731E+02 -0.18426978626E+01  0.37376153811E+01  0.25816148921E+02  0.00000000000E+00 0. -1.
</event>
<event>
 4    1  0.6934088E+001  0.4526877E+02  0.7546771E-02  0.1320101E+00
          2   -1    0    0  502    0  0.00000000000E+00  0.00000000000E+00  0.14616122498E+04  0.14616122498E+04  0.00000000000E+00 0.  1.
         -2   -1    0    0    0  501 -0.00000000000E+00 -0.00000000000E+00 -0.14513206338E+01  0.14513206338E+01  0.00000000000E+00 0. -1.
          1    1    1    2  502    0  0.37882809983E+02  0.24782140180E+02  0.86485893837E+03  0.86604286559E+03  0.00000000000E+00 0. -1.
         -1    1    1    2    0  501 -0.37882809983E+02 -0.24782140180E+02  0.59530199082E+03  0.59702070486E+03  0.00000000000E+00 0.  1.
</event>
<event>
 4    1  0.6934088E+001  0.2875912E+02  0.7546771E-02  0.1430695E+00
          2   -1    0    0  502    0  0.00000000000E+00  0.00000000000E+00  0.19936132032E+01  0.19936132032E+01  0.00000000000E+00 0.  1.
         -2   -1    0    0    0  501 -0.00000000000E+00 -0.00000000000E+00 -0.44044837475E+03  0.44044837475E+03  0.00000000000E+00 0. -1.
          1    1    1    2  502    0  0.26244874376E+02  0.11759833700E+02 -0.16591490024E+03  0.16838895820E+03  0.00000000000E+00 0.  1.
         -1    1    1    2    0  501 -0.26244874376E+02 -0.11759833700E+02 -0.27253986131E+03  0.27405302976E+03  0.00000000000E+00 0. -1.
</event>
<event>
 4    1  0.6934088E+001  0.3068008E+02  0.7546771E-02  0.1413777E+00
          2   -1    0    0  502    0  0.00000000000E+00  0.00000000000E+00  0.64217631862E+03  0.64217631862E+03  0.00000000000E+00 0. -1.
         -2   -1    0    0    0  501 -0.00000000000E+00 -0.00000000000E+00 -0.15500388544E+01  0.15500388544E+01  0.00000000000E+00 0.  1.
          1    1    1    2  502    0 -0.18831661217E+02  0.24220563795E+02  0.39537099828E+03  0.39655957113E+03  0.00000000000E+00 0. -1.
         -1    1    1    2    0  501  0.18831661217E+02 -0.24220563795E+02  0.24525528149E+03  0.24716678634E+03  0.00000000000E+00 0.  1.
</event>
<event>
 4    1  0.6934088E+001  0.3933073E+02  0.7546771E-02  0.1352453E+00
          2   -1    0    0  502    0  0.00000000000E+00  0.00000000000E+00  0.39034544579E+03  0.39034544579E+03  0.00000000000E+00 0.  1.
         -2   -1    0    0    0  501 -0.00000000000E+00 -0.00000000000E+00 -0.45123070364E+01  0.45123070364E+01  0.00000000000E+00 0. -1.
          1    1    1    2  502    0 -0.31596168620E+02 -0.23421957198E+02  0.26180596942E+03  0.26474378477E+03  0.00000000000E+00 0. -1.
         -1    1    1    2    0  501  0.31596168620E+02  0.23421957198E+02  0.12402716934E+03  0.13011396806E+03  0.00000000000E+00 0.  1.
</event>
<event>
 4    1  0.6934088E+001  0.2277692E+02  0.7546771E-02  0.1495319E+00
          2   -1    0    0  502    0  0.00000000000E+00  0.00000000000E+00  0.17093641074E+04  0.17093641074E+04  0.00000000000E+00 0. -1.
         -2   -1    0    0    0  501 -0.00000000000E+00 -0.00000000000E+00 -0.31508197811E+00  0.31508197811E+00  0.00000000000E+00 0.  1.
          1    1    1    2  502    0  0.18690440512E+02  0.13017511492E+02  0.10184348231E+04  0.10186894900E+04  0.00000000000E+00 0.  1.
         -1    1    1    2    0  501 -0.18690440512E+02 -0.13017511492E+02  0.69061420231E+03  0.69098969935E+03  0.00000000000E+00 0. -1.
</event>
<event>
 4    1  0.6934088E+001  0.2015932E+02  0.7546771E-02  0.1531614E+00
          2   -1    0    0  502    0  0.00000000000E+00  0.00000000000E+00  0.13721493681E+04  0.13721493681E+04  0.00000000000E+00 0.  1.
         -2   -1    0    0    0  501 -0.00000000000E+00 -0.00000000000E+00 -0.42694385721E+00  0.42694385721E+00  0.00000000000E+00 0. -1.
          1    1    1    2  502    0 -0.19727751521E+02  0.41489818279E+01  0.30604718951E+03  0.30671041788E+03  0.00000000000E+00 0. -1.
         -1    1    1    2    0  501  0.19727751521E+02 -0.41489818279E+01  0.10656752347E+04  0.10658658941E+04  0.00000000000E+00 0.  1.
</event>
<event>
 4    1  0.6934088E+001  0.2168968E+02  0.7546771E-02  0.1509642E+00
          2   -1    0    0  502    0  0.00000000000E+00  0.00000000000E+00  0.17933115961E+02  0.17933115961E+02  0.00000000000E+00 0. -1.
         -2   -1    0    0    0  501 -0.00000000000E+00 -0.00000000000E+00 -0.44325872280E+02  0.44325872280E+02  0.00000000000E+00 0.  1.
          1    1    1    2  502    0  0.17367298331E+02  0.12993050155E+02 -0.33084564803E+02  0.39560470571E+02  0.00000000000E+00 0.  1.
         -1    1    1    2    0  501 -0.17367298331E+02 -0.12993050155E+02  0.66918084838E+01  0.22698517670E+02  0.00000000000E+00 0. -1.
</event>
<event>
 4    1  0.6934088E+001  0.3119373E+02  0.7546771E-02  0.1409499E+00
          2   -1    0    0  502    0  0.00000000000E+00  0.00000000000E+00  0.17131647019E+03  0.17131647019E+03  0.00000000000E+00 0. -1.
         -2   -1    0    0    0  501 -0.00000000000E+00 -0.00000000000E+00 -0.69766780454E+01  0.69766780454E+01  0.00000000000E+00 0.  1.
          1    1    1    2  502    0  0.23056138389E+02 -0.21011034156E+02  0.12060466113E+03  0.12457340551E+03  0.00000000000E+00 0. -1.
         -1    1    1    2    0  501 -0.23056138389E+02  0.21011034156E+02  0.43735131010E+02  0.53719742722E+02  0.00000000000E+00 0.  1.
</event>
<event>
 4    1  0.6934088E+001  0.2405557E+02  0.7546771E-02  0.1479652E+00
          2   -1    0    0  502    0  0.00000000000E+00  0.00000000000E+00  0.12496930750E+02  0.12496930750E+02  0.00000000000E+00 0. -1.
         -2   -1    0    0    0  501 -0.00000000000E+00 -0.00000000000E+00 -0.48887112159E+02  0.48887112159E+02  0.00000000000E+00 0.  1.
          1    1    1    2  502    0 -0.18122231204E+02  0.15819459429E+02 -0.25248752422E+02  0.34873629855E+02  0.00000000000E+00 0.  1.
         -1    1    1    2    0  501  0.18122231204E+02 -0.15819459429E+02 -0.11141428986E+02  0.26510413054E+02  0.00000000000E+00 0. -1.
</event>
<event>
 4    1  0.6934088E+001  0.2250679E+02  0.7546771E-02  0.1498786E+00
          2   -1    0    0  502    0  0.00000000000E+00  0.00000000000E+00  0.36471000659E+02  0.36471000659E+02  0.00000000000E+00 0.  1.
         -2   -1    0    0    0  501 -0.00000000000E+00 -0.00000000000E+00 -0.16138831384E+02  0.16138831384E+02  0.00000000000E+00 0. -1.
          1    1    1    2  502    0 -0.20437915833E+02 -0.94258870859E+01  0.34522878093E+00  0.22509440994E+02  0.00000000000E+00 0. -1.
         -1    1    1    2    0  501  0.20437915833E+02  0.94258870859E+01  0.19986940495E+02  0.30100391049E+02  0.00000000000E+00 0.  1.
</event>
<event>
 4    1  0.6934088E+001  0.2618164E+02  0.7546771E-02  0.1456006E+00
          2   -1    0    0  502    0  0.00000000000E+00  0.00000000000E+00  0.14748508091E+03  0.14748508091E+03  0.00000000000E+00 0. -1.
         -2   -1    0    0    0  501 -0.00000000000E+00 -0.00000000000E+00 -0.46488136450E+01  0.46488136450E+01  0.00000000000E+00 0.  1.
          1    1    1    2  502    0  0.19066070248E+02  0.17943333296E+02  0.72552257657E+02  0.77131759578E+02  0.00000000000E+00 0. -1.
         -1    1    1    2    0  501 -0.19066070248E+02 -0.17943333296E+02  0.70284009609E+02  0.75002134978E+02  0.00000000000E+00 0.  1.
</event>
<event>
 4    1  0.6934088E+001  0.2125051E+02  0.7546771E-02  0.1515718E+00
          2   -1    0    0  502    0  0.00000000000E+00  0.00000000000E+00  0.63117662259E+03  0.63117662259E+03  0.00000000000E+00 0. -1.
         -2   -1    0    0    0  501 -0.00000000000E+00 -0.00000000000E+00 -0.54500015985E+01  0.54500015985E+01  0.00000000000E+00 0.  1.
          1    1    1    2  502    0  0.21218298461E+02 -0.11696465925E+01  0.60954808775E+03  0.60991840072E+03  0.00000000000E+00 0. -1.
         -1    1    1    2    0  501 -0.21218298461E+02  0.11696465925E+01  0.16178533240E+02  0.26708223462E+02  0.00000000000E+00 0.  1.
</event>
<event>
 4    1  0.6934088E+001  0.6262025E+02  0.7546771E-02  0.1251181E+00
          2   -1    0    0  502    0  0.00000000000E+00  0.00000000000E+00  0.29185840029E+03  0.29185840029E+03  0.00000000000E+00 0.  1.
         -2   -1    0    0    0  501 -0.00000000000E+00 -0.00000000000E+00 -0.14648014974E+02  0.14648014974E+02  0.00000000000E+00 0. -1.
          1    1    1    2  502    0 -0.62380955030E+02  0.54691738189E+01  0.94514778262E+02  0.11337697616E+03  0.00000000000E+00 0.  1.
         -1    1    1    2    0  501  0.62380955030E+02 -0.54691738189E+01  0.18269560706E+03  0.19312943911E+03  0.00000000000E+00 0. -1.
</event>
<event>
 4    1  0.6934088E+001  0.8659334E+02  0.7546771E-02  0.1189316E+00
          2   -1    0    0  502    0  0.00000000000E+00  0.00000000000E+00  0.44959610826E+03  0.44959610826E+03  0.00000000000E+00 0. -1.
         -2   -1    0    0    0  501 -0.00000000000E+00 -0.00000000000E+00 -0.22645274069E+02  0.22645274069E+02  0.00000000000E+00 0.  1.
          1    1    1    2  502    0  0.86134420296E+02  0.89032587721E+01  0.33468300514E+03  0.34570380430E+03  0.00000000000E+00 0. -1.
         -1    1    1    2    0  501 -0.86134420296E+02 -0.89032587721E+01  0.92267829051E+02  0.12653757803E+03  0.00000000000E+00 0.  1.
</event>
<event>
 4    1  0.6934088E+001  0.2152986E+02  0.7546771E-02  0.1511833E+00
          2   -1    0    0  502    0  0.00000000000E+00  0.00000000000E+00  0.26509378152E+03  0.26509378152E+03  0.00000000000E+00 0.  1.
         -2   -1    0    0    0  501 -0.00000000000E+00 -0.00000000000E+00 -0.24227820987E+01  0.24227820987E+01  0.00000000000E+00 0. -1.
          1    1    1    2  502    0 -0.17651429099E+02  0.12327289241E+02  0.60774974673E+02  0.64475829236E+02  0.00000000000E+00 0. -1.
         -1    1    1    2    0  501  0.17651429099E+02 -0.12327289241E+02  0.20189602475E+03  0.20304073439E+03  0.00000000000E+00 0.  1.
</event>
<event>
 4    1  0.6934088E+001  0.2642681E+02  0.7546771E-02  0.1453452E+00
          2   -1    0    0  502    0  0.00000000000E+00  0.00000000000E+00  0.13742131547E+01  0.13742131547E+01  0.00000000000E+00 0. -1.
         -2   -1    0    0    0  501 -0.00000000000E+00 -0.00000000000E+00 -0.50919307882E+03  0.50919307882E+03  0.00000000000E+00 0.  1.
          1    1    1    2  502    0  0.74132636958E-01  0.26426706542E+02 -0.26517840525E+03  0.26649195658E+03  0.00000000000E+00 0.  1.
         -1    1    1    2    0  501 -0.74132636958E-01 -0.26426706542E+02 -0.24264046042E+03  0.24407533539E+03  0.00000000000E+00 0. -1.
</event>
<event>
 4    1  0.6934088E+001  0.2089120E+02  0.7546771E-02  0.1520824E+00
          2   -1    0    0  502    0  0.00000000000E+00  0.00000000000E+00  0.85444788598E+03  0.85444788598E+03  0.00000000000E+00 0.  1.
         -2   -1    0    0    0  501 -0.00000000000E+00 -0.00000000000E+00 -0.69643014235E+00  0.69643014235E+00  0.00000000000E+00 0. -1.
          1    1    1    2  502    0  0.29882827131E+01 -0.20676372923E+02  0.64762955109E+03  0.64796641709E+03  0.00000000000E+00 0.  1.
         -1    1    1    2    0  501 -0.29882827131E+01  0.20676372923E+02  0.20612190474E+03  0.20717789903E+03  0.00000000000E+00 0. -1.
</event>
<event>
 4    1  0.6934088E+001  0.2659597E+02  0.7546771E-02  0.1451709E+00
          2   -1    0    0  502    0  0.00000000000E+00  0.00000000000E+00  0.44942739935E+01  0.44942739935E+01  0.00000000000E+00 0.  1.
         -2   -1    0    0    0  501 -0.00000000000E+00 -0.00000000000E+00 -0.63085001991E+03  0.63085001991E+03  0.00000000000E+00 0. -1.
          1    1    1    2  502    0 -0.16240156419E+02  0.21061886457E+02 -0.37971457109E+02  0.46359220190E+02  0.00000000000E+00 0.  1.
         -1    1    1    2    0  501  0.16240156419E+02 -0.21061886457E+02 -0.58838428881E+03  0.58898507372E+03  0.00000000000E+00 0. -1.
</event>
<event>
 4    1  0.6934088E+001  0.2266828E+02  0.7546771E-02  0.1496706E+00
          2   -1    0    0  502    0  0.00000000000E+00  0.00000000000E+00  0.12115570187E+04  0.12115570187E+04  0.00000000000E+00 0. -1.
         -2   -1    0    0    0  501 -0.00000000000E+00 -0.00000000000E+00 -0.44524893342E+00  0.44524893342E+00  0.00000000000E+00 0.  1.
          1    1    1    2  502    0  0.20113475240E+02  0.10454614012E+02  0.47355829329E+03  0.47410052519E+03  0.00000000000E+00 0.  1.
         -1    1    1    2    0  501 -0.20113475240E+02 -0.10454614012E+02  0.73755347651E+03  0.73790174248E+03  0.00000000000E+00 0. -1.
</event>
<event>
 4    1  0.6934088E+001  0.4622490E+02  0.7546771E-02  0.1315426E+00
          2   -1    0    0  502    0  0.00000000000E+00  0.00000000000E+00  0.15316939249E+03  0.15316939249E+03  0.00000000000E+00 0. -1.
         -2   -1    0    0    0  501 -0.00000000000E+00 -0.00000000000E+00 -0.17081497002E+02  0.17081497002E+02  0.00000000000E+00 0.  1.
          1    1    1    2  502    0 -0.25111901099E+02  0.38808937770E+02  0.31597126117E+02  0.55992138792E+02  0.00000000000E+00 0.  1.
         -1    1    1    2    0  501  0.25111901099E+02 -0.38808937770E+02  0.10449076937E+03  0.11425875070E+03  0.00000000000E+00 0. -1.
</event>
<event>
 4    1  0.6934088E+001  0.3082237E+02  0.7546771E-02  0.1412582E+00
          2   -1    0    0  502    0  0.00000000000E+00  0.00000000000E+00  0.87363858340E+02  0.87363858340E+02  0.00000000000E+00 0.  1.
         -2   -1    0    0    0  501 -0.00000000000E+00 -0.00000000000E+00 -0.11005342983E+02  0.11005342983E+02  0.00000000000E+00 0. -1.
          1    1    1    2  502    0 -0.18971759636E+02 -0.24291789087E+02  0.32811727100E+02  0.45018086543E+02  0.00000000000E+00 0.  1.
         -1    1    1    2    0  501  0.18971759636E+02  0.24291789087E+02  0.43546788257E+02  0.53351114780E+02  0.00000000000E+00 0. -1.
</event>
<event>
 4    1  0.6934088E+001  0.4166768E+02  0.7546771E-02  0.1338981E+00
          2   -1    0    0  502    0  0.00000000000E+00  0.00000000000E+00  0.12365252317E+04  0.12365252317E+04  0.00000000000E+00 0.  1.
         -2   -1    0    0    0  501 -0.00000000000E+00 -0.00000000000E+00 -0.14157492464E+01  0.14157492464E+01  0.00000000000E+00 0. -1.
          1    1    1    2  502    0  0.51891950593E+01 -0.41343296417E+02  0.67371950570E+03  0.67500679127E+03  0.00000000000E+00 0.  1.
         -1    1    1    2    0  501 -0.51891950593E+01  0.41343296417E+02  0.56138997674E+03  0.56293418966E+03  0.00000000000E+00 0. -1.
</event>
<event>
 4    1  0.6934088E+001  0.2942480E+02  0.7546771E-02  0.1424662E+00
          2   -1    0    0  502    0  0.00000000000E+00  0.00000000000E+00  0.51897369625E+03  0.51897369625E+03  0.00000000000E+00 0.  1.
         -2   -1    0    0    0  501 -0.00000000000E+00 -0.00000000000E+00 -0.21282902718E+01  0.21282902718E+01  0.00000000000E+00 0. -1.
          1    1    1    2  502    0 -0.15671708866E+02  0.24904141601E+02  0.13729651109E+03  0.14041421112E+03  0.00000000000E+00 0. -1.
         -1    1    1    2    0  501  0.15671708866E+02 -0.24904141601E+02  0.37954889489E+03  0.38068777540E+03  0.00000000000E+00 0.  1.
</event>
<event>
 4    1  0.6934088E+001  0.2121217E+02  0.7546771E-02  0.1516257E+00
          2   -1    0    0  502    0  0.00000000000E+00  0.00000000000E+00  0.88109054550E+03  0.88109054550E+03  0.00000000000E+00 0. -1.
         -2   -1    0    0    0  501 -0.00000000000E+00 -0.00000000000E+00 -0.55441268734E+00  0.55441268734E+00  0.00000000000E+00 0.  1.
          1    1    1    2  502    0  0.69305968649E+01  0.20048017174E+02  0.31646098976E+03  0.31717111188E+03  0.00000000000E+00 0.  1.
         -1    1    1    2    0  501 -0.69305968649E+01 -0.20048017174E+02  0.56407514305E+03  0.56447384631E+03  0.00000000000E+00 0. -1.
</event>
<event>
 4    1  0.6934088E+001  0.2191366E+02  0.7546771E-02  0.1506609E+00
          2   -1    0    0  502    0  0.00000000000E+00  0.00000000000E+00  0.30498888467E+03  0.30498888467E+03  0.00000000000E+00 0. -1.
         -2   -1    0    0    0  501 -0.00000000000E+00 -0.00000000000E+00 -0.33452080102E+01  0.33452080102E+01  0.00000000000E+00 0.  1.
          1    1    1    2  502    0 -0.95697334889E+01  0.19713672187E+02  0.26298545066E+03  0.26389686608E+03  0.00000000000E+00 0. -1.
         -1    1    1    2    0  501  0.95697334889E+01 -0.19713672187E+02  0.38658226001E+02  0.44437226598E+02  0.00000000000E+00 0.  1.
</event>
<event>
 4    1  0.6934088E+001  0.2456452E+02  0.7546771E-02  0.1473734E+00
          2   -1    0    0  502    0  0.00000000000E+00  0.00000000000E+00  0.37764897017E+01  0.37764897017E+01  0.00000000000E+00 0. -1.
         -2   -1    0    0    0  501 -0.00000000000E+00 -0.00000000000E+00 -0.16838853535E+03  0.16838853535E+03  0.00000000000E+00 0.  1.
          1    1    1    2  502    0  0.88284498196E+01  0.22923223443E+02 -0.10176718175E+03  0.10468989914E+03  0.00000000000E+00 0.  1.
         -1    1    1    2    0  501 -0.88284498196E+01 -0.22923223443E+02 -0.62844863891E+02  0.67475125911E+02  0.00000000000E+00 0. -1.
</event>
<event>
 4    1  0.6934088E+001  0.6904528E+02  0.7546771E-02  0.1231853E+00
          2   -1    0    0  502    0  0.00000000000E+00  0.00000000000E+00  0.11995361844E+03  0.11995361844E+03  0.00000000000E+00 0. -1.
         -2   -1    0    0    0  501 -0.00000000000E+00 -0.00000000000E+00 -0.47592493413E+02  0.47592493413E+02  0.00000000000E+00 0.  1.
          1    1    1    2  502    0  0.61165536217E+02  0.32031660790E+02  0.70203459452E+02  0.98467130722E+02  0.00000000000E+00 0. -1.
         -1    1    1    2    0  501 -0.61165536217E+02 -0.32031660790E+02  0.21576655765E+01  0.69078981133E+02  0.00000000000E+00 0.  1.
</event>
<event>
 4    1  0.6934088E+001  0.3821141E+02  0.7546771E-02  0.1359298E+00
          2   -1    0    0  502    0  0.00000000000E+00  0.00000000000E+00  0.86507035221E+02  0.86507035221E+02  0.00000000000E+00 0.  1.
         -2   -1    0    0    0  501 -0.00000000000E+00 -0.00000000000E+00 -0.26759492903E+02  0.26759492903E+02  0.00000000000E+00 0. -1.
          1    1    1    2  502    0 -0.12077362290E+01 -0.38192317544E+02 -0.45399985250E+01  0.38480168045E+02  0.00000000000E+00 0. -1.
         -1    1    1    2    0  501  0.12077362290E+01  0.38192317544E+02  0.64287540843E+02  0.74786360079E+02  0.00000000000E+00 0.  1.
</event>
<event>
 4    1  0.6934088E+001  0.2102279E+02  0.7546771E-02  0.1518940E+00
          2   -1    0    0  502    0  0.00000000000E+00  0.00000000000E+00  0.30104537467E+03  0.30104537467E+03  0.00000000000E+00 0.  1.
         -2   -1    0    0    0  501 -0.00000000000E+00 -0.00000000000E+00 -0.26454226504E+01  0.26454226504E+01  0.00000000000E+00 0. -1.
          1    1    1    2  502    0 -0.17443815306E+02 -0.11733324709E+02  0.47900730632E+02  0.52310970133E+02  0.00000000000E+00 0. -1.
         -1    1    1    2    0  501  0.17443815306E+02  0.11733324709E+02  0.25049922139E+03  0.25137982719E+03  0.00000000000E+00 0.  1.
</event>
<event>
 4    1  0.6934088E+001  0.4583461E+02  0.7546771E-02  0.1317318E+00
          2   -1    0    0  502    0  0.00000000000E+00  0.00000000000E+00  0.28671455331E+02  0.28671455331E+02  0.00000000000E+00 0. -1.
         -2   -1    0    0    0  501 -0.00000000000E+00 -0.00000000000E+00 -0.73278068201E+02  0.73278068201E+02  0.00000000000E+00 0.  1.
          1    1    1    2  502    0  0.20358556648E+02  0.41065075939E+02 -0.22771932330E+02  0.51179802586E+02  0.00000000000E+00 0.  1.
         -1    1    1    2    0  501 -0.20358556648E+02 -0.41065075939E+02 -0.21834680539E+02  0.50769720946E+02  0.00000000000E+00 0. -1.
</event>
<event>
 4    1  0.6934088E+001  0.2336557E+02  0.7546771E-02  0.1487958E+00
          2   -1    0    0  502    0  0.00000000000E+00  0.00000000000E+00  0.22671857825E+02  0.22671857825E+02  0.00000000000E+00 0.  1.
         -2   -1    0    0    0  501 -0.00000000000E+00 -0.00000000000E+00 -0.41586711297E+02  0.41586711297E+02  0.00000000000E+00 0. -1.
          1    1    1    2  502    0  0.16086750300E+02 -0.16945981210E+02  0.11388431097E+02  0.25993194825E+02  0.00000000000E+00 0.  1.
         -1    1    1    2    0  501 -0.16086750300E+02  0.16945981210E+02 -0.30303284569E+02  0.38265374296E+02  0.00000000000E+00 0. -1.
</event>
<event>
 4    1  0.6934088E+001  0.2252720E+02  0.7546771E-02  0.1498522E+00
          2   -1    0    0  502    0  0.00000000000E+00  0.00000000000E+00  0.20206733368E+01  0.20206733368E+01  0.00000000000E+00 0. -1.
         -2   -1    0    0    0  501 -0.00000000000E+00 -0.00000000000E+00 -0.40381989831E+03  0.40381989831E+03  0.00000000000E+00 0.  1.
          1    1    1    2  502    0  0.16862565149E+02  0.14937493452E+02 -0.32567257567E+03  0.32645076406E+03  0.00000000000E+00 0.  1.
         -1    1    1    2    0  501 -0.16862565149E+02 -0.14937493452E+02 -0.76126649308E+02  0.79389807588E+02  0.00000000000E+00 0. -1.
</event>
<event>
 4    1  0.6934088E+001  0.2834813E+02  0.7546771E-02  0.1434516E+00
          2   -1    0    0  502    0  0.00000000000E+00  0.00000000000E+00  0.98136862509E+01  0.98136862509E+01  0.00000000000E+00 0.  1.
         -2   -1    0    0    0  501 -0.00000000000E+00 -0.00000000000E+00 -0.82589632542E+02  0.82589632542E+02  0.00000000000E+00 0. -1.
          1    1    1    2  502    0  0.81811505765E+01 -0.27141941265E+02 -0.40648549964E+02  0.49557247851E+02  0.00000000000E+00 0.  1.
         -1    1    1    2    0  501 -0.81811505765E+01  0.27141941265E+02 -0.32127396326E+02  0.42846070941E+02  0.00000000000E+00 0. -1.
</event>
<event>
 4    1  0.6934088E+001  0.2053522E+02  0.7546771E-02  0.1526005E+00
          2   -1    0    0  502    0  0.00000000000E+00  0.00000000000E+00  0.39358360623E+03  0.39358360623E+03  0.00000000000E+00 0. -1.
         -2   -1    0    0    0  501 -0.00000000000E+00 -0.00000000000E+00 -0.14218888092E+01  0.14218888092E+01  0.00000000000E+00 0.  1.
          1    1    1    2  502    0 -0.15601972517E+00  0.20534627722E+02  0.98027613680E+02  0.10015542083E+03  0.00000000000E+00 0.  1.
         -1    1    1    2    0  501  0.15601972517E+00 -0.20534627722E+02  0.29413410374E+03  0.29485007421E+03  0.00000000000E+00 0. -1.
</event>
<event>
 4    1  0.6934088E+001  0.2251141E+02  0.7546771E-02  0.1498726E+00
          2   -1    0    0  502    0  0.00000000000E+00  0.00000000000E+00  0.81546346167E+01  0.81546346167E+01  0.00000000000E+00 0.  1.
         -2   -1    0    0    0  501 -0.00000000000E+00 -0.00000000000E+00 -0.63738368751E+02  0.63738368751E+02  0.00000000000E+00 0. -1.
          1    1    1    2  502    0  0.18989239629E+02  0.12090176166E+02 -0.33476699630E+02  0.40341702983E+02  0.00000000000E+00 0. -1.
         -1    1    1    2    0  501 -0.18989239629E+02 -0.12090176166E+02 -0.22107034504E+02  0.31551300385E+02  0.00000000000E+00 0.  1.
</event>
<event>
 4    1  0.6934088E+001  0.2174861E+02  0.7546771E-02  0.1508840E+00
          2   -1    0    0  502    0  0.00000000000E+00  0.00000000000E+00  0.84335143233E+03  0.84335143233E+03  0.00000000000E+00 0.  1.
         -2   -1    0    0    0  501 -0.00000000000E+00 -0.00000000000E+00 -0.57675188470E+00  0.57675188470E+00  0.00000000000E+00 0. -1.
          1    1    1    2  502    0 -0.21224130200E+02 -0.47474425252E+01  0.35134325651E+03  0.35201574653E+03  0.00000000000E+00 0.  1.
         -1    1    1    2    0  501  0.21224130200E+02  0.47474425252E+01  0.49143142394E+03  0.49191243768E+03  0.00000000000E+00 0. -1.
</event>
<event>
 4    1  0.6934088E+001  0.2213703E+02  0.7546771E-02  0.1503628E+00
          2   -1    0    0  502    0  0.00000000000E+00  0.00000000000E+00  0.13241114073E+03  0.13241114073E+03  0.00000000000E+00 0.  1.
         -2   -1    0    0    0  501 -0.00000000000E+00 -0.00000000000E+00 -0.56122756115E+01  0.56122756115E+01  0.00000000000E+00 0. -1.
          1    1    1    2  502    0  0.20687701941E+01  0.22040150098E+02  0.10367296748E+03  0.10601005713E+03  0.00000000000E+00 0.  1.
         -1    1    1    2    0  501 -0.20687701941E+01 -0.22040150098E+02  0.23125897637E+02  0.32013359211E+02  0.00000000000E+00 0. -1.
</event>
<event>
 4    1  0.6934088E+001  0.3705837E+02  0.7546771E-02  0.1366643E+00
          2   -1    0    0  502    0  0.00000000000E+00  0.00000000000E+00  0.98907065688E+02  0.98907065688E+02  0.00000000000E+00 0. -1.
         -2   -1    0    0    0  501 -0.00000000000E+00 -0.00000000000E+00 -0.15015069226E+02  0.15015069226E+02  0.00000000000E+00 0.  1.
          1    1    1    2  502    0  0.29056591568E+02 -0.23000807726E+02  0.57572822858E+02  0.68468624942E+02  0.00000000000E+00 0.  1.
         -1    1    1    2    0  501 -0.29056591568E+02  0.23000807726E+02  0.26319173603E+02  0.45453509972E+02  0.00000000000E+00 0. -1.
</event>
<event>
 4    1  0.6934088E+001  0.2269942E+02  0.7546771E-02  0.1496307E+00
          2   -1    0    0  502    0  0.00000000000E+00  0.00000000000E+00  0.23270837809E+02  0.23270837809E+02  0.00000000000E+00 0.  1.
         -2   -1    0    0    0  501 -0.00000000000E+00 -0.00000000000E+00 -0.22923401545E+02  0.22923401545E+02  0.00000000000E+00 0. -1.
          1    1    1    2  502    0  0.45797078736E+01 -0.22232629011E+02  0.44380200793E+01  0.23129192359E+02  0.00000000000E+00 0.  1.
         -1    1    1    2    0  501 -0.45797078736E+01  0.22232629011E+02 -0.40905838158E+01  0.23065046995E+02  0.00000000000E+00 0. -1.
</event>
<event>
 4    1  0.6934088E+001  0.2685077E+02  0.7546771E-02  0.1449113E+00
          2   -1    0    0  502    0  0.00000000000E+00  0.00000000000E+00  0.14692819381E+03  0.14692819381E+03  0.00000000000E+00 0.  1.
         -2   -1    0    0    0  501 -0.00000000000E+00 -0.00000000000E+00 -0.10416075309E+02  0.10416075309E+02  0.00000000000E+00 0. -1.
          1    1    1    2  502    0  0.10484727635E+02 -0.24719112388E+02  0.11040833312E+02  0.29032120677E+02  0.00000000000E+00 0. -1.
         -1    1    1    2    0  501 -0.10484727635E+02  0.24719112388E+02  0.12547128519E+03  0.12831214844E+03  0.00000000000E+00 0.  1.
</event>
<event>
 4    1  0.6934088E+001  0.4283755E+02  0.7546771E-02  0.1332615E+00
          2   -1    0    0  502    0  0.00000000000E+00  0.00000000000E+00  0.53805114697E+01  0.53805114697E+01  0.00000000000E+00 0.  1.
         -2   -1    0    0    0  501 -0.00000000000E+00 -0.00000000000E+00 -0.52499029286E+03  0.52499029286E+03  0.00000000000E+00 0. -1.
          1    1    1    2  502    0  0.28152250187E+02 -0.32287866373E+02 -0.41677081342E+03  0.41896654571E+03  0.00000000000E+00 0. -1.
         -1    1    1    2    0  501 -0.28152250187E+02  0.32287866373E+02 -0.10283896798E+03  0.11140425863E+03  0.00000000000E+00 0.  1.
</event>
<event>
 4    1  0.6934088E+001  0.2260144E+02  0.7546771E-02  0.1497564E+00
          2   -1    0    0  502    0  0.00000000000E+00  0.00000000000E+00  0.19670868135E+04  0.19670868135E+04  0.00000000000E+00 0. -1.
         -2   -1    0    0    0  501 -0.00000000000E+00 -0.00000000000E+00 -0.33570984632E+00  0.33570984632E+00  0.00000000000E+00 0.  1.
          1    1    1    2  502    0 -0.22597223210E+02  0.43648998672E+00  0.51525214479E+03  0.51574761049E+03  0.00000000000E+00 0.  1.
         -1    1    1    2    0  501  0.22597223210E+02 -0.43648998672E+00  0.14514989589E+04  0.14516749128E+04  0.00000000000E+00 0. -1.
</event>
<event>
 4    1  0.6934088E+001  0.2142270E+02  0.7546771E-02  0.1513315E+00
          2   -1    0    0  502    0  0.00000000000E+00  0.00000000000E+00  0.31579458469E+02  0.31579458469E+02  0.00000000000E+00 0. -1.
         -2   -1    0    0    0  501 -0.00000000000E+00 -0.00000000000E+00 -0.21327434104E+02  0.21327434104E+02  0.00000000000E+00 0.  1.
          1    1    1    2  502    0  0.21239320411E+02  0.27970452966E+01 -0.98054322008E+01  0.23560108118E+02  0.00000000000E+00 0.  1.
         -1    1    1    2    0  501 -0.21239320411E+02 -0.27970452966E+01  0.20057456566E+02  0.29346784454E+02  0.00000000000E+00 0. -1.
</event>
<event>
 4    1  0.6934088E+001  0.3397001E+02  0.7546771E-02  0.1387952E+00
          2   -1    0    0  502    0  0.00000000000E+00  0.00000000000E+00  0.38506738333E+03  0.38506738333E+03  0.00000000000E+00 0.  1.
         -2   -1    0    0    0  501 -0.00000000000E+00 -0.00000000000E+00 -0.70373542642E+01  0.70373542642E+01  0.00000000000E+00 0. -1.
          1    1    1    2  502    0 -0.53440258166E+01 -0.33547030423E+02  0.40459429037E+02  0.52829227328E+02  0.00000000000E+00 0. -1.
         -1    1    1    2    0  501  0.53440258166E+01  0.33547030423E+02  0.33757060003E+03  0.33927551027E+03  0.00000000000E+00 0.  1.
</event>
<event>
 4    1  0.6934088E+001  0.2003812E+02  0.7546771E-02  0.1533454E+00
          2   -1    0    0  502    0  0.00000000000E+00  0.00000000000E+00  0.98657882478E+02  0.98657882478E+02  0.00000000000E+00 0.  1.
         -2   -1    0    0    0  501 -0.00000000000E+00 -0.00000000000E+00 -0.49496411487E+01  0.49496411487E+01  0.00000000000E+00 0. -1.
          1    1    1    2  502    0  0.19919037590E+02  0.21813302011E+01  0.25013974693E+02  0.32050353975E+02  0.00000000000E+00 0. -1.
         -1    1    1    2    0  501 -0.19919037590E+02 -0.21813302011E+01  0.68694266636E+02  0.71557169652E+02  0.00000000000E+00 0.  1.
</event>
<event>
 4    1  0.6934088E+001  0.2667450E+02  0.7546771E-02  0.1450905E+00
          2   -1    0    0  502    0  0.00000000000E+00  0.00000000000E+00  0.88265682548E+03  0.88265682548E+03  0.00000000000E+00 0. -1.
         -2   -1    0    0    0  501 -0.00000000000E+00 -0.00000000000E+00 -0.85405550669E+00  0.85405550669E+00  0.00000000000E+00 0.  1.
          1    1    1    2  502    0 -0.20064171001E+02 -0.17577207134E+02  0.33624685477E+03  0.33730324118E+03  0.00000000000E+00 0.  1.
         -1    1    1    2    0  501  0.20064171001E+02  0.17577207134E+02  0.54555591521E+03  0.54620763981E+03  0.00000000000E+00 0. -1.
</event>
<event>
 4    1  0.6934088E+001  0.2141829E+02  0.7546771E-02  0.1513376E+00
          2   -1    0    0  502    0  0.00000000000E+00  0.00000000000E+00  0.18678934463E+02  0.18678934463E+02  0.00000000000E+00 0.  1.
         -2   -1    0    0    0  501 -0.00000000000E+00 -0.00000000000E+00 -0.30860338022E+02  0.30860338022E+02  0.00000000000E+00 0. -1.
          1    1    1    2  502    0  0.16397052712E+02  0.13779696037E+02 -0.17283070489E+02  0.27521771128E+02  0.00000000000E+00 0. -1.
         -1    1    1    2    0  501 -0.16397052712E+02 -0.13779696037E+02  0.51016669310E+01  0.22017501356E+02  0.00000000000E+00 0.  1.
</event>
<event>
 4    1  0.6934088E+001  0.2430736E+02  0.7546771E-02  0.1476703E+00
          2   -1    0    0  502    0  0.00000000000E+00  0.00000000000E+00  0.21601262281E+03  0.21601262281E+03  0.00000000000E+00 0.  1.
         -2   -1    0    0    0  501 -0.00000000000E+00 -0.00000000000E+00 -0.27493310431E+01  0.27493310431E+01  0.00000000000E+00 0. -1.
          1    1    1    2  502    0 -0.10909163061E+02 -0.21721833882E+02  0.11446035218E+03  0.11701290581E+03  0.00000000000E+00 0. -1.
         -1    1    1    2    0  501  0.10909163061E+02  0.21721833882E+02  0.98802939589E+02  0.10174904804E+03  0.00000000000E+00 0.  1.
</event>
<event>
 4    1  0.6934088E+001  0.2079452E+02  0.7546771E-02  0.1522219E+00
          2   -1    0    0  502    0  0.00000000000E+00  0.00000000000E+00  0.10172200565E+03  0.10172200565E+03  0.00000000000E+00 0. -1.
         -2   -1    0    0    0  501 -0.00000000000E+00 -0.00000000000E+00 -0.49789762023E+01  0.49789762023E+01  0.00000000000E+00 0.  1.
          1    1    1    2  502    0 -0.20726556649E+02  0.16798176805E+01  0.27970519833E+02  0.34853434805E+02  0.00000000000E+00 0. -1.
         -1    1    1    2    0  501  0.20726556649E+02 -0.16798176805E+01  0.68772509611E+02  0.71847547043E+02  0.00000000000E+00 0.  1.
</event>
<event>
 4    1  0.6934088E+001  0.2267360E+02  0.7546771E-02  0.1496638E+00
          2   -1    0    0  502    0  0.00000000000E+00  0.00000000000E+00  0.19671329535E+01  0.19671329535E+01  0.00000000000E+00 0. -1.
         -2   -1    0    0    0  501 -0.00000000000E+00 -0.00000000000E+00 -0.26422169713E+03  0.26422169713E+03  0.00000000000E+00 0.  1.
          1    1    1    2  502    0  0.21573102498E+02 -0.69780637933E+01 -0.14502483947E+03  0.14678656679E+03  0.00000000000E+00 0.  1.
         -1    1    1    2    0  501 -0.21573102498E+02  0.69780637933E+01 -0.11722972471E+03  0.11940226330E+03  0.00000000000E+00 0. -1.
</event>
<event>
 4    1  0.6934088E+001  0.3293656E+02  0.7546771E-02  0.1395680E+00
          2   -1    0    0  502    0  0.00000000000E+00  0.00000000000E+00  0.16311839597E+01  0.16311839597E+01  0.00000000000E+00 0.  1.
         -2   -1    0    0    0  501 -0.00000000000E+00 -0.00000000000E+00 -0.66597819657E+03  0.66597819657E+03  0.00000000000E+00 0. -1.
          1    1    1    2  502    0  0.78819238616E+01 -0.31979559954E+02 -0.31970378610E+03  0.32139590511E+03  0.00000000000E+00 0.  1.
         -1    1    1    2    0  501 -0.78819238616E+01  0.31979559954E+02 -0.34464322652E+03  0.34621347542E+03  0.00000000000E+00 0. -1.
</event>
<event>
 4    1  0.6934088E+001  0.2033407E+02  0.7546771E-02  0.1528989E+00
          2   -1    0    0  502    0  0.00000000000E+00  0.00000000000E+00  0.25138963899E+04  0.25138963899E+04  0.00000000000E+00 0.  1.
         -2   -1    0    0    0  501 -0.00000000000E+00 -0.00000000000E+00 -0.16615196056E+00  0.16615196056E+00  0.00000000000E+00 0. -1.
          1    1    1    2  502    0 -0.19956163368E+02  0.39020538258E+01  0.11305997933E+04  0.11307826348E+04  0.00000000000E+00 0.  1.
         -1    1    1    2    0  501  0.19956163368E+02 -0.39020538258E+01  0.13831304447E+04  0.13832799071E+04  0.00000000000E+00 0. -1.
</event>
<event>
 4    1  0.6934088E+001  0.2185544E+02  0.7546771E-02  0.1507393E+00
          2   -1    0    0  502    0  0.00000000000E+00  0.00000000000E+00  0.50120085023E+02  0.50120085023E+02  0.00000000000E+00 0.  1.
         -2   -1    0    0    0  501 -0.00000000000E+00 -0.00000000000E+00 -0.14236232871E+02  0.14236232871E+02  0.00000000000E+00 0. -1.
          1    1    1    2  502    0 -0.11589517635E+02  0.18529522032E+02 -0.55867793824E+00  0.21862575941E+02  0.00000000000E+00 0. -1.
         -1    1    1    2    0  501  0.11589517635E+02 -0.18529522032E+02  0.36442530090E+02  0.42493741953E+02  0.00000000000E+00 0.  1.
</event>
<event>
 4    1  0.6934088E+001  0.2163899E+02  0.7546771E-02  0.1510334E+00
          2   -1    0    0  502    0  0.00000000000E+00  0.00000000000E+00  0.70308337961E+02  0.70308337961E+02  0.00000000000E+00 0. -1.
         -2   -1    0    0    0  501 -0.00000000000E+00 -0.00000000000E+00 -0.73418419103E+01  0.73418419103E+01  0.00000000000E+00 0.  1.
          1    1    1    2  502    0 -0.10820379862E+02 -0.18739399798E+02  0.43316038001E+02  0.48420294023E+02  0.00000000000E+00 0. -1.
         -1    1    1    2    0  501  0.10820379862E+02  0.18739399798E+02  0.19650458050E+02  0.29229885849E+02  0.00000000000E+00 0.  1.
</event>
<event>
 4    1  0.6934088E+001  0.2254564E+02  0.7546771E-02  0.1498284E+00
          2   -1    0    0  502    0  0.00000000000E+00  0.00000000000E+00  0.51850555534E+03  0.51850555534E+03  0.00000000000E+00 0. -1.
         -2   -1    0    0    0  501 -0.00000000000E+00 -0.00000000000E+00 -0.13052308352E+01  0.13052308352E+01  0.00000000000E+00 0.  1.
          1    1    1    2  502    0  0.13510727704E+02 -0.18048988225E+02  0.38827272360E+03  0.38892674584E+03  0.00000000000E+00 0. -1.
         -1    1    1    2    0  501 -0.13510727704E+02  0.18048988225E+02  0.12892760090E+03  0.13088404033E+03  0.00000000000E+00 0.  1.
</event>
<event>
 4    1  0.6934088E+001  0.2374071E+02  0.7546771E-02  0.1483401E+00
          2   -1    0    0  502    0  0.00000000000E+00  0.00000000000E+00  0.12481947416E+04  0.12481947416E+04  0.00000000000E+00 0. -1.
         -2   -1    0    0    0  501 -0.00000000000E+00 -0.00000000000E+00 -0.45256429560E+00  0.45256429560E+00  0.00000000000E+00 0.  1.
          1    1    1    2  502    0  0.19182982849E+02  0.13986936262E+02  0.59430160822E+03  0.59477560706E+03  0.00000000000E+00 0. -1.
         -1    1    1    2    0  501 -0.19182982849E+02 -0.13986936262E+02  0.65344056909E+03  0.65387169885E+03  0.00000000000E+00 0.  1.
</event>
<event>
 4    1  0.6934088E+001  0.2641243E+02  0.7546771E-02  0.1453601E+00
          2   -1    0    0  502    0  0.00000000000E+00  0.00000000000E+00  0.28254291418E+03  0.28254291418E+03  0.00000000000E+00 0. -1.
         -2   -1    0    0    0  501 -0.00000000000E+00 -0.00000000000E+00 -0.24746386058E+01  0.24746386058E+01  0.00000000000E+00 0.  1.
          1    1    1    2  502    0 -0.25295196630E+02  0.76006266963E+01  0.13327022196E+03  0.13586231471E+03  0.00000000000E+00 0.  1.
         -1    1    1    2    0  501  0.25295196630E+02 -0.76006266963E+01  0.14679805362E+03  0.14915523807E+03  0.00000000000E+00 0. -1.
</event>
<event>
 4    1  0.6934088E+001  0.3171554E+02  0.7546771E-02  0.1405252E+00
          2   -1    0    0  502    0  0.00000000000E+00  0.00000000000E+00  0.19779455142E+01  0.19779455142E+01  0.00000000000E+00 0. -1.
         -2   -1    0    0    0  501 -0.00000000000E+00 -0.00000000000E+00 -0.54711443938E+03  0.54711443938E+03  0.00000000000E+00 0.  1.
          1    1    1    2  502    0  0.20602774182E+02 -0.24112266650E+02 -0.34546261902E+03  0.34691540301E+03  0.00000000000E+00 0. -1.
         -1    1    1    2    0  501 -0.20602774182E+02  0.24112266650E+02 -0.19967387485E+03  0.20217698188E+03  0.00000000000E+00 0.  1.
</event>
<event>
 4    1  0.6934088E+001  0.2388862E+02  0.7546771E-02  0.1481631E+00
          2   -1    0    0  502    0  0.00000000000E+00  0.00000000000E+00  0.59824026627E+02  0.59824026627E+02  0.00000000000E+00 0. -1.
         -2   -1    0    0    0  501 -0.00000000000E+00 -0.00000000000E+00 -0.18294093971E+02  0.18294093971E+02  0.00000000000E+00 0.  1.
          1    1    1    2  502    0  0.21344532528E+02 -0.10727392929E+02 -0.62556232505E+01  0.24694105575E+02  0.00000000000E+00 0.  1.
         -1    1    1    2    0  501 -0.21344532528E+02  0.10727392929E+02  0.47785555907E+02  0.53424015023E+02  0.00000000000E+00 0. -1.
</event>
<event>
 4    1  0.6934088E+001  0.2674926E+02  0.7546771E-02  0.1450143E+00
          2   -1    0    0  502    0  0.00000000000E+00  0.00000000000E+00  0.32079929450E+00  0.32079929450E+00  0.00000000000E+00 0.  1.
         -2   -1    0    0    0  501 -0.00000000000E+00 -0.00000000000E+00 -0.22338537667E+04  0.22338537667E+04  0.00000000000E+00 0. -1.
          1    1    1    2  502    0  0.25274183267E+02  0.87600492649E+01 -0.11604512857E+04  0.11607595398E+04  0.00000000000E+00 0. -1.
         -1    1    1    2    0  501 -0.25274183267E+02 -0.87600492649E+01 -0.10730816817E+04  0.10734150261E+04  0.00000000000E+00 0.  1.
</event>
<event>
 4    1  0.6934088E+001  0.3380028E+02  0.7546771E-02  0.1389199E+00
          2   -1    0    0  502    0  0.00000000000E+00  0.00000000000E+00  0.39994199964E+03  0.39994199964E+03  0.00000000000E+00 0. -1.
         -2   -1    0    0    0  501 -0.00000000000E+00 -0.00000000000E+00 -0.46159827059E+01  0.46159827059E+01  0.00000000000E+00 0.  1.
          1    1    1    2  502    0 -0.10409585975E+02  0.32157416433E+02  0.32254608972E+03  0.32431225525E+03  0.00000000000E+00 0. -1.
         -1    1    1    2    0  501  0.10409585975E+02 -0.32157416433E+02  0.72779927215E+02  0.80245727097E+02  0.00000000000E+00 0.  1.
</event>
<event>
 4    1  0.6934088E+001  0.2185357E+02  0.7546771E-02  0.1507418E+00
          2   -1    0    0  502    0  0.00000000000E+00  0.00000000000E+00  0.12208375688E+04  0.12208375688E+04  0.00000000000E+00 0. -1.
         -2   -1    0    0    0  501 -0.00000000000E+00 -0.00000000000E+00 -0.39254959194E+00  0.39254959194E+00  0.00000000000E+00 0.  1.
          1    1    1    2  502    0 -0.15763574126E+02  0.15135656556E+02  0.64616976794E+03  0.64653920791E+03  0.00000000000E+00 0. -1.
         -1    1    1    2    0  501  0.15763574126E+02 -0.15135656556E+02  0.57427525129E+03  0.57469091050E+03  0.00000000000E+00 0.  1.
</event>
<event>
 4    1  0.6934088E+001  0.2001144E+02  0.7546771E-02  0.1533861E+00
          2   -1    0    0  502    0  0.00000000000E+00  0.00000000000E+00  0.15784603472E+04  0.15784603472E+04  0.00000000000E+00 0. -1.
         -2   -1    0    0    0  501 -0.00000000000E+00 -0.00000000000E+00 -0.44545184679E+00  0.44545184679E+00  0.00000000000E+00 0.  1.
          1    1    1    2  502    0 -0.19758515133E+02 -0.31715905668E+01  0.13069645759E+04  0.13071177684E+04  0.00000000000E+00 0. -1.
         -1    1    1    2    0  501  0.19758515133E+02  0.31715905668E+01  0.27105031951E+03  0.27178803066E+03  0.00000000000E+00 0.  1.
</event>
<event>
 4    1  0.6934088E+001  0.2454839E+02  0.7546771E-02  0.1473919E+00
          2   -1    0    0  502    0  0.00000000000E+00  0.00000000000E+00  0.17533821633E+02  0.17533821633E+02  0.00000000000E+00 0. -1.
         -2   -1    0    0    0  501 -0.00000000000E+00 -0.00000000000E+00 -0.35452789693E+02  0.35452789693E+02  0.00000000000E+00 0.  1.
          1    1    1    2  502    0  0.24539183689E+02  0.67218516343E+00 -0.43277460114E+01  0.24926948360E+02  0.00000000000E+00 0. -1.
         -1    1    1    2    0  501 -0.24539183689E+02 -0.67218516343E+00 -0.13591222048E+02  0.28059662966E+02  0.00000000000E+00 0.  1.
</event>
<event>
 4    1  0.6934088E+001  0.2494646E+02  0.7546771E-02  0.1469403E+00
          2   -1    0    0  502    0  0.00000000000E+00  0.00000000000E+00  0.45384151036E+03  0.45384151036E+03  0.00000000000E+00 0.  1.
         -2   -1    0    0    0  501 -0.00000000000E+00 -0.00000000000E+00 -0.23912348646E+01  0.23912348646E+01  0.00000000000E+00 0. -1.
          1    1    1    2  502    0  0.16526782158E+02  0.18686667831E+02  0.76739597104E+02  0.80692576157E+02  0.00000000000E+00 0. -1.
         -1    1    1    2    0  501 -0.16526782158E+02 -0.18686667831E+02  0.37471067840E+03  0.37554016907E+03  0.00000000000E+00 0.  1.
</event>
<event>
 4    1  0.6934088E+001  0.2818901E+02  0.7546771E-02  0.1436016E+00
          2   -1    0    0  502    0  0.00000000000E+00  0.00000000000E+00  0.37348061240E+03  0.37348061240E+03  0.00000000000E+00 0.  1.
         -2   -1    0    0    0  501 -0.00000000000E+00 -0.00000000000E+00 -0.26210212048E+01  0.26210212048E+01  0.00000000000E+00 0. -1.
          1    1    1    2  502    0  0.10507194759E+02  0.26157584414E+02  0.10383822164E+03  0.10759645272E+03  0.00000000000E+00 0.  1.
         -1    1    1    2    0  501 -0.10507194759E+02 -0.26157584414E+02  0.26702136956E+03  0.26850518089E+03  0.00000000000E+00 0. -1.
</event>
<event>
 4    1  0.6934088E+001  0.2088169E+02  0.7546771E-02  0.1520961E+00
          2   -1    0    0  502    0  0.00000000000E+00  0.00000000000E+00  0.17777776325E+04  0.17777776325E+04  0.00000000000E+00 0.  1.
         -2   -1    0    0    0  501 -0.00000000000E+00 -0.00000000000E+00 -0.24746526693E+00  0.24746526693E+00  0.00000000000E+00 0. -1.
          1    1    1    2  502    0 -0.17785722939E+02 -0.10941338450E+02  0.97239774853E+03  0.97262193383E+03  0.00000000000E+00 0. -1.
         -1    1    1    2    0  501  0.17785722939E+02  0.10941338450E+02  0.80513241867E+03  0.80540316390E+03  0.00000000000E+00 0.  1.
</event>
<event>
 4    1  0.6934088E+001  0.2367037E+02  0.7546771E-02  0.1484248E+00
          2   -1    0    0  502    0  0.00000000000E+00  0.00000000000E+00  0.14790696407E+04  0.14790696407E+04  0.00000000000E+00 0.  1.
         -2   -1    0    0    0  501 -0.00000000000E+00 -0.00000000000E+00 -0.11276715367E+01  0.11276715367E+01  0.00000000000E+00 0. -1.
          1    1    1    2  502    0  0.19243865436E+02  0.13782598907E+02  0.13420845057E+04  0.13422932268E+04  0.00000000000E+00 0.  1.
         -1    1    1    2    0  501 -0.19243865436E+02 -0.13782598907E+02  0.13585746349E+03  0.13790408542E+03  0.00000000000E+00 0. -1.
</event>
<event>
 4    1  0.6934088E+001  0.2335351E+02  0.7546771E-02  0.1488106E+00
          2   -1    0    0  502    0  0.00000000000E+00  0.00000000000E+00  0.13589136803E+03  0.13589136803E+03  0.00000000000E+00 0.  1.
         -2   -1    0    0    0  501 -0.00000000000E+00 -0.00000000000E+00 -0.85717823913E+01  0.85717823913E+01  0.00000000000E+00 0. -1.
          1    1    1    2  502    0 -0.12380330490E+02 -0.19801866567E+02  0.11633386133E+03  0.11865476726E+03  0.00000000000E+00 0.  1.
         -1    1    1    2    0  501  0.12380330490E+02  0.19801866567E+02  0.10985724309E+02  0.25808383157E+02  0.00000000000E+00 0. -1.
</event>
<event>
 4    1  0.6934088E+001  0.3523871E+02  0.7546771E-02  0.1378893E+00
          2   -1    0    0  502    0  0.00000000000E+00  0.00000000000E+00  0.66535058639E+02  0.66535058639E+02  0.00000000000E+00 0.  1.
         -2   -1    0    0    0  501 -0.00000000000E+00 -0.00000000000E+00 -0.19411863008E+02  0.19411863008E+02  0.00000000000E+00 0. -1.
          1    1    1    2  502    0  0.26982614379E+02  0.22665065727E+02  0.15123041420E+02  0.38346747775E+02  0.00000000000E+00 0.  1.
         -1    1    1    2    0  501 -0.26982614379E+02 -0.22665065727E+02  0.32000154211E+02  0.47600173872E+02  0.00000000000E+00 0. -1.
</event>
<event>
 4    1  0.6934088E+001  0.4405734E+02  0.7546771E-02  0.1326221E+00
          2   -1    0    0  502    0  0.00000000000E+00  0.00000000000E+00  0.15887341447E+02  0.15887341447E+02  0.00000000000E+00 0. -1.
         -2   -1    0    0    0  501 -0.00000000000E+00 -0.00000000000E+00 -0.30065446019E+03  0.30065446019E+03  0.00000000000E+00 0.  1.
          1    1    1    2  502    0  0.42960053828E+02  0.97715570672E+01 -0.26432752895E+03  0.26797405119E+03  0.00000000000E+00 0.  1.
         -1    1    1    2    0  501 -0.42960053828E+02 -0.97715570672E+01 -0.20439589798E+02  0.48567750448E+02  0.00000000000E+00 0. -1.
</event>
<event>
 4    1  0.6934088E+001  0.2506598E+02  0.7546771E-02  0.1468067E+00
          2   -1    0    0  502    0  0.00000000000E+00  0.00000000000E+00  0.41559849440E+03  0.41559849440E+03  0.00000000000E+00 0.  1.
         -2   -1    0    0    0  501 -0.00000000000E+00 -0.00000000000E+00 -0.18618381208E+01  0.18618381208E+01  0.00000000000E+00 0. -1.
          1    1    1    2  502    0  0.23484863327E+02 -0.87615514959E+01  0.11636401735E+03  0.11903313876E+03  0.00000000000E+00 0. -1.
         -1    1    1    2    0  501 -0.23484863327E+02  0.87615514959E+01  0.29737263893E+03  0.29842719376E+03  0.00000000000E+00 0.  1.
</event>
<event>
 4    1  0.6934088E+001  0.2702588E+02  0.7546771E-02  0.1447348E+00
          2   -1    0    0  502    0  0.00000000000E+00  0.00000000000E+00  0.13554594445E+04  0.13554594445E+04  0.00000000000E+00 0.  1.
         -2   -1    0    0    0  501 -0.00000000000E+00 -0.00000000000E+00 -0.66467594201E+00  0.66467594201E+00  0.00000000000E+00 0. -1.
          1    1    1    2  502    0 -0.44582744533E+01 -0.26655621598E+02  0.97240826538E+03  0.97278375446E+03  0.00000000000E+00 0.  1.
         -1    1    1    2    0  501  0.44582744533E+01  0.26655621598E+02  0.38238650321E+03  0.38334036601E+03  0.00000000000E+00 0. -1.
</event>
<event>
 4    1  0.6934088E+001  0.2498043E+02  0.7546771E-02  0.1469022E+00
          2   -1    0    0  502    0  0.00000000000E+00  0.00000000000E+00  0.34210768945E+02  0.34210768945E+02  0.00000000000E+00 0.  1.
         -2   -1    0    0    0  501 -0.00000000000E+00 -0.00000000000E+00 -0.23551619126E+02  0.23551619126E+02  0.00000000000E+00 0. -1.
          1    1    1    2  502    0  0.12494967802E+01 -0.24949163186E+02 -0.83854701002E+01  0.26350295912E+02  0.00000000000E+00 0. -1.
         -1    1    1    2    0  501 -0.12494967802E+01  0.24949163186E+02  0.19044619919E+02  0.31412092158E+02  0.00000000000E+00 0.  1.
</event>
<event>
 4    1  0.6934088E+001  0.2431834E+02  0.7546771E-02  0.1476576E+00
          2   -1    0    0  502    0  0.00000000000E+00  0.00000000000E+00  0.52812805223E+03  0.52812805223E+03  0.00000000000E+00 0. -1.
         -2   -1    0    0    0  501 -0.00000000000E+00 -0.00000000000E+00 -0.11225776225E+01  0.11225776225E+01  0.00000000000E+00 0.  1.
          1    1    1    2  502    0 -0.77259746381E+01 -0.23058424082E+02  0.27673831460E+03  0.27780474505E+03  0.00000000000E+00 0.  1.
         -1    1    1    2    0  501  0.77259746381E+01  0.23058424082E+02  0.25026716001E+03  0.25144588480E+03  0.00000000000E+00 0. -1.
</event>
<event>
 4    1  0.6934088E+001  0.2226110E+02  0.7546771E-02  0.1501991E+00
          2   -1    0    0  502    0  0.00000000000E+00  0.00000000000E+00  0.11426630696E+04  0.11426630696E+04  0.00000000000E+00 0.  1.
         -2   -1    0    0    0  501 -0.00000000000E+00 -0.00000000000E+00 -0.71338762294E+00  0.71338762294E+00  0.00000000000E+00 0. -1.
          1    1    1    2  502    0 -0.21864885294E+02  0.41813128249E+01  0.92894285567E+03  0.92920954886E+03  0.00000000000E+00 0.  1.
         -1    1    1    2    0  501  0.21864885294E+02 -0.41813128249E+01  0.21300682634E+03  0.21416690840E+03  0.00000000000E+00 0. -1.
</event>
<event>
 4    1  0.6934088E+001  0.2207024E+02  0.7546771E-02  0.1504515E+00
          2   -1    0    0  502    0  0.00000000000E+00  0.00000000000E+00  0.55486911002E+03  0.55486911002E+03  0.00000000000E+00 0. -1.
         -2   -1    0    0    0  501 -0.00000000000E+00 -0.00000000000E+00 -0.20966488409E+01  0.20966488409E+01  0.00000000000E+00 0.  1.
          1    1    1    2  502    0  0.20024720575E+02 -0.92793331481E+01  0.64061535613E+02  0.67756739907E+02  0.00000000000E+00 0.  1.
         -1    1    1    2    0  501 -0.20024720575E+02  0.92793331481E+01  0.48871092557E+03  0.48920901895E+03  0.00000000000E+00 0. -1.
</event>
<event>
 4    1  0.6934088E+001  0.3104538E+02  0.7546771E-02  0.1410724E+00
          2   -1    0    0  502    0  0.00000000000E+00  0.00000000000E+00  0.18601612344E+03  0.18601612344E+03  0.00000000000E+00 0.  1.
         -2   -1    0    0    0  501 -0.00000000000E+00 -0.00000000000E+00 -0.51813770667E+01  0.51813770667E+01  0.00000000000E+00 0. -1.
          1    1    1    2  502    0  0.69187942456E+01 -0.30264602579E+02  0.90607018016E+02  0.95778116482E+02  0.00000000000E+00 0.  1.
         -1    1    1    2    0  501 -0.69187942456E+01  0.30264602579E+02  0.90227728353E+02  0.95419384021E+02  0.00000000000E+00 0. -1.
</event>
<event>
 4    1  0.6934088E+001  0.4083393E+02  0.7546771E-02  0.1343667E+00
          2   -1    0    0  502    0  0.00000000000E+00  0.00000000000E+00  0.79673741662E+02  0.79673741662E+02  0.00000000000E+00 0. -1.
         -2   -1    0    0    0  501 -0.00000000000E+00 -0.00000000000E+00 -0.24380252645E+02  0.24380252645E+02  0.00000000000E+00 0.  1.
          1    1    1    2  502    0 -0.40826915730E+02  0.75674380664E+00  0.47224495716E+02  0.62430462956E+02  0.00000000000E+00 0. -1.
         -1    1    1    2    0  501  0.40826915730E+02 -0.75674380664E+00  0.80689933004E+01  0.41623531351E+02  0.00000000000E+00 0.  1.
</event>
<event>
 4    1  0.6934088E+001  0.3845203E+02  0.7546771E-02  0.1357804E+00
          2   -1    0    0  502    0  0.00000000000E+00  0.00000000000E+00  0.26915787227E+04  0.26915787227E+04  0.00000000000E+00 0.  1.
         -2   -1    0    0    0  501 -0.00000000000E+00 -0.00000000000E+00 -0.82952273124E+00  0.82952273124E+00  0.00000000000E+00 0. -1.
          1    1    1    2  502    0  0.24337818395E+01 -0.38374934285E+02  0.56297800999E+03  0.56428964071E+03  0.00000000000E+00 0. -1.
         -1    1    1    2    0  501 -0.24337818395E+01  0.38374934285E+02  0.21277711899E+04  0.21281186047E+04  0.00000000000E+00 0.  1.
</event>
<event>
 4    1  0.6934088E+001  0.2339694E+02  0.7546771E-02  0.1487573E+00
          2   -1    0    0  502    0  0.00000000000E+00  0.00000000000E+00  0.11084690319E+02  0.11084690319E+02  0.00000000000E+00 0. -1.
         -2   -1    0    0    0  501 -0.00000000000E+00 -0.00000000000E+00 -0.62655435530E+02  0.62655435530E+02  0.00000000000E+00 0.  1.
          1    1    1    2  502    0 -0.19350968098E+02 -0.13151306808E+02 -0.42753658301E+02  0.48736968876E+02  0.00000000000E+00 0. -1.
         -1    1    1    2    0  501  0.19350968098E+02  0.13151306808E+02 -0.88170869099E+01  0.25003156974E+02  0.00000000000E+00 0.  1.
</event>
<event>
 4    1  0.6934088E+001  0.5119548E+02  0.7546771E-02  0.1293071E+00
          2   -1    0    0  502    0  0.00000000000E+00  0.00000000000E+00  0.13810180124E+04  0.13810180124E+04  0.00000000000E+00 0.  1.
         -2   -1    0    0    0  501 -0.00000000000E+00 -0.00000000000E+00 -0.24873161978E+01  0.24873161978E+01  0.00000000000E+00 0. -1.
          1    1    1    2  502    0 -0.50962805082E+02  0.48754520088E+01  0.10260183380E+04  0.10272948007E+04  0.00000000000E+00 0.  1.
         -1    1    1    2    0  501  0.50962805082E+02 -0.48754520088E+01  0.35251235819E+03  0.35621052794E+03  0.00000000000E+00 0. -1.
</event>
<event>
 4    1  0.6934088E+001  0.2788800E+02  0.7546771E-02  0.1438886E+00
          2   -1    0    0  502    0  0.00000000000E+00  0.00000000000E+00  0.21736811637E+02  0.21736811637E+02  0.00000000000E+00 0.  1.
         -2   -1    0    0    0  501 -0.00000000000E+00 -0.00000000000E+00 -0.49123641028E+02  0.49123641028E+02  0.00000000000E+00 0. -1.
          1    1    1    2  502    0  0.26664866313E+02 -0.81685763410E+01  0.47723634290E+01  0.28293394771E+02  0.00000000000E+00 0.  1.
         -1    1    1    2    0  501 -0.26664866313E+02  0.81685763410E+01 -0.32159192820E+02  0.42567057894E+02  0.00000000000E+00 0. -1.
</event>
<event>
 4    1  0.6934088E+001  0.3946082E+02  0.7546771E-02  0.1351675E+00
          2   -1    0    0  502    0  0.00000000000E+00  0.00000000000E+00  0.34640685804E+02  0.34640685804E+02  0.00000000000E+00 0. -1.
         -2   -1    0    0    0  501 -0.00000000000E+00 -0.00000000000E+00 -0.46196421031E+02  0.46196421031E+02  0.00000000000E+00 0.  1.
          1    1    1    2  502    0  0.24143059242E+02  0.31213283309E+02  0.85680382541E+00  0.39470121324E+02  0.00000000000E+00 0. -1.
         -1    1    1    2    0  501 -0.24143059242E+02 -0.31213283309E+02 -0.12412539052E+02  0.41366985511E+02  0.00000000000E+00 0.  1.
</event>
<event>
 4    1  0.6934088E+001  0.2231116E+02  0.7546771E-02  0.1501334E+00
          2   -1    0    0  502    0  0.00000000000E+00  0.00000000000E+00  0.12620616927E+03  0.12620616927E+03  0.00000000000E+00 0.  1.
         -2   -1    0    0    0  501 -0.00000000000E+00 -0.00000000000E+00 -0.39951200881E+01  0.39951200881E+01  0.00000000000E+00 0. -1.
          1    1    1    2  502    0  0.13631647223E+02 -0.17662557138E+02  0.53758967991E+02  0.58204934242E+02  0.00000000000E+00 0. -1.
         -1    1    1    2    0  501 -0.13631647223E+02  0.17662557138E+02  0.68452081194E+02  0.71996355119E+02  0.00000000000E+00 0.  1.
</event>
<event>
 4    1  0.6934088E+001  0.2188031E+02  0.7546771E-02  0.1507058E+00
          2   -1    0    0  502    0  0.00000000000E+00  0.00000000000E+00  0.15347902036E+02  0.15347902036E+02  0.00000000000E+00 0. -1.
         -2   -1    0    0    0  501 -0.00000000000E+00 -0.00000000000E+00 -0.50584164265E+02  0.50584164265E+02  0.00000000000E+00 0.  1.
          1    1    1    2  502    0  0.10577314622E+02 -0.19153803234E+02  0.27927083270E+01  0.22057810017E+02  0.00000000000E+00 0. -1.
         -1    1    1    2    0  501 -0.10577314622E+02  0.19153803234E+02 -0.38028970556E+02  0.43874256284E+02  0.00000000000E+00 0.  1.
</event>
<event>
 4    1  0.6934088E+001  0.2659127E+02  0.7546771E-02  0.1451758E+00
          2   -1    0    0  502    0  0.00000000000E+00  0.00000000000E+00  0.14401882276E+04  0.14401882276E+04  0.00000000000E+00 0. -1.
         -2   -1    0    0    0  501 -0.00000000000E+00 -0.00000000000E+00 -0.10052643727E+01  0.10052643727E+01  0.00000000000E+00 0.  1.
          1    1    1    2  502    0 -0.20996194049E+02  0.16317344301E+02  0.12350053264E+04  0.12352915657E+04  0.00000000000E+00 0. -1.
         -1    1    1    2    0  501  0.20996194049E+02 -0.16317344301E+02  0.20417763680E+03  0.20590192631E+03  0.00000000000E+00 0.  1.
</event>
<event>
 4    1  0.6934088E+001  0.2710263E+02  0.7546771E-02  0.1446580E+00
          2   -1    0    0  502    0  0.00000000000E+00  0.00000000000E+00  0.12015843971E+02  0.12015843971E+02  0.00000000000E+00 0.  1.
         -2   -1    0    0    0  501 -0.00000000000E+00 -0.00000000000E+00 -0.65183707157E+02  0.65183707157E+02  0.00000000000E+00 0. -1.
          1    1    1    2  502    0 -0.19716070419E+02  0.18596482779E+02 -0.36207455686E+02  0.45227562966E+02  0.00000000000E+00 0. -1.
         -1    1    1    2    0  501  0.19716070419E+02 -0.18596482779E+02 -0.16960407500E+02  0.31971988163E+02  0.00000000000E+00 0.  1.
</event>
<event>
 4    1  0.6934088E+001  0.2508725E+02  0.7546771E-02  0.1467830E+00
          2   -1    0    0  502    0  0.00000000000E+00  0.00000000000E+00  0.15947648952E+03  0.15947648952E+03  0.00000000000E+00 0. -1.
         -2   -1    0    0    0  501 -0.00000000000E+00 -0.00000000000E+00 -0.51094721342E+01  0.51094721342E+01  0.00000000000E+00 0.  1.
          1    1    1    2  502    0 -0.22280678315E+02  0.11530022969E+02  0.11644474838E+03  0.11911653740E+03  0.00000000000E+00 0. -1.
         -1    1    1    2    0  501  0.22280678315E+02 -0.11530022969E+02  0.37922269005E+02  0.45469424258E+02  0.00000000000E+00 0.  1.
</event>
<event>
 4    1  0.6934088E+001  0.2593900E+02  0.7546771E-02  0.1458567E+00
          2   -1    0    0  502    0  0.00000000000E+00  0.00000000000E+00  0.72501375342E+01  0.72501375342E+01  0.00000000000E+00 0.  1.
         -2   -1    0    0    0  501 -0.00000000000E+00 -0.00000000000E+00 -0.11376717959E+03  0.11376717959E+03  0.00000000000E+00 0. -1.
          1    1    1    2  502    0  0.21334098161E+02 -0.14754248614E+02 -0.79233316254E+02  0.83371158089E+02  0.00000000000E+00 0. -1.
         -1    1    1    2    0  501 -0.21334098161E+02  0.14754248614E+02 -0.27283725805E+02  0.37646159038E+02  0.00000000000E+00 0.  1.
</event>
<event>
 4    1  0.6934088E+001  0.2300982E+02  0.7546771E-02  0.1492375E+00
          2   -1    0    0  502    0  0.00000000000E+00  0.00000000000E+00  0.26380625898E+02  0.26380625898E+02  0.00000000000E+00 0.  1.
         -2   -1    0    0    0  501 -0.00000000000E+00 -0.00000000000E+00 -0.24883913519E+02  0.24883913519E+02  0.00000000000E+00 0. -1.
          1    1    1    2  502    0  0.48717994039E+01  0.22488164535E+02  0.12022644984E+02  0.25961432279E+02  0.00000000000E+00 0.  1.
         -1    1    1    2    0  501 -0.48717994039E+01 -0.22488164535E+02 -0.10525932606E+02  0.25303107137E+02  0.00000000000E+00 0. -1.
</event>
<event>
 4    1  0.6934088E+001  0.3678464E+02  0.7546771E-02  0.1368433E+00
          2   -1    0    0  502    0  0.00000000000E+00  0.00000000000E+00  0.20896976067E+03  0.20896976067E+03  0.00000000000E+00 0.  1.
         -2   -1    0    0    0  501 -0.00000000000E+00 -0.00000000000E+00 -0.10717237414E+02  0.10717237414E+02  0.00000000000E+00 0. -1.
          1    1    1    2  502    0 -0.35248045781E+02  0.10520682031E+02  0.16823341442E+03  0.17220798823E+03  0.00000000000E+00 0.  1.
         -1    1    1    2    0  501  0.35248045781E+02 -0.10520682031E+02  0.30019108835E+02  0.47479009857E+02  0.00000000000E+00 0. -1.
</event>
<event>
 4    1  0.6934088E+001  0.2020025E+02  0.7546771E-02  0.1530996E+00
          2   -1    0    0  502    0  0.00000000000E+00  0.00000000000E+00  0.49667737343E+03  0.49667737343E+03  0.00000000000E+00 0. -1.
         -2   -1    0    0    0  501 -0.00000000000E+00 -0.00000000000E+00 -0.13867269721E+01  0.13867269721E+01  0.00000000000E+00 0.  1.
          1    1    1    2  502    0  0.19004998222E+02  0.68454602273E+01  0.88663258092E+02  0.90935271587E+02  0.00000000000E+00 0.  1.
         -1    1    1    2    0  501 -0.19004998222E+02 -0.68454602273E+01  0.40662738837E+03  0.40712882882E+03  0.00000000000E+00 0. -1.
</event>
<event>
 4    1  0.6934088E+001  0.2114866E+02  0.7546771E-02  0.1517153E+00
          2   -1    0    0  502    0  0.00000000000E+00  0.00000000000E+00  0.33453395348E+00  0.33453395348E+00  0.00000000000E+00 0. -1.
         -2   -1    0    0    0  501 -0.00000000000E+00 -0.00000000000E+00 -0.13411175775E+04  0.13411175775E+04  0.00000000000E+00 0.  1.
          1    1    1    2  502    0 -0.97111264243E+01  0.18787225985E+02 -0.63314499975E+03  0.63349811092E+03  0.00000000000E+00 0.  1.
         -1    1    1    2    0  501  0.97111264243E+01 -0.18787225985E+02 -0.70763804381E+03  0.70795400054E+03  0.00000000000E+00 0. -1.
</event>
<event>
 4    1  0.6934088E+001  0.2048421E+02  0.7546771E-02  0.1526758E+00
          2   -1    0    0  502    0  0.00000000000E+00  0.00000000000E+00  0.38243866618E+01  0.38243866618E+01  0.00000000000E+00 0.  1.
         -2   -1    0    0    0  501 -0.00000000000E+00 -0.00000000000E+00 -0.16914528712E+03  0.16914528712E+03  0.00000000000E+00 0. -1.
          1    1    1    2  502    0  0.20479023570E+02  0.46113143670E+00 -0.13392344037E+03  0.13548096150E+03  0.00000000000E+00 0. -1.
         -1    1    1    2    0  501 -0.20479023570E+02 -0.46113143670E+00 -0.31397460094E+02  0.37488712287E+02  0.00000000000E+00 0.  1.
</event>
<event>
 4    1  0.6934088E+001  0.2757587E+02  0.7546771E-02  0.1441908E+00
          2   -1    0    0  502    0  0.00000000000E+00  0.00000000000E+00  0.43502661399E+01  0.43502661399E+01  0.00000000000E+00 0.  1.
         -2   -1    0    0    0  501 -0.00000000000E+00 -0.00000000000E+00 -0.20137468776E+03  0.20137468776E+03  0.00000000000E+00 0. -1.
          1    1    1    2  502    0  0.10732091145E+02 -0.25401786304E+02 -0.61145501429E+02  0.67076082718E+02  0.00000000000E+00 0.  1.
         -1    1    1    2    0  501 -0.10732091145E+02  0.25401786304E+02 -0.13587892019E+03  0.13864887118E+03  0.00000000000E+00 0. -1.
</event>
<event>
 4    1  0.6934088E+001  0.2281305E+02  0.7546771E-02  0.1494859E+00
          2   -1    0    0  502    0  0.00000000000E+00  0.00000000000E+00  0.62970280759E+03  0.62970280759E+03  0.00000000000E+00 0.  1.
         -2   -1    0    0    0  501 -0.00000000000E+00 -0.00000000000E+00 -0.12423996986E+01  0.12423996986E+01  0.00000000000E+00 0. -1.
          1    1    1    2  502    0  0.22379679778E+02 -0.44254993744E+01  0.13169900498E+03  0.13366025222E+03  0.00000000000E+00 0.  1.
         -1    1    1    2    0  501 -0.22379679778E+02  0.44254993744E+01  0.49676140291E+03  0.49728495506E+03  0.00000000000E+00 0. -1.
</event>
<event>
 4    1  0.6934088E+001  0.2673475E+02  0.7546771E-02  0.1450291E+00
          2   -1    0    0  502    0  0.00000000000E+00  0.00000000000E+00  0.21161167130E+02  0.21161167130E+02  0.00000000000E+00 0. -1.
         -2   -1    0    0    0  501 -0.00000000000E+00 -0.00000000000E+00 -0.66887817852E+02  0.66887817852E+02  0.00000000000E+00 0.  1.
          1    1    1    2  502    0  0.78096155859E+01  0.25568671292E+02 -0.53838234607E+02  0.60110752390E+02  0.00000000000E+00 0.  1.
         -1    1    1    2    0  501 -0.78096155859E+01 -0.25568671292E+02  0.81115838852E+01  0.27938232592E+02  0.00000000000E+00 0. -1.
</event>
<event>
 4    1  0.6934088E+001  0.4016167E+02  0.7546771E-02  0.1347541E+00
          2   -1    0    0  502    0  0.00000000000E+00  0.00000000000E+00  0.18564429642E+02  0.18564429642E+02  0.00000000000E+00 0.  1.
         -2   -1    0    0    0  501 -0.00000000000E+00 -0.00000000000E+00 -0.22652468175E+03  0.22652468175E+03  0.00000000000E+00 0. -1.
          1    1    1    2  502    0 -0.27793884697E+02 -0.28990687817E+02 -0.20019485456E+03  0.20418359336E+03  0.00000000000E+00 0.  1.
         -1    1    1    2    0  501  0.27793884697E+02  0.28990687817E+02 -0.77653975565E+01  0.40905518037E+02  0.00000000000E+00 0. -1.
</event>
<event>
 4    1  0.6934088E+001  0.4773535E+02  0.7546771E-02  0.1308301E+00
          2   -1    0    0  502    0  0.00000000000E+00  0.00000000000E+00  0.41795844072E+02  0.41795844072E+02  0.00000000000E+00 0.  1.
         -2   -1    0    0    0  501 -0.00000000000E+00 -0.00000000000E+00 -0.79479446476E+02  0.79479446476E+02  0.00000000000E+00 0. -1.
          1    1    1    2  502    0  0.45285905861E+02 -0.15094727354E+02 -0.52823244971E+02  0.71196624027E+02  0.00000000000E+00 0. -1.
         -1    1    1    2    0  501 -0.45285905861E+02  0.15094727354E+02  0.15139642567E+02  0.50078666522E+02  0.00000000000E+00 0.  1.
</event>
<event>
 4    1  0.6934088E+001  0.2531547E+02  0.7546771E-02  0.1465305E+00
          2   -1    0    0  502    0  0.00000000000E+00  0.00000000000E+00  0.10424900903E+04  0.10424900903E+04  0.00000000000E+00 0. -1.
         -2   -1    0    0    0  501 -0.00000000000E+00 -0.00000000000E+00 -0.66185376797E+00  0.66185376797E+00  0.00000000000E+00 0.  1.
          1    1    1    2  502    0 -0.25315202367E+02  0.11672610076E+00  0.38177342916E+03  0.38261184549E+03  0.00000000000E+00 0.  1.
         -1    1    1    2    0  501  0.25315202367E+02 -0.11672610076E+00  0.66005480739E+03  0.66054009860E+03  0.00000000000E+00 0. -1.
</event>
<event>
 4    1  0.6934088E+001  0.2347751E+02  0.7546771E-02  0.1486588E+00
          2   -1    0    0  502    0  0.00000000000E+00  0.00000000000E+00  0.11259463216E+02  0.11259463216E+02  0.00000000000E+00 0.  1.
         -2   -1    0    0    0  501 -0.00000000000E+00 -0.00000000000E+00 -0.66091431116E+02  0.66091431116E+02  0.00000000000E+00 0. -1.
          1    1    1    2  502    0 -0.22870032318E+02  0.53061403563E+01 -0.47110175991E+02  0.52636130040E+02  0.00000000000E+00 0. -1.
         -1    1    1    2    0  501  0.22870032318E+02 -0.53061403563E+01 -0.77217919089E+01  0.24714764291E+02  0.00000000000E+00 0.  1.
</event>
<event>
 4    1  0.6934088E+001  0.2261216E+02  0.7546771E-02  0.1497427E+00
          2   -1    0    0  502    0  0.00000000000E+00  0.00000000000E+00  0.62808863923E+03  0.62808863923E+03  0.00000000000E+00 0.  1.
         -2   -1    0    0    0  501 -0.00000000000E+00 -0.00000000000E+00 -0.83170804228E+00  0.83170804228E+00  0.00000000000E+00 0. -1.
          1    1    1    2  502    0 -0.21405370197E+02  0.72883377680E+01  0.35941877631E+03  0.36012937467E+03  0.00000000000E+00 0. -1.
         -1    1    1    2    0  501  0.21405370197E+02 -0.72883377680E+01  0.26783815487E+03  0.26879097259E+03  0.00000000000E+00 0.  1.
</event>
<event>
 4    1  0.6934088E+001  0.2090742E+02  0.7546771E-02  0.1520591E+00
          2   -1    0    0  502    0  0.00000000000E+00  0.00000000000E+00  0.20410907650E+02  0.20410907650E+02  0.00000000000E+00 0.  1.
         -2   -1    0    0    0  501 -0.00000000000E+00 -0.00000000000E+00 -0.30725977206E+02  0.30725977206E+02  0.00000000000E+00 0. -1.
          1    1    1    2  502    0  0.19770806033E+02  0.67996562454E+01 -0.19231796325E+02  0.28407430122E+02  0.00000000000E+00 0.  1.
         -1    1    1    2    0  501 -0.19770806033E+02 -0.67996562454E+01  0.89167267686E+01  0.22729454735E+02  0.00000000000E+00 0. -1.
</event>
<event>
 4    1  0.6934088E+001  0.2807061E+02  0.7546771E-02  0.1437140E+00
          2   -1    0    0  502    0  0.00000000000E+00  0.00000000000E+00  0.32353033111E+04  0.32353033111E+04  0.00000000000E+00 0.  1.
         -2   -1    0    0    0  501 -0.00000000000E+00 -0.00000000000E+00 -0.24699548779E+00  0.24699548779E+00  0.00000000000E+00 0. -1.
          1    1    1    2  502    0  0.16489762877E+02 -0.22716668920E+02  0.14264656246E+04  0.14267417908E+04  0.00000000000E+00 0.  1.
         -1    1    1    2    0  501 -0.16489762877E+02  0.22716668920E+02  0.18085906910E+04  0.18088085158E+04  0.00000000000E+00 0. -1.
</event>
<event>
 4    1  0.6934088E+001  0.3748433E+02  0.7546771E-02  0.1363893E+00
          2   -1    0    0  502    0  0.00000000000E+00  0.00000000000E+00  0.60736561792E+01  0.60736561792E+01  0.00000000000E+00 0.  1.
         -2   -1    0    0    0  501 -0.00000000000E+00 -0.00000000000E+00 -0.24074098730E+03  0.24074098730E+03  0.00000000000E+00 0. -1.
          1    1    1    2  502    0 -0.31584191341E+02 -0.20186969591E+02 -0.14172135490E+03  0.14659473837E+03  0.00000000000E+00 0. -1.
         -1    1    1    2    0  501  0.31584191341E+02  0.20186969591E+02 -0.92945976224E+02  0.10021990511E+03  0.00000000000E+00 0.  1.
</event>
<event>
 4    1  0.6934088E+001  0.2479931E+02  0.7546771E-02  0.1471061E+00
          2   -1    0    0  502    0  0.00000000000E+00  0.00000000000E+00  0.18999738138E+02  0.18999738138E+02  0.00000000000E+00 0.  1.
         -2   -1    0    0    0  501 -0.00000000000E+00 -0.00000000000E+00 -0.37050810813E+02  0.37050810813E+02  0.00000000000E+00 0. -1.
          1    1    1    2  502    0  0.17045540199E+02  0.18012637362E+02  0.93655617094E+00  0.24816983759E+02  0.00000000000E+00 0.  1.
         -1    1    1    2    0  501 -0.17045540199E+02 -0.18012637362E+02 -0.18987628846E+02  0.31233565192E+02  0.00000000000E+00 0. -1.
</event>
<event>
 4    1  0.6934088E+001  0.4013793E+02  0.7546771E-02  0.1347679E+00
          2   -1    0    0  502    0  0.00000000000E+00  0.00000000000E+00  0.51670537765E+03  0.51670537765E+03  0.00000000000E+00 0.  1.
         -2   -1    0    0    0  501 -0.00000000000E+00 -0.00000000000E+00 -0.40446908677E+01  0.40446908677E+01  0.00000000000E+00 0. -1.
          1    1    1    2  502    0  0.16535695254E+02  0.36573549232E+02  0.13169552862E+03  0.13767630871E+03  0.00000000000E+00 0. -1.
         -1    1    1    2    0  501 -0.16535695254E+02 -0.36573549232E+02  0.38096515816E+03  0.38307375981E+03  0.00000000000E+00 0.  1.
</event>
<event>
 4    1  0.6934088E+001  0.2007795E+02  0.7546771E-02  0.1532847E+00
          2   -1    0    0  502    0  0.00000000000E+00  0.00000000000E+00  0.87010209572E+03  0.87010209572E+03  0.00000000000E+00 0. -1.
         -2   -1    0    0    0  501 -0.00000000000E+00 -0.00000000000E+00 -0.83950860051E+00  0.83950860051E+00  0.00000000000E+00 0.  1.
          1    1    1    2  502    0  0.20020693765E+02  0.15151655992E+01  0.72614374416E+03  0.72642126971E+03  0.00000000000E+00 0. -1.
         -1    1    1    2    0  501 -0.20020693765E+02 -0.15151655992E+01  0.14311884296E+03  0.14452033461E+03  0.00000000000E+00 0.  1.
</event>
<event>
 4    1  0.6934088E+001  0.2156954E+02  0.7546771E-02  0.1511286E+00
          2   -1    0    0  502    0  0.00000000000E+00  0.00000000000E+00  0.28094678399E+03  0.28094678399E+03  0.00000000000E+00 0.  1.
         -2   -1    0    0    0  501 -0.00000000000E+00 -0.00000000000E+00 -0.20252591187E+01  0.20252591187E+01  0.00000000000E+00 0. -1.
          1    1    1    2  502    0  0.19603793122E+02 -0.89964634171E+01  0.79045767378E+02  0.81935818780E+02  0.00000000000E+00 0. -1.
         -1    1    1    2    0  501 -0.19603793122E+02  0.89964634171E+01  0.19987575749E+03  0.20103622432E+03  0.00000000000E+00 0.  1.
</event>
<event>
 4    1  0.6934088E+001  0.3946463E+02  0.7546771E-02  0.1351652E+00
          2   -1    0    0  502    0  0.00000000000E+00  0.00000000000E+00  0.32336697536E+04  0.32336697536E+04  0.00000000000E+00 0. -1.
         -2   -1    0    0    0  501 -0.00000000000E+00 -0.00000000000E+00 -0.49794794550E+00  0.49794794550E+00  0.00000000000E+00 0.  1.
          1    1    1    2  502    0 -0.33766867482E+02 -0.20426834627E+02  0.19092518938E+04  0.19096597212E+04  0.00000000000E+00 0. -1.
         -1    1    1    2    0  501  0.33766867482E+02  0.20426834627E+02  0.13239199118E+04  0.13245079803E+04  0.00000000000E+00 0.  1.
</event>
<event>
 4    1  0.6934088E+001  0.2630624E+02  0.7546771E-02  0.1454704E+00
          2   -1    0    0  502    0  0.00000000000E+00  0.00000000000E+00  0.16220019625E+02  0.16220019625E+02  0.00000000000E+00 0.  1.
         -2   -1    0    0    0  501 -0.00000000000E+00 -0.00000000000E+00 -0.43237387101E+02  0.43237387101E+02  0.00000000000E+00 0. -1.
          1    1    1    2  502    0 -0.26214395830E+02 -0.21962859358E+01 -0.16930838282E+02  0.31283725890E+02  0.00000000000E+00 0.  1.
         -1    1    1    2    0  501  0.26214395830E+02  0.21962859358E+01 -0.10086529194E+02  0.28173680836E+02  0.00000000000E+00 0. -1.
</event>
<event>
 4    1  0.6934088E+001  0.2409867E+02  0.7546771E-02  0.1479144E+00
          2   -1    0    0  502    0  0.00000000000E+00  0.00000000000E+00  0.11505062838E+04  0.11505062838E+04  0.00000000000E+00 0. -1.
         -2   -1    0    0    0  501 -0.00000000000E+00 -0.00000000000E+00 -0.80716093787E+00  0.80716093787E+00  0.00000000000E+00 0.  1.
          1    1    1    2  502    0 -0.14438607598E+02 -0.19294363869E+02  0.92719195189E+03  0.92750507358E+03  0.00000000000E+00 0. -1.
         -1    1    1    2    0  501  0.14438607598E+02  0.19294363869E+02  0.22250717099E+03  0.22380837118E+03  0.00000000000E+00 0.  1.
</event>
<event>
 4    1  0.6934088E+001  0.2824649E+02  0.7546771E-02  0.1435473E+00
          2   -1    0    0  502    0  0.00000000000E+00  0.00000000000E+00  0.77506367822E+02  0.77506367822E+02  0.00000000000E+00 0. -1.
         -2   -1    0    0    0  501 -0.00000000000E+00 -0.00000000000E+00 -0.15582951337E+02  0.15582951337E+02  0.00000000000E+00 0.  1.
          1    1    1    2  502    0 -0.27970570937E+02 -0.39384520056E+01  0.38459012884E+01  0.28507107876E+02  0.00000000000E+00 0.  1.
         -1    1    1    2    0  501  0.27970570937E+02  0.39384520056E+01  0.58077515197E+02  0.64582211283E+02  0.00000000000E+00 0. -1.
</event>
<event>
 4    1  0.6934088E+001  0.2699802E+02  0.7546771E-02  0.1447628E+00
          2   -1    0    0  502    0  0.00000000000E+00  0.00000000000E+00  0.52031438286E+01  0.52031438286E+01  0.00000000000E+00 0. -1.
         -2   -1    0    0    0  501 -0.00000000000E+00 -0.00000000000E+00 -0.14626482076E+03  0.14626482076E+03  0.00000000000E+00 0.  1.
          1    1    1    2  502    0 -0.21689078164E+02 -0.16077222828E+02 -0.54966314983E+02  0.61238786633E+02  0.00000000000E+00 0. -1.
         -1    1    1    2    0  501  0.21689078164E+02  0.16077222828E+02 -0.86095361945E+02  0.90229177952E+02  0.00000000000E+00 0.  1.
</event>
<event>
 4    1  0.6934088E+001  0.2152743E+02  0.7546771E-02  0.1511866E+00
          2   -1    0    0  502    0  0.00000000000E+00  0.00000000000E+00  0.11672249377E+04  0.11672249377E+04  0.00000000000E+00 0.  1.
         -2   -1    0    0    0  501 -0.00000000000E+00 -0.00000000000E+00 -0.43141459213E+00  0.43141459213E+00  0.00000000000E+00 0. -1.
          1    1    1    2  502    0 -0.38444965840E+01 -0.21181363412E+02  0.41858745371E+03  0.41914065266E+03  0.00000000000E+00 0.  1.
         -1    1    1    2    0  501  0.38444965840E+01  0.21181363412E+02  0.74820606943E+03  0.74851569966E+03  0.00000000000E+00 0. -1.
</event>
<event>
 4    1  0.6934088E+001  0.2355528E+02  0.7546771E-02  0.1485641E+00
          2   -1    0    0  502    0  0.00000000000E+00  0.00000000000E+00  0.12819293410E+04  0.12819293410E+04  0.00000000000E+00 0.  1.
         -2   -1    0    0    0  501 -0.00000000000E+00 -0.00000000000E+00 -0.67480121120E+00  0.67480121120E+00  0.00000000000E+00 0. -1.
          1    1    1    2  502    0  0.23539339466E+02 -0.86645963623E+00  0.25660101189E+03  0.25767989940E+03  0.00000000000E+00 0. -1.
         -1    1    1    2    0  501 -0.23539339466E+02  0.86645963623E+00  0.10246535279E+04  0.10249242428E+04  0.00000000000E+00 0.  1.
</event>
<event>
 4    1  0.6934088E+001  0.2372918E+02  0.7546771E-02  0.1483539E+00
          2   -1    0    0  502    0  0.00000000000E+00  0.00000000000E+00  0.31183282607E+03  0.31183282607E+03  0.00000000000E+00 0.  1.
         -2   -1    0    0    0  501 -0.00000000000E+00 -0.00000000000E+00 -0.26906390187E+01  0.26906390187E+01  0.00000000000E+00 0. -1.
          1    1    1    2  502    0  0.19726261864E+02  0.13188952720E+02  0.64381984224E+02  0.68615696263E+02  0.00000000000E+00 0. -1.
         -1    1    1    2    0  501 -0.19726261864E+02 -0.13188952720E+02  0.24476020282E+03  0.24590776882E+03  0.00000000000E+00 0.  1.
</event>
<event>
 4    1  0.6934088E+001  0.7028208E+02  0.7546771E-02  0.1228405E+00
          2   -1    0    0  502    0  0.00000000000E+00  0.00000000000E+00  0.31349777118E+03  0.31349777118E+03  0.00000000000E+00 0. -1.
         -2   -1    0    0    0  501 -0.00000000000E+00 -0.00000000000E+00 -0.18658545089E+02  0.18658545089E+02  0.00000000000E+00 0.  1.
          1    1    1    2  502    0  0.61941422177E+02 -0.33208889581E+02  0.21291933159E+03  0.22421911581E+03  0.00000000000E+00 0.  1.
         -1    1    1    2    0  501 -0.61941422177E+02  0.33208889581E+02  0.81919894501E+02  0.10793720046E+03  0.00000000000E+00 0. -1.
</event>
<event>
 4    1  0.6934088E+001  0.5273919E+02  0.7546771E-02  0.1286714E+00
          2   -1    0    0  502    0  0.00000000000E+00  0.00000000000E+00  0.31460551984E+04  0.31460551984E+04  0.00000000000E+00 0. -1.
         -2   -1    0    0    0  501 -0.00000000000E+00 -0.00000000000E+00 -0.19669663283E+01  0.19669663283E+01  0.00000000000E+00 0.  1.
          1    1    1    2  502    0  0.52737535697E+02  0.41766533490E+00  0.40416717206E+03  0.40759357832E+03  0.00000000000E+00 0.  1.
         -1    1    1    2    0  501 -0.52737535697E+02 -0.41766533490E+00  0.27399210601E+04  0.27404285865E+04  0.00000000000E+00 0. -1.
</event>
<event>
 4    1  0.6934088E+001  0.3442890E+02  0.7546771E-02  0.1384623E+00
          2   -1    0    0  502    0  0.00000000000E+00  0.00000000000E+00  0.27156766410E+04  0.27156766410E+04  0.00000000000E+00 0. -1.
         -2   -1    0    0    0  501 -0.00000000000E+00 -0.00000000000E+00 -0.57652386369E+00  0.57652386369E+00  0.00000000000E+00 0.  1.
          1    1    1    2  502    0  0.27593340333E+02 -0.20590213295E+02  0.20269065750E+04  0.20271989574E+04  0.00000000000E+00 0. -1.
         -1    1    1    2    0  501 -0.27593340333E+02  0.20590213295E+02  0.68819354214E+03  0.68905420741E+03  0.00000000000E+00 0.  1.
</event>
<event>
 4    1  0.6934088E+001  0.2152859E+02  0.7546771E-02  0.1511850E+00
          2   -1    0    0  502    0  0.00000000000E+00  0.00000000000E+00  0.38352357055E+01  0.38352357055E+01  0.00000000000E+00 0. -1.
         -2   -1    0    0    0  501 -0.00000000000E+00 -0.00000000000E+00 -0.21970041202E+03  0.21970041202E+03  0.00000000000E+00 0.  1.
          1    1    1    2  502    0  0.12529600561E+02 -0.17506839425E+02 -0.18290390459E+03  0.18416655133E+03  0.00000000000E+00 0. -1.
         -1    1    1    2    0  501 -0.12529600561E+02  0.17506839425E+02 -0.32961271728E+02  0.39369096393E+02  0.00000000000E+00 0.  1.
</event>
<event>
 4    1  0.6934088E+001  0.3448368E+02  0.7546771E-02  0.1384230E+00
          2   -1    0    0  502    0  0.00000000000E+00  0.00000000000E+00  0.17440672719E+03  0.17440672719E+03  0.00000000000E+00 0.  1.
         -2   -1    0    0    0  501 -0.00000000000E+00 -0.00000000000E+00 -0.68228209480E+01  0.68228209480E+01  0.00000000000E+00 0. -1.
          1    1    1    2  502    0 -0.21014091473E+01 -0.34419592286E+02  0.81410892518E+02  0.88412994939E+02  0.00000000000E+00 0.  1.
         -1    1    1    2    0  501  0.21014091473E+01  0.34419592286E+02  0.86173013728E+02  0.92816553203E+02  0.00000000000E+00 0. -1.
</event>
<event>
 4    1  0.6934088E+001  0.2021103E+02  0.7546771E-02  0.1530834E+00
          2   -1    0    0  502    0  0.00000000000E+00  0.00000000000E+00  0.10324883982E+04  0.10324883982E+04  0.00000000000E+00 0. -1.
         -2   -1    0    0    0  501 -0.00000000000E+00 -0.00000000000E+00 -0.39857466423E+00  0.39857466423E+00  0.00000000000E+00 0.  1.
          1    1    1    2  502    0 -0.63979352768E+01 -0.19171651127E+02  0.47167234734E+03  0.47210516733E+03  0.00000000000E+00 0. -1.
         -1    1    1    2    0  501  0.63979352768E+01  0.19171651127E+02  0.56041747617E+03  0.56078180550E+03  0.00000000000E+00 0.  1.
</event>
<event>
 4    1  0.6934088E+001  0.4086718E+02  0.7546771E-02  0.1343478E+00
          2   -1    0    0  502    0  0.00000000000E+00  0.00000000000E+00  0.12883014950E+04  0.12883014950E+04  0.00000000000E+00 0. -1.
         -2   -1    0    0    0  501 -0.00000000000E+00 -0.00000000000E+00 -0.33760931290E+01  0.33760931290E+01  0.00000000000E+00 0.  1.
          1    1    1    2  502    0 -0.70276696809E+01 -0.40258397789E+02  0.13556681951E+03  0.14159268797E+03  0.00000000000E+00 0.  1.
         -1    1    1    2    0  501  0.70276696809E+01  0.40258397789E+02  0.11493585823E+04  0.11500849001E+04  0.00000000000E+00 0. -1.
</event>
<event>
 4    1  0.6934088E+001  0.3540508E+02  0.7546771E-02  0.1377738E+00
          2   -1    0    0  502    0  0.00000000000E+00  0.00000000000E+00  0.72609859344E+03  0.72609859344E+03  0.00000000000E+00 0.  1.
         -2   -1    0    0    0  501 -0.00000000000E+00 -0.00000000000E+00 -0.18521835841E+01  0.18521835841E+01  0.00000000000E+00 0. -1.
          1    1    1    2  502    0  0.33088042329E+02 -0.12597673167E+02  0.26726351926E+03  0.26959842107E+03  0.00000000000E+00 0. -1.
         -1    1    1    2    0  501 -0.33088042329E+02  0.12597673167E+02  0.45698289059E+03  0.45835235595E+03  0.00000000000E+00 0.  1.
</event>
<event>
 4    1  0.6934088E+001  0.2749802E+02  0.7546771E-02  0.1442669E+00
          2   -1    0    0  502    0  0.00000000000E+00  0.00000000000E+00  0.12127133033E+04  0.12127133033E+04  0.00000000000E+00 0. -1.
         -2   -1    0    0    0  501 -0.00000000000E+00 -0.00000000000E+00 -0.76165831778E+00  0.76165831778E+00  0.00000000000E+00 0.  1.
          1    1    1    2  502    0 -0.18407657432E+02  0.20427906105E+02  0.86437463426E+03  0.86481191571E+03  0.00000000000E+00 0. -1.
         -1    1    1    2    0  501  0.18407657432E+02 -0.20427906105E+02  0.34757701077E+03  0.34866304595E+03  0.00000000000E+00 0.  1.
</event>
<event>
 4    1  0.6934088E+001  0.2373267E+02  0.7546771E-02  0.1483497E+00
          2   -1    0    0  502    0  0.00000000000E+00  0.00000000000E+00  0.10058010812E+02  0.10058010812E+02  0.00000000000E+00 0. -1.
         -2   -1    0    0    0  501 -0.00000000000E+00 -0.00000000000E+00 -0.56005481323E+02  0.56005481323E+02  0.00000000000E+00 0.  1.
          1    1    1    2  502    0 -0.91586724617E+01  0.21894251364E+02 -0.23326406859E+02  0.33277030832E+02  0.00000000000E+00 0.  1.
         -1    1    1    2    0  501  0.91586724617E+01 -0.21894251364E+02 -0.22621063653E+02  0.32786461304E+02  0.00000000000E+00 0. -1.
</event>
<event>
 4    1  0.6934088E+001  0.4882986E+02  0.7546771E-02  0.1303327E+00
          2   -1    0    0  502    0  0.00000000000E+00  0.00000000000E+00  0.11661098037E+02  0.11661098037E+02  0.00000000000E+00 0. -1.
         -2   -1    0    0    0  501 -0.00000000000E+00 -0.00000000000E+00 -0.25363458965E+03  0.25363458965E+03  0.00000000000E+00 0.  1.
          1    1    1    2  502    0  0.32907198463E+02  0.36075914822E+02 -0.17938745750E+03  0.18591453749E+03  0.00000000000E+00 0.  1.
         -1    1    1    2    0  501 -0.32907198463E+02 -0.36075914822E+02 -0.62586034117E+02  0.79381150202E+02  0.00000000000E+00 0. -1.
</event>
<event>
 4    1  0.6934088E+001  0.2065398E+02  0.7546771E-02  0.1524263E+00
          2   -1    0    0  502    0  0.00000000000E+00  0.00000000000E+00  0.32562095515E+02  0.32562095515E+02  0.00000000000E+00 0. -1.
         -2   -1    0    0    0  501 -0.00000000000E+00 -0.00000000000E+00 -0.13202725689E+02  0.13202725689E+02  0.00000000000E+00 0.  1.
          1    1    1    2  502    0  0.18816117908E+02 -0.85170787941E+01  0.11691000953E+02  0.23733234663E+02  0.00000000000E+00 0.  1.
         -1    1    1    2    0  501 -0.18816117908E+02  0.85170787941E+01  0.76683688731E+01  0.22031586540E+02  0.00000000000E+00 0. -1.
</event>
<event>
 4    1  0.6934088E+001  0.3072501E+02  0.7546771E-02  0.1413399E+00
          2   -1    0    0  502    0  0.00000000000E+00  0.00000000000E+00  0.47474436841E+03  0.47474436841E+03  0.00000000000E+00 0.  1.
         -2   -1    0    0    0  501 -0.00000000000E+00 -0.00000000000E+00 -0.21796186303E+01  0.21796186303E+01  0.00000000000E+00 0. -1.
          1    1    1    2  502    0  0.30703842373E+02 -0.11403403344E+01  0.30689580056E+03  0.30842998997E+03  0.00000000000E+00 0.  1.
         -1    1    1    2    0  501 -0.30703842373E+02  0.11403403344E+01  0.16566894921E+03  0.16849399706E+03  0.00000000000E+00 0. -1.
</event>
<event>
 4    1  0.6934088E+001  0.2505991E+02  0.7546771E-02  0.1468134E+00
          2   -1    0    0  502    0  0.00000000000E+00  0.00000000000E+00  0.79036151660E+03  0.79036151660E+03  0.00000000000E+00 0. -1.
         -2   -1    0    0    0  501 -0.00000000000E+00 -0.00000000000E+00 -0.79457981021E+00  0.79457981021E+00  0.00000000000E+00 0.  1.
          1    1    1    2  502    0 -0.40304984398E+01 -0.24733667257E+02  0.39601534188E+03  0.39680744728E+03  0.00000000000E+00 0. -1.
         -1    1    1    2    0  501  0.40304984398E+01  0.24733667257E+02  0.39355159491E+03  0.39434864913E+03  0.00000000000E+00 0.  1.
</event>
<event>
 4    1  0.6934088E+001  0.2085472E+02  0.7546771E-02  0.1521349E+00
          2   -1    0    0  502    0  0.00000000000E+00  0.00000000000E+00  0.65367794690E+02  0.65367794690E+02  0.00000000000E+00 0. -1.
         -2   -1    0    0    0  501 -0.00000000000E+00 -0.00000000000E+00 -0.67140595020E+01  0.67140595020E+01  0.00000000000E+00 0.  1.
          1    1    1    2  502    0 -0.18764013865E+02 -0.91011515642E+01  0.32752123543E+02  0.38828092571E+02  0.00000000000E+00 0.  1.
         -1    1    1    2    0  501  0.18764013865E+02  0.91011515642E+01  0.25901611645E+02  0.33253761621E+02  0.00000000000E+00 0. -1.
</event>
<event>
 4    1  0.6934088E+001  0.2212709E+02  0.7546771E-02  0.1503760E+00
          2   -1    0    0  502    0  0.00000000000E+00  0.00000000000E+00  0.39750521552E+02  0.39750521552E+02  0.00000000000E+00 0. -1.
         -2   -1    0    0    0  501 -0.00000000000E+00 -0.00000000000E+00 -0.17979099225E+02  0.17979099225E+02  0.00000000000E+00 0.  1.
          1    1    1    2  502    0 -0.75008247487E+00  0.22114377514E+02  0.27084120890E+02  0.34973674685E+02  0.00000000000E+00 0. -1.
         -1    1    1    2    0  501  0.75008247487E+00 -0.22114377514E+02 -0.53126985635E+01  0.22755946092E+02  0.00000000000E+00 0.  1.
</event>
<event>
 4    1  0.6934088E+001  0.3736411E+02  0.7546771E-02  0.1364665E+00
          2   -1    0    0  502    0  0.00000000000E+00  0.00000000000E+00  0.32543424703E+03  0.32543424703E+03  0.00000000000E+00 0.  1.
         -2   -1    0    0    0  501 -0.00000000000E+00 -0.00000000000E+00 -0.54289796528E+01  0.54289796528E+01  0.00000000000E+00 0. -1.
          1    1    1    2  502    0 -0.13000945628E+02 -0.35029302393E+02  0.23577985038E+03  0.23872204435E+03  0.00000000000E+00 0.  1.
         -1    1    1    2    0  501  0.13000945628E+02  0.35029302393E+02  0.84225417000E+02  0.92141182336E+02  0.00000000000E+00 0. -1.
</event>
<event>
 4    1  0.6934088E+001  0.2377484E+02  0.7546771E-02  0.1482991E+00
          2   -1    0    0  502    0  0.00000000000E+00  0.00000000000E+00  0.56965836646E+03  0.56965836646E+03  0.00000000000E+00 0. -1.
         -2   -1    0    0    0  501 -0.00000000000E+00 -0.00000000000E+00 -0.10059533874E+01  0.10059533874E+01  0.00000000000E+00 0.  1.
          1    1    1    2  502    0  0.20097934210E+02  0.12701027364E+02  0.25102281091E+03  0.25214617715E+03  0.00000000000E+00 0. -1.
         -1    1    1    2    0  501 -0.20097934210E+02 -0.12701027364E+02  0.31762960216E+03  0.31851814269E+03  0.00000000000E+00 0.  1.
</event>
<event>
 4    1  0.6934088E+001  0.4073171E+02  0.7546771E-02  0.1344251E+00
          2   -1    0    0  502    0  0.00000000000E+00  0.00000000000E+00  0.47860267950E+03  0.47860267950E+03  0.00000000000E+00 0. -1.
         -2   -1    0    0    0  501 -0.00000000000E+00 -0.00000000000E+00 -0.34947072199E+01  0.34947072199E+01  0.00000000000E+00 0.  1.
          1    1    1    2  502    0  0.15522369130E+02  0.37658040458E+02  0.21589452657E+03  0.21970325113E+03  0.00000000000E+00 0. -1.
         -1    1    1    2    0  501 -0.15522369130E+02 -0.37658040458E+02  0.25921344571E+03  0.26239413558E+03  0.00000000000E+00 0.  1.
</event>
<event>
 4    1  0.6934088E+001  0.2004691E+02  0.7546771E-02  0.1533320E+00
          2   -1    0    0  502    0  0.00000000000E+00  0.00000000000E+00  0.15945053865E+04  0.15945053865E+04  0.00000000000E+00 0.  1.
         -2   -1    0    0    0  501 -0.00000000000E+00 -0.00000000000E+00 -0.26705260911E+00  0.26705260911E+00  0.00000000000E+00 0. -1.
          1    1    1    2  502    0 -0.19729943672E+02  0.35507709893E+01  0.98618053992E+03  0.98638427399E+03  0.00000000000E+00 0. -1.
         -1    1    1    2    0  501  0.19729943672E+02 -0.35507709893E+01  0.60805779394E+03  0.60838816509E+03  0.00000000000E+00 0.  1.
</event>
<event>
 4    1  0.6934088E+001  0.2086235E+02  0.7546771E-02  0.1521239E+00
          2   -1    0    0  502    0  0.00000000000E+00  0.00000000000E+00  0.53901704944E+01  0.53901704944E+01  0.00000000000E+00 0.  1.
         -2   -1    0    0    0  501 -0.00000000000E+00 -0.00000000000E+00 -0.92527227012E+02  0.92527227012E+02  0.00000000000E+00 0. -1.
          1    1    1    2  502    0 -0.20836908578E+02 -0.10299914169E+01 -0.61038022016E+02  0.64504866275E+02  0.00000000000E+00 0. -1.
         -1    1    1    2    0  501  0.20836908578E+02  0.10299914169E+01 -0.26099034501E+02  0.33412531232E+02  0.00000000000E+00 0.  1.
</event>
<event>
 4    1  0.6934088E+001  0.2029454E+02  0.7546771E-02  0.1529580E+00
          2   -1    0    0  502    0  0.00000000000E+00  0.00000000000E+00  0.54170823160E+01  0.54170823160E+01  0.00000000000E+00 0. -1.
         -2   -1    0    0    0  501 -0.00000000000E+00 -0.00000000000E+00 -0.82966775377E+02  0.82966775377E+02  0.00000000000E+00 0.  1.
          1    1    1    2  502    0 -0.84913542955E+01  0.18432725110E+02 -0.25997953516E+02  0.32981237693E+02  0.00000000000E+00 0. -1.
         -1    1    1    2    0  501  0.84913542955E+01 -0.18432725110E+02 -0.51551739546E+02  0.55402620001E+02  0.00000000000E+00 0.  1.
</event>
<event>
 4    1  0.6934088E+001  0.2744412E+02  0.7546771E-02  0.1443197E+00
          2   -1    0    0  502    0  0.00000000000E+00  0.00000000000E+00  0.26764971456E+03  0.26764971456E+03  0.00000000000E+00 0. -1.
         -2   -1    0    0    0  501 -0.00000000000E+00 -0.00000000000E+00 -0.90388791145E+01  0.90388791145E+01  0.00000000000E+00 0.  1.
          1    1    1    2  502    0 -0.19822248897E+02 -0.18980466207E+02  0.24411223885E+03  0.24565008611E+03  0.00000000000E+00 0.  1.
         -1    1    1    2    0  501  0.19822248897E+02  0.18980466207E+02  0.14498596598E+02  0.31038507568E+02  0.00000000000E+00 0. -1.
</event>
<event>
 4    1  0.6934088E+001  0.5870177E+02  0.7546771E-02  0.1264308E+00
          2   -1    0    0  502    0  0.00000000000E+00  0.00000000000E+00  0.11704301426E+02  0.11704301426E+02  0.00000000000E+00 0. -1.
         -2   -1    0    0    0  501 -0.00000000000E+00 -0.00000000000E+00 -0.91290717861E+03  0.91290717861E+03  0.00000000000E+00 0.  1.
          1    1    1    2  502    0 -0.37872389406E+02  0.44850641669E+02 -0.70075908583E+02  0.91414062929E+02  0.00000000000E+00 0. -1.
         -1    1    1    2    0  501  0.37872389406E+02 -0.44850641669E+02 -0.83112696860E+03  0.83319741710E+03  0.00000000000E+00 0.  1.
</event>
<event>
 4    1  0.6934088E+001  0.2024332E+02  0.7546771E-02  0.1530348E+00
          2   -1    0    0  502    0  0.00000000000E+00  0.00000000000E+00  0.58294077025E+03  0.58294077025E+03  0.00000000000E+00 0.  1.
         -2   -1    0    0    0  501 -0.00000000000E+00 -0.00000000000E+00 -0.72386592012E+00  0.72386592012E+00  0.00000000000E+00 0. -1.
          1    1    1    2  502    0 -0.13094302897E+02  0.15437980731E+02  0.34068734715E+03  0.34128823672E+03  0.00000000000E+00 0. -1.
         -1    1    1    2    0  501  0.13094302897E+02 -0.15437980731E+02  0.24152955718E+03  0.24237639945E+03  0.00000000000E+00 0.  1.
</event>
<event>
 4    1  0.6934088E+001  0.2008831E+02  0.7546771E-02  0.1532690E+00
          2   -1    0    0  502    0  0.00000000000E+00  0.00000000000E+00  0.42827139145E+01  0.42827139145E+01  0.00000000000E+00 0.  1.
         -2   -1    0    0    0  501 -0.00000000000E+00 -0.00000000000E+00 -0.94689901082E+02  0.94689901082E+02  0.00000000000E+00 0. -1.
          1    1    1    2  502    0  0.99855297648E+01  0.17430704832E+02 -0.48669713762E+02  0.52652457809E+02  0.00000000000E+00 0. -1.
         -1    1    1    2    0  501 -0.99855297648E+01 -0.17430704832E+02 -0.41737473405E+02  0.46320157187E+02  0.00000000000E+00 0.  1.
</event>
<event>
 4    1  0.6934088E+001  0.2638072E+02  0.7546771E-02  0.1453930E+00
          2   -1    0    0  502    0  0.00000000000E+00  0.00000000000E+00  0.18153896478E+04  0.18153896478E+04  0.00000000000E+00 0.  1.
         -2   -1    0    0    0  501 -0.00000000000E+00 -0.00000000000E+00 -0.42527694277E+00  0.42527694277E+00  0.00000000000E+00 0. -1.
          1    1    1    2  502    0  0.18856140733E+01 -0.26313239909E+02  0.62243512812E+03  0.62299392521E+03  0.00000000000E+00 0.  1.
         -1    1    1    2    0  501 -0.18856140733E+01  0.26313239909E+02  0.11925292427E+04  0.11928209995E+04  0.00000000000E+00 0. -1.
</event>
<event>
 4    1  0.6934088E+001  0.2144451E+02  0.7546771E-02  0.1513012E+00
          2   -1    0    0  502    0  0.00000000000E+00  0.00000000000E+00  0.87314044646E+03  0.87314044646E+03  0.00000000000E+00 0.  1.
         -2   -1    0    0    0  501 -0.00000000000E+00 -0.00000000000E+00 -0.12493561527E+01  0.12493561527E+01  0.00000000000E+00 0. -1.
          1    1    1    2  502    0  0.85839656626E+01  0.19651527653E+02  0.76845449572E+03  0.76875365300E+03  0.00000000000E+00 0.  1.
         -1    1    1    2    0  501 -0.85839656626E+01 -0.19651527653E+02  0.10343659458E+03  0.10563614961E+03  0.00000000000E+00 0. -1.
</event>
<event>
 4    1  0.6934088E+001  0.3887626E+02  0.7546771E-02  0.1355200E+00
          2   -1    0    0  502    0  0.00000000000E+00  0.00000000000E+00  0.29703725047E+03  0.29703725047E+03  0.00000000000E+00 0.  1.
         -2   -1    0    0    0  501 -0.00000000000E+00 -0.00000000000E+00 -0.87728766422E+01  0.87728766422E+01  0.00000000000E+00 0. -1.
          1    1    1    2  502    0 -0.11478504360E+02 -0.37143066231E+02  0.45036486008E+02  0.59494945192E+02  0.00000000000E+00 0. -1.
         -1    1    1    2    0  501  0.11478504360E+02  0.37143066231E+02  0.24322788782E+03  0.24631518192E+03  0.00000000000E+00 0.  1.
</event>
<event>
 4    1  0.6934088E+001  0.2304129E+02  0.7546771E-02  0.1491980E+00
          2   -1    0    0  502    0  0.00000000000E+00  0.00000000000E+00  0.86374435666E+03  0.86374435666E+03  0.00000000000E+00 0. -1.
         -2   -1    0    0    0  501 -0.00000000000E+00 -0.00000000000E+00 -0.82593916561E+00  0.82593916561E+00  0.00000000000E+00 0.  1.
          1    1    1    2  502    0 -0.22964792872E+02  0.18759891986E+01  0.65010152033E+03  0.65050971383E+03  0.00000000000E+00 0. -1.
         -1    1    1    2    0  501  0.22964792872E+02 -0.18759891986E+01  0.21281689716E+03  0.21406058199E+03  0.00000000000E+00 0.  1.
</event>
<event>
 4    1  0.6934088E+001  0.2427863E+02  0.7546771E-02  0.1477037E+00
          2   -1    0    0  502    0  0.00000000000E+00  0.00000000000E+00  0.27474390879E+03  0.27474390879E+03  0.00000000000E+00 0. -1.
         -2   -1    0    0    0  501 -0.00000000000E+00 -0.00000000000E+00 -0.46288942305E+01  0.46288942305E+01  0.00000000000E+00 0.  1.
          1    1    1    2  502    0  0.23350545473E+02 -0.66486164259E+01  0.23737310127E+03  0.23861148606E+03  0.00000000000E+00 0. -1.
         -1    1    1    2    0  501 -0.23350545473E+02  0.66486164259E+01  0.32741913287E+02  0.40761316956E+02  0.00000000000E+00 0.  1.
</event>
<event>
 4    1  0.6934088E+001  0.6502861E+02  0.7546771E-02  0.1243642E+00
          2   -1    0    0  502    0  0.00000000000E+00  0.00000000000E+00  0.90865301466E+02  0.90865301466E+02  0.00000000000E+00 0.  1.
         -2   -1    0    0    0  501 -0.00000000000E+00 -0.00000000000E+00 -0.47630163412E+02  0.47630163412E+02  0.00000000000E+00 0. -1.
          1    1    1    2  502    0 -0.62604263229E+02 -0.17590526726E+02  0.11133243929E+02  0.65974764307E+02  0.00000000000E+00 0.  1.
         -1    1    1    2    0  501  0.62604263229E+02  0.17590526726E+02  0.32101894125E+02  0.72520700571E+02  0.00000000000E+00 0. -1.
</event>
<event>
 4    1  0.6934088E+001  0.2007365E+02  0.7546771E-02  0.1532913E+00
          2   -1    0    0  502    0  0.00000000000E+00  0.00000000000E+00  0.19192859883E+02  0.19192859883E+02  0.00000000000E+00 0. -1.
         -2   -1    0    0    0  501 -0.00000000000E+00 -0.00000000000E+00 -0.20995589657E+02  0.20995589657E+02  0.00000000000E+00 0.  1.
          1    1    1    2  502    0 -0.17675148123E+02  0.95152902993E+01 -0.78377398313E+00  0.20088950005E+02  0.00000000000E+00 0. -1.
         -1    1    1    2    0  501  0.17675148123E+02 -0.95152902993E+01 -0.10189557911E+01  0.20099499535E+02  0.00000000000E+00 0.  1.
</event>
<event>
 4    1  0.6934088E+001  0.2936511E+02  0.7546771E-02  0.1425195E+00
          2   -1    0    0  502    0  0.00000000000E+00  0.00000000000E+00  0.73879522469E+02  0.73879522469E+02  0.00000000000E+00 0.  1.
         -2   -1    0    0    0  501 -0.00000000000E+00 -0.00000000000E+00 -0.12110965413E+02  0.12110965413E+02  0.00000000000E+00 0. -1.
          1    1    1    2  502    0  0.78080047628E+01 -0.28308030230E+02  0.22697211534E+02  0.37114322374E+02  0.00000000000E+00 0. -1.
         -1    1    1    2    0  501 -0.78080047628E+01  0.28308030230E+02  0.39071345522E+02  0.48876165508E+02  0.00000000000E+00 0.  1.
</event>
<event>
 4    1  0.6934088E+001  0.2421273E+02  0.7546771E-02  0.1477807E+00
          2   -1    0    0  502    0  0.00000000000E+00  0.00000000000E+00  0.66542964388E+01  0.66542964388E+01  0.00000000000E+00 0.  1.
         -2   -1    0    0    0  501 -0.00000000000E+00 -0.00000000000E+00 -0.10845117230E+03  0.10845117230E+03  0.00000000000E+00 0. -1.
          1    1    1    2  502    0  0.12662631126E+02 -0.20637685916E+02 -0.75828481733E+02  0.79600345156E+02  0.00000000000E+00 0. -1.
         -1    1    1    2    0  501 -0.12662631126E+02  0.20637685916E+02 -0.25968394125E+02  0.35505123580E+02  0.00000000000E+00 0.  1.
</event>
<event>
 4    1  0.6934088E+001  0.2144264E+02  0.7546771E-02  0.1513038E+00
          2   -1    0    0  502    0  0.00000000000E+00  0.00000000000E+00  0.26930701803E+03  0.26930701803E+03  0.00000000000E+00 0. -1.
         -2   -1    0    0    0  501 -0.00000000000E+00 -0.00000000000E+00 -0.21458428012E+01  0.21458428012E+01  0.00000000000E+00 0.  1.
          1    1    1    2  502    0  0.20556986110E+02  0.60989313119E+01  0.19493894601E+03  0.19611470958E+03  0.00000000000E+00 0. -1.
         -1    1    1    2    0  501 -0.20556986110E+02 -0.60989313119E+01  0.72222229224E+02  0.75338151259E+02  0.00000000000E+00 0.  1.
</event>
<event>
 4    1  0.6934088E+001  0.3714235E+02  0.7546771E-02  0.1366097E+00
          2   -1    0    0  502    0  0.00000000000E+00  0.00000000000E+00  0.33475624809E+03  0.33475624809E+03  0.00000000000E+00 0.  1.
         -2   -1    0    0    0  501 -0.00000000000E+00 -0.00000000000E+00 -0.43212636413E+01  0.43212636413E+01  0.00000000000E+00 0. -1.
          1    1    1    2  502    0  0.28556306936E+02 -0.23750617196E+02  0.20170859280E+03  0.20509975840E+03  0.00000000000E+00 0.  1.
         -1    1    1    2    0  501 -0.28556306936E+02  0.23750617196E+02  0.12872639164E+03  0.13397775333E+03  0.00000000000E+00 0. -1.
</event>
<event>
 4    1  0.6934088E+001  0.1101073E+03  0.7546771E-02  0.1147359E+00
          2   -1    0    0  502    0  0.00000000000E+00  0.00000000000E+00  0.48953753790E+03  0.48953753790E+03  0.00000000000E+00 0.  1.
         -2   -1    0    0    0  501 -0.00000000000E+00 -0.00000000000E+00 -0.27744869987E+02  0.27744869987E+02  0.00000000000E+00 0. -1.
          1    1    1    2  502    0  0.95817930201E+02 -0.54245301646E+02  0.31565235887E+03  0.33430530980E+03  0.00000000000E+00 0.  1.
         -1    1    1    2    0  501 -0.95817930201E+02  0.54245301646E+02  0.14614030904E+03  0.18297709809E+03  0.00000000000E+00 0. -1.
</event>
<event>
 4    1  0.6934088E+001  0.2754360E+02  0.7546771E-02  0.1442223E+00
          2   -1    0    0  502    0  0.00000000000E+00  0.00000000000E+00  0.20426165116E+03  0.20426165116E+03  0.00000000000E+00 0. -1.
         -2   -1    0    0    0  501 -0.00000000000E+00 -0.00000000000E+00 -0.44381375655E+01  0.44381375655E+01  0.00000000000E+00 0.  1.
          1    1    1    2  502    0 -0.21919449997E+01 -0.27456240189E+02  0.14205907135E+03  0.14470462847E+03  0.00000000000E+00 0. -1.
         -1    1    1    2    0  501  0.21919449997E+01  0.27456240189E+02  0.57764442249E+02  0.63995160258E+02  0.00000000000E+00 0.  1.
</event>
<event>
 4    1  0.6934088E+001  0.2818440E+02  0.7546771E-02  0.1436060E+00
          2   -1    0    0  502    0  0.00000000000E+00  0.00000000000E+00  0.11468798951E+04  0.11468798951E+04  0.00000000000E+00 0. -1.
         -2   -1    0    0    0  501 -0.00000000000E+00 -0.00000000000E+00 -0.86042237459E+00  0.86042237459E+00  0.00000000000E+00 0.  1.
          1    1    1    2  502    0 -0.24833627233E+02  0.13328588598E+02  0.82643354261E+03  0.82691399835E+03  0.00000000000E+00 0. -1.
         -1    1    1    2    0  501  0.24833627233E+02 -0.13328588598E+02  0.31958593013E+03  0.32082631914E+03  0.00000000000E+00 0.  1.
</event>
<event>
 4    1  0.6934088E+001  0.3446055E+02  0.7546771E-02  0.1384396E+00
          2   -1    0    0  502    0  0.00000000000E+00  0.00000000000E+00  0.23353848868E+02  0.23353848868E+02  0.00000000000E+00 0. -1.
         -2   -1    0    0    0  501 -0.00000000000E+00 -0.00000000000E+00 -0.17962962283E+03  0.17962962283E+03  0.00000000000E+00 0.  1.
          1    1    1    2  502    0  0.83313474379E+00  0.34450473616E+02 -0.16407213570E+03  0.16765200553E+03  0.00000000000E+00 0.  1.
         -1    1    1    2    0  501 -0.83313474379E+00 -0.34450473616E+02  0.77963617289E+01  0.35331466175E+02  0.00000000000E+00 0. -1.
</event>
<event>
 4    1  0.6934088E+001  0.2352113E+02  0.7546771E-02  0.1486056E+00
          2   -1    0    0  502    0  0.00000000000E+00  0.00000000000E+00  0.34419308676E+02  0.34419308676E+02  0.00000000000E+00 0. -1.
         -2   -1    0    0    0  501 -0.00000000000E+00 -0.00000000000E+00 -0.18204166509E+02  0.18204166509E+02  0.00000000000E+00 0.  1.
          1    1    1    2  502    0  0.20062286653E+02  0.12277951144E+02 -0.89378692519E+00  0.23538102836E+02  0.00000000000E+00 0.  1.
         -1    1    1    2    0  501 -0.20062286653E+02 -0.12277951144E+02  0.17108929092E+02  0.29085372349E+02  0.00000000000E+00 0. -1.
</event>
<event>
 4    1  0.6934088E+001  0.2922946E+02  0.7546771E-02  0.1426413E+00
          2   -1    0    0  502    0  0.00000000000E+00  0.00000000000E+00  0.28822853542E+03  0.28822853542E+03  0.00000000000E+00 0. -1.
         -2   -1    0    0    0  501 -0.00000000000E+00 -0.00000000000E+00 -0.29711324646E+01  0.29711324646E+01  0.00000000000E+00 0.  1.
          1    1    1    2  502    0 -0.14916550233E+02 -0.25136782599E+02  0.14967180111E+03  0.15249921101E+03  0.00000000000E+00 0.  1.
         -1    1    1    2    0  501  0.14916550233E+02  0.25136782599E+02  0.13558560184E+03  0.13870045687E+03  0.00000000000E+00 0. -1.
</event>
<event>
 4    1  0.6934088E+001  0.3127239E+02  0.7546771E-02  0.1408852E+00
          2   -1    0    0  502    0  0.00000000000E+00  0.00000000000E+00  0.19195127135E+03  0.19195127135E+03  0.00000000000E+00 0. -1.
         -2   -1    0    0    0  501 -0.00000000000E+00 -0.00000000000E+00 -0.61278224383E+01  0.61278224383E+01  0.00000000000E+00 0.  1.
          1    1    1    2  502    0  0.25472679925E+02 -0.18141242116E+02  0.52248589976E+02  0.60892341411E+02  0.00000000000E+00 0.  1.
         -1    1    1    2    0  501 -0.25472679925E+02  0.18141242116E+02  0.13357485894E+03  0.13718675238E+03  0.00000000000E+00 0. -1.
</event>
<event>
 4    1  0.6934088E+001  0.3031441E+02  0.7546771E-02  0.1416883E+00
          2   -1    0    0  502    0  0.00000000000E+00  0.00000000000E+00  0.17851508463E+04  0.17851508463E+04  0.00000000000E+00 0.  1.
         -2   -1    0    0    0  501 -0.00000000000E+00 -0.00000000000E+00 -0.68621115546E+00  0.68621115546E+00  0.00000000000E+00 0. -1.
          1    1    1    2  502    0 -0.15891257483E+02  0.25815337172E+02  0.44593408510E+03  0.44696327808E+03  0.00000000000E+00 0. -1.
         -1    1    1    2    0  501  0.15891257483E+02 -0.25815337172E+02  0.13385305501E+04  0.13388737794E+04  0.00000000000E+00 0.  1.
</event>
<event>
 4    1  0.6934088E+001  0.2087658E+02  0.7546771E-02  0.1521034E+00
          2   -1    0    0  502    0  0.00000000000E+00  0.00000000000E+00  0.80132632492E+03  0.80132632492E+03  0.00000000000E+00 0. -1.
         -2   -1    0    0    0  501 -0.00000000000E+00 -0.00000000000E+00 -0.54551581888E+00  0.54551581888E+00  0.00000000000E+00 0.  1.
          1    1    1    2  502    0 -0.37114280441E+01 -0.20544023861E+02  0.42229325216E+03  0.42280896683E+03  0.00000000000E+00 0.  1.
         -1    1    1    2    0  501  0.37114280441E+01  0.20544023861E+02  0.37848755694E+03  0.37906287390E+03  0.00000000000E+00 0. -1.
</event>
<event>
 4    1  0.6934088E+001  0.2204240E+02  0.7546771E-02  0.1504886E+00
          2   -1    0    0  502    0  0.00000000000E+00  0.00000000000E+00  0.14036535773E+04  0.14036535773E+04  0.00000000000E+00 0.  1.
         -2   -1    0    0    0  501 -0.00000000000E+00 -0.00000000000E+00 -0.44147512589E+00  0.44147512589E+00  0.00000000000E+00 0. -1.
          1    1    1    2  502    0  0.22041952590E+02  0.14010480954E+00  0.37537216603E+03  0.37601878987E+03  0.00000000000E+00 0. -1.
         -1    1    1    2    0  501 -0.22041952590E+02 -0.14010480954E+00  0.10278399362E+04  0.10280762626E+04  0.00000000000E+00 0.  1.
</event>
<event>
 4    1  0.6934088E+001  0.3099900E+02  0.7546771E-02  0.1411109E+00
          2   -1    0    0  502    0  0.00000000000E+00  0.00000000000E+00  0.25152667203E+04  0.25152667203E+04  0.00000000000E+00 0. -1.
         -2   -1    0    0    0  501 -0.00000000000E+00 -0.00000000000E+00 -0.38405396466E+00  0.38405396466E+00  0.00000000000E+00 0.  1.
          1    1    1    2  502    0 -0.41304096215E+01  0.30722595119E+02  0.11664063337E+04  0.11668181835E+04  0.00000000000E+00 0.  1.
         -1    1    1    2    0  501  0.41304096215E+01 -0.30722595119E+02  0.13484763326E+04  0.13488325907E+04  0.00000000000E+00 0. -1.
</event>
<event>
 4    1  0.6934088E+001  0.2278931E+02  0.7546771E-02  0.1495161E+00
          2   -1    0    0  502    0  0.00000000000E+00  0.00000000000E+00  0.38399451311E+03  0.38399451311E+03  0.00000000000E+00 0. -1.
         -2   -1    0    0    0  501 -0.00000000000E+00 -0.00000000000E+00 -0.17035591100E+01  0.17035591100E+01  0.00000000000E+00 0.  1.
          1    1    1    2  502    0  0.21761395422E+02 -0.67671638843E+01  0.27868991838E+03  0.27962014134E+03  0.00000000000E+00 0. -1.
         -1    1    1    2    0  501 -0.21761395422E+02  0.67671638843E+01  0.10360103562E+03  0.10607793088E+03  0.00000000000E+00 0.  1.
</event>
<event>
 4    1  0.6934088E+001  0.2266065E+02  0.7546771E-02  0.1496804E+00
          2   -1    0    0  502    0  0.00000000000E+00  0.00000000000E+00  0.20073814151E+03  0.20073814151E+03  0.00000000000E+00 0.  1.
         -2   -1    0    0    0  501 -0.00000000000E+00 -0.00000000000E+00 -0.27933703980E+01  0.27933703980E+01  0.00000000000E+00 0. -1.
          1    1    1    2  502    0 -0.22594118730E+02 -0.17351374763E+01  0.12850734535E+03  0.13049001001E+03  0.00000000000E+00 0. -1.
         -1    1    1    2    0  501  0.22594118730E+02  0.17351374763E+01  0.69437425770E+02  0.73041501907E+02  0.00000000000E+00 0.  1.
</event>
<event>
 4    1  0.6934088E+001  0.2186397E+02  0.7546771E-02  0.1507278E+00
          2   -1    0    0  502    0  0.00000000000E+00  0.00000000000E+00  0.63181033576E+03  0.63181033576E+03  0.00000000000E+00 0.  1.
         -2   -1    0    0    0  501 -0.00000000000E+00 -0.00000000000E+00 -0.93124172576E+00  0.93124172576E+00  0.00000000000E+00 0. -1.
          1    1    1    2  502    0  0.16102408405E+02 -0.14790046999E+02  0.45244209636E+03  0.45297006922E+03  0.00000000000E+00 0.  1.
         -1    1    1    2    0  501 -0.16102408405E+02  0.14790046999E+02  0.17843699767E+03  0.17977150826E+03  0.00000000000E+00 0. -1.
</event>
<event>
 4    1  0.6934088E+001  0.2927207E+02  0.7546771E-02  0.1426029E+00
          2   -1    0    0  502    0  0.00000000000E+00  0.00000000000E+00  0.91767362456E+03  0.91767362456E+03  0.00000000000E+00 0. -1.
         -2   -1    0    0    0  501 -0.00000000000E+00 -0.00000000000E+00 -0.18726603476E+01  0.18726603476E+01  0.00000000000E+00 0.  1.
          1    1    1    2  502    0 -0.10590471301E+02  0.27289116276E+02  0.78346131528E+03  0.78400796328E+03  0.00000000000E+00 0. -1.
         -1    1    1    2    0  501  0.10590471301E+02 -0.27289116276E+02  0.13233964893E+03  0.13553832162E+03  0.00000000000E+00 0.  1.
</event>
<event>
 4    1  0.6934088E+001  0.2606622E+02  0.7546771E-02  0.1457220E+00
          2   -1    0    0  502    0  0.00000000000E+00  0.00000000000E+00  0.77454787969E+02  0.77454787969E+02  0.00000000000E+00 0.  1.
         -2   -1    0    0    0  501 -0.00000000000E+00 -0.00000000000E+00 -0.88029528355E+01  0.88029528355E+01  0.00000000000E+00 0. -1.
          1    1    1    2  502    0  0.94636745131E+01 -0.24287580602E+02  0.36875707558E+02  0.45158227541E+02  0.00000000000E+00 0.  1.
         -1    1    1    2    0  501 -0.94636745131E+01  0.24287580602E+02  0.31776127576E+02  0.41099513264E+02  0.00000000000E+00 0. -1.
</event>
<event>
 4    1  0.6934088E+001  0.2597235E+02  0.7546771E-02  0.1458213E+00
          2   -1    0    0  502    0  0.00000000000E+00  0.00000000000E+00  0.36122536460E+03  0.36122536460E+03  0.00000000000E+00 0. -1.
         -2   -1    0    0    0  501 -0.00000000000E+00 -0.00000000000E+00 -0.38614718305E+01  0.38614718305E+01  0.00000000000E+00 0.  1.
          1    1    1    2  502    0 -0.16742344822E+02  0.19855905836E+02  0.47505195947E+02  0.54141543649E+02  0.00000000000E+00 0.  1.
         -1    1    1    2    0  501  0.16742344822E+02 -0.19855905836E+02  0.30985869683E+03  0.31094529278E+03  0.00000000000E+00 0. -1.
</event>
<event>
 4    1  0.6934088E+001  0.2681358E+02  0.7546771E-02  0.1449490E+00
          2   -1    0    0  502    0  0.00000000000E+00  0.00000000000E+00  0.20295212250E+01  0.20295212250E+01  0.00000000000E+00 0. -1.
         -2   -1    0    0    0  501 -0.00000000000E+00 -0.00000000000E+00 -0.36174378977E+03  0.36174378977E+03  0.00000000000E+00 0.  1.
          1    1    1    2  502    0 -0.19554787564E+02  0.18346075086E+02 -0.20602715256E+03  0.20776466441E+03  0.00000000000E+00 0. -1.
         -1    1    1    2    0  501  0.19554787564E+02 -0.18346075086E+02 -0.15368711599E+03  0.15600864658E+03  0.00000000000E+00 0.  1.
</event>
<event>
 4    1  0.6934088E+001  0.2911287E+02  0.7546771E-02  0.1427465E+00
          2   -1    0    0  502    0  0.00000000000E+00  0.00000000000E+00  0.73102631070E+03  0.73102631070E+03  0.00000000000E+00 0.  1.
         -2   -1    0    0    0  501 -0.00000000000E+00 -0.00000000000E+00 -0.23006431806E+01  0.23006431806E+01  0.00000000000E+00 0. -1.
          1    1    1    2  502    0  0.23259172471E+02 -0.17509141403E+02  0.10611883711E+03  0.11003984154E+03  0.00000000000E+00 0. -1.
         -1    1    1    2    0  501 -0.23259172471E+02  0.17509141403E+02  0.62260683042E+03  0.62328711235E+03  0.00000000000E+00 0.  1.
</event>
<event>
 4    1  0.6934088E+001  0.2463620E+02  0.7546771E-02  0.1472915E+00
          2   -1    0    0  502    0  0.00000000000E+00  0.00000000000E+00  0.11019715080E+03  0.11019715080E+03  0.00000000000E+00 0. -1.
         -2   -1    0    0    0  501 -0.00000000000E+00 -0.00000000000E+00 -0.58778989219E+01  0.58778989219E+01  0.00000000000E+00 0.  1.
          1    1    1    2  502    0 -0.17864991843E+02  0.16964208959E+02  0.37596152165E+02  0.44949004180E+02  0.00000000000E+00 0.  1.
         -1    1    1    2    0  501  0.17864991843E+02 -0.16964208959E+02  0.66723099712E+02  0.71126045541E+02  0.00000000000E+00 0. -1.
</event>
<event>
 4    1  0.6934088E+001  0.2438656E+02  0.7546771E-02  0.1475784E+00
          2   -1    0    0  502    0  0.00000000000E+00  0.00000000000E+00  0.23616209150E+03  0.23616209150E+03  0.00000000000E+00 0.  1.
         -2   -1    0    0    0  501 -0.00000000000E+00 -0.00000000000E+00 -0.38543129848E+01  0.38543129848E+01  0.00000000000E+00 0. -1.
          1    1    1    2  502    0  0.22258232598E+02  0.99636968611E+01  0.45496353611E+02  0.51619980293E+02  0.00000000000E+00 0. -1.
         -1    1    1    2    0  501 -0.22258232598E+02 -0.99636968611E+01  0.18681142490E+03  0.18839642419E+03  0.00000000000E+00 0.  1.
</event>
<event>
 4    1  0.6934088E+001  0.3743616E+02  0.7546771E-02  0.1364202E+00
          2   -1    0    0  502    0  0.00000000000E+00  0.00000000000E+00  0.20962221294E+04  0.20962221294E+04  0.00000000000E+00 0. -1.
         -2   -1    0    0    0  501 -0.00000000000E+00 -0.00000000000E+00 -0.74410587094E+00  0.74410587094E+00  0.00000000000E+00 0.  1.
          1    1    1    2  502    0 -0.37337695810E+02  0.27134005578E+01  0.13818015454E+04  0.13823085679E+04  0.00000000000E+00 0. -1.
         -1    1    1    2    0  501  0.37337695810E+02 -0.27134005578E+01  0.71367647810E+03  0.71465766732E+03  0.00000000000E+00 0.  1.
</event>
<event>
 4    1  0.6934088E+001  0.2431306E+02  0.7546771E-02  0.1476637E+00
          2   -1    0    0  502    0  0.00000000000E+00  0.00000000000E+00  0.61342813514E+03  0.61342813514E+03  0.00000000000E+00 0. -1.
         -2   -1    0    0    0  501 -0.00000000000E+00 -0.00000000000E+00 -0.15968531183E+01  0.15968531183E+01  0.00000000000E+00 0.  1.
          1    1    1    2  502    0 -0.14156252152E+02  0.19766770650E+02  0.49955996872E+03  0.50015126416E+03  0.00000000000E+00 0. -1.
         -1    1    1    2    0  501  0.14156252152E+02 -0.19766770650E+02  0.11227131330E+03  0.11487372410E+03  0.00000000000E+00 0.  1.
</event>
<event>
 4    1  0.6934088E+001  0.3187803E+02  0.7546771E-02  0.1403949E+00
          2   -1    0    0  502    0  0.00000000000E+00  0.00000000000E+00  0.34291498213E+02  0.34291498213E+02  0.00000000000E+00 0. -1.
         -2   -1    0    0    0  501 -0.00000000000E+00 -0.00000000000E+00 -0.30683891502E+02  0.30683891502E+02  0.00000000000E+00 0.  1.
          1    1    1    2  502    0 -0.31329532794E+02 -0.58880624953E+01 -0.42044401732E+01  0.32154101173E+02  0.00000000000E+00 0. -1.
         -1    1    1    2    0  501  0.31329532794E+02  0.58880624953E+01  0.78120468850E+01  0.32821288542E+02  0.00000000000E+00 0.  1.
</event>
<event>
 4    1  0.6934088E+001  0.3626239E+02  0.7546771E-02  0.1371899E+00
          2   -1    0    0  502    0  0.00000000000E+00  0.00000000000E+00  0.51590028089E+02  0.51590028089E+02  0.00000000000E+00 0. -1.
         -2   -1    0    0    0  501 -0.00000000000E+00 -0.00000000000E+00 -0.31377214019E+02  0.31377214019E+02  0.00000000000E+00 0.  1.
          1    1    1    2  502    0 -0.25610059313E+02 -0.25672666650E+02  0.28077463564E+02  0.45861802310E+02  0.00000000000E+00 0. -1.
         -1    1    1    2    0  501  0.25610059313E+02  0.25672666650E+02 -0.78646494941E+01  0.37105439798E+02  0.00000000000E+00 0.  1.
</event>
<event>
 4    1  0.6934088E+001  0.2896922E+02  0.7546771E-02  0.1428770E+00
          2   -1    0    0  502    0  0.00000000000E+00  0.00000000000E+00  0.81846678240E+02  0.81846678240E+02  0.00000000000E+00 0.  1.
         -2   -1    0    0    0  501 -0.00000000000E+00 -0.00000000000E+00 -0.10318612008E+02  0.10318612008E+02  0.00000000000E+00 0. -1.
          1    1    1    2  502    0  0.57217756268E+01  0.28398539936E+02  0.39424376182E+02  0.48923381160E+02  0.00000000000E+00 0.  1.
         -1    1    1    2    0  501 -0.57217756268E+01 -0.28398539936E+02  0.32103690050E+02  0.43241909088E+02  0.00000000000E+00 0. -1.
</event>
<event>
 4    1  0.6934088E+001  0.5744297E+02  0.7546771E-02  0.1268777E+00
          2   -1    0    0  502    0  0.00000000000E+00  0.00000000000E+00  0.12722397926E+03  0.12722397926E+03  0.00000000000E+00 0. -1.
         -2   -1    0    0    0  501 -0.00000000000E+00 -0.00000000000E+00 -0.26535280765E+02  0.26535280765E+02  0.00000000000E+00 0.  1.
          1    1    1    2  502    0 -0.53959353088E+02 -0.19699819875E+02  0.38791849208E+02  0.69314516905E+02  0.00000000000E+00 0.  1.
         -1    1    1    2    0  501  0.53959353088E+02  0.19699819875E+02  0.61896849284E+02  0.84444743117E+02  0.00000000000E+00 0. -1.
</event>
<event>
 4    1  0.6934088E+001  0.5405531E+02  0.7546771E-02  0.1281487E+00
          2   -1    0    0  502    0  0.00000000000E+00  0.00000000000E+00  0.20083581783E+03  0.20083581783E+03  0.00000000000E+00 0.  1.
         -2   -1    0    0    0  501 -0.00000000000E+00 -0.00000000000E+00 -0.15186275603E+02  0.15186275603E+02  0.00000000000E+00 0. -1.
          1    1    1    2  502    0 -0.46139148692E+02 -0.28163023114E+02  0.11494950307E+03  0.12702505725E+03  0.00000000000E+00 0.  1.
         -1    1    1    2    0  501  0.46139148692E+02  0.28163023114E+02  0.70700039160E+02  0.88997036188E+02  0.00000000000E+00 0. -1.
</event>
<event>
 4    1  0.6934088E+001  0.3079740E+02  0.7546771E-02  0.1412791E+00
          2   -1    0    0  502    0  0.00000000000E+00  0.00000000000E+00  0.15690748384E+03  0.15690748384E+03  0.00000000000E+00 0.  1.
         -2   -1    0    0    0  501 -0.00000000000E+00 -0.00000000000E+00 -0.60463617956E+01  0.60463617956E+01  0.00000000000E+00 0. -1.
          1    1    1    2  502    0  0.41876285795E+01  0.30511372902E+02  0.74136535839E+02  0.80278926598E+02  0.00000000000E+00 0. -1.
         -1    1    1    2    0  501 -0.41876285795E+01 -0.30511372902E+02  0.76724586205E+02  0.82674919037E+02  0.00000000000E+00 0.  1.
</event>
<event>
 4    1  0.6934088E+001  0.2337910E+02  0.7546771E-02  0.1487792E+00
          2   -1    0    0  502    0  0.00000000000E+00  0.00000000000E+00  0.76424956245E+03  0.76424956245E+03  0.00000000000E+00 0.  1.
         -2   -1    0    0    0  501 -0.00000000000E+00 -0.00000000000E+00 -0.91943697229E+00  0.91943697229E+00  0.00000000000E+00 0. -1.
          1    1    1    2  502    0 -0.36303441606E+00  0.23376283275E+02  0.56198589987E+03  0.56247198514E+03  0.00000000000E+00 0.  1.
         -1    1    1    2    0  501  0.36303441606E+00 -0.23376283275E+02  0.20134422561E+03  0.20269701428E+03  0.00000000000E+00 0. -1.
</event>
<event>
 4    1  0.6934088E+001  0.2751867E+02  0.7546771E-02  0.1442466E+00
          2   -1    0    0  502    0  0.00000000000E+00  0.00000000000E+00  0.22425103753E+02  0.22425103753E+02  0.00000000000E+00 0. -1.
         -2   -1    0    0    0  501 -0.00000000000E+00 -0.00000000000E+00 -0.40677913473E+02  0.40677913473E+02  0.00000000000E+00 0.  1.
          1    1    1    2  502    0  0.27229684447E+02  0.39776459767E+01 -0.22129297907E+02  0.35312649411E+02  0.00000000000E+00 0.  1.
         -1    1    1    2    0  501 -0.27229684447E+02 -0.39776459767E+01  0.38764881874E+01  0.27790367815E+02  0.00000000000E+00 0. -1.
</event>
<event>
 4    1  0.6934088E+001  0.2134670E+02  0.7546771E-02  0.1514372E+00
          2   -1    0    0  502    0  0.00000000000E+00  0.00000000000E+00  0.12289688694E+02  0.12289688694E+02  0.00000000000E+00 0.  1.
         -2   -1    0    0    0  501 -0.00000000000E+00 -0.00000000000E+00 -0.86827704953E+02  0.86827704953E+02  0.00000000000E+00 0. -1.
          1    1    1    2  502    0 -0.20819718050E+02 -0.47138919814E+01 -0.74782234965E+02  0.77769300522E+02  0.00000000000E+00 0. -1.
         -1    1    1    2    0  501  0.20819718050E+02  0.47138919814E+01  0.24421870548E+00  0.21348093125E+02  0.00000000000E+00 0.  1.
</event>
<event>
 4    1  0.6934088E+001  0.3189784E+02  0.7546771E-02  0.1403791E+00
          2   -1    0    0  502    0  0.00000000000E+00  0.00000000000E+00  0.76676592536E+02  0.76676592536E+02  0.00000000000E+00 0.  1.
         -2   -1    0    0    0  501 -0.00000000000E+00 -0.00000000000E+00 -0.15493935633E+02  0.15493935633E+02  0.00000000000E+00 0. -1.
          1    1    1    2  502    0  0.20586628554E+01  0.31831341885E+02  0.13130076703E+02  0.34494511639E+02  0.00000000000E+00 0. -1.
         -1    1    1    2    0  501 -0.20586628554E+01 -0.31831341885E+02  0.48052580200E+02  0.57676016531E+02  0.00000000000E+00 0.  1.
</event>
<event>
 4    1  0.6934088E+001  0.4292695E+02  0.7546771E-02  0.1332138E+00
          2   -1    0    0  502    0  0.00000000000E+00  0.00000000000E+00  0.13217626077E+04  0.13217626077E+04  0.00000000000E+00 0.  1.
         -2   -1    0    0    0  501 -0.00000000000E+00 -0.00000000000E+00 -0.10970301617E+02  0.10970301617E+02  0.00000000000E+00 0. -1.
          1    1    1    2  502    0  0.20028841868E+02 -0.37967992174E+02  0.32809850309E+02  0.54029706770E+02  0.00000000000E+00 0. -1.
         -1    1    1    2    0  501 -0.20028841868E+02  0.37967992174E+02  0.12779824558E+04  0.12787032025E+04  0.00000000000E+00 0.  1.
</event>
<event>
 4    1  0.6934088E+001  0.2477614E+02  0.7546771E-02  0.1471323E+00
          2   -1    0    0  502    0  0.00000000000E+00  0.00000000000E+00  0.16646151004E+03  0.16646151004E+03  0.00000000000E+00 0. -1.
         -2   -1    0    0    0  501 -0.00000000000E+00 -0.00000000000E+00 -0.44187427248E+01  0.44187427248E+01  0.00000000000E+00 0.  1.
          1    1    1    2  502    0  0.15412563424E+02  0.19398713439E+02  0.46268639158E+02  0.52484704095E+02  0.00000000000E+00 0.  1.
         -1    1    1    2    0  501 -0.15412563424E+02 -0.19398713439E+02  0.11577412816E+03  0.11839554867E+03  0.00000000000E+00 0. -1.
</event>
<event>
 4    1  0.6934088E+001  0.2654721E+02  0.7546771E-02  0.1452210E+00
          2   -1    0    0  502    0  0.00000000000E+00  0.00000000000E+00  0.11894613382E+04  0.11894613382E+04  0.00000000000E+00 0. -1.
         -2   -1    0    0    0  501 -0.00000000000E+00 -0.00000000000E+00 -0.24095316047E+01  0.24095316047E+01  0.00000000000E+00 0.  1.
          1    1    1    2  502    0  0.25555505934E+02 -0.71882079419E+01  0.76021201155E+02  0.80523147244E+02  0.00000000000E+00 0.  1.
         -1    1    1    2    0  501 -0.25555505934E+02  0.71882079419E+01  0.11110306055E+04  0.11113477226E+04  0.00000000000E+00 0. -1.
</event>
<event>
 4    1  0.6934088E+001  0.2307956E+02  0.7546771E-02  0.1491501E+00
          2   -1    0    0  502    0  0.00000000000E+00  0.00000000000E+00  0.67864136940E+01  0.67864136940E+01  0.00000000000E+00 0. -1.
         -2   -1    0    0    0  501 -0.00000000000E+00 -0.00000000000E+00 -0.11260770413E+03  0.11260770413E+03  0.00000000000E+00 0.  1.
          1    1    1    2  502    0  0.17766817060E+02 -0.14731138484E+02 -0.20051353164E+02  0.30573239822E+02  0.00000000000E+00 0. -1.
         -1    1    1    2    0  501 -0.17766817060E+02  0.14731138484E+02 -0.85769937273E+02  0.88820878004E+02  0.00000000000E+00 0.  1.
</event>
<event>
 4    1  0.6934088E+001  0.2653363E+02  0.7546771E-02  0.1452350E+00
          2   -1    0    0  502    0  0.00000000000E+00  0.00000000000E+00  0.11075663384E+04  0.11075663384E+04  0.00000000000E+00 0.  1.
         -2   -1    0    0    0  501 -0.00000000000E+00 -0.00000000000E+00 -0.82790967626E+00  0.82790967626E+00  0.00000000000E+00 0. -1.
          1    1    1    2  502    0  0.23734106991E+02 -0.11862781368E+02  0.28630983037E+03  0.28753669745E+03  0.00000000000E+00 0. -1.
         -1    1    1    2    0  501 -0.23734106991E+02  0.11862781368E+02  0.82042859839E+03  0.82085755066E+03  0.00000000000E+00 0.  1.
</event>
<event>
 4    1  0.6934088E+001  0.2495021E+02  0.7546771E-02  0.1469361E+00
          2   -1    0    0  502    0  0.00000000000E+00  0.00000000000E+00  0.20469981291E+03  0.20469981291E+03  0.00000000000E+00 0. -1.
         -2   -1    0    0    0  501 -0.00000000000E+00 -0.00000000000E+00 -0.31293420566E+01  0.31293420566E+01  0.00000000000E+00 0.  1.
          1    1    1    2  502    0 -0.21347834461E+02  0.12914450900E+02  0.83335773813E+02  0.86990598775E+02  0.00000000000E+00 0.  1.
         -1    1    1    2    0  501  0.21347834461E+02 -0.12914450900E+02  0.11823469704E+03  0.12083855619E+03  0.00000000000E+00 0. -1.
</event>
<event>
 4    1  0.6934088E+001  0.2661933E+02  0.7546771E-02  0.1451470E+00
          2   -1    0    0  502    0  0.00000000000E+00  0.00000000000E+00  0.41864446521E+03  0.41864446521E+03  0.00000000000E+00 0. -1.
         -2   -1    0    0    0  501 -0.00000000000E+00 -0.00000000000E+00 -0.16964324152E+01  0.16964324152E+01  0.00000000000E+00 0.  1.
          1    1    1    2  502    0  0.11655436850E+02  0.23931979480E+02  0.19845734058E+03  0.20023462457E+03  0.00000000000E+00 0. -1.
         -1    1    1    2    0  501 -0.11655436850E+02 -0.23931979480E+02  0.21849069222E+03  0.22010627305E+03  0.00000000000E+00 0.  1.
</event>
<event>
 4    1  0.6934088E+001  0.2267303E+02  0.7546771E-02  0.1496645E+00
          2   -1    0    0  502    0  0.00000000000E+00  0.00000000000E+00  0.75054689038E+03  0.75054689038E+03  0.00000000000E+00 0. -1.
         -2   -1    0    0    0  501 -0.00000000000E+00 -0.00000000000E+00 -0.78150420931E+00  0.78150420931E+00  0.00000000000E+00 0.  1.
          1    1    1    2  502    0  0.20022942072E+02 -0.10637108513E+02  0.24281941107E+03  0.24387565003E+03  0.00000000000E+00 0.  1.
         -1    1    1    2    0  501 -0.20022942072E+02  0.10637108513E+02  0.50694597510E+03  0.50745274456E+03  0.00000000000E+00 0. -1.
</event>
<event>
 4    1  0.6934088E+001  0.2493375E+02  0.7546771E-02  0.1469546E+00
          2   -1    0    0  502    0  0.00000000000E+00  0.00000000000E+00  0.50596137324E+02  0.50596137324E+02  0.00000000000E+00 0. -1.
         -2   -1    0    0    0  501 -0.00000000000E+00 -0.00000000000E+00 -0.13876728055E+02  0.13876728055E+02  0.00000000000E+00 0.  1.
          1    1    1    2  502    0 -0.15127892458E+02  0.19820160537E+02  0.29269548615E+02  0.38449946295E+02  0.00000000000E+00 0. -1.
         -1    1    1    2    0  501  0.15127892458E+02 -0.19820160537E+02  0.74498606535E+01  0.26022919084E+02  0.00000000000E+00 0.  1.
</event>
<event>
 4    1  0.6934088E+001  0.2217240E+02  0.7546771E-02  0.1503160E+00
          2   -1    0    0  502    0  0.00000000000E+00  0.00000000000E+00  0.23883588872E+04  0.23883588872E+04  0.00000000000E+00 0. -1.
         -2   -1    0    0    0  501 -0.00000000000E+00 -0.00000000000E+00 -0.20610715282E+00  0.20610715282E+00  0.00000000000E+00 0.  1.
          1    1    1    2  502    0 -0.19207291134E+02 -0.11076782262E+02  0.12372301849E+04  0.12374288446E+04  0.00000000000E+00 0.  1.
         -1    1    1    2    0  501  0.19207291134E+02  0.11076782262E+02  0.11509225951E+04  0.11511361497E+04  0.00000000000E+00 0. -1.
</event>
<event>
 4    1  0.6934088E+001  0.2960139E+02  0.7546771E-02  0.1423092E+00
          2   -1    0    0  502    0  0.00000000000E+00  0.00000000000E+00  0.16077974185E+03  0.16077974185E+03  0.00000000000E+00 0. -1.
         -2   -1    0    0    0  501 -0.00000000000E+00 -0.00000000000E+00 -0.59007421534E+01  0.59007421534E+01  0.00000000000E+00 0.  1.
          1    1    1    2  502    0  0.11879670232E+02  0.27113020343E+02  0.10047443358E+03  0.10474423249E+03  0.00000000000E+00 0. -1.
         -1    1    1    2    0  501 -0.11879670232E+02 -0.27113020343E+02  0.54404566110E+02  0.61936251506E+02  0.00000000000E+00 0.  1.
</event>
<event>
 4    1  0.6934088E+001  0.2714631E+02  0.7546771E-02  0.1446144E+00
          2   -1    0    0  502    0  0.00000000000E+00  0.00000000000E+00  0.37197517624E+03  0.37197517624E+03  0.00000000000E+00 0. -1.
         -2   -1    0    0    0  501 -0.00000000000E+00 -0.00000000000E+00 -0.31170410314E+01  0.31170410314E+01  0.00000000000E+00 0.  1.
          1    1    1    2  502    0  0.24032323868E+02 -0.12624159919E+02  0.29764659673E+03  0.29888194752E+03  0.00000000000E+00 0. -1.
         -1    1    1    2    0  501 -0.24032323868E+02  0.12624159919E+02  0.71211538476E+02  0.76210269756E+02  0.00000000000E+00 0.  1.
</event>
<event>
 4    1  0.6934088E+001  0.2088938E+02  0.7546771E-02  0.1520850E+00
          2   -1    0    0  502    0  0.00000000000E+00  0.00000000000E+00  0.25116188130E+02  0.25116188130E+02  0.00000000000E+00 0. -1.
         -2   -1    0    0    0  501 -0.00000000000E+00 -0.00000000000E+00 -0.17488231119E+02  0.17488231119E+02  0.00000000000E+00 0.  1.
          1    1    1    2  502    0 -0.57661223561E+01 -0.20077802702E+02  0.55363219883E+01  0.21610580499E+02  0.00000000000E+00 0. -1.
         -1    1    1    2    0  501  0.57661223561E+01  0.20077802702E+02  0.20916350230E+01  0.20993838749E+02  0.00000000000E+00 0.  1.
</event>
<event>
 4    1  0.6934088E+001  0.2408966E+02  0.7546771E-02  0.1479250E+00
          2   -1    0    0  502    0  0.00000000000E+00  0.00000000000E+00  0.89964663720E+03  0.89964663720E+03  0.00000000000E+00 0. -1.
         -2   -1    0    0    0  501 -0.00000000000E+00 -0.00000000000E+00 -0.82602541085E+00  0.82602541085E+00  0.00000000000E+00 0.  1.
          1    1    1    2  502    0 -0.23011259386E+02 -0.71269744235E+01  0.66015692093E+03  0.66059630038E+03  0.00000000000E+00 0. -1.
         -1    1    1    2    0  501  0.23011259386E+02  0.71269744235E+01  0.23866369086E+03  0.23987636223E+03  0.00000000000E+00 0.  1.
</event>
<event>
 4    1  0.6934088E+001  0.2727638E+02  0.7546771E-02  0.1444851E+00
          2   -1    0    0  502    0  0.00000000000E+00  0.00000000000E+00  0.13051418736E+04  0.13051418736E+04  0.00000000000E+00 0.  1.
         -2   -1    0    0    0  501 -0.00000000000E+00 -0.00000000000E+00 -0.82167555401E+00  0.82167555401E+00  0.00000000000E+00 0. -1.
          1    1    1    2  502    0  0.17530229867E+02  0.20897173606E+02  0.29081252633E+03  0.29208890136E+03  0.00000000000E+00 0.  1.
         -1    1    1    2    0  501 -0.17530229867E+02 -0.20897173606E+02  0.10135076717E+04  0.10138746478E+04  0.00000000000E+00 0. -1.
</event>
<event>
 4    1  0.6934088E+001  0.2836879E+02  0.7546771E-02  0.1434322E+00
          2   -1    0    0  502    0  0.00000000000E+00  0.00000000000E+00  0.13034958593E+04  0.13034958593E+04  0.00000000000E+00 0. -1.
         -2   -1    0    0    0  501 -0.00000000000E+00 -0.00000000000E+00 -0.61763677584E+00  0.61763677584E+00  0.00000000000E+00 0.  1.
          1    1    1    2  502    0 -0.18596116264E+02 -0.21423652653E+02  0.63888256555E+03  0.63951209605E+03  0.00000000000E+00 0. -1.
         -1    1    1    2    0  501  0.18596116264E+02  0.21423652653E+02  0.66399565698E+03  0.66460140003E+03  0.00000000000E+00 0.  1.
</event>
<event>
 4    1  0.6934088E+001  0.3273584E+02  0.7546771E-02  0.1397220E+00
          2   -1    0    0  502    0  0.00000000000E+00  0.00000000000E+00  0.26080992973E+04  0.26080992973E+04  0.00000000000E+00 0.  1.
         -2   -1    0    0    0  501 -0.00000000000E+00 -0.00000000000E+00 -0.64962524887E+00  0.64962524887E+00  0.00000000000E+00 0. -1.
          1    1    1    2  502    0 -0.20750905609E+02  0.25318675820E+02  0.51298908250E+03  0.51403252250E+03  0.00000000000E+00 0. -1.
         -1    1    1    2    0  501  0.20750905609E+02 -0.25318675820E+02  0.20944605896E+04  0.20947164000E+04  0.00000000000E+00 0.  1.
</event>
<event>
 4    1  0.6934088E+001  0.3557504E+02  0.7546771E-02  0.1376565E+00
          2   -1    0    0  502    0  0.00000000000E+00  0.00000000000E+00  0.12759013641E+03  0.12759013641E+03  0.00000000000E+00 0.  1.
         -2   -1    0    0    0  501 -0.00000000000E+00 -0.00000000000E+00 -0.99531105263E+01  0.99531105263E+01  0.00000000000E+00 0. -1.
          1    1    1    2  502    0  0.30031228196E+02  0.19071143072E+02  0.62836829508E+02  0.72208381145E+02  0.00000000000E+00 0. -1.
         -1    1    1    2    0  501 -0.30031228196E+02 -0.19071143072E+02  0.54800196375E+02  0.65334865790E+02  0.00000000000E+00 0.  1.
</event>
<event>
 4    1  0.6934088E+001  0.2185952E+02  0.7546771E-02  0.1507338E+00
          2   -1    0    0  502    0  0.00000000000E+00  0.00000000000E+00  0.67874952498E+02  0.67874952498E+02  0.00000000000E+00 0. -1.
         -2   -1    0    0    0  501 -0.00000000000E+00 -0.00000000000E+00 -0.76394807160E+01  0.76394807160E+01  0.00000000000E+00 0.  1.
          1    1    1    2  502    0  0.16287865491E+02 -0.14578897951E+02  0.19540793667E+02  0.29320324774E+02  0.00000000000E+00 0.  1.
         -1    1    1    2    0  501 -0.16287865491E+02  0.14578897951E+02  0.40694678115E+02  0.46194108440E+02  0.00000000000E+00 0. -1.
</event>
<event>
 4    1  0.6934088E+001  0.2477811E+02  0.7546771E-02  0.1471301E+00
          2   -1    0    0  502    0  0.00000000000E+00  0.00000000000E+00  0.12739306564E+02  0.12739306564E+02  0.00000000000E+00 0. -1.
         -2   -1    0    0    0  501 -0.00000000000E+00 -0.00000000000E+00 -0.49009332609E+02  0.49009332609E+02  0.00000000000E+00 0.  1.
          1    1    1    2  502    0  0.39354040471E+01 -0.24463591846E+02 -0.14152138034E+02  0.28534851357E+02  0.00000000000E+00 0.  1.
         -1    1    1    2    0  501 -0.39354040471E+01  0.24463591846E+02 -0.22117888011E+02  0.33213787816E+02  0.00000000000E+00 0. -1.
</event>
<event>
 4    1  0.6934088E+001  0.2278894E+02  0.7546771E-02  0.1495166E+00
          2   -1    0    0  502    0  0.00000000000E+00  0.00000000000E+00  0.60649027768E+01  0.60649027768E+01  0.00000000000E+00 0.  1.
         -2   -1    0    0    0  501 -0.00000000000E+00 -0.00000000000E+00 -0.89634773640E+02  0.89634773640E+02  0.00000000000E+00 0. -1.
          1    1    1    2  502    0  0.21488334009E+02  0.75886402405E+01 -0.51899474304E+02  0.56682372853E+02  0.00000000000E+00 0. -1.
         -1    1    1    2    0  501 -0.21488334009E+02 -0.75886402405E+01 -0.31670396559E+02  0.39017303564E+02  0.00000000000E+00 0.  1.
</event>
<event>
 4    1  0.6934088E+001  0.2309494E+02  0.7546771E-02  0.1491309E+00
          2   -1    0    0  502    0  0.00000000000E+00  0.00000000000E+00  0.44373796927E+03  0.44373796927E+03  0.00000000000E+00 0.  1.
         -2   -1    0    0    0  501 -0.00000000000E+00 -0.00000000000E+00 -0.20895164805E+01  0.20895164805E+01  0.00000000000E+00 0. -1.
          1    1    1    2  502    0  0.21244366984E+02 -0.90583290737E+01  0.36610236733E+03  0.36683009667E+03  0.00000000000E+00 0.  1.
         -1    1    1    2    0  501 -0.21244366984E+02  0.90583290737E+01  0.75546085456E+02  0.78997389083E+02  0.00000000000E+00 0. -1.
</event>
<event>
 4    1  0.6934088E+001  0.2197155E+02  0.7546771E-02  0.1505833E+00
          2   -1    0    0  502    0  0.00000000000E+00  0.00000000000E+00  0.49601253226E+02  0.49601253226E+02  0.00000000000E+00 0. -1.
         -2   -1    0    0    0  501 -0.00000000000E+00 -0.00000000000E+00 -0.11853530643E+03  0.11853530643E+03  0.00000000000E+00 0.  1.
          1    1    1    2  502    0 -0.21768461117E+02  0.29804751935E+01  0.46076037600E+02  0.51046551036E+02  0.00000000000E+00 0. -1.
         -1    1    1    2    0  501  0.21768461117E+02 -0.29804751935E+01 -0.11501009081E+03  0.11709000862E+03  0.00000000000E+00 0.  1.
</event>
<event>
 4    1  0.6934088E+001  0.2740861E+02  0.7546771E-02  0.1443546E+00
          2   -1    0    0  502    0  0.00000000000E+00  0.00000000000E+00  0.50047586416E+03  0.50047586416E+03  0.00000000000E+00 0.  1.
         -2   -1    0    0    0  501 -0.00000000000E+00 -0.00000000000E+00 -0.19316378564E+01  0.19316378564E+01  0.00000000000E+00 0. -1.
          1    1    1    2  502    0 -0.77217482723E+01  0.26298414419E+02  0.13066751974E+03  0.13351117074E+03  0.00000000000E+00 0. -1.
         -1    1    1    2    0  501  0.77217482723E+01 -0.26298414419E+02  0.36787670656E+03  0.36889633127E+03  0.00000000000E+00 0.  1.
</event>
<event>
 4    1  0.6934088E+001  0.2414415E+02  0.7546771E-02  0.1478610E+00
          2   -1    0    0  502    0  0.00000000000E+00  0.00000000000E+00  0.85219572544E+02  0.85219572544E+02  0.00000000000E+00 0. -1.
         -2   -1    0    0    0  501 -0.00000000000E+00 -0.00000000000E+00 -0.79972330330E+01  0.79972330330E+01  0.00000000000E+00 0.  1.
          1    1    1    2  502    0  0.11891458830E+02  0.21012692894E+02  0.56337574964E+02  0.61293249291E+02  0.00000000000E+00 0. -1.
         -1    1    1    2    0  501 -0.11891458830E+02 -0.21012692894E+02  0.20884764547E+02  0.31923556287E+02  0.00000000000E+00 0.  1.
</event>
<event>
 4    1  0.6934088E+001  0.2155512E+02  0.7546771E-02  0.1511485E+00
          2   -1    0    0  502    0  0.00000000000E+00  0.00000000000E+00  0.15292020944E+02  0.15292020944E+02  0.00000000000E+00 0.  1.
         -2   -1    0    0    0  501 -0.00000000000E+00 -0.00000000000E+00 -0.59536241755E+02  0.59536241755E+02  0.00000000000E+00 0. -1.
          1    1    1    2  502    0 -0.81039483638E+01 -0.19973713969E+02  0.40588504670E+01  0.21933934802E+02  0.00000000000E+00 0.  1.
         -1    1    1    2    0  501  0.81039483638E+01  0.19973713969E+02 -0.48303071278E+02  0.52894327897E+02  0.00000000000E+00 0. -1.
</event>
<event>
 4    1  0.6934088E+001  0.2142511E+02  0.7546771E-02  0.1513281E+00
          2   -1    0    0  502    0  0.00000000000E+00  0.00000000000E+00  0.21720613533E+04  0.21720613533E+04  0.00000000000E+00 0. -1.
         -2   -1    0    0    0  501 -0.00000000000E+00 -0.00000000000E+00 -0.23474359521E+00  0.23474359521E+00  0.00000000000E+00 0.  1.
          1    1    1    2  502    0  0.12683738250E+02  0.17267261908E+02  0.14288920196E+04  0.14290526370E+04  0.00000000000E+00 0.  1.
         -1    1    1    2    0  501 -0.12683738250E+02 -0.17267261908E+02  0.74293459010E+03  0.74324345992E+03  0.00000000000E+00 0. -1.
</event>
<event>
 4    1  0.6934088E+001  0.2744368E+02  0.7546771E-02  0.1443201E+00
          2   -1    0    0  502    0  0.00000000000E+00  0.00000000000E+00  0.86932180560E+03  0.86932180560E+03  0.00000000000E+00 0.  1.
         -2   -1    0    0    0  501 -0.00000000000E+00 -0.00000000000E+00 -0.95484190827E+00  0.95484190827E+00  0.00000000000E+00 0. -1.
          1    1    1    2  502    0  0.27116450929E+02  0.42253907064E+01  0.30173101630E+03  0.30297650410E+03  0.00000000000E+00 0. -1.
         -1    1    1    2    0  501 -0.27116450929E+02 -0.42253907064E+01  0.56663594739E+03  0.56730014341E+03  0.00000000000E+00 0.  1.
</event>
<event>
 4    1  0.6934088E+001  0.2129755E+02  0.7546771E-02  0.1515059E+00
          2   -1    0    0  502    0  0.00000000000E+00  0.00000000000E+00  0.15388495132E+02  0.15388495132E+02  0.00000000000E+00 0. -1.
         -2   -1    0    0    0  501 -0.00000000000E+00 -0.00000000000E+00 -0.33487491374E+02  0.33487491374E+02  0.00000000000E+00 0.  1.
          1    1    1    2  502    0  0.21054166584E+02 -0.32105869292E+01 -0.17508058482E+02  0.27570235958E+02  0.00000000000E+00 0.  1.
         -1    1    1    2    0  501 -0.21054166584E+02  0.32105869292E+01 -0.59093775998E+00  0.21305750548E+02  0.00000000000E+00 0. -1.
</event>
<event>
 4    1  0.6934088E+001  0.2958504E+02  0.7546771E-02  0.1423237E+00
          2   -1    0    0  502    0  0.00000000000E+00  0.00000000000E+00  0.59303154363E+01  0.59303154363E+01  0.00000000000E+00 0. -1.
         -2   -1    0    0    0  501 -0.00000000000E+00 -0.00000000000E+00 -0.14887015673E+03  0.14887015673E+03  0.00000000000E+00 0.  1.
          1    1    1    2  502    0  0.22467092829E+02  0.19248484780E+02 -0.78638300036E+02  0.84019382640E+02  0.00000000000E+00 0. -1.
         -1    1    1    2    0  501 -0.22467092829E+02 -0.19248484780E+02 -0.64301541257E+02  0.70781089526E+02  0.00000000000E+00 0.  1.
</event>
<event>
 4    1  0.6934088E+001  0.2218046E+02  0.7546771E-02  0.1503054E+00
          2   -1    0    0  502    0  0.00000000000E+00  0.00000000000E+00  0.15208502608E+02  0.15208502608E+02  0.00000000000E+00 0.  1.
         -2   -1    0    0    0  501 -0.00000000000E+00 -0.00000000000E+00 -0.77526620844E+02  0.77526620844E+02  0.00000000000E+00 0. -1.
          1    1    1    2  502    0  0.65745003632E+01  0.21183691668E+02  0.42368215933E+01  0.22581485889E+02  0.00000000000E+00 0.  1.
         -1    1    1    2    0  501 -0.65745003632E+01 -0.21183691668E+02 -0.66554939829E+02  0.70153637564E+02  0.00000000000E+00 0. -1.
</event>
<event>
 4    1  0.6934088E+001  0.8178381E+02  0.7546771E-02  0.1199766E+00
          2   -1    0    0  502    0  0.00000000000E+00  0.00000000000E+00  0.57645228550E+03  0.57645228550E+03  0.00000000000E+00 0. -1.
         -2   -1    0    0    0  501 -0.00000000000E+00 -0.00000000000E+00 -0.12982029232E+02  0.12982029232E+02  0.00000000000E+00 0.  1.
          1    1    1    2  502    0  0.54105397559E+02 -0.61328596823E+02  0.18568083584E+03  0.20289397140E+03  0.00000000000E+00 0.  1.
         -1    1    1    2    0  501 -0.54105397559E+02  0.61328596823E+02  0.37778942043E+03  0.38654034333E+03  0.00000000000E+00 0. -1.
</event>
<event>
 4    1  0.6934088E+001  0.4712675E+02  0.7546771E-02  0.1311135E+00
          2   -1    0    0  502    0  0.00000000000E+00  0.00000000000E+00  0.48652378398E+02  0.48652378398E+02  0.00000000000E+00 0. -1.
         -2   -1    0    0    0  501 -0.00000000000E+00 -0.00000000000E+00 -0.69771641861E+02  0.69771641861E+02  0.00000000000E+00 0.  1.
          1    1    1    2  502    0  0.19945528005E+02  0.42697847723E+02 -0.45375975569E+02  0.65421016856E+02  0.00000000000E+00 0.  1.
         -1    1    1    2    0  501 -0.19945528005E+02 -0.42697847723E+02  0.24256712106E+02  0.53003003403E+02  0.00000000000E+00 0. -1.
</event>
<event>
 4    1  0.6934088E+001  0.2804031E+02  0.7546771E-02  0.1437429E+00
          2   -1    0    0  502    0  0.00000000000E+00  0.00000000000E+00  0.36985733572E+02  0.36985733572E+02  0.00000000000E+00 0. -1.
         -2   -1    0    0    0  501 -0.00000000000E+00 -0.00000000000E+00 -0.24282574687E+02  0.24282574687E+02  0.00000000000E+00 0.  1.
          1    1    1    2  502    0 -0.26369177824E+02  0.95354716418E+01  0.17162422338E+02  0.32875636862E+02  0.00000000000E+00 0. -1.
         -1    1    1    2    0  501  0.26369177824E+02 -0.95354716418E+01 -0.44592634532E+01  0.28392671398E+02  0.00000000000E+00 0.  1.
</event>
<event>
 4    1  0.6934088E+001  0.2304391E+02  0.7546771E-02  0.1491947E+00
          2   -1    0    0  502    0  0.00000000000E+00  0.00000000000E+00  0.10961410583E+04  0.10961410583E+04  0.00000000000E+00 0. -1.
         -2   -1    0    0    0  501 -0.00000000000E+00 -0.00000000000E+00 -0.90999334927E+00  0.90999334927E+00  0.00000000000E+00 0.  1.
          1    1    1    2  502    0  0.11562964464E+02  0.19932883489E+02  0.17251188522E+03  0.17404416834E+03  0.00000000000E+00 0.  1.
         -1    1    1    2    0  501 -0.11562964464E+02 -0.19932883489E+02  0.92271917973E+03  0.92300688331E+03  0.00000000000E+00 0. -1.
</event>
<event>
 4    1  0.6934088E+001  0.2880002E+02  0.7546771E-02  0.1430319E+00
          2   -1    0    0  502    0  0.00000000000E+00  0.00000000000E+00  0.46892084531E+02  0.46892084531E+02  0.00000000000E+00 0.  1.
         -2   -1    0    0    0  501 -0.00000000000E+00 -0.00000000000E+00 -0.18701464852E+02  0.18701464852E+02  0.00000000000E+00 0. -1.
          1    1    1    2  502    0 -0.28799432037E+02  0.18383673711E+00  0.64616256097E+01  0.29515990363E+02  0.00000000000E+00 0. -1.
         -1    1    1    2    0  501  0.28799432037E+02 -0.18383673711E+00  0.21728994069E+02  0.36077559020E+02  0.00000000000E+00 0.  1.
</event>
<event>
 4    1  0.6934088E+001  0.2237563E+02  0.7546771E-02  0.1500491E+00
          2   -1    0    0  502    0  0.00000000000E+00  0.00000000000E+00  0.71676398043E+03  0.71676398043E+03  0.00000000000E+00 0.  1.
         -2   -1    0    0    0  501 -0.00000000000E+00 -0.00000000000E+00 -0.18399749937E+01  0.18399749937E+01  0.00000000000E+00 0. -1.
          1    1    1    2  502    0  0.59164286267E+01 -0.21579268248E+02  0.74463343135E+02  0.77752546046E+02  0.00000000000E+00 0. -1.
         -1    1    1    2    0  501 -0.59164286267E+01  0.21579268248E+02  0.64046066231E+03  0.64085140938E+03  0.00000000000E+00 0.  1.
</event>
<event>
 4    1  0.6934088E+001  0.2119944E+02  0.7546771E-02  0.1516436E+00
          2   -1    0    0  502    0  0.00000000000E+00  0.00000000000E+00  0.40298720121E+03  0.40298720121E+03  0.00000000000E+00 0.  1.
         -2   -1    0    0    0  501 -0.00000000000E+00 -0.00000000000E+00 -0.12079565775E+01  0.12079565775E+01  0.00000000000E+00 0. -1.
          1    1    1    2  502    0 -0.17560647854E+02 -0.11876029248E+02  0.14489088998E+03  0.14643355634E+03  0.00000000000E+00 0. -1.
         -1    1    1    2    0  501  0.17560647854E+02  0.11876029248E+02  0.25688835465E+03  0.25776160145E+03  0.00000000000E+00 0.  1.
</event>
<event>
 4    1  0.6934088E+001  0.2117323E+02  0.7546771E-02  0.1516806E+00
          2   -1    0    0  502    0  0.00000000000E+00  0.00000000000E+00  0.19333329437E+02  0.19333329437E+02  0.00000000000E+00 0. -1.
         -2   -1    0    0    0  501 -0.00000000000E+00 -0.00000000000E+00 -0.25763283806E+02  0.25763283806E+02  0.00000000000E+00 0.  1.
          1    1    1    2  502    0  0.91840557655E+00  0.21153305997E+02  0.39136498584E+01  0.21531894450E+02  0.00000000000E+00 0.  1.
         -1    1    1    2    0  501 -0.91840557655E+00 -0.21153305997E+02 -0.10343604227E+02  0.23564718793E+02  0.00000000000E+00 0. -1.
</event>
<event>
 4    1  0.6934088E+001  0.5827620E+02  0.7546771E-02  0.1265805E+00
          2   -1    0    0  502    0  0.00000000000E+00  0.00000000000E+00  0.11079312936E+03  0.11079312936E+03  0.00000000000E+00 0. -1.
         -2   -1    0    0    0  501 -0.00000000000E+00 -0.00000000000E+00 -0.34077171218E+02  0.34077171218E+02  0.00000000000E+00 0.  1.
          1    1    1    2  502    0 -0.23748128852E+02 -0.53217868978E+02  0.15395934598E+02  0.60275617000E+02  0.00000000000E+00 0.  1.
         -1    1    1    2    0  501  0.23748128852E+02  0.53217868978E+02  0.61320023547E+02  0.84594683582E+02  0.00000000000E+00 0. -1.
</event>
<event>
 4    1  0.6934088E+001  0.2248341E+02  0.7546771E-02  0.1499089E+00
          2   -1    0    0  502    0  0.00000000000E+00  0.00000000000E+00  0.17744136051E+04  0.17744136051E+04  0.00000000000E+00 0. -1.
         -2   -1    0    0    0  501 -0.00000000000E+00 -0.00000000000E+00 -0.31197715508E+00  0.31197715508E+00  0.00000000000E+00 0.  1.
          1    1    1    2  502    0 -0.20239796278E+02 -0.97905175741E+01  0.11485453643E+04  0.11487654057E+04  0.00000000000E+00 0. -1.
         -1    1    1    2    0  501  0.20239796278E+02  0.97905175741E+01  0.62555626371E+03  0.62596017657E+03  0.00000000000E+00 0.  1.
</event>
<event>
 4    1  0.6934088E+001  0.3357103E+02  0.7546771E-02  0.1390897E+00
          2   -1    0    0  502    0  0.00000000000E+00  0.00000000000E+00  0.12521681398E+04  0.12521681398E+04  0.00000000000E+00 0. -1.
         -2   -1    0    0    0  501 -0.00000000000E+00 -0.00000000000E+00 -0.10520052364E+01  0.10520052364E+01  0.00000000000E+00 0.  1.
          1    1    1    2  502    0  0.26316457065E+02 -0.20843658368E+02  0.38741048675E+03  0.38886231400E+03  0.00000000000E+00 0.  1.
         -1    1    1    2    0  501 -0.26316457065E+02  0.20843658368E+02  0.86370564783E+03  0.86435783106E+03  0.00000000000E+00 0. -1.
</event>
<event>
 4    1  0.6934088E+001  0.2063062E+02  0.7546771E-02  0.1524605E+00
          2   -1    0    0  502    0  0.00000000000E+00  0.00000000000E+00  0.29051256588E+03  0.29051256588E+03  0.00000000000E+00 0. -1.
         -2   -1    0    0    0  501 -0.00000000000E+00 -0.00000000000E+00 -0.19466945126E+01  0.19466945126E+01  0.00000000000E+00 0.  1.
          1    1    1    2  502    0 -0.18373883539E+02 -0.93820504120E+01  0.71548700726E+02  0.74463675990E+02  0.00000000000E+00 0.  1.
         -1    1    1    2    0  501  0.18373883539E+02  0.93820504120E+01  0.21701717064E+03  0.21799558440E+03  0.00000000000E+00 0. -1.
</event>
<event>
 4    1  0.6934088E+001  0.2643485E+02  0.7546771E-02  0.1453369E+00
          2   -1    0    0  502    0  0.00000000000E+00  0.00000000000E+00  0.47894725492E+02  0.47894725492E+02  0.00000000000E+00 0.  1.
         -2   -1    0    0    0  501 -0.00000000000E+00 -0.00000000000E+00 -0.15304182867E+02  0.15304182867E+02  0.00000000000E+00 0. -1.
          1    1    1    2  502    0 -0.25951813665E+02 -0.50303694668E+01  0.94707848857E+01  0.28080189028E+02  0.00000000000E+00 0.  1.
         -1    1    1    2    0  501  0.25951813665E+02  0.50303694668E+01  0.23119757740E+02  0.35118719331E+02  0.00000000000E+00 0. -1.
</event>
<event>
 4    1  0.6934088E+001  0.2335959E+02  0.7546771E-02  0.1488031E+00
          2   -1    0    0  502    0  0.00000000000E+00  0.00000000000E+00  0.38918601798E+03  0.38918601798E+03  0.00000000000E+00 0.  1.
         -2   -1    0    0    0  501 -0.00000000000E+00 -0.00000000000E+00 -0.20381820089E+01  0.20381820089E+01  0.00000000000E+00 0. -1.
          1    1    1    2  502    0  0.10759397602E+02 -0.20734167947E+02  0.30285305188E+03  0.30375259898E+03  0.00000000000E+00 0.  1.
         -1    1    1    2    0  501 -0.10759397602E+02  0.20734167947E+02  0.84294784090E+02  0.87471601002E+02  0.00000000000E+00 0. -1.
</event>
<event>
 4    1  0.6934088E+001  0.4266643E+02  0.7546771E-02  0.1333531E+00
          2   -1    0    0  502    0  0.00000000000E+00  0.00000000000E+00  0.28188062247E+03  0.28188062247E+03  0.00000000000E+00 0. -1.
         -2   -1    0    0    0  501 -0.00000000000E+00 -0.00000000000E+00 -0.91003859573E+01  0.91003859573E+01  0.00000000000E+00 0.  1.
          1    1    1    2  502    0  0.35445581456E+02 -0.23749416998E+02  0.21478568452E+03  0.21898245210E+03  0.00000000000E+00 0. -1.
         -1    1    1    2    0  501 -0.35445581456E+02  0.23749416998E+02  0.57994551991E+02  0.71998556327E+02  0.00000000000E+00 0.  1.
</event>
<event>
 4    1  0.6934088E+001  0.2210798E+02  0.7546771E-02  0.1504014E+00
          2   -1    0    0  502    0  0.00000000000E+00  0.00000000000E+00  0.56844775571E+02  0.56844775571E+02  0.00000000000E+00 0.  1.
         -2   -1    0    0    0  501 -0.00000000000E+00 -0.00000000000E+00 -0.10028903270E+02  0.10028903270E+02  0.00000000000E+00 0. -1.
          1    1    1    2  502    0  0.10171754402E+02 -0.19629015181E+02  0.10778816375E+02  0.24595644067E+02  0.00000000000E+00 0. -1.
         -1    1    1    2    0  501 -0.10171754402E+02  0.19629015181E+02  0.36037055926E+02  0.42278034775E+02  0.00000000000E+00 0.  1.
</event>
<event>
 4    1  0.6934088E+001  0.3335117E+02  0.7546771E-02  0.1392541E+00
          2   -1    0    0  502    0  0.00000000000E+00  0.00000000000E+00  0.28433815627E+02  0.28433815627E+02  0.00000000000E+00 0. -1.
         -2   -1    0    0    0  501 -0.00000000000E+00 -0.00000000000E+00 -0.11187884733E+03  0.11187884733E+03  0.00000000000E+00 0.  1.
          1    1    1    2  502    0 -0.33350396703E+02  0.22690715648E+00  0.14854362030E+02  0.36509622272E+02  0.00000000000E+00 0. -1.
         -1    1    1    2    0  501  0.33350396703E+02 -0.22690715648E+00 -0.98299393734E+02  0.10380304069E+03  0.00000000000E+00 0.  1.
</event>
<event>
 4    1  0.6934088E+001  0.2243229E+02  0.7546771E-02  0.1499753E+00
          2   -1    0    0  502    0  0.00000000000E+00  0.00000000000E+00  0.43128005596E+01  0.43128005596E+01  0.00000000000E+00 0. -1.
         -2   -1    0    0    0  501 -0.00000000000E+00 -0.00000000000E+00 -0.12793488242E+03  0.12793488242E+03  0.00000000000E+00 0.  1.
          1    1    1    2  502    0  0.18922053473E+01 -0.22352345859E+02 -0.81425563445E+02  0.84459044447E+02  0.00000000000E+00 0.  1.
         -1    1    1    2    0  501 -0.18922053473E+01  0.22352345859E+02 -0.42196518417E+02  0.47788638535E+02  0.00000000000E+00 0. -1.
</event>
<event>
 4    1  0.6934088E+001  0.5212039E+02  0.7546771E-02  0.1289232E+00
          2   -1    0    0  502    0  0.00000000000E+00  0.00000000000E+00  0.73247559286E+03  0.73247559286E+03  0.00000000000E+00 0. -1.
         -2   -1    0    0    0  501 -0.00000000000E+00 -0.00000000000E+00 -0.53208359749E+01  0.53208359749E+01  0.00000000000E+00 0.  1.
          1    1    1    2  502    0 -0.34236367758E+02 -0.39298939388E+02  0.16052090073E+03  0.16877053974E+03  0.00000000000E+00 0.  1.
         -1    1    1    2    0  501  0.34236367758E+02  0.39298939388E+02  0.56663385616E+03  0.56902588909E+03  0.00000000000E+00 0. -1.
</event>
<event>
 4    1  0.6934088E+001  0.3064140E+02  0.7546771E-02  0.1414103E+00
          2   -1    0    0  502    0  0.00000000000E+00  0.00000000000E+00  0.10129861877E+03  0.10129861877E+03  0.00000000000E+00 0.  1.
         -2   -1    0    0    0  501 -0.00000000000E+00 -0.00000000000E+00 -0.14196992737E+02  0.14196992737E+02  0.00000000000E+00 0. -1.
          1    1    1    2  502    0 -0.28904088429E+02 -0.10170978724E+02  0.95264109771E+01  0.32088123071E+02  0.00000000000E+00 0. -1.
         -1    1    1    2    0  501  0.28904088429E+02  0.10170978724E+02  0.77575215051E+02  0.83407488431E+02  0.00000000000E+00 0.  1.
</event>
<event>
 4    1  0.6934088E+001  0.2294513E+02  0.7546771E-02  0.1493188E+00
          2   -1    0    0  502    0  0.00000000000E+00  0.00000000000E+00  0.27387731656E+03  0.27387731656E+03  0.00000000000E+00 0.  1.
         -2   -1    0    0    0  501 -0.00000000000E+00 -0.00000000000E+00 -0.24210580873E+01  0.24210580873E+01  0.00000000000E+00 0. -1.
          1    1    1    2  502    0  0.22944921550E+02  0.98687051745E-01  0.73025886194E+02  0.76545798177E+02  0.00000000000E+00 0. -1.
         -1    1    1    2    0  501 -0.22944921550E+02 -0.98687051745E-01  0.19843037228E+03  0.19975257647E+03  0.00000000000E+00 0.  1.
</event>
<event>
 4    1  0.6934088E+001  0.2590871E+02  0.7546771E-02  0.1458889E+00
          2   -1    0    0  502    0  0.00000000000E+00  0.00000000000E+00  0.11367834425E+03  0.11367834425E+03  0.00000000000E+00 0. -1.
         -2   -1    0    0    0  501 -0.00000000000E+00 -0.00000000000E+00 -0.73098087478E+01  0.73098087478E+01  0.00000000000E+00 0.  1.
          1    1    1    2  502    0  0.25908710836E+02  0.45002451357E-02  0.26663804977E+02  0.37178216919E+02  0.00000000000E+00 0.  1.
         -1    1    1    2    0  501 -0.25908710836E+02 -0.45002451357E-02  0.79704730529E+02  0.83809936082E+02  0.00000000000E+00 0. -1.
</event>
<event>
 4    1  0.6934088E+001  0.2620944E+02  0.7546771E-02  0.1455715E+00
          2   -1    0    0  502    0  0.00000000000E+00  0.00000000000E+00  0.13644076255E+03  0.13644076255E+03  0.00000000000E+00 0. -1.
         -2   -1    0    0    0  501 -0.00000000000E+00 -0.00000000000E+00 -0.53219370978E+01  0.53219370978E+01  0.00000000000E+00 0.  1.
          1    1    1    2  502    0 -0.22614763235E+02 -0.13247914774E+02  0.49091558351E+02  0.55649940371E+02  0.00000000000E+00 0. -1.
         -1    1    1    2    0  501  0.22614763235E+02  0.13247914774E+02  0.82027267097E+02  0.86112759272E+02  0.00000000000E+00 0.  1.
</event>
<event>
 4    1  0.6934088E+001  0.2659360E+02  0.7546771E-02  0.1451734E+00
          2   -1    0    0  502    0  0.00000000000E+00  0.00000000000E+00  0.27796014069E+00  0.27796014069E+00  0.00000000000E+00 0. -1.
         -2   -1    0    0    0  501 -0.00000000000E+00 -0.00000000000E+00 -0.27684853166E+04  0.27684853166E+04  0.00000000000E+00 0.  1.
          1    1    1    2  502    0  0.13630600337E+02 -0.22834758097E+02 -0.99017347169E+03  0.99053052627E+03  0.00000000000E+00 0.  1.
         -1    1    1    2    0  501 -0.13630600337E+02  0.22834758097E+02 -0.17780338847E+04  0.17782327504E+04  0.00000000000E+00 0. -1.
</event>
<event>
 4    1  0.6934088E+001  0.2444222E+02  0.7546771E-02  0.1475141E+00
          2   -1    0    0  502    0  0.00000000000E+00  0.00000000000E+00  0.11810117000E+01  0.11810117000E+01  0.00000000000E+00 0.  1.
         -2   -1    0    0    0  501 -0.00000000000E+00 -0.00000000000E+00 -0.54788690296E+03  0.54788690296E+03  0.00000000000E+00 0. -1.
          1    1    1    2  502    0  0.65092206602E+01 -0.23559548305E+02 -0.19731451343E+03  0.19882263322E+03  0.00000000000E+00 0. -1.
         -1    1    1    2    0  501 -0.65092206602E+01  0.23559548305E+02 -0.34939137784E+03  0.35024528145E+03  0.00000000000E+00 0.  1.
</event>
<event>
 4    1  0.6934088E+001  0.4305341E+02  0.7546771E-02  0.1331466E+00
          2   -1    0    0  502    0  0.00000000000E+00  0.00000000000E+00  0.14026262461E+04  0.14026262461E+04  0.00000000000E+00 0.  1.
         -2   -1    0    0    0  501 -0.00000000000E+00 -0.00000000000E+00 -0.13939782650E+01  0.13939782650E+01  0.00000000000E+00 0. -1.
          1    1    1    2  502    0  0.37884022386E+02 -0.20454748409E+02  0.54056262036E+03  0.54227441615E+03  0.00000000000E+00 0. -1.
         -1    1    1    2    0  501 -0.37884022386E+02  0.20454748409E+02  0.86066964750E+03  0.86174580824E+03  0.00000000000E+00 0.  1.
</event>
<event>
 4    1  0.6934088E+001  0.2613160E+02  0.7546771E-02  0.1456532E+00
          2   -1    0    0  502    0  0.00000000000E+00  0.00000000000E+00  0.18047377750E+03  0.18047377750E+03  0.00000000000E+00 0.  1.
         -2   -1    0    0    0  501 -0.00000000000E+00 -0.00000000000E+00 -0.40835953658E+01  0.40835953658E+01  0.00000000000E+00 0. -1.
          1    1    1    2  502    0  0.24929984466E+02  0.78330289785E+01  0.63188323256E+02  0.68378539502E+02  0.00000000000E+00 0.  1.
         -1    1    1    2    0  501 -0.24929984466E+02 -0.78330289785E+01  0.11320185888E+03  0.11617883336E+03  0.00000000000E+00 0. -1.
</event>
<event>
 4    1  0.6934088E+001  0.2330278E+02  0.7546771E-02  0.1488731E+00
          2   -1    0    0  502    0  0.00000000000E+00  0.00000000000E+00  0.20932025563E+04  0.20932025563E+04  0.00000000000E+00 0.  1.
         -2   -1    0    0    0  501 -0.00000000000E+00 -0.00000000000E+00 -0.26295503771E+00  0.26295503771E+00  0.00000000000E+00 0. -1.
          1    1    1    2  502    0 -0.22306197429E+02 -0.67419010822E+01  0.92511393182E+03  0.92540737328E+03  0.00000000000E+00 0. -1.
         -1    1    1    2    0  501  0.22306197429E+02  0.67419010822E+01  0.11678256694E+04  0.11680581380E+04  0.00000000000E+00 0.  1.
</event>
<event>
 4    1  0.6934088E+001  0.3086231E+02  0.7546771E-02  0.1412248E+00
          2   -1    0    0  502    0  0.00000000000E+00  0.00000000000E+00  0.44346010052E+03  0.44346010052E+03  0.00000000000E+00 0.  1.
         -2   -1    0    0    0  501 -0.00000000000E+00 -0.00000000000E+00 -0.21493868178E+01  0.21493868178E+01  0.00000000000E+00 0. -1.
          1    1    1    2  502    0  0.26135824761E+01  0.30751440655E+02  0.21468080770E+03  0.21688783072E+03  0.00000000000E+00 0.  1.
         -1    1    1    2    0  501 -0.26135824761E+01 -0.30751440655E+02  0.22662990600E+03  0.22872165662E+03  0.00000000000E+00 0. -1.
</event>
<event>
 4    1  0.6934088E+001  0.3506038E+02  0.7546771E-02  0.1380139E+00
          2   -1    0    0  502    0  0.00000000000E+00  0.00000000000E+00  0.24466144328E+03  0.24466144328E+03  0.00000000000E+00 0.  1.
         -2   -1    0    0    0  501 -0.00000000000E+00 -0.00000000000E+00 -0.76226090727E+01  0.76226090727E+01  0.00000000000E+00 0. -1.
          1    1    1    2  502    0  0.11455849984E+02  0.33135989335E+02  0.44871415446E+02  0.56944483598E+02  0.00000000000E+00 0. -1.
         -1    1    1    2    0  501 -0.11455849984E+02 -0.33135989335E+02  0.19216741877E+03  0.19533956876E+03  0.00000000000E+00 0.  1.
</event>
<event>
 4    1  0.6934088E+001  0.2612402E+02  0.7546771E-02  0.1456612E+00
          2   -1    0    0  502    0  0.00000000000E+00  0.00000000000E+00  0.61302874431E+01  0.61302874431E+01  0.00000000000E+00 0. -1.
         -2   -1    0    0    0  501 -0.00000000000E+00 -0.00000000000E+00 -0.12977084396E+03  0.12977084396E+03  0.00000000000E+00 0.  1.
          1    1    1    2  502    0  0.57943957444E+01  0.25473308293E+02 -0.87437626622E+02  0.91256797044E+02  0.00000000000E+00 0.  1.
         -1    1    1    2    0  501 -0.57943957444E+01 -0.25473308293E+02 -0.36202929897E+02  0.44644334361E+02  0.00000000000E+00 0. -1.
</event>
<event>
 4    1  0.6934088E+001  0.2207567E+02  0.7546771E-02  0.1504443E+00
          2   -1    0    0  502    0  0.00000000000E+00  0.00000000000E+00  0.50105060093E+03  0.50105060093E+03  0.00000000000E+00 0.  1.
         -2   -1    0    0    0  501 -0.00000000000E+00 -0.00000000000E+00 -0.41906391507E+01  0.41906391507E+01  0.00000000000E+00 0. -1.
          1    1    1    2  502    0 -0.18176099480E+01 -0.22000716990E+02  0.27058069199E+02  0.34920973107E+02  0.00000000000E+00 0. -1.
         -1    1    1    2    0  501  0.18176099480E+01  0.22000716990E+02  0.46980189258E+03  0.47032026698E+03  0.00000000000E+00 0.  1.
</event>
<event>
 4    1  0.6934088E+001  0.2067808E+02  0.7546771E-02  0.1523911E+00
          2   -1    0    0  502    0  0.00000000000E+00  0.00000000000E+00  0.11236211749E+04  0.11236211749E+04  0.00000000000E+00 0.  1.
         -2   -1    0    0    0  501 -0.00000000000E+00 -0.00000000000E+00 -0.39187251297E+00  0.39187251297E+00  0.00000000000E+00 0. -1.
          1    1    1    2  502    0 -0.41956091791E+01  0.20247955936E+02  0.65718675497E+03  0.65751198754E+03  0.00000000000E+00 0. -1.
         -1    1    1    2    0  501  0.41956091791E+01 -0.20247955936E+02  0.46604254740E+03  0.46650105985E+03  0.00000000000E+00 0.  1.
</event>
<event>
 4    1  0.6934088E+001  0.2150216E+02  0.7546771E-02  0.1512215E+00
          2   -1    0    0  502    0  0.00000000000E+00  0.00000000000E+00  0.30875408453E+02  0.30875408453E+02  0.00000000000E+00 0.  1.
         -2   -1    0    0    0  501 -0.00000000000E+00 -0.00000000000E+00 -0.16805113594E+02  0.16805113594E+02  0.00000000000E+00 0. -1.
          1    1    1    2  502    0  0.17107303508E+02 -0.13026237911E+02 -0.83336859872E+00  0.21518299437E+02  0.00000000000E+00 0. -1.
         -1    1    1    2    0  501 -0.17107303508E+02  0.13026237911E+02  0.14903663457E+02  0.26162222610E+02  0.00000000000E+00 0.  1.
</event>
<event>
 4    1  0.6934088E+001  0.2370111E+02  0.7546771E-02  0.1483877E+00
          2   -1    0    0  502    0  0.00000000000E+00  0.00000000000E+00  0.28295691142E+02  0.28295691142E+02  0.00000000000E+00 0.  1.
         -2   -1    0    0    0  501 -0.00000000000E+00 -0.00000000000E+00 -0.20275603191E+02  0.20275603191E+02  0.00000000000E+00 0. -1.
          1    1    1    2  502    0  0.87996351698E+01 -0.22007019267E+02  0.50216336825E+00  0.23706426221E+02  0.00000000000E+00 0. -1.
         -1    1    1    2    0  501 -0.87996351698E+01  0.22007019267E+02  0.75179245824E+01  0.24864868111E+02  0.00000000000E+00 0.  1.
</event>
<event>
 4    1  0.6934088E+001  0.2201015E+02  0.7546771E-02  0.1505316E+00
          2   -1    0    0  502    0  0.00000000000E+00  0.00000000000E+00  0.34095622079E+03  0.34095622079E+03  0.00000000000E+00 0.  1.
         -2   -1    0    0    0  501 -0.00000000000E+00 -0.00000000000E+00 -0.14225219899E+01  0.14225219899E+01  0.00000000000E+00 0. -1.
          1    1    1    2  502    0  0.22009908788E+02 -0.10239080542E+00  0.17564139392E+03  0.17701510056E+03  0.00000000000E+00 0. -1.
         -1    1    1    2    0  501 -0.22009908788E+02  0.10239080542E+00  0.16389230489E+03  0.16536364223E+03  0.00000000000E+00 0.  1.
</event>
<event>
 4    1  0.6934088E+001  0.3531021E+02  0.7546771E-02  0.1378395E+00
          2   -1    0    0  502    0  0.00000000000E+00  0.00000000000E+00  0.21352143702E+04  0.21352143702E+04  0.00000000000E+00 0. -1.
         -2   -1    0    0    0  501 -0.00000000000E+00 -0.00000000000E+00 -0.61037374449E+00  0.61037374449E+00  0.00000000000E+00 0.  1.
          1    1    1    2  502    0  0.73638731705E+01 -0.34533814258E+02  0.84501322797E+03  0.84575065261E+03  0.00000000000E+00 0.  1.
         -1    1    1    2    0  501 -0.73638731705E+01  0.34533814258E+02  0.12895907685E+04  0.12900740913E+04  0.00000000000E+00 0. -1.
</event>
<event>
 4    1  0.6934088E+001  0.2324098E+02  0.7546771E-02  0.1489494E+00
          2   -1    0    0  502    0  0.00000000000E+00  0.00000000000E+00  0.87921565512E+03  0.87921565512E+03  0.00000000000E+00 0. -1.
         -2   -1    0    0    0  501 -0.00000000000E+00 -0.00000000000E+00 -0.65923120610E+00  0.65923120610E+00  0.00000000000E+00 0.  1.
          1    1    1    2  502    0 -0.13593778083E+02  0.18850787416E+02  0.32448356543E+03  0.32531481248E+03  0.00000000000E+00 0.  1.
         -1    1    1    2    0  501  0.13593778083E+02 -0.18850787416E+02  0.55407285849E+03  0.55456007385E+03  0.00000000000E+00 0. -1.
</event>
<event>
 4    1  0.6934088E+001  0.2454867E+02  0.7546771E-02  0.1473916E+00
          2   -1    0    0  502    0  0.00000000000E+00  0.00000000000E+00  0.34746786854E+02  0.34746786854E+02  0.00000000000E+00 0. -1.
         -2   -1    0    0    0  501 -0.00000000000E+00 -0.00000000000E+00 -0.17805146626E+02  0.17805146626E+02  0.00000000000E+00 0.  1.
          1    1    1    2  502    0  0.10985195775E+02  0.21953648555E+02  0.12700965341E+02  0.27639676766E+02  0.00000000000E+00 0. -1.
         -1    1    1    2    0  501 -0.10985195775E+02 -0.21953648555E+02  0.42406748872E+01  0.24912256714E+02  0.00000000000E+00 0.  1.
</event>
<event>
 4    1  0.6934088E+001  0.2618561E+02  0.7546771E-02  0.1455965E+00
          2   -1    0    0  502    0  0.00000000000E+00  0.00000000000E+00  0.12754081294E+03  0.12754081294E+03  0.00000000000E+00 0.  1.
         -2   -1    0    0    0  501 -0.00000000000E+00 -0.00000000000E+00 -0.30352910252E+02  0.30352910252E+02  0.00000000000E+00 0. -1.
          1    1    1    2  502    0  0.13595560475E+02 -0.22379605536E+02  0.12020866251E+03  0.12302767392E+03  0.00000000000E+00 0.  1.
         -1    1    1    2    0  501 -0.13595560475E+02  0.22379605536E+02 -0.23020759825E+02  0.34866049267E+02  0.00000000000E+00 0. -1.
</event>
<event>
 4    1  0.6934088E+001  0.2842238E+02  0.7546771E-02  0.1433820E+00
          2   -1    0    0  502    0  0.00000000000E+00  0.00000000000E+00  0.50558910161E+01  0.50558910161E+01  0.00000000000E+00 0. -1.
         -2   -1    0    0    0  501 -0.00000000000E+00 -0.00000000000E+00 -0.20321018984E+03  0.20321018984E+03  0.00000000000E+00 0.  1.
          1    1    1    2  502    0  0.90247461078E+01  0.26951539168E+02 -0.14721763276E+03  0.14993619610E+03  0.00000000000E+00 0.  1.
         -1    1    1    2    0  501 -0.90247461078E+01 -0.26951539168E+02 -0.50936666064E+02  0.58329884755E+02  0.00000000000E+00 0. -1.
</event>
<event>
 4    1  0.6934088E+001  0.2790480E+02  0.7546771E-02  0.1438725E+00
          2   -1    0    0  502    0  0.00000000000E+00  0.00000000000E+00  0.12527722633E+01  0.12527722633E+01  0.00000000000E+00 0. -1.
         -2   -1    0    0    0  501 -0.00000000000E+00 -0.00000000000E+00 -0.62704317826E+03  0.62704317826E+03  0.00000000000E+00 0.  1.
          1    1    1    2  502    0 -0.24730929630E+02  0.12925125014E+02 -0.28352844690E+03  0.28489832913E+03  0.00000000000E+00 0.  1.
         -1    1    1    2    0  501  0.24730929630E+02 -0.12925125014E+02 -0.34226195909E+03  0.34339762139E+03  0.00000000000E+00 0. -1.
</event>
<event>
 4    1  0.6934088E+001  0.3075008E+02  0.7546771E-02  0.1413188E+00
          2   -1    0    0  502    0  0.00000000000E+00  0.00000000000E+00  0.24418250386E+04  0.24418250386E+04  0.00000000000E+00 0.  1.
         -2   -1    0    0    0  501 -0.00000000000E+00 -0.00000000000E+00 -0.43543529942E+00  0.43543529942E+00  0.00000000000E+00 0. -1.
          1    1    1    2  502    0  0.17502547544E+02  0.25282964972E+02  0.16269617012E+04  0.16272522682E+04  0.00000000000E+00 0.  1.
         -1    1    1    2    0  501 -0.17502547544E+02 -0.25282964972E+02  0.81442790217E+03  0.81500820568E+03  0.00000000000E+00 0. -1.
</event>
<event>
 4    1  0.6934088E+001  0.2126712E+02  0.7546771E-02  0.1515485E+00
          2   -1    0    0  502    0  0.00000000000E+00  0.00000000000E+00  0.12837886320E+01  0.12837886320E+01  0.00000000000E+00 0.  1.
         -2   -1    0    0    0  501 -0.00000000000E+00 -0.00000000000E+00 -0.47571318531E+03  0.47571318531E+03  0.00000000000E+00 0. -1.
          1    1    1    2  502    0 -0.18281664984E+02 -0.10866054793E+02 -0.35868715009E+03  0.35931707733E+03  0.00000000000E+00 0. -1.
         -1    1    1    2    0  501  0.18281664984E+02  0.10866054793E+02 -0.11574224658E+03  0.11767989661E+03  0.00000000000E+00 0.  1.
</event>
<event>
 4    1  0.6934088E+001  0.2038888E+02  0.7546771E-02  0.1528172E+00
          2   -1    0    0  502    0  0.00000000000E+00  0.00000000000E+00  0.28110363912E+03  0.28110363912E+03  0.00000000000E+00 0. -1.
         -2   -1    0    0    0  501 -0.00000000000E+00 -0.00000000000E+00 -0.22473360642E+01  0.22473360642E+01  0.00000000000E+00 0.  1.
          1    1    1    2  502    0  0.80293087941E+01 -0.18741305184E+02  0.22227624529E+03  0.22320939841E+03  0.00000000000E+00 0. -1.
         -1    1    1    2    0  501 -0.80293087941E+01  0.18741305184E+02  0.56580057762E+02  0.60141576767E+02  0.00000000000E+00 0.  1.
</event>
<event>
 4    1  0.6934088E+001  0.2501299E+02  0.7546771E-02  0.1468658E+00
          2   -1    0    0  502    0  0.00000000000E+00  0.00000000000E+00  0.78171764405E+03  0.78171764405E+03  0.00000000000E+00 0.  1.
         -2   -1    0    0    0  501 -0.00000000000E+00 -0.00000000000E+00 -0.84512921003E+00  0.84512921003E+00  0.00000000000E+00 0. -1.
          1    1    1    2  502    0 -0.23212069658E+01  0.24905051787E+02  0.48050085701E+03  0.48115145556E+03  0.00000000000E+00 0.  1.
         -1    1    1    2    0  501  0.23212069658E+01 -0.24905051787E+02  0.30037165783E+03  0.30141131770E+03  0.00000000000E+00 0. -1.
</event>
<event>
 4    1  0.6934088E+001  0.3050863E+02  0.7546771E-02  0.1415227E+00
          2   -1    0    0  502    0  0.00000000000E+00  0.00000000000E+00  0.26017614083E+03  0.26017614083E+03  0.00000000000E+00 0. -1.
         -2   -1    0    0    0  501 -0.00000000000E+00 -0.00000000000E+00 -0.46877152702E+01  0.46877152702E+01  0.00000000000E+00 0.  1.
          1    1    1    2  502    0  0.88135010011E+01 -0.29207849324E+02  0.63294853261E+02  0.70263893369E+02  0.00000000000E+00 0.  1.
         -1    1    1    2    0  501 -0.88135010011E+01  0.29207849324E+02  0.19219357230E+03  0.19459996273E+03  0.00000000000E+00 0. -1.
</event>
<event>
 4    1  0.6934088E+001  0.2365015E+02  0.7546771E-02  0.1484492E+00
          2   -1    0    0  502    0  0.00000000000E+00  0.00000000000E+00  0.17850455136E+02  0.17850455136E+02  0.00000000000E+00 0. -1.
         -2   -1    0    0    0  501 -0.00000000000E+00 -0.00000000000E+00 -0.73982081437E+02  0.73982081437E+02  0.00000000000E+00 0.  1.
          1    1    1    2  502    0 -0.20428870752E+02 -0.11915989898E+02 -0.62927796205E+02  0.67225271369E+02  0.00000000000E+00 0.  1.
         -1    1    1    2    0  501  0.20428870752E+02  0.11915989898E+02  0.67961699033E+01  0.24607265204E+02  0.00000000000E+00 0. -1.
</event>
<event>
 4    1  0.6934088E+001  0.2344610E+02  0.7546771E-02  0.1486971E+00
          2   -1    0    0  502    0  0.00000000000E+00  0.00000000000E+00  0.32182637161E+03  0.32182637161E+03  0.00000000000E+00 0. -1.
         -2   -1    0    0    0  501 -0.00000000000E+00 -0.00000000000E+00 -0.81130438884E+01  0.81130438884E+01  0.00000000000E+00 0.  1.
          1    1    1    2  502    0 -0.17988200800E+02  0.15038086993E+02  0.30343477976E+03  0.30433925971E+03  0.00000000000E+00 0. -1.
         -1    1    1    2    0  501  0.17988200800E+02 -0.15038086993E+02  0.10278547957E+02  0.25600155791E+02  0.00000000000E+00 0.  1.
</event>
<event>
 4    1  0.6934088E+001  0.2011773E+02  0.7546771E-02  0.1532244E+00
          2   -1    0    0  502    0  0.00000000000E+00  0.00000000000E+00  0.19574288151E+04  0.19574288151E+04  0.00000000000E+00 0.  1.
         -2   -1    0    0    0  501 -0.00000000000E+00 -0.00000000000E+00 -0.21116890430E+00  0.21116890430E+00  0.00000000000E+00 0. -1.
          1    1    1    2  502    0 -0.19194226265E+02 -0.60253504102E+01  0.11200000996E+04  0.11201807650E+04  0.00000000000E+00 0. -1.
         -1    1    1    2    0  501  0.19194226265E+02  0.60253504102E+01  0.83721754665E+03  0.83745921906E+03  0.00000000000E+00 0.  1.
</event>
<event>
 4    1  0.6934088E+001  0.2085447E+02  0.7546771E-02  0.1521353E+00
          2   -1    0    0  502    0  0.00000000000E+00  0.00000000000E+00  0.34378223461E+03  0.34378223461E+03  0.00000000000E+00 0. -1.
         -2   -1    0    0    0  501 -0.00000000000E+00 -0.00000000000E+00 -0.15398388298E+01  0.15398388298E+01  0.00000000000E+00 0.  1.
          1    1    1    2  502    0  0.18662349937E+02 -0.93072919273E+01  0.24405679301E+03  0.24494617205E+03  0.00000000000E+00 0. -1.
         -1    1    1    2    0  501 -0.18662349937E+02  0.93072919273E+01  0.98185602765E+02  0.10037590138E+03  0.00000000000E+00 0.  1.
</event>
<event>
 4    1  0.6934088E+001  0.2078833E+02  0.7546771E-02  0.1522309E+00
          2   -1    0    0  502    0  0.00000000000E+00  0.00000000000E+00  0.54180095124E+00  0.54180095124E+00  0.00000000000E+00 0.  1.
         -2   -1    0    0    0  501 -0.00000000000E+00 -0.00000000000E+00 -0.80795544692E+03  0.80795544692E+03  0.00000000000E+00 0. -1.
          1    1    1    2  502    0  0.11189187406E+02  0.17520179476E+02 -0.35799902021E+03  0.35860208180E+03  0.00000000000E+00 0.  1.
         -1    1    1    2    0  501 -0.11189187406E+02 -0.17520179476E+02 -0.44941462576E+03  0.44989516607E+03  0.00000000000E+00 0. -1.
</event>
<event>
 4    1  0.6934088E+001  0.3678560E+02  0.7546771E-02  0.1368426E+00
          2   -1    0    0  502    0  0.00000000000E+00  0.00000000000E+00  0.11065983047E+03  0.11065983047E+03  0.00000000000E+00 0.  1.
         -2   -1    0    0    0  501 -0.00000000000E+00 -0.00000000000E+00 -0.28606909623E+02  0.28606909623E+02  0.00000000000E+00 0. -1.
          1    1    1    2  502    0 -0.32891839491E+02  0.16471413576E+02 -0.11662615535E+02  0.38590117535E+02  0.00000000000E+00 0. -1.
         -1    1    1    2    0  501  0.32891839491E+02 -0.16471413576E+02  0.93715536384E+02  0.10067662256E+03  0.00000000000E+00 0.  1.
</event>
<event>
 4    1  0.6934088E+001  0.2025993E+02  0.7546771E-02  0.1530099E+00
          2   -1    0    0  502    0  0.00000000000E+00  0.00000000000E+00  0.20068239205E+04  0.20068239205E+04  0.00000000000E+00 0.  1.
         -2   -1    0    0    0  501 -0.00000000000E+00 -0.00000000000E+00 -0.26205315058E+00  0.26205315058E+00  0.00000000000E+00 0. -1.
          1    1    1    2  502    0  0.17438758385E+02  0.10312824651E+02  0.14734410488E+04  0.14735803300E+04  0.00000000000E+00 0. -1.
         -1    1    1    2    0  501 -0.17438758385E+02 -0.10312824651E+02  0.53312081860E+03  0.53350564371E+03  0.00000000000E+00 0.  1.
</event>
<event>
 4    1  0.6934088E+001  0.2065299E+02  0.7546771E-02  0.1524277E+00
          2   -1    0    0  502    0  0.00000000000E+00  0.00000000000E+00  0.24624293709E+03  0.24624293709E+03  0.00000000000E+00 0.  1.
         -2   -1    0    0    0  501 -0.00000000000E+00 -0.00000000000E+00 -0.53124731631E+01  0.53124731631E+01  0.00000000000E+00 0. -1.
          1    1    1    2  502    0 -0.15884765277E+02 -0.13199251813E+02  0.22372054036E+03  0.22467181888E+03  0.00000000000E+00 0.  1.
         -1    1    1    2    0  501  0.15884765277E+02  0.13199251813E+02  0.17209923565E+02  0.26883591379E+02  0.00000000000E+00 0. -1.
</event>
<event>
 4    1  0.6934088E+001  0.4144390E+02  0.7546771E-02  0.1340226E+00
          2   -1    0    0  502    0  0.00000000000E+00  0.00000000000E+00  0.12201516980E+02  0.12201516980E+02  0.00000000000E+00 0.  1.
         -2   -1    0    0    0  501 -0.00000000000E+00 -0.00000000000E+00 -0.14715394086E+03  0.14715394086E+03  0.00000000000E+00 0. -1.
          1    1    1    2  502    0 -0.54363840294E+01  0.41085799826E+02 -0.50879417629E+02  0.65622498863E+02  0.00000000000E+00 0. -1.
         -1    1    1    2    0  501  0.54363840294E+01 -0.41085799826E+02 -0.84073006248E+02  0.93732958976E+02  0.00000000000E+00 0.  1.
</event>
<event>
 4    1  0.6934088E+001  0.2091141E+02  0.7546771E-02  0.1520533E+00
          2   -1    0    0  502    0  0.00000000000E+00  0.00000000000E+00  0.37978234023E+01  0.37978234023E+01  0.00000000000E+00 0.  1.
         -2   -1    0    0    0  501 -0.00000000000E+00 -0.00000000000E+00 -0.16665685028E+03  0.16665685028E+03  0.00000000000E+00 0. -1.
          1    1    1    2  502    0  0.11374409344E+02  0.17547361789E+02 -0.12881394229E+03  0.13050026368E+03  0.00000000000E+00 0. -1.
         -1    1    1    2    0  501 -0.11374409344E+02 -0.17547361789E+02 -0.34045084593E+02  0.39954410002E+02  0.00000000000E+00 0.  1.
</event>
<event>
 4    1  0.6934088E+001  0.2043835E+02  0.7546771E-02  0.1527437E+00
          2   -1    0    0  502    0  0.00000000000E+00  0.00000000000E+00  0.30504779918E+03  0.30504779918E+03  0.00000000000E+00 0. -1.
         -2   -1    0    0    0  501 -0.00000000000E+00 -0.00000000000E+00 -0.18440116562E+01  0.18440116562E+01  0.00000000000E+00 0.  1.
          1    1    1    2  502    0  0.43149011578E+01  0.19977678089E+02  0.22945077317E+03  0.23035924835E+03  0.00000000000E+00 0. -1.
         -1    1    1    2    0  501 -0.43149011578E+01 -0.19977678089E+02  0.73753014353E+02  0.76532562481E+02  0.00000000000E+00 0.  1.
</event>
<event>
 4    1  0.6934088E+001  0.2633234E+02  0.7546771E-02  0.1454433E+00
          2   -1    0    0  502    0  0.00000000000E+00  0.00000000000E+00  0.52692176003E+01  0.52692176003E+01  0.00000000000E+00 0.  1.
         -2   -1    0    0    0  501 -0.00000000000E+00 -0.00000000000E+00 -0.13521561911E+03  0.13521561911E+03  0.00000000000E+00 0. -1.
          1    1    1    2  502    0 -0.21156455885E+02 -0.15677893503E+02 -0.76470595042E+02  0.80877338461E+02  0.00000000000E+00 0. -1.
         -1    1    1    2    0  501  0.21156455885E+02  0.15677893503E+02 -0.53475806471E+02  0.59607498254E+02  0.00000000000E+00 0.  1.
</event>
<event>
 4    1  0.6934088E+001  0.2316877E+02  0.7546771E-02  0.1490390E+00
          2   -1    0    0  502    0  0.00000000000E+00  0.00000000000E+00  0.11092318743E+04  0.11092318743E+04  0.00000000000E+00 0.  1.
         -2   -1    0    0    0  501 -0.00000000000E+00 -0.00000000000E+00 -0.57217762232E+00  0.57217762232E+00  0.00000000000E+00 0. -1.
          1    1    1    2  502    0 -0.12033225053E+02 -0.19798825449E+02  0.33640876608E+03  0.33720564925E+03  0.00000000000E+00 0. -1.
         -1    1    1    2    0  501  0.12033225053E+02  0.19798825449E+02  0.77225093056E+03  0.77259840263E+03  0.00000000000E+00 0.  1.
</event>
<event>
 4    1  0.6934088E+001  0.2637867E+02  0.7546771E-02  0.1453951E+00
          2   -1    0    0  502    0  0.00000000000E+00  0.00000000000E+00  0.31780775552E+01  0.31780775552E+01  0.00000000000E+00 0. -1.
         -2   -1    0    0    0  501 -0.00000000000E+00 -0.00000000000E+00 -0.24776071760E+03  0.24776071760E+03  0.00000000000E+00 0.  1.
          1    1    1    2  502    0  0.12911744803E+02 -0.23002629645E+02 -0.79504230017E+02  0.83766083321E+02  0.00000000000E+00 0. -1.
         -1    1    1    2    0  501 -0.12911744803E+02  0.23002629645E+02 -0.16507841002E+03  0.16717271183E+03  0.00000000000E+00 0.  1.
</event>
<event>
 4    1  0.6934088E+001  0.2803515E+02  0.7546771E-02  0.1437478E+00
          2   -1    0    0  502    0  0.00000000000E+00  0.00000000000E+00  0.51186513933E+03  0.51186513933E+03  0.00000000000E+00 0.  1.
         -2   -1    0    0    0  501 -0.00000000000E+00 -0.00000000000E+00 -0.27083997062E+01  0.27083997062E+01  0.00000000000E+00 0. -1.
          1    1    1    2  502    0  0.25827185575E+02 -0.10905329922E+02  0.85265013309E+02  0.89755736474E+02  0.00000000000E+00 0. -1.
         -1    1    1    2    0  501 -0.25827185575E+02  0.10905329922E+02  0.42389172631E+03  0.42481780256E+03  0.00000000000E+00 0.  1.
</event>
<event>
 4    1  0.6934088E+001  0.2858721E+02  0.7546771E-02  0.1432284E+00
          2   -1    0    0  502    0  0.00000000000E+00  0.00000000000E+00  0.17170737341E+03  0.17170737341E+03  0.00000000000E+00 0. -1.
         -2   -1    0    0    0  501 -0.00000000000E+00 -0.00000000000E+00 -0.58433271928E+01  0.58433271928E+01  0.00000000000E+00 0.  1.
          1    1    1    2  502    0 -0.27925792293E+02 -0.61138086676E+01  0.44697370731E+02  0.53057360299E+02  0.00000000000E+00 0.  1.
         -1    1    1    2    0  501  0.27925792293E+02  0.61138086676E+01  0.12116667549E+03  0.12449334030E+03  0.00000000000E+00 0. -1.
</event>
<event>
 4    1  0.6934088E+001  0.4361182E+02  0.7546771E-02  0.1328528E+00
          2   -1    0    0  502    0  0.00000000000E+00  0.00000000000E+00  0.11732333963E+03  0.11732333963E+03  0.00000000000E+00 0.  1.
         -2   -1    0    0    0  501 -0.00000000000E+00 -0.00000000000E+00 -0.16810188937E+02  0.16810188937E+02  0.00000000000E+00 0. -1.
          1    1    1    2  502    0  0.11203829759E+02 -0.42148128530E+02  0.62913019869E+02  0.76550889014E+02  0.00000000000E+00 0.  1.
         -1    1    1    2    0  501 -0.11203829759E+02  0.42148128530E+02  0.37600130821E+02  0.57582639550E+02  0.00000000000E+00 0. -1.
</event>
<event>
 4    1  0.6934088E+001  0.2642663E+02  0.7546771E-02  0.1453454E+00
          2   -1    0    0  502    0  0.00000000000E+00  0.00000000000E+00  0.91252329645E+03  0.91252329645E+03  0.00000000000E+00 0. -1.
         -2   -1    0    0    0  501 -0.00000000000E+00 -0.00000000000E+00 -0.11127492653E+01  0.11127492653E+01  0.00000000000E+00 0.  1.
          1    1    1    2  502    0  0.25817546835E+02  0.56409967740E+01  0.71096465701E+03  0.71145562763E+03  0.00000000000E+00 0.  1.
         -1    1    1    2    0  501 -0.25817546835E+02 -0.56409967740E+01  0.20044589018E+03  0.20218041809E+03  0.00000000000E+00 0. -1.
</event>
<event>
 4    1  0.6934088E+001  0.2023337E+02  0.7546771E-02  0.1530498E+00
          2   -1    0    0  502    0  0.00000000000E+00  0.00000000000E+00  0.39906055319E+02  0.39906055319E+02  0.00000000000E+00 0. -1.
         -2   -1    0    0    0  501 -0.00000000000E+00 -0.00000000000E+00 -0.12029566282E+02  0.12029566282E+02  0.00000000000E+00 0.  1.
          1    1    1    2  502    0  0.50155627075E+01 -0.19601868602E+02  0.23901201752E+02  0.31315436564E+02  0.00000000000E+00 0. -1.
         -1    1    1    2    0  501 -0.50155627075E+01  0.19601868602E+02  0.39752872854E+01  0.20620185038E+02  0.00000000000E+00 0.  1.
</event>
<event>
 4    1  0.6934088E+001  0.5222872E+02  0.7546771E-02  0.1288788E+00
          2   -1    0    0  502    0  0.00000000000E+00  0.00000000000E+00  0.12130217794E+04  0.12130217794E+04  0.00000000000E+00 0. -1.
         -2   -1    0    0    0  501 -0.00000000000E+00 -0.00000000000E+00 -0.46236380650E+01  0.46236380650E+01  0.00000000000E+00 0.  1.
          1    1    1    2  502    0  0.39894013450E+02  0.33709145915E+02  0.16786786769E+03  0.17580517578E+03  0.00000000000E+00 0.  1.
         -1    1    1    2    0  501 -0.39894013450E+02 -0.33709145915E+02  0.10405302737E+04  0.10418402417E+04  0.00000000000E+00 0. -1.
</event>
<event>
 4    1  0.6934088E+001  0.2551667E+02  0.7546771E-02  0.1463106E+00
          2   -1    0    0  502    0  0.00000000000E+00  0.00000000000E+00  0.69849593346E+02  0.69849593346E+02  0.00000000000E+00 0. -1.
         -2   -1    0    0    0  501 -0.00000000000E+00 -0.00000000000E+00 -0.96965162170E+01  0.96965162170E+01  0.00000000000E+00 0.  1.
          1    1    1    2  502    0  0.11035068989E+02 -0.23007124600E+02  0.37898694223E+02  0.45688199284E+02  0.00000000000E+00 0. -1.
         -1    1    1    2    0  501 -0.11035068989E+02  0.23007124600E+02  0.22254382905E+02  0.33857910279E+02  0.00000000000E+00 0.  1.
</event>
<event>
 4    1  0.6934088E+001  0.4588762E+02  0.7546771E-02  0.1317060E+00
          2   -1    0    0  502    0  0.00000000000E+00  0.00000000000E+00  0.94948436796E+02  0.94948436796E+02  0.00000000000E+00 0. -1.
         -2   -1    0    0    0  501 -0.00000000000E+00 -0.00000000000E+00 -0.31522678716E+02  0.31522678716E+02  0.00000000000E+00 0.  1.
          1    1    1    2  502    0 -0.41205243291E+02  0.20194087799E+02 -0.27185291497E+01  0.45968072153E+02  0.00000000000E+00 0.  1.
         -1    1    1    2    0  501  0.41205243291E+02 -0.20194087799E+02  0.66144287230E+02  0.80503043358E+02  0.00000000000E+00 0. -1.
</event>
<event>
 4    1  0.6934088E+001  0.2549550E+02  0.7546771E-02  0.1463336E+00
          2   -1    0    0  502    0  0.00000000000E+00  0.00000000000E+00  0.23333438572E+03  0.23333438572E+03  0.00000000000E+00 0.  1.
         -2   -1    0    0    0  501 -0.00000000000E+00 -0.00000000000E+00 -0.30336880823E+01  0.30336880823E+01  0.00000000000E+00 0. -1.
          1    1    1    2  502    0  0.23759411853E+02 -0.92471997525E+01  0.81366365381E+02  0.85267260834E+02  0.00000000000E+00 0.  1.
         -1    1    1    2    0  501 -0.23759411853E+02  0.92471997525E+01  0.14893433226E+03  0.15110081297E+03  0.00000000000E+00 0. -1.
</event>
<event>
 4    1  0.6934088E+001  0.3618989E+02  0.7546771E-02  0.1372385E+00
          2   -1    0    0  502    0  0.00000000000E+00  0.00000000000E+00  0.15665714129E+04  0.15665714129E+04  0.00000000000E+00 0.  1.
         -2   -1    0    0    0  501 -0.00000000000E+00 -0.00000000000E+00 -0.14022064415E+01  0.14022064415E+01  0.00000000000E+00 0. -1.
          1    1    1    2  502    0 -0.13343116254E+02  0.33640294040E+02  0.12807537809E+04  0.12812649825E+04  0.00000000000E+00 0.  1.
         -1    1    1    2    0  501  0.13343116254E+02 -0.33640294040E+02  0.28441542562E+03  0.28670863689E+03  0.00000000000E+00 0. -1.
</event>
<event>
 4    1  0.6934088E+001  0.2365412E+02  0.7546771E-02  0.1484444E+00
          2   -1    0    0  502    0  0.00000000000E+00  0.00000000000E+00  0.14250499993E+03  0.14250499993E+03  0.00000000000E+00 0. -1.
         -2   -1    0    0    0  501 -0.00000000000E+00 -0.00000000000E+00 -0.41583268701E+01  0.41583268701E+01  0.00000000000E+00 0.  1.
          1    1    1    2  502    0 -0.11744466464E+02 -0.20532529142E+02  0.86495504926E+02  0.89671565270E+02  0.00000000000E+00 0.  1.
         -1    1    1    2    0  501  0.11744466464E+02  0.20532529142E+02  0.51851168134E+02  0.56991761531E+02  0.00000000000E+00 0. -1.
</event>
<event>
 4    1  0.6934088E+001  0.2173810E+02  0.7546771E-02  0.1508982E+00
          2   -1    0    0  502    0  0.00000000000E+00  0.00000000000E+00  0.27424171845E+01  0.27424171845E+01  0.00000000000E+00 0. -1.
         -2   -1    0    0    0  501 -0.00000000000E+00 -0.00000000000E+00 -0.31195743233E+03  0.31195743233E+03  0.00000000000E+00 0.  1.
          1    1    1    2  502    0  0.16560523241E+02  0.14081695640E+02 -0.49329946545E+02  0.53907223154E+02  0.00000000000E+00 0. -1.
         -1    1    1    2    0  501 -0.16560523241E+02 -0.14081695640E+02 -0.25988506860E+03  0.26079262636E+03  0.00000000000E+00 0.  1.
</event>
<event>
 4    1  0.6934088E+001  0.3769092E+02  0.7546771E-02  0.1362575E+00
          2   -1    0    0  502    0  0.00000000000E+00  0.00000000000E+00  0.51122147037E+01  0.51122147037E+01  0.00000000000E+00 0.  1.
         -2   -1    0    0    0  501 -0.00000000000E+00 -0.00000000000E+00 -0.30508709899E+03  0.30508709899E+03  0.00000000000E+00 0. -1.
          1    1    1    2  502    0 -0.89024687329E+01  0.36624470906E+02 -0.19630047166E+03  0.19988617009E+03  0.00000000000E+00 0. -1.
         -1    1    1    2    0  501  0.89024687329E+01 -0.36624470906E+02 -0.10367441263E+03  0.11031314361E+03  0.00000000000E+00 0.  1.
</event>
<event>
 4    1  0.6934088E+001  0.3033584E+02  0.7546771E-02  0.1416700E+00
          2   -1    0    0  502    0  0.00000000000E+00  0.00000000000E+00  0.96082439469E+02  0.96082439469E+02  0.00000000000E+00 0.  1.
         -2   -1    0    0    0  501 -0.00000000000E+00 -0.00000000000E+00 -0.11243882033E+02  0.11243882033E+02  0.00000000000E+00 0. -1.
          1    1    1    2  502    0 -0.22007449422E+02  0.20879068576E+02  0.63075914403E+02  0.69991673165E+02  0.00000000000E+00 0.  1.
         -1    1    1    2    0  501  0.22007449422E+02 -0.20879068576E+02  0.21762643032E+02  0.37334648337E+02  0.00000000000E+00 0. -1.
</event>
<event>
 4    1  0.6934088E+001  0.2689571E+02  0.7546771E-02  0.1448659E+00
          2   -1    0    0  502    0  0.00000000000E+00  0.00000000000E+00  0.19469407712E+02  0.19469407712E+02  0.00000000000E+00 0.  1.
         -2   -1    0    0    0  501 -0.00000000000E+00 -0.00000000000E+00 -0.15295543396E+03  0.15295543396E+03  0.00000000000E+00 0. -1.
          1    1    1    2  502    0 -0.26858150392E+02  0.14208135503E+01  0.82711281431E+01  0.28138772439E+02  0.00000000000E+00 0.  1.
         -1    1    1    2    0  501  0.26858150392E+02 -0.14208135503E+01 -0.14175715439E+03  0.14428606923E+03  0.00000000000E+00 0. -1.
</event>
<event>
 4    1  0.6934088E+001  0.2140499E+02  0.7546771E-02  0.1513560E+00
          2   -1    0    0  502    0  0.00000000000E+00  0.00000000000E+00  0.32201647163E+02  0.32201647163E+02  0.00000000000E+00 0.  1.
         -2   -1    0    0    0  501 -0.00000000000E+00 -0.00000000000E+00 -0.14296618090E+02  0.14296618090E+02  0.00000000000E+00 0. -1.
          1    1    1    2  502    0  0.20160358878E+02 -0.71926163797E+01  0.73450316378E+01  0.22630141189E+02  0.00000000000E+00 0.  1.
         -1    1    1    2    0  501 -0.20160358878E+02  0.71926163797E+01  0.10559997435E+02  0.23868124063E+02  0.00000000000E+00 0. -1.
</event>
<event>
 4    1  0.6934088E+001  0.2082770E+02  0.7546771E-02  0.1521739E+00
          2   -1    0    0  502    0  0.00000000000E+00  0.00000000000E+00  0.25536004277E+01  0.25536004277E+01  0.00000000000E+00 0. -1.
         -2   -1    0    0    0  501 -0.00000000000E+00 -0.00000000000E+00 -0.17606554425E+03  0.17606554425E+03  0.00000000000E+00 0.  1.
          1    1    1    2  502    0  0.13839063329E+02 -0.15565134516E+02 -0.70009539395E+02  0.73041965285E+02  0.00000000000E+00 0. -1.
         -1    1    1    2    0  501 -0.13839063329E+02  0.15565134516E+02 -0.10350240443E+03  0.10557717939E+03  0.00000000000E+00 0.  1.
</event>
<event>
 4    1  0.6934088E+001  0.2188503E+02  0.7546771E-02  0.1506994E+00
          2   -1    0    0  502    0  0.00000000000E+00  0.00000000000E+00  0.25806425677E+03  0.25806425677E+03  0.00000000000E+00 0.  1.
         -2   -1    0    0    0  501 -0.00000000000E+00 -0.00000000000E+00 -0.35874072728E+01  0.35874072728E+01  0.00000000000E+00 0. -1.
          1    1    1    2  502    0 -0.12571545956E+02  0.17913978924E+02  0.36349905525E+02  0.42429589207E+02  0.00000000000E+00 0. -1.
         -1    1    1    2    0  501  0.12571545956E+02 -0.17913978924E+02  0.21812694398E+03  0.21922207484E+03  0.00000000000E+00 0.  1.
</event>
<event>
 4    1  0.6934088E+001  0.5172423E+02  0.7546771E-02  0.1290865E+00
          2   -1    0    0  502    0  0.00000000000E+00  0.00000000000E+00  0.18407585797E+02  0.18407585797E+02  0.00000000000E+00 0. -1.
         -2   -1    0    0    0  501 -0.00000000000E+00 -0.00000000000E+00 -0.16428026383E+03  0.16428026383E+03  0.00000000000E+00 0.  1.
          1    1    1    2  502    0  0.14090037492E+02 -0.49768131814E+02 -0.10395025290E+03  0.11610792901E+03  0.00000000000E+00 0.  1.
         -1    1    1    2    0  501 -0.14090037492E+02  0.49768131814E+02 -0.41922425139E+02  0.66579920624E+02  0.00000000000E+00 0. -1.
</event>
<event>
 4    1  0.6934088E+001  0.3520824E+02  0.7546771E-02  0.1379105E+00
          2   -1    0    0  502    0  0.00000000000E+00  0.00000000000E+00  0.11790745216E+02  0.11790745216E+02  0.00000000000E+00 0. -1.
         -2   -1    0    0    0  501 -0.00000000000E+00 -0.00000000000E+00 -0.24230385031E+03  0.24230385031E+03  0.00000000000E+00 0.  1.
          1    1    1    2  502    0  0.34452593752E+02  0.72552863179E+01 -0.21084666456E+03  0.21376607858E+03  0.00000000000E+00 0.  1.
         -1    1    1    2    0  501 -0.34452593752E+02 -0.72552863179E+01 -0.19666440536E+02  0.40328516947E+02  0.00000000000E+00 0. -1.
</event>
<event>
 4    1  0.6934088E+001  0.2114934E+02  0.7546771E-02  0.1517143E+00
          2   -1    0    0  502    0  0.00000000000E+00  0.00000000000E+00  0.36768985124E+03  0.36768985124E+03  0.00000000000E+00 0.  1.
         -2   -1    0    0    0  501 -0.00000000000E+00 -0.00000000000E+00 -0.12612572465E+01  0.12612572465E+01  0.00000000000E+00 0. -1.
          1    1    1    2  502    0  0.12018831453E+02 -0.17402359619E+02  0.21796569541E+03  0.21898935775E+03  0.00000000000E+00 0.  1.
         -1    1    1    2    0  501 -0.12018831453E+02  0.17402359619E+02  0.14846289859E+03  0.14996175074E+03  0.00000000000E+00 0. -1.
</event>
<event>
 4    1  0.6934088E+001  0.2061968E+02  0.7546771E-02  0.1524765E+00
          2   -1    0    0  502    0  0.00000000000E+00  0.00000000000E+00  0.13281730110E+04  0.13281730110E+04  0.00000000000E+00 0. -1.
         -2   -1    0    0    0  501 -0.00000000000E+00 -0.00000000000E+00 -0.32016645943E+00  0.32016645943E+00  0.00000000000E+00 0.  1.
          1    1    1    2  502    0  0.15565532228E+02 -0.13523515260E+02  0.65570189612E+03  0.65602602680E+03  0.00000000000E+00 0. -1.
         -1    1    1    2    0  501 -0.15565532228E+02  0.13523515260E+02  0.67215094842E+03  0.67246715067E+03  0.00000000000E+00 0.  1.
</event>
<event>
 4    1  0.6934088E+001  0.2866436E+02  0.7546771E-02  0.1431569E+00
          2   -1    0    0  502    0  0.00000000000E+00  0.00000000000E+00  0.57497940721E+02  0.57497940721E+02  0.00000000000E+00 0. -1.
         -2   -1    0    0    0  501 -0.00000000000E+00 -0.00000000000E+00 -0.18560292113E+02  0.18560292113E+02  0.00000000000E+00 0.  1.
          1    1    1    2  502    0 -0.13082887298E+02  0.25504580347E+02  0.37709992008E+02  0.47367594998E+02  0.00000000000E+00 0. -1.
         -1    1    1    2    0  501  0.13082887298E+02 -0.25504580347E+02  0.12276566004E+01  0.28690637836E+02  0.00000000000E+00 0.  1.
</event>
<event>
 4    1  0.6934088E+001  0.2396910E+02  0.7546771E-02  0.1480675E+00
          2   -1    0    0  502    0  0.00000000000E+00  0.00000000000E+00  0.29569011624E+03  0.29569011624E+03  0.00000000000E+00 0. -1.
         -2   -1    0    0    0  501 -0.00000000000E+00 -0.00000000000E+00 -0.31236409028E+01  0.31236409028E+01  0.00000000000E+00 0.  1.
          1    1    1    2  502    0 -0.65694906061E+01  0.23051237249E+02  0.54427979098E+02  0.59472032539E+02  0.00000000000E+00 0.  1.
         -1    1    1    2    0  501  0.65694906061E+01 -0.23051237249E+02  0.23813849624E+03  0.23934172461E+03  0.00000000000E+00 0. -1.
</event>
<event>
 4    1  0.6934088E+001  0.2451876E+02  0.7546771E-02  0.1474260E+00
          2   -1    0    0  502    0  0.00000000000E+00  0.00000000000E+00  0.43451754334E+02  0.43451754334E+02  0.00000000000E+00 0.  1.
         -2   -1    0    0    0  501 -0.00000000000E+00 -0.00000000000E+00 -0.14161598666E+02  0.14161598666E+02  0.00000000000E+00 0. -1.
          1    1    1    2  502    0  0.20263913805E+02  0.13803745320E+02  0.10272664434E+02  0.26583777424E+02  0.00000000000E+00 0.  1.
         -1    1    1    2    0  501 -0.20263913805E+02 -0.13803745320E+02  0.19017491234E+02  0.31029575575E+02  0.00000000000E+00 0. -1.
</event>
<event>
 4    1  0.6934088E+001  0.2255189E+02  0.7546771E-02  0.1498203E+00
          2   -1    0    0  502    0  0.00000000000E+00  0.00000000000E+00  0.79958575906E+01  0.79958575906E+01  0.00000000000E+00 0. -1.
         -2   -1    0    0    0  501 -0.00000000000E+00 -0.00000000000E+00 -0.12711765656E+03  0.12711765656E+03  0.00000000000E+00 0.  1.
          1    1    1    2  502    0  0.86060802586E+01 -0.20845213522E+02 -0.10731286818E+03  0.10965691597E+03  0.00000000000E+00 0.  1.
         -1    1    1    2    0  501 -0.86060802586E+01  0.20845213522E+02 -0.11808930787E+02  0.25456598172E+02  0.00000000000E+00 0. -1.
</event>
<event>
 4    1  0.6934088E+001  0.2816430E+02  0.7546771E-02  0.1436250E+00
          2   -1    0    0  502    0  0.00000000000E+00  0.00000000000E+00  0.29128217054E+02  0.29128217054E+02  0.00000000000E+00 0.  1.
         -2   -1    0    0    0  501 -0.00000000000E+00 -0.00000000000E+00 -0.66273538441E+02  0.66273538441E+02  0.00000000000E+00 0. -1.
          1    1    1    2  502    0  0.19532963526E+02 -0.20290177434E+02  0.18038892763E+02  0.33445920776E+02  0.00000000000E+00 0.  1.
         -1    1    1    2    0  501 -0.19532963526E+02  0.20290177434E+02 -0.55184214150E+02  0.61955834720E+02  0.00000000000E+00 0. -1.
</event>
<event>
 4    1  0.6934088E+001  0.4529215E+02  0.7546771E-02  0.1319985E+00
          2   -1    0    0  502    0  0.00000000000E+00  0.00000000000E+00  0.22505701380E+03  0.22505701380E+03  0.00000000000E+00 0. -1.
         -2   -1    0    0    0  501 -0.00000000000E+00 -0.00000000000E+00 -0.18831351092E+02  0.18831351092E+02  0.00000000000E+00 0.  1.
          1    1    1    2  502    0 -0.33603627738E+02 -0.30367335869E+02  0.19070666101E+03  0.19601124824E+03  0.00000000000E+00 0. -1.
         -1    1    1    2    0  501  0.33603627738E+02  0.30367335869E+02  0.15519001700E+02  0.47877116650E+02  0.00000000000E+00 0.  1.
</event>
<event>
 4    1  0.6934088E+001  0.2877980E+02  0.7546771E-02  0.1430505E+00
          2   -1    0    0  502    0  0.00000000000E+00  0.00000000000E+00  0.13946359725E+02  0.13946359725E+02  0.00000000000E+00 0.  1.
         -2   -1    0    0    0  501 -0.00000000000E+00 -0.00000000000E+00 -0.63376314603E+02  0.63376314603E+02  0.00000000000E+00 0. -1.
          1    1    1    2  502    0 -0.23773623156E+02 -0.16220096821E+02 -0.15019039846E+02  0.32463029075E+02  0.00000000000E+00 0.  1.
         -1    1    1    2    0  501  0.23773623156E+02  0.16220096821E+02 -0.34410915032E+02  0.44859645252E+02  0.00000000000E+00 0. -1.
</event>
<event>
 4    1  0.6934088E+001  0.3110637E+02  0.7546771E-02  0.1410220E+00
          2   -1    0    0  502    0  0.00000000000E+00  0.00000000000E+00  0.21475395461E+04  0.21475395461E+04  0.00000000000E+00 0.  1.
         -2   -1    0    0    0  501 -0.00000000000E+00 -0.00000000000E+00 -0.45255762932E+00  0.45255762932E+00  0.00000000000E+00 0. -1.
          1    1    1    2  502    0  0.82496017616E+01  0.29992501244E+02  0.11448097338E+04  0.11452322614E+04  0.00000000000E+00 0. -1.
         -1    1    1    2    0  501 -0.82496017616E+01 -0.29992501244E+02  0.10022772547E+04  0.10027598423E+04  0.00000000000E+00 0.  1.
</event>
<event>
 4    1  0.6934088E+001  0.2012853E+02  0.7546771E-02  0.1532080E+00
          2   -1    0    0  502    0  0.00000000000E+00  0.00000000000E+00  0.32729962611E+02  0.32729962611E+02  0.00000000000E+00 0. -1.
         -2   -1    0    0    0  501 -0.00000000000E+00 -0.00000000000E+00 -0.12380971575E+02  0.12380971575E+02  0.00000000000E+00 0.  1.
          1    1    1    2  502    0 -0.16932653778E+02  0.10883157916E+02  0.98762588834E+01  0.22420936192E+02  0.00000000000E+00 0. -1.
         -1    1    1    2    0  501  0.16932653778E+02 -0.10883157916E+02  0.10472732153E+02  0.22689997994E+02  0.00000000000E+00 0.  1.
</event>
<event>
 4    1  0.6934088E+001  0.2111675E+02  0.7546771E-02  0.1517604E+00
          2   -1    0    0  502    0  0.00000000000E+00  0.00000000000E+00  0.25963650707E+02  0.25963650707E+02  0.00000000000E+00 0. -1.
         -2   -1    0    0    0  501 -0.00000000000E+00 -0.00000000000E+00 -0.31548705747E+02  0.31548705747E+02  0.00000000000E+00 0.  1.
          1    1    1    2  502    0  0.16075790154E+02  0.13692556580E+02 -0.22202715979E+02  0.30641111788E+02  0.00000000000E+00 0.  1.
         -1    1    1    2    0  501 -0.16075790154E+02 -0.13692556580E+02  0.16617660939E+02  0.26871244665E+02  0.00000000000E+00 0. -1.
</event>
<event>
 4    1  0.6934088E+001  0.2445427E+02  0.7546771E-02  0.1475002E+00
          2   -1    0    0  502    0  0.00000000000E+00  0.00000000000E+00  0.73118341608E+02  0.73118341608E+02  0.00000000000E+00 0. -1.
         -2   -1    0    0    0  501 -0.00000000000E+00 -0.00000000000E+00 -0.94968690588E+01  0.94968690588E+01  0.00000000000E+00 0.  1.
          1    1    1    2  502    0  0.23146212932E+02 -0.78907603479E+01  0.16421070083E+02  0.29456116761E+02  0.00000000000E+00 0.  1.
         -1    1    1    2    0  501 -0.23146212932E+02  0.78907603479E+01  0.47200402466E+02  0.53159093906E+02  0.00000000000E+00 0. -1.
</event>
<event>
 4    1  0.6934088E+001  0.2853368E+02  0.7546771E-02  0.1432782E+00
          2   -1    0    0  502    0  0.00000000000E+00  0.00000000000E+00  0.55257565617E+02  0.55257565617E+02  0.00000000000E+00 0.  1.
         -2   -1    0    0    0  501 -0.00000000000E+00 -0.00000000000E+00 -0.24296653887E+02  0.24296653887E+02  0.00000000000E+00 0. -1.
          1    1    1    2  502    0 -0.72677791324E+00 -0.28524425476E+02 -0.94739198068E+01  0.30065365645E+02  0.00000000000E+00 0. -1.
         -1    1    1    2    0  501  0.72677791324E+00  0.28524425476E+02  0.40434831536E+02  0.49488853859E+02  0.00000000000E+00 0.  1.
</event>
<event>
 4    1  0.6934088E+001  0.4481454E+02  0.7546771E-02  0.1322369E+00
          2   -1    0    0  502    0  0.00000000000E+00  0.00000000000E+00  0.95085136770E+02  0.95085136770E+02  0.00000000000E+00 0.  1.
         -2   -1    0    0    0  501 -0.00000000000E+00 -0.00000000000E+00 -0.27713498049E+02  0.27713498049E+02  0.00000000000E+00 0. -1.
          1    1    1    2  502    0  0.39835716769E+02 -0.20529450424E+02  0.63630916730E+02  0.77828248272E+02  0.00000000000E+00 0.  1.
         -1    1    1    2    0  501 -0.39835716769E+02  0.20529450424E+02  0.37407219910E+01  0.44970386548E+02  0.00000000000E+00 0. -1.
</event>
<event>
 4    1  0.6934088E+001  0.2492481E+02  0.7546771E-02  0.1469646E+00
          2   -1    0    0  502    0  0.00000000000E+00  0.00000000000E+00  0.75827516253E+03  0.75827516253E+03  0.00000000000E+00 0. -1.
         -2   -1    0    0    0  501 -0.00000000000E+00 -0.00000000000E+00 -0.93762135355E+00  0.93762135355E+00  0.00000000000E+00 0.  1.
          1    1    1    2  502    0 -0.54894692538E+01 -0.24312795519E+02  0.24381223161E+03  0.24508294633E+03  0.00000000000E+00 0.  1.
         -1    1    1    2    0  501  0.54894692538E+01  0.24312795519E+02  0.51352530956E+03  0.51412983755E+03  0.00000000000E+00 0. -1.
</event>
<event>
 4    1  0.6934088E+001  0.2329704E+02  0.7546771E-02  0.1488802E+00
          2   -1    0    0  502    0  0.00000000000E+00  0.00000000000E+00  0.66861813077E+03  0.66861813077E+03  0.00000000000E+00 0.  1.
         -2   -1    0    0    0  501 -0.00000000000E+00 -0.00000000000E+00 -0.13140418312E+01  0.13140418312E+01  0.00000000000E+00 0. -1.
          1    1    1    2  502    0  0.23245150815E+02 -0.15540179944E+01  0.54074889727E+03  0.54125051677E+03  0.00000000000E+00 0.  1.
         -1    1    1    2    0  501 -0.23245150815E+02  0.15540179944E+01  0.12655519167E+03  0.12868165583E+03  0.00000000000E+00 0. -1.
</event>
<event>
 4    1  0.6934088E+001  0.2307261E+02  0.7546771E-02  0.1491588E+00
          2   -1    0    0  502    0  0.00000000000E+00  0.00000000000E+00  0.27742700000E+02  0.27742700000E+02  0.00000000000E+00 0. -1.
         -2   -1    0    0    0  501 -0.00000000000E+00 -0.00000000000E+00 -0.20264058504E+02  0.20264058504E+02  0.00000000000E+00 0.  1.
          1    1    1    2  502    0  0.14492632047E+02  0.17952962999E+02 -0.17902789650E+01  0.23141961086E+02  0.00000000000E+00 0. -1.
         -1    1    1    2    0  501 -0.14492632047E+02 -0.17952962999E+02  0.92689204611E+01  0.24864797418E+02  0.00000000000E+00 0.  1.
</event>
<event>
 4    1  0.6934088E+001  0.3110977E+02  0.7546771E-02  0.1410191E+00
          2   -1    0    0  502    0  0.00000000000E+00  0.00000000000E+00  0.11677042742E+03  0.11677042742E+03  0.00000000000E+00 0. -1.
         -2   -1    0    0    0  501 -0.00000000000E+00 -0.00000000000E+00 -0.89233858567E+01  0.89233858567E+01  0.00000000000E+00 0.  1.
          1    1    1    2  502    0 -0.23627920078E+02 -0.20237069455E+02  0.70690960531E+02  0.77233603361E+02  0.00000000000E+00 0. -1.
         -1    1    1    2    0  501  0.23627920078E+02  0.20237069455E+02  0.37156081033E+02  0.48460209916E+02  0.00000000000E+00 0.  1.
</event>
<event>
 4    1  0.6934088E+001  0.2143766E+02  0.7546771E-02  0.1513107E+00
          2   -1    0    0  502    0  0.00000000000E+00  0.00000000000E+00  0.15148902309E+01  0.15148902309E+01  0.00000000000E+00 0. -1.
         -2   -1    0    0    0  501 -0.00000000000E+00 -0.00000000000E+00 -0.31697113666E+03  0.31697113666E+03  0.00000000000E+00 0.  1.
          1    1    1    2  502    0  0.19113597226E+02 -0.97079152315E+01 -0.12474225404E+03  0.12657094122E+03  0.00000000000E+00 0. -1.
         -1    1    1    2    0  501 -0.19113597226E+02  0.97079152315E+01 -0.19071399239E+03  0.19191508567E+03  0.00000000000E+00 0.  1.
</event>
<event>
 4    1  0.6934088E+001  0.2758159E+02  0.7546771E-02  0.1441852E+00
          2   -1    0    0  502    0  0.00000000000E+00  0.00000000000E+00  0.14651049296E+03  0.14651049296E+03  0.00000000000E+00 0. -1.
         -2   -1    0    0    0  501 -0.00000000000E+00 -0.00000000000E+00 -0.63209406306E+01  0.63209406306E+01  0.00000000000E+00 0.  1.
          1    1    1    2  502    0 -0.26445524446E+02  0.78344404803E+01  0.37806391749E+02  0.46798156779E+02  0.00000000000E+00 0.  1.
         -1    1    1    2    0  501  0.26445524446E+02 -0.78344404803E+01  0.10238316058E+03  0.10603327681E+03  0.00000000000E+00 0. -1.
</event>
<event>
 4    1  0.6934088E+001  0.3800371E+02  0.7546771E-02  0.1360598E+00
          2   -1    0    0  502    0  0.00000000000E+00  0.00000000000E+00  0.96478083778E+03  0.96478083778E+03  0.00000000000E+00 0. -1.
         -2   -1    0    0    0  501 -0.00000000000E+00 -0.00000000000E+00 -0.15501232267E+01  0.15501232267E+01  0.00000000000E+00 0.  1.
          1    1    1    2  502    0 -0.53636234195E+01  0.37623313072E+02  0.57105557676E+03  0.57231875200E+03  0.00000000000E+00 0.  1.
         -1    1    1    2    0  501  0.53636234195E+01 -0.37623313072E+02  0.39217513779E+03  0.39401220900E+03  0.00000000000E+00 0. -1.
</event>
<event>
 4    1  0.6934088E+001  0.2394175E+02  0.7546771E-02  0.1480999E+00
          2   -1    0    0  502    0  0.00000000000E+00  0.00000000000E+00  0.11447711709E+01  0.11447711709E+01  0.00000000000E+00 0.  1.
         -2   -1    0    0    0  501 -0.00000000000E+00 -0.00000000000E+00 -0.56116557660E+03  0.56116557660E+03  0.00000000000E+00 0. -1.
          1    1    1    2  502    0 -0.23848325219E+02 -0.21130364172E+01 -0.18773414095E+03  0.18925463063E+03  0.00000000000E+00 0. -1.
         -1    1    1    2    0  501  0.23848325219E+02  0.21130364172E+01 -0.37228666448E+03  0.37305571714E+03  0.00000000000E+00 0.  1.
</event>
<event>
 4    1  0.6934088E+001  0.2418435E+02  0.7546771E-02  0.1478139E+00
          2   -1    0    0  502    0  0.00000000000E+00  0.00000000000E+00  0.48263556402E+03  0.48263556402E+03  0.00000000000E+00 0.  1.
         -2   -1    0    0    0  501 -0.00000000000E+00 -0.00000000000E+00 -0.22654286113E+01  0.22654286113E+01  0.00000000000E+00 0. -1.
          1    1    1    2  502    0  0.40084503941E+01  0.23849843445E+02  0.74843893105E+02  0.78654249993E+02  0.00000000000E+00 0. -1.
         -1    1    1    2    0  501 -0.40084503941E+01 -0.23849843445E+02  0.40552624230E+03  0.40624674264E+03  0.00000000000E+00 0.  1.
</event>
<event>
 4    1  0.6934088E+001  0.2800828E+02  0.7546771E-02  0.1437734E+00
          2   -1    0    0  502    0  0.00000000000E+00  0.00000000000E+00  0.97188794651E+01  0.97188794651E+01  0.00000000000E+00 0.  1.
         -2   -1    0    0    0  501 -0.00000000000E+00 -0.00000000000E+00 -0.87403409700E+02  0.87403409700E+02  0.00000000000E+00 0. -1.
          1    1    1    2  502    0 -0.15179632697E+02 -0.23538109324E+02 -0.25409321754E+02  0.37816629561E+02  0.00000000000E+00 0.  1.
         -1    1    1    2    0  501  0.15179632697E+02  0.23538109324E+02 -0.52275208480E+02  0.59305659604E+02  0.00000000000E+00 0. -1.
</event>
<event>
 4    1  0.6934088E+001  0.2208966E+02  0.7546771E-02  0.1504257E+00
          2   -1    0    0  502    0  0.00000000000E+00  0.00000000000E+00  0.60321947640E+03  0.60321947640E+03  0.00000000000E+00 0. -1.
         -2   -1    0    0    0  501 -0.00000000000E+00 -0.00000000000E+00 -0.80917405354E+00  0.80917405354E+00  0.00000000000E+00 0.  1.
          1    1    1    2  502    0 -0.56774300048E+01  0.21347598606E+02  0.29579950908E+03  0.29662316624E+03  0.00000000000E+00 0. -1.
         -1    1    1    2    0  501  0.56774300048E+01 -0.21347598606E+02  0.30661079327E+03  0.30740548422E+03  0.00000000000E+00 0.  1.
</event>
<event>
 4    1  0.6934088E+001  0.2007909E+02  0.7546771E-02  0.1532830E+00
          2   -1    0    0  502    0  0.00000000000E+00  0.00000000000E+00  0.17986792183E+03  0.17986792183E+03  0.00000000000E+00 0. -1.
         -2   -1    0    0    0  501 -0.00000000000E+00 -0.00000000000E+00 -0.24661594302E+01  0.24661594302E+01  0.00000000000E+00 0.  1.
          1    1    1    2  502    0  0.56410289085E+01  0.19270409616E+02  0.61183228365E+02  0.64393767766E+02  0.00000000000E+00 0. -1.
         -1    1    1    2    0  501 -0.56410289085E+01 -0.19270409616E+02  0.11621853404E+03  0.11794031350E+03  0.00000000000E+00 0.  1.
</event>
<event>
 4    1  0.6934088E+001  0.2854363E+02  0.7546771E-02  0.1432689E+00
          2   -1    0    0  502    0  0.00000000000E+00  0.00000000000E+00  0.13378777506E+03  0.13378777506E+03  0.00000000000E+00 0. -1.
         -2   -1    0    0    0  501 -0.00000000000E+00 -0.00000000000E+00 -0.68039813428E+01  0.68039813428E+01  0.00000000000E+00 0.  1.
          1    1    1    2  502    0 -0.77891494220E+00 -0.28533000114E+02  0.86266828039E+02  0.90866409767E+02  0.00000000000E+00 0.  1.
         -1    1    1    2    0  501  0.77891494220E+00  0.28533000114E+02  0.40716965678E+02  0.49725346636E+02  0.00000000000E+00 0. -1.
</event>
<event>
 4    1  0.6934088E+001  0.2154138E+02  0.7546771E-02  0.1511674E+00
          2   -1    0    0  502    0  0.00000000000E+00  0.00000000000E+00  0.18615514887E+03  0.18615514887E+03  0.00000000000E+00 0. -1.
         -2   -1    0    0    0  501 -0.00000000000E+00 -0.00000000000E+00 -0.25002116030E+01  0.25002116030E+01  0.00000000000E+00 0.  1.
          1    1    1    2  502    0 -0.51633967077E+01 -0.20913407008E+02  0.86661441069E+02  0.89298581324E+02  0.00000000000E+00 0.  1.
         -1    1    1    2    0  501  0.51633967077E+01  0.20913407008E+02  0.96993496194E+02  0.99356779145E+02  0.00000000000E+00 0. -1.
</event>
<event>
 4    1  0.6934088E+001  0.2101805E+02  0.7546771E-02  0.1519007E+00
          2   -1    0    0  502    0  0.00000000000E+00  0.00000000000E+00  0.10785654452E+02  0.10785654452E+02  0.00000000000E+00 0. -1.
         -2   -1    0    0    0  501 -0.00000000000E+00 -0.00000000000E+00 -0.95129430149E+02  0.95129430149E+02  0.00000000000E+00 0.  1.
          1    1    1    2  502    0 -0.79539013989E+00 -0.21002993217E+02 -0.82134668369E+02  0.84781260415E+02  0.00000000000E+00 0.  1.
         -1    1    1    2    0  501  0.79539013989E+00  0.21002993217E+02 -0.22091073282E+01  0.21133824186E+02  0.00000000000E+00 0. -1.
</event>
<event>
 4    1  0.6934088E+001  0.2356310E+02  0.7546771E-02  0.1485546E+00
          2   -1    0    0  502    0  0.00000000000E+00  0.00000000000E+00  0.57665883874E+03  0.57665883874E+03  0.00000000000E+00 0. -1.
         -2   -1    0    0    0  501 -0.00000000000E+00 -0.00000000000E+00 -0.12085322719E+01  0.12085322719E+01  0.00000000000E+00 0.  1.
          1    1    1    2  502    0  0.19896631558E+02  0.12623148373E+02  0.15744426865E+03  0.15919773099E+03  0.00000000000E+00 0. -1.
         -1    1    1    2    0  501 -0.19896631558E+02 -0.12623148373E+02  0.41800603782E+03  0.41866964002E+03  0.00000000000E+00 0.  1.
</event>
<event>
 4    1  0.6934088E+001  0.2376210E+02  0.7546771E-02  0.1483144E+00
          2   -1    0    0  502    0  0.00000000000E+00  0.00000000000E+00  0.82298667978E+03  0.82298667978E+03  0.00000000000E+00 0. -1.
         -2   -1    0    0    0  501 -0.00000000000E+00 -0.00000000000E+00 -0.69036082626E+00  0.69036082626E+00  0.00000000000E+00 0.  1.
          1    1    1    2  502    0 -0.20766517883E+02  0.11549419350E+02  0.37872993427E+03  0.37947463744E+03  0.00000000000E+00 0.  1.
         -1    1    1    2    0  501  0.20766517883E+02 -0.11549419350E+02  0.44356638469E+03  0.44420240317E+03  0.00000000000E+00 0. -1.
</event>
<event>
 4    1  0.6934088E+001  0.2522904E+02  0.7546771E-02  0.1466257E+00
          2   -1    0    0  502    0  0.00000000000E+00  0.00000000000E+00  0.36289664938E+03  0.36289664938E+03  0.00000000000E+00 0. -1.
         -2   -1    0    0    0  501 -0.00000000000E+00 -0.00000000000E+00 -0.21536495182E+01  0.21536495182E+01  0.00000000000E+00 0.  1.
          1    1    1    2  502    0  0.60973971408E+01  0.24481135899E+02  0.10173947079E+03  0.10482091482E+03  0.00000000000E+00 0.  1.
         -1    1    1    2    0  501 -0.60973971408E+01 -0.24481135899E+02  0.25900352907E+03  0.26022938408E+03  0.00000000000E+00 0. -1.
</event>
<event>
 4    1  0.6934088E+001  0.2559624E+02  0.7546771E-02  0.1462243E+00
          2   -1    0    0  502    0  0.00000000000E+00  0.00000000000E+00  0.23176768550E+03  0.23176768550E+03  0.00000000000E+00 0. -1.
         -2   -1    0    0    0  501 -0.00000000000E+00 -0.00000000000E+00 -0.28487449407E+01  0.28487449407E+01  0.00000000000E+00 0.  1.
          1    1    1    2  502    0 -0.16367790644E+02 -0.19679002775E+02  0.10417037560E+03  0.10726898375E+03  0.00000000000E+00 0. -1.
         -1    1    1    2    0  501  0.16367790644E+02  0.19679002775E+02  0.12474856495E+03  0.12734744669E+03  0.00000000000E+00 0.  1.
</event>
<event>
 4    1  0.6934088E+001  0.3464182E+02  0.7546771E-02  0.1383099E+00
          2   -1    0    0  502    0  0.00000000000E+00  0.00000000000E+00  0.83101629346E+03  0.83101629346E+03  0.00000000000E+00 0.  1.
         -2   -1    0    0    0  501 -0.00000000000E+00 -0.00000000000E+00 -0.16833917676E+01  0.16833917676E+01  0.00000000000E+00 0. -1.
          1    1    1    2  502    0  0.18365674616E+02 -0.29372736200E+02  0.57164707671E+03  0.57269576212E+03  0.00000000000E+00 0.  1.
         -1    1    1    2    0  501 -0.18365674616E+02  0.29372736200E+02  0.25768582498E+03  0.26000392311E+03  0.00000000000E+00 0. -1.
</event>
<event>
 4    1  0.6934088E+001  0.3231046E+02  0.7546771E-02  0.1400526E+00
          2   -1    0    0  502    0  0.00000000000E+00  0.00000000000E+00  0.97570056607E+03  0.97570056607E+03  0.00000000000E+00 0.  1.
         -2   -1    0    0    0  501 -0.00000000000E+00 -0.00000000000E+00 -0.10876662671E+01  0.10876662671E+01  0.00000000000E+00 0. -1.
          1    1    1    2  502    0  0.32225033600E+02  0.23480124489E+01  0.54961082218E+03  0.55055973501E+03  0.00000000000E+00 0. -1.
         -1    1    1    2    0  501 -0.32225033600E+02 -0.23480124489E+01  0.42500207762E+03  0.42622849733E+03  0.00000000000E+00 0.  1.
</event>
<event>
 4    1  0.6934088E+001  0.2262221E+02  0.7546771E-02  0.1497297E+00
          2   -1    0    0  502    0  0.00000000000E+00  0.00000000000E+00  0.74639127062E+03  0.74639127062E+03  0.00000000000E+00 0. -1.
         -2   -1    0    0    0  501 -0.00000000000E+00 -0.00000000000E+00 -0.12532920635E+01  0.12532920635E+01  0.00000000000E+00 0.  1.
          1    1    1    2  502    0 -0.12094189482E+01 -0.22589861502E+02  0.62414870713E+03  0.62455854262E+03  0.00000000000E+00 0. -1.
         -1    1    1    2    0  501  0.12094189482E+01  0.22589861502E+02  0.12098927142E+03  0.12308602007E+03  0.00000000000E+00 0.  1.
</event>
<event>
 4    1  0.6934088E+001  0.2568640E+02  0.7546771E-02  0.1461269E+00
          2   -1    0    0  502    0  0.00000000000E+00  0.00000000000E+00  0.16995396664E+01  0.16995396664E+01  0.00000000000E+00 0.  1.
         -2   -1    0    0    0  501 -0.00000000000E+00 -0.00000000000E+00 -0.86698168865E+03  0.86698168865E+03  0.00000000000E+00 0. -1.
          1    1    1    2  502    0  0.22144802256E+02  0.13015330533E+02 -0.10987617984E+03  0.11283867241E+03  0.00000000000E+00 0.  1.
         -1    1    1    2    0  501 -0.22144802256E+02 -0.13015330533E+02 -0.75540596914E+03  0.75584255590E+03  0.00000000000E+00 0. -1.
</event>
<event>
 4    1  0.6934088E+001  0.2049007E+02  0.7546771E-02  0.1526671E+00
          2   -1    0    0  502    0  0.00000000000E+00  0.00000000000E+00  0.15087052622E+03  0.15087052622E+03  0.00000000000E+00 0.  1.
         -2   -1    0    0    0  501 -0.00000000000E+00 -0.00000000000E+00 -0.28007642869E+01  0.28007642869E+01  0.00000000000E+00 0. -1.
          1    1    1    2  502    0 -0.55476520265E+01 -0.19724764192E+02  0.67881579164E+02  0.70906639712E+02  0.00000000000E+00 0.  1.
         -1    1    1    2    0  501  0.55476520265E+01  0.19724764192E+02  0.80188182770E+02  0.82764650796E+02  0.00000000000E+00 0. -1.
</event>
<event>
 4    1  0.6934088E+001  0.2014830E+02  0.7546771E-02  0.1531781E+00
          2   -1    0    0  502    0  0.00000000000E+00  0.00000000000E+00  0.33954713797E+03  0.33954713797E+03  0.00000000000E+00 0.  1.
         -2   -1    0    0    0  501 -0.00000000000E+00 -0.00000000000E+00 -0.20453055949E+01  0.20453055949E+01  0.00000000000E+00 0. -1.
          1    1    1    2  502    0 -0.14052920733E+02  0.14438465104E+02  0.27883890680E+03  0.27956589528E+03  0.00000000000E+00 0.  1.
         -1    1    1    2    0  501  0.14052920733E+02 -0.14438465104E+02  0.58662925573E+02  0.62026548287E+02  0.00000000000E+00 0. -1.
</event>
<event>
 4    1  0.6934088E+001  0.2022767E+02  0.7546771E-02  0.1530583E+00
          2   -1    0    0  502    0  0.00000000000E+00  0.00000000000E+00  0.68872454222E+02  0.68872454222E+02  0.00000000000E+00 0.  1.
         -2   -1    0    0    0  501 -0.00000000000E+00 -0.00000000000E+00 -0.59974387226E+01  0.59974387226E+01  0.00000000000E+00 0. -1.
          1    1    1    2  502    0  0.15165715514E+02 -0.13385057387E+02  0.35074844742E+02  0.40489547070E+02  0.00000000000E+00 0.  1.
         -1    1    1    2    0  501 -0.15165715514E+02  0.13385057387E+02  0.27800170757E+02  0.34380345874E+02  0.00000000000E+00 0. -1.
</event>
<event>
 4    1  0.6934088E+001  0.2570673E+02  0.7546771E-02  0.1461050E+00
          2   -1    0    0  502    0  0.00000000000E+00  0.00000000000E+00  0.12160808250E+04  0.12160808250E+04  0.00000000000E+00 0. -1.
         -2   -1    0    0    0  501 -0.00000000000E+00 -0.00000000000E+00 -0.58608612486E+00  0.58608612486E+00  0.00000000000E+00 0.  1.
          1    1    1    2  502    0 -0.22697162778E+02 -0.12069584798E+02  0.44360146113E+03  0.44434569019E+03  0.00000000000E+00 0.  1.
         -1    1    1    2    0  501  0.22697162778E+02  0.12069584798E+02  0.77189327774E+03  0.77232122092E+03  0.00000000000E+00 0. -1.
</event>
<event>
 4    1  0.6934088E+001  0.2472446E+02  0.7546771E-02  0.1471910E+00
          2   -1    0    0  502    0  0.00000000000E+00  0.00000000000E+00  0.13033195828E+02  0.13033195828E+02  0.00000000000E+00 0.  1.
         -2   -1    0    0    0  501 -0.00000000000E+00 -0.00000000000E+00 -0.47023669632E+02  0.47023669632E+02  0.00000000000E+00 0. -1.
          1    1    1    2  502    0  0.97167768039E+01  0.22735061102E+02 -0.15475422742E+02  0.29168261241E+02  0.00000000000E+00 0.  1.
         -1    1    1    2    0  501 -0.97167768039E+01 -0.22735061102E+02 -0.18515051062E+02  0.30888604219E+02  0.00000000000E+00 0. -1.
</event>
<event>
 4    1  0.6934088E+001  0.4019860E+02  0.7546771E-02  0.1347326E+00
          2   -1    0    0  502    0  0.00000000000E+00  0.00000000000E+00  0.92988845713E+03  0.92988845713E+03  0.00000000000E+00 0.  1.
         -2   -1    0    0    0  501 -0.00000000000E+00 -0.00000000000E+00 -0.17599213144E+01  0.17599213144E+01  0.00000000000E+00 0. -1.
          1    1    1    2  502    0 -0.33722864323E+02  0.21879113314E+02  0.41179712300E+03  0.41375451380E+03  0.00000000000E+00 0. -1.
         -1    1    1    2    0  501  0.33722864323E+02 -0.21879113314E+02  0.51633141282E+03  0.51789386465E+03  0.00000000000E+00 0.  1.
</event>
<event>
 4    1  0.6934088E+001  0.2650074E+02  0.7546771E-02  0.1452689E+00
          2   -1    0    0  502    0  0.00000000000E+00  0.00000000000E+00  0.99209405716E+03  0.99209405716E+03  0.00000000000E+00 0. -1.
         -2   -1    0    0    0  501 -0.00000000000E+00 -0.00000000000E+00 -0.91098938170E+00  0.91098938170E+00  0.00000000000E+00 0.  1.
          1    1    1    2  502    0 -0.53850946351E+01 -0.25947836657E+02  0.73002704863E+03  0.73050789264E+03  0.00000000000E+00 0. -1.
         -1    1    1    2    0  501  0.53850946351E+01  0.25947836657E+02  0.26115601914E+03  0.26249715390E+03  0.00000000000E+00 0.  1.
</event>
<event>
 4    1  0.6934088E+001  0.4059946E+02  0.7546771E-02  0.1345008E+00
          2   -1    0    0  502    0  0.00000000000E+00  0.00000000000E+00  0.21844299725E+02  0.21844299725E+02  0.00000000000E+00 0. -1.
         -2   -1    0    0    0  501 -0.00000000000E+00 -0.00000000000E+00 -0.76686251678E+02  0.76686251678E+02  0.00000000000E+00 0.  1.
          1    1    1    2  502    0 -0.43225581849E+01  0.40368698239E+02 -0.33657085540E+02  0.52736284604E+02  0.00000000000E+00 0.  1.
         -1    1    1    2    0  501  0.43225581849E+01 -0.40368698239E+02 -0.21184866413E+02  0.45794266799E+02  0.00000000000E+00 0. -1.
</event>
<event>
 4    1  0.6934088E+001  0.2791372E+02  0.7546771E-02  0.1438639E+00
          2   -1    0    0  502    0  0.00000000000E+00  0.00000000000E+00  0.39086657289E+02  0.39086657289E+02  0.00000000000E+00 0.  1.
         -2   -1    0    0    0  501 -0.00000000000E+00 -0.00000000000E+00 -0.32290754635E+02  0.32290754635E+02  0.00000000000E+00 0. -1.
          1    1    1    2  502    0 -0.27913433491E+02  0.12613490187E+00 -0.18678736184E+02  0.33586766214E+02  0.00000000000E+00 0. -1.
         -1    1    1    2    0  501  0.27913433491E+02 -0.12613490187E+00  0.25474638838E+02  0.37790645710E+02  0.00000000000E+00 0.  1.
</event>
<event>
 4    1  0.6934088E+001  0.2147454E+02  0.7546771E-02  0.1512596E+00
          2   -1    0    0  502    0  0.00000000000E+00  0.00000000000E+00  0.86366355955E+01  0.86366355955E+01  0.00000000000E+00 0.  1.
         -2   -1    0    0    0  501 -0.00000000000E+00 -0.00000000000E+00 -0.56691200498E+02  0.56691200498E+02  0.00000000000E+00 0. -1.
          1    1    1    2  502    0  0.21405831107E+02 -0.17164857693E+01 -0.31903108619E+02  0.38457304486E+02  0.00000000000E+00 0. -1.
         -1    1    1    2    0  501 -0.21405831107E+02  0.17164857693E+01 -0.16151456283E+02  0.26870531607E+02  0.00000000000E+00 0.  1.
</event>
<event>
 4    1  0.6934088E+001  0.2379800E+02  0.7546771E-02  0.1482714E+00
          2   -1    0    0  502    0  0.00000000000E+00  0.00000000000E+00  0.31600101641E+01  0.31600101641E+01  0.00000000000E+00 0. -1.
         -2   -1    0    0    0  501 -0.00000000000E+00 -0.00000000000E+00 -0.27515145713E+03  0.27515145713E+03  0.00000000000E+00 0.  1.
          1    1    1    2  502    0  0.15640443760E+02 -0.17936589079E+02 -0.21816135751E+03  0.21945551399E+03  0.00000000000E+00 0.  1.
         -1    1    1    2    0  501 -0.15640443760E+02  0.17936589079E+02 -0.53830089453E+02  0.58855953304E+02  0.00000000000E+00 0. -1.
</event>
<event>
 4    1  0.6934088E+001  0.2355162E+02  0.7546771E-02  0.1485685E+00
          2   -1    0    0  502    0  0.00000000000E+00  0.00000000000E+00  0.30662000495E+03  0.30662000495E+03  0.00000000000E+00 0.  1.
         -2   -1    0    0    0  501 -0.00000000000E+00 -0.00000000000E+00 -0.32493839723E+01  0.32493839723E+01  0.00000000000E+00 0. -1.
          1    1    1    2  502    0 -0.19783648636E+02 -0.12778340725E+02  0.48531386944E+02  0.53944177293E+02  0.00000000000E+00 0. -1.
         -1    1    1    2    0  501  0.19783648636E+02  0.12778340725E+02  0.25483923403E+03  0.25592521163E+03  0.00000000000E+00 0.  1.
</event>
<event>
 4    1  0.6934088E+001  0.2718710E+02  0.7546771E-02  0.1445738E+00
          2   -1    0    0  502    0  0.00000000000E+00  0.00000000000E+00  0.94472685143E+03  0.94472685143E+03  0.00000000000E+00 0.  1.
         -2   -1    0    0    0  501 -0.00000000000E+00 -0.00000000000E+00 -0.78548604184E+00  0.78548604184E+00  0.00000000000E+00 0. -1.
          1    1    1    2  502    0  0.22444391825E+02 -0.15342346374E+02  0.50168427991E+03  0.50242039670E+03  0.00000000000E+00 0.  1.
         -1    1    1    2    0  501 -0.22444391825E+02  0.15342346374E+02  0.44225708548E+03  0.44309194077E+03  0.00000000000E+00 0. -1.
</event>
<event>
 4    1  0.6934088E+001  0.2619366E+02  0.7546771E-02  0.1455881E+00
          2   -1    0    0  502    0  0.00000000000E+00  0.00000000000E+00  0.39704148394E+02  0.39704148394E+02  0.00000000000E+00 0.  1.
         -2   -1    0    0    0  501 -0.00000000000E+00 -0.00000000000E+00 -0.32520954699E+02  0.32520954699E+02  0.00000000000E+00 0. -1.
          1    1    1    2  502    0 -0.25741514026E+02  0.48458358472E+01 -0.21129938874E+02  0.33653855444E+02  0.00000000000E+00 0. -1.
         -1    1    1    2    0  501  0.25741514026E+02 -0.48458358472E+01  0.28313132568E+02  0.38571247650E+02  0.00000000000E+00 0.  1.
</event>
<event>
 4    1  0.6934088E+001  0.4355964E+02  0.7546771E-02  0.1328801E+00
          2   -1    0    0  502    0  0.00000000000E+00  0.00000000000E+00  0.15757401113E+02  0.15757401113E+02  0.00000000000E+00 0. -1.
         -2   -1    0    0    0  501 -0.00000000000E+00 -0.00000000000E+00 -0.14522181285E+03  0.14522181285E+03  0.00000000000E+00 0.  1.
          1    1    1    2  502    0  0.43545583695E+02 -0.11064500899E+01 -0.31466156007E+02  0.53736031348E+02  0.00000000000E+00 0. -1.
         -1    1    1    2    0  501 -0.43545583695E+02  0.11064500899E+01 -0.97998255729E+02  0.10724318261E+03  0.00000000000E+00 0.  1.
</event>
<event>
 4    1  0.6934088E+001  0.2290467E+02  0.7546771E-02  0.1493699E+00
          2   -1    0    0  502    0  0.00000000000E+00  0.00000000000E+00  0.12895291145E+03  0.12895291145E+03  0.00000000000E+00 0.  1.
         -2   -1    0    0    0  501 -0.00000000000E+00 -0.00000000000E+00 -0.41227966972E+01  0.41227966972E+01  0.00000000000E+00 0. -1.
          1    1    1    2  502    0  0.20649426009E+02  0.99108616157E+01  0.54767755588E+02  0.59364391891E+02  0.00000000000E+00 0. -1.
         -1    1    1    2    0  501 -0.20649426009E+02 -0.99108616157E+01  0.70062359168E+02  0.73711316259E+02  0.00000000000E+00 0.  1.
</event>
<event>
 4    1  0.6934088E+001  0.2191057E+02  0.7546771E-02  0.1506651E+00
          2   -1    0    0  502    0  0.00000000000E+00  0.00000000000E+00  0.79134123647E+02  0.79134123647E+02  0.00000000000E+00 0. -1.
         -2   -1    0    0    0  501 -0.00000000000E+00 -0.00000000000E+00 -0.74346502791E+01  0.74346502791E+01  0.00000000000E+00 0.  1.
          1    1    1    2  502    0  0.26823342764E+01  0.21745766302E+02  0.17282141913E+02  0.27906015451E+02  0.00000000000E+00 0.  1.
         -1    1    1    2    0  501 -0.26823342764E+01 -0.21745766302E+02  0.54417331454E+02  0.58662758475E+02  0.00000000000E+00 0. -1.
</event>
<event>
 4    1  0.6934088E+001  0.3015067E+02  0.7546771E-02  0.1418292E+00
          2   -1    0    0  502    0  0.00000000000E+00  0.00000000000E+00  0.12031895263E+04  0.12031895263E+04  0.00000000000E+00 0. -1.
         -2   -1    0    0    0  501 -0.00000000000E+00 -0.00000000000E+00 -0.10781797684E+01  0.10781797684E+01  0.00000000000E+00 0.  1.
          1    1    1    2  502    0 -0.15488913259E+02  0.25868060194E+02  0.93044044682E+03  0.93092883082E+03  0.00000000000E+00 0. -1.
         -1    1    1    2    0  501  0.15488913259E+02 -0.25868060194E+02  0.27167089969E+03  0.27333887522E+03  0.00000000000E+00 0.  1.
</event>
<event>
 4    1  0.6934088E+001  0.3358319E+02  0.7546771E-02  0.1390807E+00
          2   -1    0    0  502    0  0.00000000000E+00  0.00000000000E+00  0.10198746961E+02  0.10198746961E+02  0.00000000000E+00 0.  1.
         -2   -1    0    0    0  501 -0.00000000000E+00 -0.00000000000E+00 -0.27230783051E+03  0.27230783051E+03  0.00000000000E+00 0. -1.
          1    1    1    2  502    0  0.28762907329E+02 -0.17335681340E+02 -0.23991091814E+03  0.24225003473E+03  0.00000000000E+00 0. -1.
         -1    1    1    2    0  501 -0.28762907329E+02  0.17335681340E+02 -0.22198165406E+02  0.40256542735E+02  0.00000000000E+00 0.  1.
</event>
<event>
 4    1  0.6934088E+001  0.2769440E+02  0.7546771E-02  0.1440755E+00
          2   -1    0    0  502    0  0.00000000000E+00  0.00000000000E+00  0.93412015823E+03  0.93412015823E+03  0.00000000000E+00 0. -1.
         -2   -1    0    0    0  501 -0.00000000000E+00 -0.00000000000E+00 -0.82378411709E+00  0.82378411709E+00  0.00000000000E+00 0.  1.
          1    1    1    2  502    0  0.11748382906E+02  0.25078975839E+02  0.43982345731E+03  0.44069451225E+03  0.00000000000E+00 0.  1.
         -1    1    1    2    0  501 -0.11748382906E+02 -0.25078975839E+02  0.49347291680E+03  0.49424943009E+03  0.00000000000E+00 0. -1.
</event>
<event>
 4    1  0.6934088E+001  0.2290297E+02  0.7546771E-02  0.1493720E+00
          2   -1    0    0  502    0  0.00000000000E+00  0.00000000000E+00  0.51401248258E+03  0.51401248258E+03  0.00000000000E+00 0.  1.
         -2   -1    0    0    0  501 -0.00000000000E+00 -0.00000000000E+00 -0.11310352754E+01  0.11310352754E+01  0.00000000000E+00 0. -1.
          1    1    1    2  502    0 -0.18738019413E+02 -0.13169376263E+02  0.33696475445E+03  0.33774219692E+03  0.00000000000E+00 0.  1.
         -1    1    1    2    0  501  0.18738019413E+02  0.13169376263E+02  0.17591669286E+03  0.17740132093E+03  0.00000000000E+00 0. -1.
</event>
<event>
 4    1  0.6934088E+001  0.2422925E+02  0.7546771E-02  0.1477613E+00
          2   -1    0    0  502    0  0.00000000000E+00  0.00000000000E+00  0.10046018788E+01  0.10046018788E+01  0.00000000000E+00 0. -1.
         -2   -1    0    0    0  501 -0.00000000000E+00 -0.00000000000E+00 -0.68443351988E+03  0.68443351988E+03  0.00000000000E+00 0.  1.
          1    1    1    2  502    0 -0.24076977265E+02  0.27121815172E+01 -0.21067087087E+03  0.21205959680E+03  0.00000000000E+00 0. -1.
         -1    1    1    2    0  501  0.24076977265E+02 -0.27121815172E+01 -0.47275804713E+03  0.47337852495E+03  0.00000000000E+00 0.  1.
</event>
<event>
 4    1  0.6934088E+001  0.3570808E+02  0.7546771E-02  0.1375652E+00
          2   -1    0    0  502    0  0.00000000000E+00  0.00000000000E+00  0.12927229917E+02  0.12927229917E+02  0.00000000000E+00 0.  1.
         -2   -1    0    0    0  501 -0.00000000000E+00 -0.00000000000E+00 -0.10876986871E+03  0.10876986871E+03  0.00000000000E+00 0. -1.
          1    1    1    2  502    0 -0.73253553018E+00  0.35700562361E+02 -0.29346590051E+02  0.46220007668E+02  0.00000000000E+00 0. -1.
         -1    1    1    2    0  501  0.73253553018E+00 -0.35700562361E+02 -0.66496048742E+02  0.75477090958E+02  0.00000000000E+00 0.  1.
</event>
<event>
 4    1  0.6934088E+001  0.2020721E+02  0.7546771E-02  0.1530891E+00
          2   -1    0    0  502    0  0.00000000000E+00  0.00000000000E+00  0.16767242413E+04  0.16767242413E+04  0.00000000000E+00 0. -1.
         -2   -1    0    0    0  501 -0.00000000000E+00 -0.00000000000E+00 -0.41037886220E+00  0.41037886220E+00  0.00000000000E+00 0.  1.
          1    1    1    2  502    0  0.12078130315E+02  0.16200313268E+02  0.30345955966E+03  0.30413160922E+03  0.00000000000E+00 0.  1.
         -1    1    1    2    0  501 -0.12078130315E+02 -0.16200313268E+02  0.13728543028E+04  0.13730030110E+04  0.00000000000E+00 0. -1.
</event>
<event>
 4    1  0.6934088E+001  0.2996769E+02  0.7546771E-02  0.1419878E+00
          2   -1    0    0  502    0  0.00000000000E+00  0.00000000000E+00  0.58127265550E+02  0.58127265550E+02  0.00000000000E+00 0.  1.
         -2   -1    0    0    0  501 -0.00000000000E+00 -0.00000000000E+00 -0.21930209169E+02  0.21930209169E+02  0.00000000000E+00 0. -1.
          1    1    1    2  502    0  0.23479678416E+02  0.18621680626E+02 -0.36608911603E+01  0.30190468893E+02  0.00000000000E+00 0.  1.
         -1    1    1    2    0  501 -0.23479678416E+02 -0.18621680626E+02  0.39857947542E+02  0.49867005826E+02  0.00000000000E+00 0. -1.
</event>
<event>
 4    1  0.6934088E+001  0.2030566E+02  0.7546771E-02  0.1529413E+00
          2   -1    0    0  502    0  0.00000000000E+00  0.00000000000E+00  0.57856451866E+02  0.57856451866E+02  0.00000000000E+00 0.  1.
         -2   -1    0    0    0  501 -0.00000000000E+00 -0.00000000000E+00 -0.72693207548E+01  0.72693207548E+01  0.00000000000E+00 0. -1.
          1    1    1    2  502    0  0.14296408841E+02 -0.14419858858E+02  0.29856283366E+02  0.36107025517E+02  0.00000000000E+00 0.  1.
         -1    1    1    2    0  501 -0.14296408841E+02  0.14419858858E+02  0.20730847746E+02  0.29018747104E+02  0.00000000000E+00 0. -1.
</event>
<event>
 4    1  0.6934088E+001  0.2793446E+02  0.7546771E-02  0.1438441E+00
          2   -1    0    0  502    0  0.00000000000E+00  0.00000000000E+00  0.27127644441E+03  0.27127644441E+03  0.00000000000E+00 0.  1.
         -2   -1    0    0    0  501 -0.00000000000E+00 -0.00000000000E+00 -0.57092549208E+01  0.57092549208E+01  0.00000000000E+00 0. -1.
          1    1    1    2  502    0 -0.21003233610E+02 -0.18417332926E+02  0.35230718705E+02  0.44961511481E+02  0.00000000000E+00 0. -1.
         -1    1    1    2    0  501  0.21003233610E+02  0.18417332926E+02  0.23033647078E+03  0.23202418785E+03  0.00000000000E+00 0.  1.
</event>
<event>
 4    1  0.6934088E+001  0.2139644E+02  0.7546771E-02  0.1513679E+00
          2   -1    0    0  502    0  0.00000000000E+00  0.00000000000E+00  0.51052853704E+02  0.51052853704E+02  0.00000000000E+00 0. -1.
         -2   -1    0    0    0  501 -0.00000000000E+00 -0.00000000000E+00 -0.95392679456E+01  0.95392679456E+01  0.00000000000E+00 0.  1.
          1    1    1    2  502    0 -0.18973051410E+02 -0.98909551673E+01  0.13338500714E+02  0.25213553403E+02  0.00000000000E+00 0. -1.
         -1    1    1    2    0  501  0.18973051410E+02  0.98909551673E+01  0.28175085045E+02  0.35378568247E+02  0.00000000000E+00 0.  1.
</event>
<event>
 4    1  0.6934088E+001  0.3180249E+02  0.7546771E-02  0.1404554E+00
          2   -1    0    0  502    0  0.00000000000E+00  0.00000000000E+00  0.15627730608E+04  0.15627730608E+04  0.00000000000E+00 0. -1.
         -2   -1    0    0    0  501 -0.00000000000E+00 -0.00000000000E+00 -0.14566593545E+01  0.14566593545E+01  0.00000000000E+00 0.  1.
          1    1    1    2  502    0 -0.16648469585E+02  0.27096614958E+02  0.19762407358E+03  0.20016661195E+03  0.00000000000E+00 0.  1.
         -1    1    1    2    0  501  0.16648469585E+02 -0.27096614958E+02  0.13636923279E+04  0.13640631082E+04  0.00000000000E+00 0. -1.
</event>
<event>
 4    1  0.6934088E+001  0.2028570E+02  0.7546771E-02  0.1529712E+00
          2   -1    0    0  502    0  0.00000000000E+00  0.00000000000E+00  0.67750549360E+02  0.67750549360E+02  0.00000000000E+00 0.  1.
         -2   -1    0    0    0  501 -0.00000000000E+00 -0.00000000000E+00 -0.73990100793E+01  0.73990100793E+01  0.00000000000E+00 0. -1.
          1    1    1    2  502    0 -0.21483487009E+01 -0.20171622847E+02  0.46077204599E+02  0.50344995323E+02  0.00000000000E+00 0.  1.
         -1    1    1    2    0  501  0.21483487009E+01  0.20171622847E+02  0.14274334682E+02  0.24804564117E+02  0.00000000000E+00 0. -1.
</event>
<event>
 4    1  0.6934088E+001  0.6068077E+02  0.7546771E-02  0.1257537E+00
          2   -1    0    0  502    0  0.00000000000E+00  0.00000000000E+00  0.13063616638E+03  0.13063616638E+03  0.00000000000E+00 0. -1.
         -2   -1    0    0    0  501 -0.00000000000E+00 -0.00000000000E+00 -0.28553712661E+02  0.28553712661E+02  0.00000000000E+00 0.  1.
          1    1    1    2  502    0  0.58931116944E+02  0.14466483039E+02  0.60069534349E+02  0.85384451937E+02  0.00000000000E+00 0.  1.
         -1    1    1    2    0  501 -0.58931116944E+02 -0.14466483039E+02  0.42012919369E+02  0.73805427101E+02  0.00000000000E+00 0. -1.
</event>
<event>
 4    1  0.6934088E+001  0.2788038E+02  0.7546771E-02  0.1438959E+00
          2   -1    0    0  502    0  0.00000000000E+00  0.00000000000E+00  0.73556527296E+01  0.73556527296E+01  0.00000000000E+00 0.  1.
         -2   -1    0    0    0  501 -0.00000000000E+00 -0.00000000000E+00 -0.10759074953E+03  0.10759074953E+03  0.00000000000E+00 0. -1.
          1    1    1    2  502    0  0.20124668237E+02  0.19295428702E+02 -0.57784729414E+02  0.64159105308E+02  0.00000000000E+00 0.  1.
         -1    1    1    2    0  501 -0.20124668237E+02 -0.19295428702E+02 -0.42450367386E+02  0.50787296952E+02  0.00000000000E+00 0. -1.
</event>
<event>
 4    1  0.6934088E+001  0.2271124E+02  0.7546771E-02  0.1496156E+00
          2   -1    0    0  502    0  0.00000000000E+00  0.00000000000E+00  0.23751369004E+02  0.23751369004E+02  0.00000000000E+00 0. -1.
         -2   -1    0    0    0  501 -0.00000000000E+00 -0.00000000000E+00 -0.67463842694E+02  0.67463842694E+02  0.00000000000E+00 0.  1.
          1    1    1    2  502    0  0.30640697200E+00  0.22709168772E+02  0.15700162545E+02  0.27609696403E+02  0.00000000000E+00 0. -1.
         -1    1    1    2    0  501 -0.30640697200E+00 -0.22709168772E+02 -0.59412636235E+02  0.63605515295E+02  0.00000000000E+00 0.  1.
</event>
<event>
 4    1  0.6934088E+001  0.2623712E+02  0.7546771E-02  0.1455426E+00
          2   -1    0    0  502    0  0.00000000000E+00  0.00000000000E+00  0.25452142917E+03  0.25452142917E+03  0.00000000000E+00 0.  1.
         -2   -1    0    0    0  501 -0.00000000000E+00 -0.00000000000E+00 -0.29679499405E+01  0.29679499405E+01  0.00000000000E+00 0. -1.
          1    1    1    2  502    0  0.10540648595E+02 -0.24026681827E+02  0.87428842480E+02  0.91280826080E+02  0.00000000000E+00 0. -1.
         -1    1    1    2    0  501 -0.10540648595E+02  0.24026681827E+02  0.16412463675E+03  0.16620855303E+03  0.00000000000E+00 0.  1.
</event>
<event>
 4    1  0.6934088E+001  0.2420283E+02  0.7546771E-02  0.1477922E+00
          2   -1    0    0  502    0  0.00000000000E+00  0.00000000000E+00  0.16366179877E+01  0.16366179877E+01  0.00000000000E+00 0. -1.
         -2   -1    0    0    0  501 -0.00000000000E+00 -0.00000000000E+00 -0.54395482830E+03  0.54395482830E+03  0.00000000000E+00 0.  1.
          1    1    1    2  502    0 -0.56834937545E+01 -0.23526042887E+02 -0.11162470322E+03  0.11421843618E+03  0.00000000000E+00 0. -1.
         -1    1    1    2    0  501  0.56834937545E+01  0.23526042887E+02 -0.43069350710E+03  0.43137301011E+03  0.00000000000E+00 0.  1.
</event>
<event>
 4    1  0.6934088E+001  0.3531733E+02  0.7546771E-02  0.1378346E+00
          2   -1    0    0  502    0  0.00000000000E+00  0.00000000000E+00  0.21118754459E+01  0.21118754459E+01  0.00000000000E+00 0. -1.
         -2   -1    0    0    0  501 -0.00000000000E+00 -0.00000000000E+00 -0.59816535724E+03  0.59816535724E+03  0.00000000000E+00 0.  1.
          1    1    1    2  502    0  0.34277500557E+02  0.85068736726E+01 -0.33173819405E+03  0.33361286446E+03  0.00000000000E+00 0.  1.
         -1    1    1    2    0  501 -0.34277500557E+02 -0.85068736726E+01 -0.26431528775E+03  0.26666436823E+03  0.00000000000E+00 0. -1.
</event>
<event>
 4    1  0.6934088E+001  0.6216247E+02  0.7546771E-02  0.1252657E+00
          2   -1    0    0  502    0  0.00000000000E+00  0.00000000000E+00  0.15233299327E+03  0.15233299327E+03  0.00000000000E+00 0.  1.
         -2   -1    0    0    0  501 -0.00000000000E+00 -0.00000000000E+00 -0.25410782670E+02  0.25410782670E+02  0.00000000000E+00 0. -1.
          1    1    1    2  502    0 -0.61884434040E+02  0.58727786229E+01  0.59756025860E+02  0.86226187042E+02  0.00000000000E+00 0.  1.
         -1    1    1    2    0  501  0.61884434040E+02 -0.58727786229E+01  0.67166184739E+02  0.91517588897E+02  0.00000000000E+00 0. -1.
</event>
<event>
 4    1  0.6934088E+001  0.2116070E+02  0.7546771E-02  0.1516983E+00
          2   -1    0    0  502    0  0.00000000000E+00  0.00000000000E+00  0.10490466379E+04  0.10490466379E+04  0.00000000000E+00 0. -1.
         -2   -1    0    0    0  501 -0.00000000000E+00 -0.00000000000E+00 -0.47329341842E+00  0.47329341842E+00  0.00000000000E+00 0.  1.
          1    1    1    2  502    0  0.16209592240E+02  0.13602359329E+02  0.68868762607E+03  0.68901264239E+03  0.00000000000E+00 0. -1.
         -1    1    1    2    0  501 -0.16209592240E+02 -0.13602359329E+02  0.35988571845E+03  0.36050728898E+03  0.00000000000E+00 0.  1.
</event>
<event>
 4    1  0.6934088E+001  0.2884482E+02  0.7546771E-02  0.1429908E+00
          2   -1    0    0  502    0  0.00000000000E+00  0.00000000000E+00  0.94569732995E+03  0.94569732995E+03  0.00000000000E+00 0.  1.
         -2   -1    0    0    0  501 -0.00000000000E+00 -0.00000000000E+00 -0.94343762543E+00  0.94343762543E+00  0.00000000000E+00 0. -1.
          1    1    1    2  502    0  0.55470834596E+01  0.28306425779E+02  0.34944694433E+03  0.35063541004E+03  0.00000000000E+00 0. -1.
         -1    1    1    2    0  501 -0.55470834596E+01 -0.28306425779E+02  0.59530694800E+03  0.59600535754E+03  0.00000000000E+00 0.  1.
</event>
<event>
 4    1  0.6934088E+001  0.2104987E+02  0.7546771E-02  0.1518554E+00
          2   -1    0    0  502    0  0.00000000000E+00  0.00000000000E+00  0.42750594746E+03  0.42750594746E+03  0.00000000000E+00 0. -1.
         -2   -1    0    0    0  501 -0.00000000000E+00 -0.00000000000E+00 -0.11934644340E+01  0.11934644340E+01  0.00000000000E+00 0.  1.
          1    1    1    2  502    0  0.19971020209E+02 -0.66524686539E+01  0.13541336439E+03  0.13703968857E+03  0.00000000000E+00 0. -1.
         -1    1    1    2    0  501 -0.19971020209E+02  0.66524686539E+01  0.29089911863E+03  0.29165972332E+03  0.00000000000E+00 0.  1.
</event>
<event>
 4    1  0.6934088E+001  0.2571422E+02  0.7546771E-02  0.1460970E+00
          2   -1    0    0  502    0  0.00000000000E+00  0.00000000000E+00  0.31469909479E+02  0.31469909479E+02  0.00000000000E+00 0. -1.
         -2   -1    0    0    0  501 -0.00000000000E+00 -0.00000000000E+00 -0.21032727505E+02  0.21032727505E+02  0.00000000000E+00 0.  1.
          1    1    1    2  502    0 -0.26977681680E+01 -0.25572313336E+02  0.60580657565E+01  0.26418200604E+02  0.00000000000E+00 0. -1.
         -1    1    1    2    0  501  0.26977681680E+01  0.25572313336E+02  0.43791162172E+01  0.26084436380E+02  0.00000000000E+00 0.  1.
</event>
<event>
 4    1  0.6934088E+001  0.2773168E+02  0.7546771E-02  0.1440393E+00
          2   -1    0    0  502    0  0.00000000000E+00  0.00000000000E+00  0.13358838755E+04  0.13358838755E+04  0.00000000000E+00 0.  1.
         -2   -1    0    0    0  501 -0.00000000000E+00 -0.00000000000E+00 -0.75204424177E+00  0.75204424177E+00  0.00000000000E+00 0. -1.
          1    1    1    2  502    0 -0.25793949799E+02  0.10184222771E+02  0.99120611177E+03  0.99159397046E+03  0.00000000000E+00 0.  1.
         -1    1    1    2    0  501  0.25793949799E+02 -0.10184222771E+02  0.34392571951E+03  0.34504194930E+03  0.00000000000E+00 0. -1.
</event>
<event>
 4    1  0.6934088E+001  0.2996743E+02  0.7546771E-02  0.1419880E+00
          2   -1    0    0  502    0  0.00000000000E+00  0.00000000000E+00  0.43530476052E+02  0.43530476052E+02  0.00000000000E+00 0. -1.
         -2   -1    0    0    0  501 -0.00000000000E+00 -0.00000000000E+00 -0.20639995850E+02  0.20639995850E+02  0.00000000000E+00 0.  1.
          1    1    1    2  502    0  0.29963968719E+02  0.45572189053E+00  0.12140387299E+02  0.32333204413E+02  0.00000000000E+00 0. -1.
         -1    1    1    2    0  501 -0.29963968719E+02 -0.45572189053E+00  0.10750092902E+02  0.31837267490E+02  0.00000000000E+00 0.  1.
</event>
<event>
 4    1  0.6934088E+001  0.2117544E+02  0.7546771E-02  0.1516775E+00
          2   -1    0    0  502    0  0.00000000000E+00  0.00000000000E+00  0.33246574243E+03  0.33246574243E+03  0.00000000000E+00 0. -1.
         -2   -1    0    0    0  501 -0.00000000000E+00 -0.00000000000E+00 -0.21253339453E+01  0.21253339453E+01  0.00000000000E+00 0.  1.
          1    1    1    2  502    0 -0.13994463926E+02  0.15891961440E+02  0.26629938855E+03  0.26713997043E+03  0.00000000000E+00 0.  1.
         -1    1    1    2    0  501  0.13994463926E+02 -0.15891961440E+02  0.64041019930E+02  0.67451105941E+02  0.00000000000E+00 0. -1.
</event>
<event>
 4    1  0.6934088E+001  0.3298797E+02  0.7546771E-02  0.1395288E+00
          2   -1    0    0  502    0  0.00000000000E+00  0.00000000000E+00  0.90281447339E+03  0.90281447339E+03  0.00000000000E+00 0. -1.
         -2   -1    0    0    0  501 -0.00000000000E+00 -0.00000000000E+00 -0.13139545559E+01  0.13139545559E+01  0.00000000000E+00 0.  1.
          1    1    1    2  502    0 -0.52658732922E+01 -0.32564960748E+02  0.32078210972E+03  0.32247382530E+03  0.00000000000E+00 0.  1.
         -1    1    1    2    0  501  0.52658732922E+01  0.32564960748E+02  0.58071840912E+03  0.58165460265E+03  0.00000000000E+00 0. -1.
</event>
<event>
 4    1  0.6934088E+001  0.2966052E+02  0.7546771E-02  0.1422570E+00
          2   -1    0    0  502    0  0.00000000000E+00  0.00000000000E+00  0.21230102803E+04  0.21230102803E+04  0.00000000000E+00 0. -1.
         -2   -1    0    0    0  501 -0.00000000000E+00 -0.00000000000E+00 -0.41695629987E+00  0.41695629987E+00  0.00000000000E+00 0.  1.
          1    1    1    2  502    0  0.29339946768E+02  0.43489900405E+01  0.11446524955E+04  0.11450367163E+04  0.00000000000E+00 0. -1.
         -1    1    1    2    0  501 -0.29339946768E+02 -0.43489900405E+01  0.97794082855E+03  0.97839052036E+03  0.00000000000E+00 0.  1.
</event>
<event>
 4    1  0.6934088E+001  0.3155782E+02  0.7546771E-02  0.1406525E+00
          2   -1    0    0  502    0  0.00000000000E+00  0.00000000000E+00  0.37963376007E+03  0.37963376007E+03  0.00000000000E+00 0.  1.
         -2   -1    0    0    0  501 -0.00000000000E+00 -0.00000000000E+00 -0.29477601881E+01  0.29477601881E+01  0.00000000000E+00 0. -1.
          1    1    1    2  502    0 -0.21162350447E+02  0.23410481138E+02  0.12487946071E+03  0.12880518395E+03  0.00000000000E+00 0. -1.
         -1    1    1    2    0  501  0.21162350447E+02 -0.23410481138E+02  0.25180653917E+03  0.25377633632E+03  0.00000000000E+00 0.  1.
</event>
<event>
 4    1  0.6934088E+001  0.5485208E+02  0.7546771E-02  0.1278403E+00
          2   -1    0    0  502    0  0.00000000000E+00  0.00000000000E+00  0.37118691261E+02  0.37118691261E+02  0.00000000000E+00 0.  1.
         -2   -1    0    0    0  501 -0.00000000000E+00 -0.00000000000E+00 -0.81706094782E+02  0.81706094782E+02  0.00000000000E+00 0. -1.
          1    1    1    2  502    0 -0.51867142115E+02  0.17847990189E+02 -0.17000594764E+02  0.57426225780E+02  0.00000000000E+00 0.  1.
         -1    1    1    2    0  501  0.51867142115E+02 -0.17847990189E+02 -0.27586808757E+02  0.61398560263E+02  0.00000000000E+00 0. -1.
</event>
<event>
 4    1  0.6934088E+001  0.2003288E+02  0.7546771E-02  0.1533534E+00
          2   -1    0    0  502    0  0.00000000000E+00  0.00000000000E+00  0.11945164502E+04  0.11945164502E+04  0.00000000000E+00 0.  1.
         -2   -1    0    0    0  501 -0.00000000000E+00 -0.00000000000E+00 -0.69209552150E+00  0.69209552150E+00  0.00000000000E+00 0. -1.
          1    1    1    2  502    0  0.19300193393E+01 -0.19939693309E+02  0.16823046829E+03  0.16941902728E+03  0.00000000000E+00 0. -1.
         -1    1    1    2    0  501 -0.19300193393E+01  0.19939693309E+02  0.10255938864E+04  0.10257895184E+04  0.00000000000E+00 0.  1.
</event>
<event>
 4    1  0.6934088E+001  0.3941568E+02  0.7546771E-02  0.1351944E+00
          2   -1    0    0  502    0  0.00000000000E+00  0.00000000000E+00  0.12333627051E+03  0.12333627051E+03  0.00000000000E+00 0. -1.
         -2   -1    0    0    0  501 -0.00000000000E+00 -0.00000000000E+00 -0.43933233684E+02  0.43933233684E+02  0.00000000000E+00 0.  1.
          1    1    1    2  502    0  0.37283549827E+02  0.12788002427E+02 -0.30933094757E+02  0.50104415424E+02  0.00000000000E+00 0.  1.
         -1    1    1    2    0  501 -0.37283549827E+02 -0.12788002427E+02  0.11033613159E+03  0.11716508877E+03  0.00000000000E+00 0. -1.
</event>
<event>
 4    1  0.6934088E+001  0.2125809E+02  0.7546771E-02  0.1515612E+00
          2   -1    0    0  502    0  0.00000000000E+00  0.00000000000E+00  0.19617577227E+03  0.19617577227E+03  0.00000000000E+00 0.  1.
         -2   -1    0    0    0  501 -0.00000000000E+00 -0.00000000000E+00 -0.23209519644E+01  0.23209519644E+01  0.00000000000E+00 0. -1.
          1    1    1    2  502    0 -0.90961149141E+01  0.19213723736E+02  0.88340813673E+02  0.90862565707E+02  0.00000000000E+00 0. -1.
         -1    1    1    2    0  501  0.90961149141E+01 -0.19213723736E+02  0.10551400663E+03  0.10763415853E+03  0.00000000000E+00 0.  1.
</event>
<event>
 4    1  0.6934088E+001  0.3754211E+02  0.7546771E-02  0.1363524E+00
          2   -1    0    0  502    0  0.00000000000E+00  0.00000000000E+00  0.18956013062E+03  0.18956013062E+03  0.00000000000E+00 0. -1.
         -2   -1    0    0    0  501 -0.00000000000E+00 -0.00000000000E+00 -0.76063132669E+01  0.76063132669E+01  0.00000000000E+00 0.  1.
          1    1    1    2  502    0 -0.21985775204E+02  0.30430829250E+02  0.76188890450E+02  0.84936191981E+02  0.00000000000E+00 0.  1.
         -1    1    1    2    0  501  0.21985775204E+02 -0.30430829250E+02  0.10576492691E+03  0.11223025191E+03  0.00000000000E+00 0. -1.
</event>
<event>
 4    1  0.6934088E+001  0.7300311E+02  0.7546771E-02  0.1221095E+00
          2   -1    0    0  502    0  0.00000000000E+00  0.00000000000E+00  0.31747541106E+03  0.31747541106E+03  0.00000000000E+00 0.  1.
         -2   -1    0    0    0  501 -0.00000000000E+00 -0.00000000000E+00 -0.17089994107E+02  0.17089994107E+02  0.00000000000E+00 0. -1.
          1    1    1    2  502    0  0.72710640703E+02 -0.65281193863E+01  0.17246736245E+03  0.18728172555E+03  0.00000000000E+00 0. -1.
         -1    1    1    2    0  501 -0.72710640703E+02  0.65281193863E+01  0.12791805450E+03  0.14728367961E+03  0.00000000000E+00 0.  1.
</event>
<event>
 4    1  0.6934088E+001  0.3245736E+02  0.7546771E-02  0.1399378E+00
          2   -1    0    0  502    0  0.00000000000E+00  0.00000000000E+00  0.85555310198E+01  0.85555310198E+01  0.00000000000E+00 0. -1.
         -2   -1    0    0    0  501 -0.00000000000E+00 -0.00000000000E+00 -0.12338357051E+03  0.12338357051E+03  0.00000000000E+00 0.  1.
          1    1    1    2  502    0  0.92113328917E+01 -0.31122848720E+02 -0.54449569933E+02  0.63389557751E+02  0.00000000000E+00 0. -1.
         -1    1    1    2    0  501 -0.92113328917E+01  0.31122848720E+02 -0.60378469557E+02  0.68549543778E+02  0.00000000000E+00 0.  1.
</event>
<event>
 4    1  0.6934088E+001  0.2081835E+02  0.7546771E-02  0.1521874E+00
          2   -1    0    0  502    0  0.00000000000E+00  0.00000000000E+00  0.15533562158E+04  0.15533562158E+04  0.00000000000E+00 0. -1.
         -2   -1    0    0    0  501 -0.00000000000E+00 -0.00000000000E+00 -0.28383780170E+00  0.28383780170E+00  0.00000000000E+00 0.  1.
          1    1    1    2  502    0 -0.79500246423E+01 -0.19240604563E+02  0.67523681045E+03  0.67555766145E+03  0.00000000000E+00 0.  1.
         -1    1    1    2    0  501  0.79500246423E+01  0.19240604563E+02  0.87783556755E+03  0.87808239216E+03  0.00000000000E+00 0. -1.
</event>
<event>
 4    1  0.6934088E+001  0.2577812E+02  0.7546771E-02  0.1460284E+00
          2   -1    0    0  502    0  0.00000000000E+00  0.00000000000E+00  0.76029694476E+01  0.76029694476E+01  0.00000000000E+00 0. -1.
         -2   -1    0    0    0  501 -0.00000000000E+00 -0.00000000000E+00 -0.90960109185E+02  0.90960109185E+02  0.00000000000E+00 0.  1.
          1    1    1    2  502    0  0.19182880643E+01  0.25706650130E+02 -0.51426061240E+02  0.57525224595E+02  0.00000000000E+00 0.  1.
         -1    1    1    2    0  501 -0.19182880643E+01 -0.25706650130E+02 -0.31931078497E+02  0.41037854038E+02  0.00000000000E+00 0. -1.
</event>
<event>
 4    1  0.6934088E+001  0.2440284E+02  0.7546771E-02  0.1475596E+00
          2   -1    0    0  502    0  0.00000000000E+00  0.00000000000E+00  0.46678771294E+03  0.46678771294E+03  0.00000000000E+00 0.  1.
         -2   -1    0    0    0  501 -0.00000000000E+00 -0.00000000000E+00 -0.16705645343E+01  0.16705645343E+01  0.00000000000E+00 0. -1.
          1    1    1    2  502    0 -0.15691335235E+02 -0.18689044689E+02  0.11868761841E+03  0.12117033117E+03  0.00000000000E+00 0. -1.
         -1    1    1    2    0  501  0.15691335235E+02  0.18689044689E+02  0.34642952999E+03  0.34728794630E+03  0.00000000000E+00 0.  1.
</event>
<event>
 4    1  0.6934088E+001  0.2441939E+02  0.7546771E-02  0.1475405E+00
          2   -1    0    0  502    0  0.00000000000E+00  0.00000000000E+00  0.46188472102E+03  0.46188472102E+03  0.00000000000E+00 0. -1.
         -2   -1    0    0    0  501 -0.00000000000E+00 -0.00000000000E+00 -0.15506618771E+01  0.15506618771E+01  0.00000000000E+00 0.  1.
          1    1    1    2  502    0  0.67980748523E+01 -0.23454052434E+02  0.13535121228E+03  0.13753638451E+03  0.00000000000E+00 0.  1.
         -1    1    1    2    0  501 -0.67980748523E+01  0.23454052434E+02  0.32498284686E+03  0.32589899838E+03  0.00000000000E+00 0. -1.
</event>
<event>
 4    1  0.6934088E+001  0.2141952E+02  0.7546771E-02  0.1513359E+00
          2   -1    0    0  502    0  0.00000000000E+00  0.00000000000E+00  0.12208756428E+02  0.12208756428E+02  0.00000000000E+00 0. -1.
         -2   -1    0    0    0  501 -0.00000000000E+00 -0.00000000000E+00 -0.38473862663E+02  0.38473862663E+02  0.00000000000E+00 0.  1.
          1    1    1    2  502    0  0.84959054308E+01  0.19662537743E+02 -0.92682972527E+01  0.23338747471E+02  0.00000000000E+00 0. -1.
         -1    1    1    2    0  501 -0.84959054308E+01 -0.19662537743E+02 -0.16996808982E+02  0.27343871620E+02  0.00000000000E+00 0.  1.
</event>
<event>
 4    1  0.6934088E+001  0.2562944E+02  0.7546771E-02  0.1461884E+00
          2   -1    0    0  502    0  0.00000000000E+00  0.00000000000E+00  0.84296116947E+03  0.84296116947E+03  0.00000000000E+00 0. -1.
         -2   -1    0    0    0  501 -0.00000000000E+00 -0.00000000000E+00 -0.11014975337E+01  0.11014975337E+01  0.00000000000E+00 0.  1.
          1    1    1    2  502    0  0.25344271813E+02  0.38126085285E+01  0.64920320147E+03  0.64970890782E+03  0.00000000000E+00 0. -1.
         -1    1    1    2    0  501 -0.25344271813E+02 -0.38126085285E+01  0.19265647046E+03  0.19435375918E+03  0.00000000000E+00 0.  1.
</event>
<event>
 4    1  0.6934088E+001  0.2272308E+02  0.7546771E-02  0.1496005E+00
          2   -1    0    0  502    0  0.00000000000E+00  0.00000000000E+00  0.67277861983E+01  0.67277861983E+01  0.00000000000E+00 0.  1.
         -2   -1    0    0    0  501 -0.00000000000E+00 -0.00000000000E+00 -0.93152168194E+02  0.93152168194E+02  0.00000000000E+00 0. -1.
          1    1    1    2  502    0  0.12291458142E+02  0.19111730749E+02 -0.64169747653E+02  0.68074185337E+02  0.00000000000E+00 0. -1.
         -1    1    1    2    0  501 -0.12291458142E+02 -0.19111730749E+02 -0.22254634343E+02  0.31805769055E+02  0.00000000000E+00 0.  1.
</event>
<event>
 4    1  0.6934088E+001  0.2337818E+02  0.7546771E-02  0.1487803E+00
          2   -1    0    0  502    0  0.00000000000E+00  0.00000000000E+00  0.89782160623E+01  0.89782160623E+01  0.00000000000E+00 0. -1.
         -2   -1    0    0    0  501 -0.00000000000E+00 -0.00000000000E+00 -0.68751874434E+02  0.68751874434E+02  0.00000000000E+00 0.  1.
          1    1    1    2  502    0  0.21593400502E+01  0.23278241980E+02 -0.16730844678E+02  0.28748225384E+02  0.00000000000E+00 0. -1.
         -1    1    1    2    0  501 -0.21593400502E+01 -0.23278241980E+02 -0.43042813694E+02  0.48981865112E+02  0.00000000000E+00 0.  1.
</event>
<event>
 4    1  0.6934088E+001  0.3161016E+02  0.7546771E-02  0.1406102E+00
          2   -1    0    0  502    0  0.00000000000E+00  0.00000000000E+00  0.15666371997E+02  0.15666371997E+02  0.00000000000E+00 0. -1.
         -2   -1    0    0    0  501 -0.00000000000E+00 -0.00000000000E+00 -0.65188477437E+02  0.65188477437E+02  0.00000000000E+00 0.  1.
          1    1    1    2  502    0 -0.30382548486E+02  0.87237123729E+01 -0.18818763916E+02  0.36787882318E+02  0.00000000000E+00 0. -1.
         -1    1    1    2    0  501  0.30382548486E+02 -0.87237123729E+01 -0.30703341524E+02  0.44066967116E+02  0.00000000000E+00 0.  1.
</event>
<event>
 4    1  0.6934088E+001  0.2138376E+02  0.7546771E-02  0.1513856E+00
          2   -1    0    0  502    0  0.00000000000E+00  0.00000000000E+00  0.58460391875E+03  0.58460391875E+03  0.00000000000E+00 0. -1.
         -2   -1    0    0    0  501 -0.00000000000E+00 -0.00000000000E+00 -0.11957461558E+01  0.11957461558E+01  0.00000000000E+00 0.  1.
          1    1    1    2  502    0 -0.11409096609E+02  0.18085838321E+02  0.46395936328E+03  0.46445188750E+03  0.00000000000E+00 0. -1.
         -1    1    1    2    0  501  0.11409096609E+02 -0.18085838321E+02  0.11944880932E+03  0.12134777740E+03  0.00000000000E+00 0.  1.
</event>
<event>
 4    1  0.6934088E+001  0.3605288E+02  0.7546771E-02  0.1373308E+00
          2   -1    0    0  502    0  0.00000000000E+00  0.00000000000E+00  0.10388163742E+04  0.10388163742E+04  0.00000000000E+00 0.  1.
         -2   -1    0    0    0  501 -0.00000000000E+00 -0.00000000000E+00 -0.13214200076E+01  0.13214200076E+01  0.00000000000E+00 0. -1.
          1    1    1    2  502    0  0.31820167623E+02  0.16949553396E+02  0.39889646566E+03  0.40052240979E+03  0.00000000000E+00 0. -1.
         -1    1    1    2    0  501 -0.31820167623E+02 -0.16949553396E+02  0.63859848851E+03  0.63961538439E+03  0.00000000000E+00 0.  1.
</event>
<event>
 4    1  0.6934088E+001  0.2266551E+02  0.7546771E-02  0.1496742E+00
          2   -1    0    0  502    0  0.00000000000E+00  0.00000000000E+00  0.66912293939E+01  0.66912293939E+01  0.00000000000E+00 0. -1.
         -2   -1    0    0    0  501 -0.00000000000E+00 -0.00000000000E+00 -0.11962358136E+03  0.11962358136E+03  0.00000000000E+00 0.  1.
          1    1    1    2  502    0 -0.88117617966E+01 -0.20882480040E+02 -0.94265111816E+02  0.96951722132E+02  0.00000000000E+00 0.  1.
         -1    1    1    2    0  501  0.88117617966E+01  0.20882480040E+02 -0.18667240148E+02  0.29363088620E+02  0.00000000000E+00 0. -1.
</event>
<event>
 4    1  0.6934088E+001  0.3208291E+02  0.7546771E-02  0.1402319E+00
          2   -1    0    0  502    0  0.00000000000E+00  0.00000000000E+00  0.11704121538E+03  0.11704121538E+03  0.00000000000E+00 0.  1.
         -2   -1    0    0    0  501 -0.00000000000E+00 -0.00000000000E+00 -0.14300428762E+02  0.14300428762E+02  0.00000000000E+00 0. -1.
          1    1    1    2  502    0  0.28938412520E+02 -0.13852114978E+02  0.92119237341E+02  0.97546228512E+02  0.00000000000E+00 0.  1.
         -1    1    1    2    0  501 -0.28938412520E+02  0.13852114978E+02  0.10621549275E+02  0.33795415629E+02  0.00000000000E+00 0. -1.
</event>
<event>
 4    1  0.6934088E+001  0.2504246E+02  0.7546771E-02  0.1468329E+00
          2   -1    0    0  502    0  0.00000000000E+00  0.00000000000E+00  0.83120992901E+03  0.83120992901E+03  0.00000000000E+00 0. -1.
         -2   -1    0    0    0  501 -0.00000000000E+00 -0.00000000000E+00 -0.77222381770E+00  0.77222381770E+00  0.00000000000E+00 0.  1.
          1    1    1    2  502    0  0.15734409789E+02 -0.19482127425E+02  0.47828976035E+03  0.47894490267E+03  0.00000000000E+00 0.  1.
         -1    1    1    2    0  501 -0.15734409789E+02  0.19482127425E+02  0.35214794484E+03  0.35303725016E+03  0.00000000000E+00 0. -1.
</event>
<event>
 4    1  0.6934088E+001  0.3358049E+02  0.7546771E-02  0.1390827E+00
          2   -1    0    0  502    0  0.00000000000E+00  0.00000000000E+00  0.91178525896E+03  0.91178525896E+03  0.00000000000E+00 0. -1.
         -2   -1    0    0    0  501 -0.00000000000E+00 -0.00000000000E+00 -0.14766168804E+01  0.14766168804E+01  0.00000000000E+00 0.  1.
          1    1    1    2  502    0 -0.19723489831E+02 -0.27177809749E+02  0.63919659034E+03  0.64007806594E+03  0.00000000000E+00 0. -1.
         -1    1    1    2    0  501  0.19723489831E+02  0.27177809749E+02  0.27111205175E+03  0.27318380991E+03  0.00000000000E+00 0.  1.
</event>
<event>
 4    1  0.6934088E+001  0.2263902E+02  0.7546771E-02  0.1497081E+00
          2   -1    0    0  502    0  0.00000000000E+00  0.00000000000E+00  0.15919505618E+03  0.15919505618E+03  0.00000000000E+00 0. -1.
         -2   -1    0    0    0  501 -0.00000000000E+00 -0.00000000000E+00 -0.38703504686E+01  0.38703504686E+01  0.00000000000E+00 0.  1.
          1    1    1    2  502    0  0.48748471943E+00 -0.22633767223E+02  0.11109759563E+03  0.11338077798E+03  0.00000000000E+00 0. -1.
         -1    1    1    2    0  501 -0.48748471943E+00  0.22633767223E+02  0.44227110082E+02  0.49684628672E+02  0.00000000000E+00 0.  1.
</event>
<event>
 4    1  0.6934088E+001  0.2004472E+02  0.7546771E-02  0.1533353E+00
          2   -1    0    0  502    0  0.00000000000E+00  0.00000000000E+00  0.67500825459E+01  0.67500825459E+01  0.00000000000E+00 0.  1.
         -2   -1    0    0    0  501 -0.00000000000E+00 -0.00000000000E+00 -0.79555047322E+02  0.79555047322E+02  0.00000000000E+00 0. -1.
          1    1    1    2  502    0 -0.16253620284E+02  0.11730749315E+02 -0.14749057381E+02  0.24886248119E+02  0.00000000000E+00 0.  1.
         -1    1    1    2    0  501  0.16253620284E+02 -0.11730749315E+02 -0.58055907395E+02  0.61418881749E+02  0.00000000000E+00 0. -1.
</event>
<event>
 4    1  0.6934088E+001  0.3447278E+02  0.7546771E-02  0.1384308E+00
          2   -1    0    0  502    0  0.00000000000E+00  0.00000000000E+00  0.17793630052E+03  0.17793630052E+03  0.00000000000E+00 0.  1.
         -2   -1    0    0    0  501 -0.00000000000E+00 -0.00000000000E+00 -0.66848846705E+01  0.66848846705E+01  0.00000000000E+00 0. -1.
          1    1    1    2  502    0  0.73289091134E+01 -0.33684710206E+02  0.88446925638E+02  0.94927505315E+02  0.00000000000E+00 0. -1.
         -1    1    1    2    0  501 -0.73289091134E+01  0.33684710206E+02  0.82804490211E+02  0.89693679875E+02  0.00000000000E+00 0.  1.
</event>
<event>
 4    1  0.6934088E+001  0.2487678E+02  0.7546771E-02  0.1470187E+00
          2   -1    0    0  502    0  0.00000000000E+00  0.00000000000E+00  0.34354339702E+02  0.34354339702E+02  0.00000000000E+00 0. -1.
         -2   -1    0    0    0  501 -0.00000000000E+00 -0.00000000000E+00 -0.23779398566E+02  0.23779398566E+02  0.00000000000E+00 0.  1.
          1    1    1    2  502    0 -0.21984191452E+02  0.11642568842E+02 -0.90251106232E+01  0.26463308652E+02  0.00000000000E+00 0. -1.
         -1    1    1    2    0  501  0.21984191452E+02 -0.11642568842E+02  0.19600051759E+02  0.31670429615E+02  0.00000000000E+00 0.  1.
</event>
<event>
 4    1  0.6934088E+001  0.2851568E+02  0.7546771E-02  0.1432949E+00
          2   -1    0    0  502    0  0.00000000000E+00  0.00000000000E+00  0.56911083676E+02  0.56911083676E+02  0.00000000000E+00 0. -1.
         -2   -1    0    0    0  501 -0.00000000000E+00 -0.00000000000E+00 -0.14332458808E+02  0.14332458808E+02  0.00000000000E+00 0.  1.
          1    1    1    2  502    0  0.18032982906E+02  0.22089719988E+02  0.23273811579E+02  0.36807804975E+02  0.00000000000E+00 0.  1.
         -1    1    1    2    0  501 -0.18032982906E+02 -0.22089719988E+02  0.19304813289E+02  0.34435737509E+02  0.00000000000E+00 0. -1.
</event>
<event>
 4    1  0.6934088E+001  0.3857588E+02  0.7546771E-02  0.1357039E+00
          2   -1    0    0  502    0  0.00000000000E+00  0.00000000000E+00  0.32908892429E+01  0.32908892429E+01  0.00000000000E+00 0. -1.
         -2   -1    0    0    0  501 -0.00000000000E+00 -0.00000000000E+00 -0.45896252637E+03  0.45896252637E+03  0.00000000000E+00 0.  1.
          1    1    1    2  502    0  0.37550076319E+02 -0.88368860429E+01 -0.19975440959E+03  0.20344513496E+03  0.00000000000E+00 0. -1.
         -1    1    1    2    0  501 -0.37550076319E+02  0.88368860429E+01 -0.25591722753E+03  0.25880828065E+03  0.00000000000E+00 0.  1.
</event>
<event>
 4    1  0.6934088E+001  0.2559732E+02  0.7546771E-02  0.1462231E+00
          2   -1    0    0  502    0  0.00000000000E+00  0.00000000000E+00  0.45807866019E+02  0.45807866019E+02  0.00000000000E+00 0.  1.
         -2   -1    0    0    0  501 -0.00000000000E+00 -0.00000000000E+00 -0.14462242328E+02  0.14462242328E+02  0.00000000000E+00 0. -1.
          1    1    1    2  502    0  0.24592291861E+02 -0.71022420335E+01  0.12517762097E+02  0.28494157802E+02  0.00000000000E+00 0.  1.
         -1    1    1    2    0  501 -0.24592291861E+02  0.71022420335E+01  0.18827861594E+02  0.31775950546E+02  0.00000000000E+00 0. -1.
</event>
<event>
 4    1  0.6934088E+001  0.2348451E+02  0.7546771E-02  0.1486502E+00
          2   -1    0    0  502    0  0.00000000000E+00  0.00000000000E+00  0.28785629295E+04  0.28785629295E+04  0.00000000000E+00 0.  1.
         -2   -1    0    0    0  501 -0.00000000000E+00 -0.00000000000E+00 -0.19528730257E+00  0.19528730257E+00  0.00000000000E+00 0. -1.
          1    1    1    2  502    0 -0.52141406790E+01  0.22898356722E+02  0.12412999364E+04  0.12415220716E+04  0.00000000000E+00 0. -1.
         -1    1    1    2    0  501  0.52141406790E+01 -0.22898356722E+02  0.16370677058E+04  0.16372361452E+04  0.00000000000E+00 0.  1.
</event>
<event>
 4    1  0.6934088E+001  0.3366073E+02  0.7546771E-02  0.1390231E+00
          2   -1    0    0  502    0  0.00000000000E+00  0.00000000000E+00  0.11508253619E+04  0.11508253619E+04  0.00000000000E+00 0.  1.
         -2   -1    0    0    0  501 -0.00000000000E+00 -0.00000000000E+00 -0.20690759408E+01  0.20690759408E+01  0.00000000000E+00 0. -1.
          1    1    1    2  502    0  0.24553067731E+02 -0.23025892170E+02  0.15703685583E+03  0.16060391943E+03  0.00000000000E+00 0. -1.
         -1    1    1    2    0  501 -0.24553067731E+02  0.23025892170E+02  0.99171943015E+03  0.99229051844E+03  0.00000000000E+00 0.  1.
</event>
<event>
 4    1  0.6934088E+001  0.2172734E+02  0.7546771E-02  0.1509129E+00
          2   -1    0    0  502    0  0.00000000000E+00  0.00000000000E+00  0.20486816728E+01  0.20486816728E+01  0.00000000000E+00 0. -1.
         -2   -1    0    0    0  501 -0.00000000000E+00 -0.00000000000E+00 -0.28024904072E+03  0.28024904072E+03  0.00000000000E+00 0.  1.
          1    1    1    2  502    0 -0.82364156211E+00  0.21711724151E+02 -0.19861207351E+03  0.19979697970E+03  0.00000000000E+00 0. -1.
         -1    1    1    2    0  501  0.82364156211E+00 -0.21711724151E+02 -0.79588285534E+02  0.82500742695E+02  0.00000000000E+00 0.  1.
</event>
<event>
 4    1  0.6934088E+001  0.2468830E+02  0.7546771E-02  0.1472321E+00
          2   -1    0    0  502    0  0.00000000000E+00  0.00000000000E+00  0.13051920470E+04  0.13051920470E+04  0.00000000000E+00 0.  1.
         -2   -1    0    0    0  501 -0.00000000000E+00 -0.00000000000E+00 -0.50116731993E+00  0.50116731993E+00  0.00000000000E+00 0. -1.
          1    1    1    2  502    0 -0.13774414783E+02  0.20488474363E+02  0.82283060290E+03  0.82320089478E+03  0.00000000000E+00 0.  1.
         -1    1    1    2    0  501  0.13774414783E+02 -0.20488474363E+02  0.48186027674E+03  0.48249231951E+03  0.00000000000E+00 0. -1.
</event>
<event>
 4    1  0.6934088E+001  0.3155358E+02  0.7546771E-02  0.1406560E+00
          2   -1    0    0  502    0  0.00000000000E+00  0.00000000000E+00  0.16949701121E+02  0.16949701121E+02  0.00000000000E+00 0. -1.
         -2   -1    0    0    0  501 -0.00000000000E+00 -0.00000000000E+00 -0.64260982374E+02  0.64260982374E+02  0.00000000000E+00 0.  1.
          1    1    1    2  502    0  0.24421522177E+02 -0.19980426308E+02 -0.11753877054E+02  0.33671676624E+02  0.00000000000E+00 0. -1.
         -1    1    1    2    0  501 -0.24421522177E+02  0.19980426308E+02 -0.35557404199E+02  0.47539006871E+02  0.00000000000E+00 0.  1.
</event>
<event>
 4    1  0.6934088E+001  0.2086963E+02  0.7546771E-02  0.1521134E+00
          2   -1    0    0  502    0  0.00000000000E+00  0.00000000000E+00  0.75258781016E+03  0.75258781016E+03  0.00000000000E+00 0.  1.
         -2   -1    0    0    0  501 -0.00000000000E+00 -0.00000000000E+00 -0.62248665535E+00  0.62248665535E+00  0.00000000000E+00 0. -1.
          1    1    1    2  502    0  0.19276174175E+02  0.79981569419E+01  0.47583722970E+03  0.47629466780E+03  0.00000000000E+00 0.  1.
         -1    1    1    2    0  501 -0.19276174175E+02 -0.79981569419E+01  0.27612809381E+03  0.27691562902E+03  0.00000000000E+00 0. -1.
</event>
<event>
 4    1  0.6934088E+001  0.2259250E+02  0.7546771E-02  0.1497680E+00
          2   -1    0    0  502    0  0.00000000000E+00  0.00000000000E+00  0.12548089479E+03  0.12548089479E+03  0.00000000000E+00 0.  1.
         -2   -1    0    0    0  501 -0.00000000000E+00 -0.00000000000E+00 -0.40743754284E+01  0.40743754284E+01  0.00000000000E+00 0. -1.
          1    1    1    2  502    0  0.12897480028E+02 -0.18549289299E+02  0.58085149138E+02  0.62324198150E+02  0.00000000000E+00 0. -1.
         -1    1    1    2    0  501 -0.12897480028E+02  0.18549289299E+02  0.63321370228E+02  0.67231072074E+02  0.00000000000E+00 0.  1.
</event>
<event>
 4    1  0.6934088E+001  0.2931637E+02  0.7546771E-02  0.1425632E+00
          2   -1    0    0  502    0  0.00000000000E+00  0.00000000000E+00  0.55340970247E+02  0.55340970247E+02  0.00000000000E+00 0.  1.
         -2   -1    0    0    0  501 -0.00000000000E+00 -0.00000000000E+00 -0.23568208504E+02  0.23568208504E+02  0.00000000000E+00 0. -1.
          1    1    1    2  502    0  0.29270049274E+02  0.16474345815E+01  0.38927928768E+02  0.48732263064E+02  0.00000000000E+00 0.  1.
         -1    1    1    2    0  501 -0.29270049274E+02 -0.16474345815E+01 -0.71551670260E+01  0.30176915686E+02  0.00000000000E+00 0. -1.
</event>
<event>
 4    1  0.6934088E+001  0.2916981E+02  0.7546771E-02  0.1426950E+00
          2   -1    0    0  502    0  0.00000000000E+00  0.00000000000E+00  0.12966989838E+04  0.12966989838E+04  0.00000000000E+00 0. -1.
         -2   -1    0    0    0  501 -0.00000000000E+00 -0.00000000000E+00 -0.96821006902E+00  0.96821006902E+00  0.00000000000E+00 0.  1.
          1    1    1    2  502    0  0.29387596794E+01  0.29021400640E+02  0.10161990011E+04  0.10166175720E+04  0.00000000000E+00 0. -1.
         -1    1    1    2    0  501 -0.29387596794E+01 -0.29021400640E+02  0.27953177264E+03  0.28104962181E+03  0.00000000000E+00 0.  1.
</event>
<event>
 4    1  0.6934088E+001  0.2291005E+02  0.7546771E-02  0.1493631E+00
          2   -1    0    0  502    0  0.00000000000E+00  0.00000000000E+00  0.11328007795E+03  0.11328007795E+03  0.00000000000E+00 0. -1.
         -2   -1    0    0    0  501 -0.00000000000E+00 -0.00000000000E+00 -0.66114152570E+01  0.66114152570E+01  0.00000000000E+00 0.  1.
          1    1    1    2  502    0  0.21241457812E+02 -0.85831785709E+01  0.86123269979E+02  0.89118393815E+02  0.00000000000E+00 0. -1.
         -1    1    1    2    0  501 -0.21241457812E+02  0.85831785709E+01  0.20545392711E+02  0.30773099389E+02  0.00000000000E+00 0.  1.
</event>
<event>
 4    1  0.6934088E+001  0.2354256E+02  0.7546771E-02  0.1485795E+00
          2   -1    0    0  502    0  0.00000000000E+00  0.00000000000E+00  0.78395931737E+01  0.78395931737E+01  0.00000000000E+00 0.  1.
         -2   -1    0    0    0  501 -0.00000000000E+00 -0.00000000000E+00 -0.71314960661E+02  0.71314960661E+02  0.00000000000E+00 0. -1.
          1    1    1    2  502    0 -0.23159649957E+01  0.23428366338E+02 -0.35415610302E+02  0.42526668059E+02  0.00000000000E+00 0.  1.
         -1    1    1    2    0  501  0.23159649957E+01 -0.23428366338E+02 -0.28059757185E+02  0.36627885775E+02  0.00000000000E+00 0. -1.
</event>
<event>
 4    1  0.6934088E+001  0.2095267E+02  0.7546771E-02  0.1519942E+00
          2   -1    0    0  502    0  0.00000000000E+00  0.00000000000E+00  0.24108611059E+02  0.24108611059E+02  0.00000000000E+00 0. -1.
         -2   -1    0    0    0  501 -0.00000000000E+00 -0.00000000000E+00 -0.19413898348E+02  0.19413898348E+02  0.00000000000E+00 0.  1.
          1    1    1    2  502    0  0.67281347752E+01  0.19843052107E+02 -0.30719924013E+01  0.21176677071E+02  0.00000000000E+00 0.  1.
         -1    1    1    2    0  501 -0.67281347752E+01 -0.19843052107E+02  0.77667051122E+01  0.22345832336E+02  0.00000000000E+00 0. -1.
</event>
<event>
 4    1  0.6934088E+001  0.1784191E+03  0.7546771E-02  0.1071591E+00
          2   -1    0    0  502    0  0.00000000000E+00  0.00000000000E+00  0.19265748322E+03  0.19265748322E+03  0.00000000000E+00 0. -1.
         -2   -1    0    0    0  501 -0.00000000000E+00 -0.00000000000E+00 -0.16601355026E+03  0.16601355026E+03  0.00000000000E+00 0.  1.
          1    1    1    2  502    0  0.14775118374E+03  0.10001475859E+03  0.25619243889E+02  0.18024902189E+03  0.00000000000E+00 0.  1.
         -1    1    1    2    0  501 -0.14775118374E+03 -0.10001475859E+03  0.10246890665E+01  0.17842201160E+03  0.00000000000E+00 0. -1.
</event>
<event>
 4    1  0.6934088E+001  0.2262240E+02  0.7546771E-02  0.1497295E+00
          2   -1    0    0  502    0  0.00000000000E+00  0.00000000000E+00  0.59455665904E+01  0.59455665904E+01  0.00000000000E+00 0. -1.
         -2   -1    0    0    0  501 -0.00000000000E+00 -0.00000000000E+00 -0.86249779179E+02  0.86249779179E+02  0.00000000000E+00 0.  1.
          1    1    1    2  502    0  0.61849475459E+01 -0.21760496089E+02 -0.42219108792E+02  0.47898078389E+02  0.00000000000E+00 0.  1.
         -1    1    1    2    0  501 -0.61849475459E+01  0.21760496089E+02 -0.38085103796E+02  0.44297267380E+02  0.00000000000E+00 0. -1.
</event>
<event>
 4    1  0.6934088E+001  0.5605321E+02  0.7546771E-02  0.1273866E+00
          2   -1    0    0  502    0  0.00000000000E+00  0.00000000000E+00  0.96334083044E+02  0.96334083044E+02  0.00000000000E+00 0. -1.
         -2   -1    0    0    0  501 -0.00000000000E+00 -0.00000000000E+00 -0.33828192688E+02  0.33828192688E+02  0.00000000000E+00 0.  1.
          1    1    1    2  502    0 -0.56047324775E+02  0.81216674249E+00  0.43576389653E+02  0.70999041996E+02  0.00000000000E+00 0. -1.
         -1    1    1    2    0  501  0.56047324775E+02 -0.81216674249E+00  0.18929500703E+02  0.59163233736E+02  0.00000000000E+00 0.  1.
</event>
<event>
 4    1  0.6934088E+001  0.2619066E+02  0.7546771E-02  0.1455912E+00
          2   -1    0    0  502    0  0.00000000000E+00  0.00000000000E+00  0.22268481539E+04  0.22268481539E+04  0.00000000000E+00 0.  1.
         -2   -1    0    0    0  501 -0.00000000000E+00 -0.00000000000E+00 -0.47595161355E+00  0.47595161355E+00  0.00000000000E+00 0. -1.
          1    1    1    2  502    0 -0.16237106886E+02 -0.20550110805E+02  0.17746662378E+04  0.17748594892E+04  0.00000000000E+00 0.  1.
         -1    1    1    2    0  501  0.16237106886E+02  0.20550110805E+02  0.45170596442E+03  0.45246461629E+03  0.00000000000E+00 0. -1.
</event>
<event>
 4    1  0.6934088E+001  0.2773108E+02  0.7546771E-02  0.1440399E+00
          2   -1    0    0  502    0  0.00000000000E+00  0.00000000000E+00  0.26378060728E+03  0.26378060728E+03  0.00000000000E+00 0. -1.
         -2   -1    0    0    0  501 -0.00000000000E+00 -0.00000000000E+00 -0.49289256051E+01  0.49289256051E+01  0.00000000000E+00 0.  1.
          1    1    1    2  502    0 -0.66062837687E+01 -0.26932685665E+02  0.43551973888E+02  0.51631259639E+02  0.00000000000E+00 0.  1.
         -1    1    1    2    0  501  0.66062837687E+01  0.26932685665E+02  0.21529970778E+03  0.21707827324E+03  0.00000000000E+00 0. -1.
</event>
<event>
 4    1  0.6934088E+001  0.8288208E+02  0.7546771E-02  0.1197310E+00
          2   -1    0    0  502    0  0.00000000000E+00  0.00000000000E+00  0.20266953143E+02  0.20266953143E+02  0.00000000000E+00 0. -1.
         -2   -1    0    0    0  501 -0.00000000000E+00 -0.00000000000E+00 -0.38761476427E+03  0.38761476427E+03  0.00000000000E+00 0.  1.
          1    1    1    2  502    0 -0.73078008018E+02  0.39103001124E+02 -0.11141006376E+03  0.13885835322E+03  0.00000000000E+00 0.  1.
         -1    1    1    2    0  501  0.73078008018E+02 -0.39103001124E+02 -0.25593774737E+03  0.26902336420E+03  0.00000000000E+00 0. -1.
</event>
<event>
 4    1  0.6934088E+001  0.2178610E+02  0.7546771E-02  0.1508331E+00
          2   -1    0    0  502    0  0.00000000000E+00  0.00000000000E+00  0.26884490262E+03  0.26884490262E+03  0.00000000000E+00 0. -1.
         -2   -1    0    0    0  501 -0.00000000000E+00 -0.00000000000E+00 -0.18413910512E+01  0.18413910512E+01  0.00000000000E+00 0.  1.
          1    1    1    2  502    0  0.18321444387E+02  0.11788089085E+02  0.16098568652E+03  0.16245314904E+03  0.00000000000E+00 0.  1.
         -1    1    1    2    0  501 -0.18321444387E+02 -0.11788089085E+02  0.10601782505E+03  0.10823314463E+03  0.00000000000E+00 0. -1.
</event>
<event>
 4    1  0.6934088E+001  0.2061710E+02  0.7546771E-02  0.1524802E+00
          2   -1    0    0  502    0  0.00000000000E+00  0.00000000000E+00  0.46750730477E+03  0.46750730477E+03  0.00000000000E+00 0.  1.
         -2   -1    0    0    0  501 -0.00000000000E+00 -0.00000000000E+00 -0.10624653966E+01  0.10624653966E+01  0.00000000000E+00 0. -1.
          1    1    1    2  502    0  0.20403692212E+02  0.29587471209E+01  0.32220133610E+03  0.32286028840E+03  0.00000000000E+00 0.  1.
         -1    1    1    2    0  501 -0.20403692212E+02 -0.29587471209E+01  0.14424350327E+03  0.14570948176E+03  0.00000000000E+00 0. -1.
</event>
<event>
 4    1  0.6934088E+001  0.2344359E+02  0.7546771E-02  0.1487002E+00
          2   -1    0    0  502    0  0.00000000000E+00  0.00000000000E+00  0.48707341819E+03  0.48707341819E+03  0.00000000000E+00 0.  1.
         -2   -1    0    0    0  501 -0.00000000000E+00 -0.00000000000E+00 -0.16396514612E+01  0.16396514612E+01  0.00000000000E+00 0. -1.
          1    1    1    2  502    0  0.18987424941E+02  0.13750621287E+02  0.10626619914E+03  0.10882144537E+03  0.00000000000E+00 0.  1.
         -1    1    1    2    0  501 -0.18987424941E+02 -0.13750621287E+02  0.37916756759E+03  0.37989162429E+03  0.00000000000E+00 0. -1.
</event>
<event>
 4    1  0.6934088E+001  0.2475484E+02  0.7546771E-02  0.1471565E+00
          2   -1    0    0  502    0  0.00000000000E+00  0.00000000000E+00  0.18946763147E+01  0.18946763147E+01  0.00000000000E+00 0. -1.
         -2   -1    0    0    0  501 -0.00000000000E+00 -0.00000000000E+00 -0.90922382420E+03  0.90922382420E+03  0.00000000000E+00 0.  1.
          1    1    1    2  502    0  0.19254529010E+02 -0.15558448658E+02 -0.88002026235E+02  0.91417497414E+02  0.00000000000E+00 0. -1.
         -1    1    1    2    0  501 -0.19254529010E+02  0.15558448658E+02 -0.81932712165E+03  0.81970100310E+03  0.00000000000E+00 0.  1.
</event>
<event>
 4    1  0.6934088E+001  0.2468444E+02  0.7546771E-02  0.1472365E+00
          2   -1    0    0  502    0  0.00000000000E+00  0.00000000000E+00  0.54463485709E+03  0.54463485709E+03  0.00000000000E+00 0.  1.
         -2   -1    0    0    0  501 -0.00000000000E+00 -0.00000000000E+00 -0.11225252440E+01  0.11225252440E+01  0.00000000000E+00 0. -1.
          1    1    1    2  502    0  0.18305081803E+02 -0.16560366840E+02  0.28753677212E+03  0.28859438160E+03  0.00000000000E+00 0. -1.
         -1    1    1    2    0  501 -0.18305081803E+02  0.16560366840E+02  0.25597555973E+03  0.25716300074E+03  0.00000000000E+00 0.  1.
</event>
<event>
 4    1  0.6934088E+001  0.2055500E+02  0.7546771E-02  0.1525714E+00
          2   -1    0    0  502    0  0.00000000000E+00  0.00000000000E+00  0.25315808117E+01  0.25315808117E+01  0.00000000000E+00 0.  1.
         -2   -1    0    0    0  501 -0.00000000000E+00 -0.00000000000E+00 -0.27046337700E+03  0.27046337700E+03  0.00000000000E+00 0. -1.
          1    1    1    2  502    0  0.17404209995E+02 -0.10936242424E+02 -0.49499457406E+02  0.53597613822E+02  0.00000000000E+00 0.  1.
         -1    1    1    2    0  501 -0.17404209995E+02  0.10936242424E+02 -0.21843233878E+03  0.21939734399E+03  0.00000000000E+00 0. -1.
</event>
<event>
 4    1  0.6934088E+001  0.2384763E+02  0.7546771E-02  0.1482120E+00
          2   -1    0    0  502    0  0.00000000000E+00  0.00000000000E+00  0.12226174520E+03  0.12226174520E+03  0.00000000000E+00 0. -1.
         -2   -1    0    0    0  501 -0.00000000000E+00 -0.00000000000E+00 -0.76661039543E+01  0.76661039543E+01  0.00000000000E+00 0.  1.
          1    1    1    2  502    0  0.81313349609E+01  0.22418535990E+02  0.16560279134E+02  0.29033639269E+02  0.00000000000E+00 0.  1.
         -1    1    1    2    0  501 -0.81313349609E+01 -0.22418535990E+02  0.98035362110E+02  0.10089420988E+03  0.00000000000E+00 0. -1.
</event>
<event>
 4    1  0.6934088E+001  0.2160540E+02  0.7546771E-02  0.1510794E+00
          2   -1    0    0  502    0  0.00000000000E+00  0.00000000000E+00  0.17999013230E+02  0.17999013230E+02  0.00000000000E+00 0. -1.
         -2   -1    0    0    0  501 -0.00000000000E+00 -0.00000000000E+00 -0.42764856575E+02  0.42764856575E+02  0.00000000000E+00 0.  1.
          1    1    1    2  502    0  0.20115612096E+02 -0.78838720898E+01 -0.31442798813E+02  0.38150267185E+02  0.00000000000E+00 0.  1.
         -1    1    1    2    0  501 -0.20115612096E+02  0.78838720898E+01  0.66769554678E+01  0.22613602619E+02  0.00000000000E+00 0. -1.
</event>
<event>
 4    1  0.6934088E+001  0.2533969E+02  0.7546771E-02  0.1465039E+00
          2   -1    0    0  502    0  0.00000000000E+00  0.00000000000E+00  0.70728423163E+01  0.70728423163E+01  0.00000000000E+00 0. -1.
         -2   -1    0    0    0  501 -0.00000000000E+00 -0.00000000000E+00 -0.11661099168E+03  0.11661099168E+03  0.00000000000E+00 0.  1.
          1    1    1    2  502    0 -0.10923212644E+02  0.22864457204E+02 -0.25665172175E+02  0.36066619477E+02  0.00000000000E+00 0.  1.
         -1    1    1    2    0  501  0.10923212644E+02 -0.22864457204E+02 -0.83872977186E+02  0.87617214517E+02  0.00000000000E+00 0. -1.
</event>
<event>
 4    1  0.6934088E+001  0.2558661E+02  0.7546771E-02  0.1462347E+00
          2   -1    0    0  502    0  0.00000000000E+00  0.00000000000E+00  0.63910732154E+03  0.63910732154E+03  0.00000000000E+00 0.  1.
         -2   -1    0    0    0  501 -0.00000000000E+00 -0.00000000000E+00 -0.10280343529E+01  0.10280343529E+01  0.00000000000E+00 0. -1.
          1    1    1    2  502    0  0.25536891953E+02  0.15942628981E+01  0.33818055344E+03  0.33914710857E+03  0.00000000000E+00 0.  1.
         -1    1    1    2    0  501 -0.25536891953E+02 -0.15942628981E+01  0.29989873374E+03  0.30098824732E+03  0.00000000000E+00 0. -1.
</event>
<event>
 4    1  0.6934088E+001  0.3159254E+02  0.7546771E-02  0.1406244E+00
          2   -1    0    0  502    0  0.00000000000E+00  0.00000000000E+00  0.76627305639E+01  0.76627305639E+01  0.00000000000E+00 0.  1.
         -2   -1    0    0    0  501 -0.00000000000E+00 -0.00000000000E+00 -0.14276921193E+03  0.14276921193E+03  0.00000000000E+00 0. -1.
          1    1    1    2  502    0 -0.30348637557E+02 -0.87777541520E+01 -0.45282212001E+02  0.55213834256E+02  0.00000000000E+00 0.  1.
         -1    1    1    2    0  501  0.30348637557E+02  0.87777541520E+01 -0.89824269368E+02  0.95218108241E+02  0.00000000000E+00 0. -1.
</event>
<event>
 4    1  0.6934088E+001  0.2171662E+02  0.7546771E-02  0.1509274E+00
          2   -1    0    0  502    0  0.00000000000E+00  0.00000000000E+00  0.21427102734E+02  0.21427102734E+02  0.00000000000E+00 0.  1.
         -2   -1    0    0    0  501 -0.00000000000E+00 -0.00000000000E+00 -0.28044945825E+02  0.28044945825E+02  0.00000000000E+00 0. -1.
          1    1    1    2  502    0  0.16591687538E+02 -0.14011698586E+02  0.81656681565E+01  0.23201076033E+02  0.00000000000E+00 0.  1.
         -1    1    1    2    0  501 -0.16591687538E+02  0.14011698586E+02 -0.14783511248E+02  0.26270972526E+02  0.00000000000E+00 0. -1.
</event>
<event>
 4    1  0.6934088E+001  0.2905528E+02  0.7546771E-02  0.1427987E+00
          2   -1    0    0  502    0  0.00000000000E+00  0.00000000000E+00  0.10536493487E+04  0.10536493487E+04  0.00000000000E+00 0.  1.
         -2   -1    0    0    0  501 -0.00000000000E+00 -0.00000000000E+00 -0.80501184180E+00  0.80501184180E+00  0.00000000000E+00 0. -1.
          1    1    1    2  502    0  0.17071567110E+01  0.29005088281E+02  0.49025856862E+03  0.49111879788E+03  0.00000000000E+00 0. -1.
         -1    1    1    2    0  501 -0.17071567110E+01 -0.29005088281E+02  0.56258576828E+03  0.56333556270E+03  0.00000000000E+00 0.  1.
</event>
<event>
 4    1  0.6934088E+001  0.3068855E+02  0.7546771E-02  0.1413705E+00
          2   -1    0    0  502    0  0.00000000000E+00  0.00000000000E+00  0.13197305432E+03  0.13197305432E+03  0.00000000000E+00 0. -1.
         -2   -1    0    0    0  501 -0.00000000000E+00 -0.00000000000E+00 -0.71475425444E+01  0.71475425444E+01  0.00000000000E+00 0.  1.
          1    1    1    2  502    0 -0.65320184083E+01 -0.29985330509E+02  0.65182656295E+02  0.72045582737E+02  0.00000000000E+00 0. -1.
         -1    1    1    2    0  501  0.65320184083E+01  0.29985330509E+02  0.59642855476E+02  0.67075014123E+02  0.00000000000E+00 0.  1.
</event>
<event>
 4    1  0.6934088E+001  0.2701281E+02  0.7546771E-02  0.1447480E+00
          2   -1    0    0  502    0  0.00000000000E+00  0.00000000000E+00  0.10031739358E+04  0.10031739358E+04  0.00000000000E+00 0. -1.
         -2   -1    0    0    0  501 -0.00000000000E+00 -0.00000000000E+00 -0.73323021354E+00  0.73323021354E+00  0.00000000000E+00 0.  1.
          1    1    1    2  502    0 -0.21519996308E+02 -0.16327321884E+02  0.54604504742E+03  0.54671279982E+03  0.00000000000E+00 0. -1.
         -1    1    1    2    0  501  0.21519996308E+02  0.16327321884E+02  0.45639565817E+03  0.45719436619E+03  0.00000000000E+00 0.  1.
</event>
<event>
 4    1  0.6934088E+001  0.2117254E+02  0.7546771E-02  0.1516816E+00
          2   -1    0    0  502    0  0.00000000000E+00  0.00000000000E+00  0.20222323504E+04  0.20222323504E+04  0.00000000000E+00 0.  1.
         -2   -1    0    0    0  501 -0.00000000000E+00 -0.00000000000E+00 -0.22657066636E+00  0.22657066636E+00  0.00000000000E+00 0. -1.
          1    1    1    2  502    0  0.14489189695E+02 -0.15438259087E+02  0.11596633013E+04  0.11598565639E+04  0.00000000000E+00 0.  1.
         -1    1    1    2    0  501 -0.14489189695E+02  0.15438259087E+02  0.86234247842E+03  0.86260235714E+03  0.00000000000E+00 0. -1.
</event>
<event>
 4    1  0.6934088E+001  0.3922946E+02  0.7546771E-02  0.1353061E+00
          2   -1    0    0  502    0  0.00000000000E+00  0.00000000000E+00  0.20301039339E+02  0.20301039339E+02  0.00000000000E+00 0. -1.
         -2   -1    0    0    0  501 -0.00000000000E+00 -0.00000000000E+00 -0.17060192669E+03  0.17060192669E+03  0.00000000000E+00 0.  1.
          1    1    1    2  502    0  0.21254229378E+02  0.32972844790E+02 -0.14630200016E+03  0.15147021493E+03  0.00000000000E+00 0.  1.
         -1    1    1    2    0  501 -0.21254229378E+02 -0.32972844790E+02 -0.39988871829E+01  0.39432751092E+02  0.00000000000E+00 0. -1.
</event>
<event>
 4    1  0.6934088E+001  0.2287777E+02  0.7546771E-02  0.1494039E+00
          2   -1    0    0  502    0  0.00000000000E+00  0.00000000000E+00  0.12026124905E+02  0.12026124905E+02  0.00000000000E+00 0. -1.
         -2   -1    0    0    0  501 -0.00000000000E+00 -0.00000000000E+00 -0.47615357114E+02  0.47615357114E+02  0.00000000000E+00 0.  1.
          1    1    1    2  502    0  0.20418856880E+02 -0.10318073646E+02 -0.90503599791E+01  0.24602873324E+02  0.00000000000E+00 0. -1.
         -1    1    1    2    0  501 -0.20418856880E+02  0.10318073646E+02 -0.26538872229E+02  0.35038608695E+02  0.00000000000E+00 0.  1.
</event>
<event>
 4    1  0.6934088E+001  0.2097312E+02  0.7546771E-02  0.1519649E+00
          2   -1    0    0  502    0  0.00000000000E+00  0.00000000000E+00  0.15855073979E+04  0.15855073979E+04  0.00000000000E+00 0. -1.
         -2   -1    0    0    0  501 -0.00000000000E+00 -0.00000000000E+00 -0.30013937766E+00  0.30013937766E+00  0.00000000000E+00 0.  1.
          1    1    1    2  502    0 -0.18151052921E+02 -0.10507659873E+02  0.10106935276E+04  0.10109111130E+04  0.00000000000E+00 0. -1.
         -1    1    1    2    0  501  0.18151052921E+02  0.10507659873E+02  0.57451373089E+03  0.57489642426E+03  0.00000000000E+00 0.  1.
</event>
<event>
 4    1  0.6934088E+001  0.2685394E+02  0.7546771E-02  0.1449081E+00
          2   -1    0    0  502    0  0.00000000000E+00  0.00000000000E+00  0.11253377918E+04  0.11253377918E+04  0.00000000000E+00 0. -1.
         -2   -1    0    0    0  501 -0.00000000000E+00 -0.00000000000E+00 -0.64174294010E+00  0.64174294010E+00  0.00000000000E+00 0.  1.
          1    1    1    2  502    0  0.26841449876E+02 -0.81882284056E+00  0.58375041844E+03  0.58436776514E+03  0.00000000000E+00 0. -1.
         -1    1    1    2    0  501 -0.26841449876E+02  0.81882284056E+00  0.54094563046E+03  0.54161176964E+03  0.00000000000E+00 0.  1.
</event>
<event>
 4    1  0.6934088E+001  0.2651683E+02  0.7546771E-02  0.1452523E+00
          2   -1    0    0  502    0  0.00000000000E+00  0.00000000000E+00  0.85605928676E+01  0.85605928676E+01  0.00000000000E+00 0. -1.
         -2   -1    0    0    0  501 -0.00000000000E+00 -0.00000000000E+00 -0.23985231168E+03  0.23985231168E+03  0.00000000000E+00 0.  1.
          1    1    1    2  502    0  0.54359050509E+01 -0.25953671027E+02 -0.14927412179E+02  0.30429750867E+02  0.00000000000E+00 0. -1.
         -1    1    1    2    0  501 -0.54359050509E+01  0.25953671027E+02 -0.21636430663E+03  0.21798315368E+03  0.00000000000E+00 0.  1.
</event>
<event>
 4    1  0.6934088E+001  0.2535867E+02  0.7546771E-02  0.1464831E+00
          2   -1    0    0  502    0  0.00000000000E+00  0.00000000000E+00  0.67936772908E+03  0.67936772908E+03  0.00000000000E+00 0.  1.
         -2   -1    0    0    0  501 -0.00000000000E+00 -0.00000000000E+00 -0.96726431343E+00  0.96726431343E+00  0.00000000000E+00 0. -1.
          1    1    1    2  502    0 -0.22528641132E+02  0.11641402966E+02  0.28943150150E+03  0.29054028291E+03  0.00000000000E+00 0.  1.
         -1    1    1    2    0  501  0.22528641132E+02 -0.11641402966E+02  0.38896896327E+03  0.38979471048E+03  0.00000000000E+00 0. -1.
</event>
<event>
 4    1  0.6934088E+001  0.3388337E+02  0.7546771E-02  0.1388588E+00
          2   -1    0    0  502    0  0.00000000000E+00  0.00000000000E+00  0.63447865990E+01  0.63447865990E+01  0.00000000000E+00 0. -1.
         -2   -1    0    0    0  501 -0.00000000000E+00 -0.00000000000E+00 -0.23572188610E+03  0.23572188610E+03  0.00000000000E+00 0.  1.
          1    1    1    2  502    0  0.33880774475E+02  0.41936395517E+00 -0.56345665893E+02  0.65748892082E+02  0.00000000000E+00 0. -1.
         -1    1    1    2    0  501 -0.33880774475E+02 -0.41936395517E+00 -0.17303143361E+03  0.17631778062E+03  0.00000000000E+00 0.  1.
</event>
<event>
 4    1  0.6934088E+001  0.2418934E+02  0.7546771E-02  0.1478080E+00
          2   -1    0    0  502    0  0.00000000000E+00  0.00000000000E+00  0.85448204886E+03  0.85448204886E+03  0.00000000000E+00 0. -1.
         -2   -1    0    0    0  501 -0.00000000000E+00 -0.00000000000E+00 -0.10062443378E+01  0.10062443378E+01  0.00000000000E+00 0.  1.
          1    1    1    2  502    0 -0.13371872829E+02 -0.20157305955E+02  0.66850949607E+03  0.66894698617E+03  0.00000000000E+00 0. -1.
         -1    1    1    2    0  501  0.13371872829E+02  0.20157305955E+02  0.18496630845E+03  0.18654130703E+03  0.00000000000E+00 0.  1.
</event>
<event>
 4    1  0.6934088E+001  0.2236701E+02  0.7546771E-02  0.1500603E+00
          2   -1    0    0  502    0  0.00000000000E+00  0.00000000000E+00  0.36521518284E+03  0.36521518284E+03  0.00000000000E+00 0. -1.
         -2   -1    0    0    0  501 -0.00000000000E+00 -0.00000000000E+00 -0.13847157173E+01  0.13847157173E+01  0.00000000000E+00 0.  1.
          1    1    1    2  502    0 -0.78652529260E+01  0.20938501433E+02  0.16291085564E+03  0.16443913747E+03  0.00000000000E+00 0.  1.
         -1    1    1    2    0  501  0.78652529260E+01 -0.20938501433E+02  0.20091961148E+03  0.20216076109E+03  0.00000000000E+00 0. -1.
</event>
<event>
 4    1  0.6934088E+001  0.2219844E+02  0.7546771E-02  0.1502816E+00
          2   -1    0    0  502    0  0.00000000000E+00  0.00000000000E+00  0.91225160999E+02  0.91225160999E+02  0.00000000000E+00 0. -1.
         -2   -1    0    0    0  501 -0.00000000000E+00 -0.00000000000E+00 -0.54045589376E+01  0.54045589376E+01  0.00000000000E+00 0.  1.
          1    1    1    2  502    0 -0.19745690248E+02  0.10142911585E+02  0.44021556926E+02  0.49301809429E+02  0.00000000000E+00 0. -1.
         -1    1    1    2    0  501  0.19745690248E+02 -0.10142911585E+02  0.41799045135E+02  0.47327910508E+02  0.00000000000E+00 0.  1.
</event>
<event>
 4    1  0.6934088E+001  0.4854496E+02  0.7546771E-02  0.1304607E+00
          2   -1    0    0  502    0  0.00000000000E+00  0.00000000000E+00  0.56410886100E+02  0.56410886100E+02  0.00000000000E+00 0.  1.
         -2   -1    0    0    0  501 -0.00000000000E+00 -0.00000000000E+00 -0.55767157550E+02  0.55767157550E+02  0.00000000000E+00 0. -1.
          1    1    1    2  502    0  0.66701235728E+01 -0.48084540716E+02  0.28416119194E+02  0.56250239416E+02  0.00000000000E+00 0.  1.
         -1    1    1    2    0  501 -0.66701235728E+01  0.48084540716E+02 -0.27772390644E+02  0.55927804234E+02  0.00000000000E+00 0. -1.
</event>
<event>
 4    1  0.6934088E+001  0.2559573E+02  0.7546771E-02  0.1462248E+00
          2   -1    0    0  502    0  0.00000000000E+00  0.00000000000E+00  0.10681690211E+01  0.10681690211E+01  0.00000000000E+00 0. -1.
         -2   -1    0    0    0  501 -0.00000000000E+00 -0.00000000000E+00 -0.66293933924E+03  0.66293933924E+03  0.00000000000E+00 0.  1.
          1    1    1    2  502    0  0.10198829832E+02  0.23476057182E+02 -0.42175580610E+03  0.42253177557E+03  0.00000000000E+00 0.  1.
         -1    1    1    2    0  501 -0.10198829832E+02 -0.23476057182E+02 -0.24011536412E+03  0.24147573269E+03  0.00000000000E+00 0. -1.
</event>
<event>
 4    1  0.6934088E+001  0.3762304E+02  0.7546771E-02  0.1363007E+00
          2   -1    0    0  502    0  0.00000000000E+00  0.00000000000E+00  0.39484511169E+03  0.39484511169E+03  0.00000000000E+00 0.  1.
         -2   -1    0    0    0  501 -0.00000000000E+00 -0.00000000000E+00 -0.37419770794E+01  0.37419770794E+01  0.00000000000E+00 0. -1.
          1    1    1    2  502    0 -0.59441030519E+01  0.37150512593E+02  0.15472389810E+03  0.15923246399E+03  0.00000000000E+00 0. -1.
         -1    1    1    2    0  501  0.59441030519E+01 -0.37150512593E+02  0.23637923651E+03  0.23935462478E+03  0.00000000000E+00 0.  1.
</event>
<event>
 4    1  0.6934088E+001  0.3367700E+02  0.7546771E-02  0.1390111E+00
          2   -1    0    0  502    0  0.00000000000E+00  0.00000000000E+00  0.43274169600E+03  0.43274169600E+03  0.00000000000E+00 0.  1.
         -2   -1    0    0    0  501 -0.00000000000E+00 -0.00000000000E+00 -0.45509573386E+01  0.45509573386E+01  0.00000000000E+00 0. -1.
          1    1    1    2  502    0  0.64455354914E+01 -0.33054429323E+02  0.71703774390E+02  0.79218504703E+02  0.00000000000E+00 0. -1.
         -1    1    1    2    0  501 -0.64455354914E+01  0.33054429323E+02  0.35648696427E+03  0.35807414863E+03  0.00000000000E+00 0.  1.
</event>
<event>
 4    1  0.6934088E+001  0.4110329E+02  0.7546771E-02  0.1342139E+00
          2   -1    0    0  502    0  0.00000000000E+00  0.00000000000E+00  0.23997174415E+02  0.23997174415E+02  0.00000000000E+00 0.  1.
         -2   -1    0    0    0  501 -0.00000000000E+00 -0.00000000000E+00 -0.76409851776E+02  0.76409851776E+02  0.00000000000E+00 0. -1.
          1    1    1    2  502    0  0.14966514613E+02 -0.38281637390E+02 -0.40282102310E+02  0.57551091106E+02  0.00000000000E+00 0. -1.
         -1    1    1    2    0  501 -0.14966514613E+02  0.38281637390E+02 -0.12130575051E+02  0.42855935085E+02  0.00000000000E+00 0.  1.
</event>
<event>
 4    1  0.6934088E+001  0.2384322E+02  0.7546771E-02  0.1482173E+00
          2   -1    0    0  502    0  0.00000000000E+00  0.00000000000E+00  0.56391930360E+02  0.56391930360E+02  0.00000000000E+00 0.  1.
         -2   -1    0    0    0  501 -0.00000000000E+00 -0.00000000000E+00 -0.10092845920E+02  0.10092845920E+02  0.00000000000E+00 0. -1.
          1    1    1    2  502    0  0.13673898471E+02  0.19532625203E+02  0.22020870280E+02  0.32456396513E+02  0.00000000000E+00 0. -1.
         -1    1    1    2    0  501 -0.13673898471E+02 -0.19532625203E+02  0.24278214160E+02  0.34028379766E+02  0.00000000000E+00 0.  1.
</event>
<event>
 4    1  0.6934088E+001  0.2328725E+02  0.7546771E-02  0.1488922E+00
          2   -1    0    0  502    0  0.00000000000E+00  0.00000000000E+00  0.72968828197E+01  0.72968828197E+01  0.00000000000E+00 0.  1.
         -2   -1    0    0    0  501 -0.00000000000E+00 -0.00000000000E+00 -0.79617482713E+02  0.79617482713E+02  0.00000000000E+00 0. -1.
          1    1    1    2  502    0 -0.23124699395E+02 -0.27466927629E+01 -0.24949446525E+02  0.34128740456E+02  0.00000000000E+00 0. -1.
         -1    1    1    2    0  501  0.23124699395E+02  0.27466927629E+01 -0.47371153368E+02  0.52785625076E+02  0.00000000000E+00 0.  1.
</event>
<event>
 4    1  0.6934088E+001  0.2217634E+02  0.7546771E-02  0.1503108E+00
          2   -1    0    0  502    0  0.00000000000E+00  0.00000000000E+00  0.64057366145E+01  0.64057366145E+01  0.00000000000E+00 0.  1.
         -2   -1    0    0    0  501 -0.00000000000E+00 -0.00000000000E+00 -0.86150204434E+02  0.86150204434E+02  0.00000000000E+00 0. -1.
          1    1    1    2  502    0  0.88901485732E+01  0.20316383638E+02 -0.24604536115E+02  0.33123607641E+02  0.00000000000E+00 0. -1.
         -1    1    1    2    0  501 -0.88901485732E+01 -0.20316383638E+02 -0.55139931705E+02  0.59432333407E+02  0.00000000000E+00 0.  1.
</event>
<event>
 4    1  0.6934088E+001  0.2163074E+02  0.7546771E-02  0.1510447E+00
          2   -1    0    0  502    0  0.00000000000E+00  0.00000000000E+00  0.46804707620E+03  0.46804707620E+03  0.00000000000E+00 0.  1.
         -2   -1    0    0    0  501 -0.00000000000E+00 -0.00000000000E+00 -0.11737285418E+01  0.11737285418E+01  0.00000000000E+00 0. -1.
          1    1    1    2  502    0 -0.85957027430E+01 -0.19849505229E+02  0.14308819399E+03  0.14471392546E+03  0.00000000000E+00 0. -1.
         -1    1    1    2    0  501  0.85957027430E+01  0.19849505229E+02  0.32378515368E+03  0.32450687929E+03  0.00000000000E+00 0.  1.
</event>
<event>
 4    1  0.6934088E+001  0.2645775E+02  0.7546771E-02  0.1453132E+00
          2   -1    0    0  502    0  0.00000000000E+00  0.00000000000E+00  0.56443680724E+03  0.56443680724E+03  0.00000000000E+00 0. -1.
         -2   -1    0    0    0  501 -0.00000000000E+00 -0.00000000000E+00 -0.13018889023E+01  0.13018889023E+01  0.00000000000E+00 0.  1.
          1    1    1    2  502    0 -0.24141817559E+02  0.10825215199E+02  0.21999106839E+03  0.22157635888E+03  0.00000000000E+00 0. -1.
         -1    1    1    2    0  501  0.24141817559E+02 -0.10825215199E+02  0.34314384995E+03  0.34416233727E+03  0.00000000000E+00 0.  1.
</event>
<event>
 4    1  0.6934088E+001  0.2107582E+02  0.7546771E-02  0.1518185E+00
          2   -1    0    0  502    0  0.00000000000E+00  0.00000000000E+00  0.10116498604E+02  0.10116498604E+02  0.00000000000E+00 0.  1.
         -2   -1    0    0    0  501 -0.00000000000E+00 -0.00000000000E+00 -0.69583127301E+02  0.69583127301E+02  0.00000000000E+00 0. -1.
          1    1    1    2  502    0 -0.10146897278E+02 -0.18472429602E+02 -0.55266564514E+01  0.21788393959E+02  0.00000000000E+00 0.  1.
         -1    1    1    2    0  501  0.10146897278E+02  0.18472429602E+02 -0.53939972246E+02  0.57911231947E+02  0.00000000000E+00 0. -1.
</event>
<event>
 4    1  0.6934088E+001  0.2697599E+02  0.7546771E-02  0.1447849E+00
          2   -1    0    0  502    0  0.00000000000E+00  0.00000000000E+00  0.10217266324E+04  0.10217266324E+04  0.00000000000E+00 0.  1.
         -2   -1    0    0    0  501 -0.00000000000E+00 -0.00000000000E+00 -0.11838822813E+01  0.11838822813E+01  0.00000000000E+00 0. -1.
          1    1    1    2  502    0 -0.26669506789E+02  0.40548090896E+01  0.18744836152E+03  0.18937949283E+03  0.00000000000E+00 0. -1.
         -1    1    1    2    0  501  0.26669506789E+02 -0.40548090896E+01  0.83309438857E+03  0.83353102182E+03  0.00000000000E+00 0.  1.
</event>
<event>
 4    1  0.6934088E+001  0.2231189E+02  0.7546771E-02  0.1501324E+00
          2   -1    0    0  502    0  0.00000000000E+00  0.00000000000E+00  0.90256163369E+03  0.90256163369E+03  0.00000000000E+00 0.  1.
         -2   -1    0    0    0  501 -0.00000000000E+00 -0.00000000000E+00 -0.55191650338E+00  0.55191650338E+00  0.00000000000E+00 0. -1.
          1    1    1    2  502    0  0.15922982736E+02 -0.15629426882E+02  0.46241927089E+03  0.46295723610E+03  0.00000000000E+00 0. -1.
         -1    1    1    2    0  501 -0.15922982736E+02  0.15629426882E+02  0.43959044630E+03  0.44015631410E+03  0.00000000000E+00 0.  1.
</event>
<event>
 4    1  0.6934088E+001  0.2185053E+02  0.7546771E-02  0.1507459E+00
          2   -1    0    0  502    0  0.00000000000E+00  0.00000000000E+00  0.10766559896E+04  0.10766559896E+04  0.00000000000E+00 0. -1.
         -2   -1    0    0    0  501 -0.00000000000E+00 -0.00000000000E+00 -0.51761517763E+00  0.51761517763E+00  0.00000000000E+00 0.  1.
          1    1    1    2  502    0  0.17751679283E+02 -0.12740623814E+02  0.33420291111E+03  0.33491645437E+03  0.00000000000E+00 0.  1.
         -1    1    1    2    0  501 -0.17751679283E+02  0.12740623814E+02  0.74193546331E+03  0.74225715040E+03  0.00000000000E+00 0. -1.
</event>
<event>
 4    1  0.6934088E+001  0.3169291E+02  0.7546771E-02  0.1405434E+00
          2   -1    0    0  502    0  0.00000000000E+00  0.00000000000E+00  0.60910773732E+03  0.60910773732E+03  0.00000000000E+00 0. -1.
         -2   -1    0    0    0  501 -0.00000000000E+00 -0.00000000000E+00 -0.18831001777E+01  0.18831001777E+01  0.00000000000E+00 0.  1.
          1    1    1    2  502    0 -0.24841946195E+02  0.19680407060E+02  0.41131717194E+03  0.41253637009E+03  0.00000000000E+00 0. -1.
         -1    1    1    2    0  501  0.24841946195E+02 -0.19680407060E+02  0.19590746521E+03  0.19845446741E+03  0.00000000000E+00 0.  1.
</event>
<event>
 4    1  0.6934088E+001  0.2097212E+02  0.7546771E-02  0.1519663E+00
          2   -1    0    0  502    0  0.00000000000E+00  0.00000000000E+00  0.96512688272E+03  0.96512688272E+03  0.00000000000E+00 0.  1.
         -2   -1    0    0    0  501 -0.00000000000E+00 -0.00000000000E+00 -0.46441250195E+00  0.46441250195E+00  0.00000000000E+00 0. -1.
          1    1    1    2  502    0  0.19986532474E+02  0.63536134468E+01  0.41628846849E+03  0.41681640908E+03  0.00000000000E+00 0. -1.
         -1    1    1    2    0  501 -0.19986532474E+02 -0.63536134468E+01  0.54837400173E+03  0.54877488614E+03  0.00000000000E+00 0.  1.
</event>
<event>
 4    1  0.6934088E+001  0.2418421E+02  0.7546771E-02  0.1478140E+00
          2   -1    0    0  502    0  0.00000000000E+00  0.00000000000E+00  0.12105226724E+04  0.12105226724E+04  0.00000000000E+00 0.  1.
         -2   -1    0    0    0  501 -0.00000000000E+00 -0.00000000000E+00 -0.48320552718E+00  0.48320552718E+00  0.00000000000E+00 0. -1.
          1    1    1    2  502    0  0.10385629698E+01 -0.24161896222E+02  0.61091270446E+03  0.61139120726E+03  0.00000000000E+00 0. -1.
         -1    1    1    2    0  501 -0.10385629698E+01  0.24161896222E+02  0.59912676239E+03  0.59961467065E+03  0.00000000000E+00 0.  1.
</event>
<event>
 4    1  0.6934088E+001  0.4650539E+02  0.7546771E-02  0.1314079E+00
          2   -1    0    0  502    0  0.00000000000E+00  0.00000000000E+00  0.23202798179E+02  0.23202798179E+02  0.00000000000E+00 0. -1.
         -2   -1    0    0    0  501 -0.00000000000E+00 -0.00000000000E+00 -0.94963361180E+02  0.94963361180E+02  0.00000000000E+00 0.  1.
          1    1    1    2  502    0 -0.30024940274E+02 -0.35514142819E+02 -0.27853865042E+02  0.54208755533E+02  0.00000000000E+00 0.  1.
         -1    1    1    2    0  501  0.30024940274E+02  0.35514142819E+02 -0.43906697959E+02  0.63957403827E+02  0.00000000000E+00 0. -1.
</event>
<event>
 4    1  0.6934088E+001  0.4170962E+02  0.7546771E-02  0.1338749E+00
          2   -1    0    0  502    0  0.00000000000E+00  0.00000000000E+00  0.19512713438E+03  0.19512713438E+03  0.00000000000E+00 0. -1.
         -2   -1    0    0    0  501 -0.00000000000E+00 -0.00000000000E+00 -0.12883358760E+02  0.12883358760E+02  0.00000000000E+00 0.  1.
          1    1    1    2  502    0 -0.29235017439E+02  0.29749056848E+02  0.14883952147E+03  0.15457326994E+03  0.00000000000E+00 0. -1.
         -1    1    1    2    0  501  0.29235017439E+02 -0.29749056848E+02  0.33404254146E+02  0.53437223198E+02  0.00000000000E+00 0.  1.
</event>
<event>
 4    1  0.6934088E+001  0.2401922E+02  0.7546771E-02  0.1480082E+00
          2   -1    0    0  502    0  0.00000000000E+00  0.00000000000E+00  0.20936016583E+02  0.20936016583E+02  0.00000000000E+00 0.  1.
         -2   -1    0    0    0  501 -0.00000000000E+00 -0.00000000000E+00 -0.45660116711E+02  0.45660116711E+02  0.00000000000E+00 0. -1.
          1    1    1    2  502    0  0.20563547359E+02  0.12412223306E+02 -0.33328915663E+02  0.41082105431E+02  0.00000000000E+00 0. -1.
         -1    1    1    2    0  501 -0.20563547359E+02 -0.12412223306E+02  0.86048155356E+01  0.25514027863E+02  0.00000000000E+00 0.  1.
</event>
<event>
 4    1  0.6934088E+001  0.2629923E+02  0.7546771E-02  0.1454777E+00
          2   -1    0    0  502    0  0.00000000000E+00  0.00000000000E+00  0.15028372538E+01  0.15028372538E+01  0.00000000000E+00 0. -1.
         -2   -1    0    0    0  501 -0.00000000000E+00 -0.00000000000E+00 -0.67780848773E+03  0.67780848773E+03  0.00000000000E+00 0.  1.
          1    1    1    2  502    0 -0.94997014005E+01  0.24523563785E+02 -0.53059231025E+03  0.53124368157E+03  0.00000000000E+00 0.  1.
         -1    1    1    2    0  501  0.94997014005E+01 -0.24523563785E+02 -0.14571334023E+03  0.14806764342E+03  0.00000000000E+00 0. -1.
</event>
<event>
 4    1  0.6934088E+001  0.2638330E+02  0.7546771E-02  0.1453903E+00
          2   -1    0    0  502    0  0.00000000000E+00  0.00000000000E+00  0.14869714769E+04  0.14869714769E+04  0.00000000000E+00 0. -1.
         -2   -1    0    0    0  501 -0.00000000000E+00 -0.00000000000E+00 -0.50907155571E+00  0.50907155571E+00  0.00000000000E+00 0.  1.
          1    1    1    2  502    0 -0.16334380719E+02 -0.20718750342E+02  0.95417945146E+03  0.95454413423E+03  0.00000000000E+00 0. -1.
         -1    1    1    2    0  501  0.16334380719E+02  0.20718750342E+02  0.53228295384E+03  0.53293641418E+03  0.00000000000E+00 0.  1.
</event>
<event>
 4    1  0.6934088E+001  0.2811252E+02  0.7546771E-02  0.1436742E+00
          2   -1    0    0  502    0  0.00000000000E+00  0.00000000000E+00  0.19149594530E+04  0.19149594530E+04  0.00000000000E+00 0. -1.
         -2   -1    0    0    0  501 -0.00000000000E+00 -0.00000000000E+00 -0.62516105730E+00  0.62516105730E+00  0.00000000000E+00 0.  1.
          1    1    1    2  502    0 -0.11623207899E+02  0.25597166990E+02  0.15155211514E+04  0.15157818690E+04  0.00000000000E+00 0. -1.
         -1    1    1    2    0  501  0.11623207899E+02 -0.25597166990E+02  0.39881314057E+03  0.39980274513E+03  0.00000000000E+00 0.  1.
</event>
<event>
 4    1  0.6934088E+001  0.2262097E+02  0.7546771E-02  0.1497313E+00
          2   -1    0    0  502    0  0.00000000000E+00  0.00000000000E+00  0.32618558580E+03  0.32618558580E+03  0.00000000000E+00 0.  1.
         -2   -1    0    0    0  501 -0.00000000000E+00 -0.00000000000E+00 -0.41896130663E+01  0.41896130663E+01  0.00000000000E+00 0. -1.
          1    1    1    2  502    0  0.22579364666E+02 -0.13713034549E+01  0.29164861248E+03  0.29252456536E+03  0.00000000000E+00 0.  1.
         -1    1    1    2    0  501 -0.22579364666E+02  0.13713034549E+01  0.30347360252E+02  0.37850633498E+02  0.00000000000E+00 0. -1.
</event>
<event>
 4    1  0.6934088E+001  0.2936038E+02  0.7546771E-02  0.1425237E+00
          2   -1    0    0  502    0  0.00000000000E+00  0.00000000000E+00  0.24136462361E+03  0.24136462361E+03  0.00000000000E+00 0. -1.
         -2   -1    0    0    0  501 -0.00000000000E+00 -0.00000000000E+00 -0.37753765976E+01  0.37753765976E+01  0.00000000000E+00 0.  1.
          1    1    1    2  502    0  0.48053611207E+00  0.29356450656E+02  0.14727823058E+03  0.15017626082E+03  0.00000000000E+00 0.  1.
         -1    1    1    2    0  501 -0.48053611207E+00 -0.29356450656E+02  0.90311016434E+02  0.94963739393E+02  0.00000000000E+00 0. -1.
</event>
<event>
 4    1  0.6934088E+001  0.2625393E+02  0.7546771E-02  0.1455250E+00
          2   -1    0    0  502    0  0.00000000000E+00  0.00000000000E+00  0.66583107065E+03  0.66583107065E+03  0.00000000000E+00 0.  1.
         -2   -1    0    0    0  501 -0.00000000000E+00 -0.00000000000E+00 -0.27826758839E+01  0.27826758839E+01  0.00000000000E+00 0. -1.
          1    1    1    2  502    0  0.26245026467E+02  0.68378398397E+00  0.59644707738E+03  0.59702461012E+03  0.00000000000E+00 0.  1.
         -1    1    1    2    0  501 -0.26245026467E+02 -0.68378398397E+00  0.66601317389E+02  0.71589136415E+02  0.00000000000E+00 0. -1.
</event>
<event>
 4    1  0.6934088E+001  0.6689043E+02  0.7546771E-02  0.1238062E+00
          2   -1    0    0  502    0  0.00000000000E+00  0.00000000000E+00  0.25328812702E+03  0.25328812702E+03  0.00000000000E+00 0. -1.
         -2   -1    0    0    0  501 -0.00000000000E+00 -0.00000000000E+00 -0.18049544475E+02  0.18049544475E+02  0.00000000000E+00 0.  1.
          1    1    1    2  502    0 -0.53369904018E+02 -0.40323478553E+02  0.13742232948E+03  0.15283725402E+03  0.00000000000E+00 0. -1.
         -1    1    1    2    0  501  0.53369904018E+02  0.40323478553E+02  0.97816253067E+02  0.11850041747E+03  0.00000000000E+00 0.  1.
</event>
<event>
 4    1  0.6934088E+001  0.2308037E+02  0.7546771E-02  0.1491491E+00
          2   -1    0    0  502    0  0.00000000000E+00  0.00000000000E+00  0.98302866107E+03  0.98302866107E+03  0.00000000000E+00 0.  1.
         -2   -1    0    0    0  501 -0.00000000000E+00 -0.00000000000E+00 -0.70157345506E+00  0.70157345506E+00  0.00000000000E+00 0. -1.
          1    1    1    2  502    0  0.14447157689E+02  0.17999527438E+02  0.25651079703E+03  0.25754706822E+03  0.00000000000E+00 0. -1.
         -1    1    1    2    0  501 -0.14447157689E+02 -0.17999527438E+02  0.72581629059E+03  0.72618316631E+03  0.00000000000E+00 0.  1.
</event>
<event>
 4    1  0.6934088E+001  0.2000601E+02  0.7546771E-02  0.1533944E+00
          2   -1    0    0  502    0  0.00000000000E+00  0.00000000000E+00  0.35704012939E+03  0.35704012939E+03  0.00000000000E+00 0. -1.
         -2   -1    0    0    0  501 -0.00000000000E+00 -0.00000000000E+00 -0.13748872048E+01  0.13748872048E+01  0.00000000000E+00 0.  1.
          1    1    1    2  502    0 -0.10177734359E+02 -0.17223650156E+02  0.25484257564E+03  0.25562663938E+03  0.00000000000E+00 0. -1.
         -1    1    1    2    0  501  0.10177734359E+02  0.17223650156E+02  0.10082266654E+03  0.10278837721E+03  0.00000000000E+00 0.  1.
</event>
<event>
 4    1  0.6934088E+001  0.2248117E+02  0.7546771E-02  0.1499118E+00
          2   -1    0    0  502    0  0.00000000000E+00  0.00000000000E+00  0.41780588002E+01  0.41780588002E+01  0.00000000000E+00 0. -1.
         -2   -1    0    0    0  501 -0.00000000000E+00 -0.00000000000E+00 -0.12495222466E+03  0.12495222466E+03  0.00000000000E+00 0.  1.
          1    1    1    2  502    0  0.21516459423E+02 -0.65149721112E+01 -0.48854960222E+02  0.53779271342E+02  0.00000000000E+00 0. -1.
         -1    1    1    2    0  501 -0.21516459423E+02  0.65149721112E+01 -0.71919205634E+02  0.75351012115E+02  0.00000000000E+00 0.  1.
</event>
<event>
 4    1  0.6934088E+001  0.2498703E+02  0.7546771E-02  0.1468949E+00
          2   -1    0    0  502    0  0.00000000000E+00  0.00000000000E+00  0.72929863071E+03  0.72929863071E+03  0.00000000000E+00 0.  1.
         -2   -1    0    0    0  501 -0.00000000000E+00 -0.00000000000E+00 -0.91268978229E+00  0.91268978229E+00  0.00000000000E+00 0. -1.
          1    1    1    2  502    0 -0.17703357308E+02  0.17633567988E+02  0.45510704618E+03  0.45579246929E+03  0.00000000000E+00 0.  1.
         -1    1    1    2    0  501  0.17703357308E+02 -0.17633567988E+02  0.27327889475E+03  0.27441885120E+03  0.00000000000E+00 0. -1.
</event>
<event>
 4    1  0.6934088E+001  0.2549437E+02  0.7546771E-02  0.1463348E+00
          2   -1    0    0  502    0  0.00000000000E+00  0.00000000000E+00  0.15753185632E+04  0.15753185632E+04  0.00000000000E+00 0.  1.
         -2   -1    0    0    0  501 -0.00000000000E+00 -0.00000000000E+00 -0.48522534692E+00  0.48522534692E+00  0.00000000000E+00 0. -1.
          1    1    1    2  502    0  0.21838486525E+02  0.13154595136E+02  0.48257784759E+03  0.48325080636E+03  0.00000000000E+00 0.  1.
         -1    1    1    2    0  501 -0.21838486525E+02 -0.13154595136E+02  0.10922554902E+04  0.10925529822E+04  0.00000000000E+00 0. -1.
</event>
<event>
 4    1  0.6934088E+001  0.3537073E+02  0.7546771E-02  0.1377975E+00
          2   -1    0    0  502    0  0.00000000000E+00  0.00000000000E+00  0.16900668117E+04  0.16900668117E+04  0.00000000000E+00 0. -1.
         -2   -1    0    0    0  501 -0.00000000000E+00 -0.00000000000E+00 -0.88113948914E+00  0.88113948914E+00  0.00000000000E+00 0.  1.
          1    1    1    2  502    0  0.34717058663E+02 -0.67686175380E+01  0.50652623823E+03  0.50775970534E+03  0.00000000000E+00 0.  1.
         -1    1    1    2    0  501 -0.34717058663E+02  0.67686175380E+01  0.11826594340E+04  0.11831882459E+04  0.00000000000E+00 0. -1.
</event>
<event>
 4    1  0.6934088E+001  0.2093811E+02  0.7546771E-02  0.1520150E+00
          2   -1    0    0  502    0  0.00000000000E+00  0.00000000000E+00  0.64420710322E+01  0.64420710322E+01  0.00000000000E+00 0. -1.
         -2   -1    0    0    0  501 -0.00000000000E+00 -0.00000000000E+00 -0.71217640295E+02  0.71217640295E+02  0.00000000000E+00 0.  1.
          1    1    1    2  502    0 -0.10325372497E+02  0.18215140015E+02 -0.24202971298E+02  0.32002944593E+02  0.00000000000E+00 0.  1.
         -1    1    1    2    0  501  0.10325372497E+02 -0.18215140015E+02 -0.40572597965E+02  0.45656766734E+02  0.00000000000E+00 0. -1.
</event>
<event>
 4    1  0.6934088E+001  0.2393321E+02  0.7546771E-02  0.1481101E+00
          2   -1    0    0  502    0  0.00000000000E+00  0.00000000000E+00  0.95396015662E+03  0.95396015662E+03  0.00000000000E+00 0. -1.
         -2   -1    0    0    0  501 -0.00000000000E+00 -0.00000000000E+00 -0.78916526229E+00  0.78916526229E+00  0.00000000000E+00 0.  1.
          1    1    1    2  502    0  0.23703361751E+02  0.33089757594E+01  0.71003178405E+03  0.71043503083E+03  0.00000000000E+00 0. -1.
         -1    1    1    2    0  501 -0.23703361751E+02 -0.33089757594E+01  0.24313920731E+03  0.24431429105E+03  0.00000000000E+00 0.  1.
</event>
<event>
 4    1  0.6934088E+001  0.2734956E+02  0.7546771E-02  0.1444128E+00
          2   -1    0    0  502    0  0.00000000000E+00  0.00000000000E+00  0.11389455037E+03  0.11389455037E+03  0.00000000000E+00 0. -1.
         -2   -1    0    0    0  501 -0.00000000000E+00 -0.00000000000E+00 -0.67947883281E+01  0.67947883281E+01  0.00000000000E+00 0.  1.
          1    1    1    2  502    0 -0.20767854648E+02 -0.17795920363E+02  0.42512344538E+02  0.50549955553E+02  0.00000000000E+00 0. -1.
         -1    1    1    2    0  501  0.20767854648E+02  0.17795920363E+02  0.64587417508E+02  0.70139383150E+02  0.00000000000E+00 0.  1.
</event>
<event>
 4    1  0.6934088E+001  0.2148494E+02  0.7546771E-02  0.1512453E+00
          2   -1    0    0  502    0  0.00000000000E+00  0.00000000000E+00  0.96946825523E+03  0.96946825523E+03  0.00000000000E+00 0. -1.
         -2   -1    0    0    0  501 -0.00000000000E+00 -0.00000000000E+00 -0.74987788049E+00  0.74987788049E+00  0.00000000000E+00 0.  1.
          1    1    1    2  502    0 -0.11878221290E+02  0.17902802419E+02  0.19126197875E+03  0.19246492405E+03  0.00000000000E+00 0.  1.
         -1    1    1    2    0  501  0.11878221290E+02 -0.17902802419E+02  0.77745639859E+03  0.77775320905E+03  0.00000000000E+00 0. -1.
</event>
<event>
 4    1  0.6934088E+001  0.3103729E+02  0.7546771E-02  0.1410791E+00
          2   -1    0    0  502    0  0.00000000000E+00  0.00000000000E+00  0.13010222162E+02  0.13010222162E+02  0.00000000000E+00 0.  1.
         -2   -1    0    0    0  501 -0.00000000000E+00 -0.00000000000E+00 -0.75335623803E+02  0.75335623803E+02  0.00000000000E+00 0. -1.
          1    1    1    2  502    0  0.11077282149E+02 -0.28993222770E+02 -0.36949352026E+02  0.48255235587E+02  0.00000000000E+00 0. -1.
         -1    1    1    2    0  501 -0.11077282149E+02  0.28993222770E+02 -0.25376049614E+02  0.40090610377E+02  0.00000000000E+00 0.  1.
</event>
<event>
 4    1  0.6934088E+001  0.2728748E+02  0.7546771E-02  0.1444741E+00
          2   -1    0    0  502    0  0.00000000000E+00  0.00000000000E+00  0.21446084953E+04  0.21446084953E+04  0.00000000000E+00 0. -1.
         -2   -1    0    0    0  501 -0.00000000000E+00 -0.00000000000E+00 -0.62716110494E+00  0.62716110494E+00  0.00000000000E+00 0.  1.
          1    1    1    2  502    0 -0.21386481281E+02 -0.16947715422E+02  0.35534443881E+03  0.35639062394E+03  0.00000000000E+00 0. -1.
         -1    1    1    2    0  501  0.21386481281E+02  0.16947715422E+02  0.17886368954E+04  0.17888450324E+04  0.00000000000E+00 0.  1.
</event>
<event>
 4    1  0.6934088E+001  0.2103017E+02  0.7546771E-02  0.1518834E+00
          2   -1    0    0  502    0  0.00000000000E+00  0.00000000000E+00  0.80703599346E+03  0.80703599346E+03  0.00000000000E+00 0.  1.
         -2   -1    0    0    0  501 -0.00000000000E+00 -0.00000000000E+00 -0.55788891825E+00  0.55788891825E+00  0.00000000000E+00 0. -1.
          1    1    1    2  502    0  0.18600030778E+02  0.98136061940E+01  0.45695818278E+03  0.45744185294E+03  0.00000000000E+00 0.  1.
         -1    1    1    2    0  501 -0.18600030778E+02 -0.98136061940E+01  0.34951992176E+03  0.35015202944E+03  0.00000000000E+00 0. -1.
</event>
<event>
 4    1  0.6934088E+001  0.4522150E+02  0.7546771E-02  0.1320336E+00
          2   -1    0    0  502    0  0.00000000000E+00  0.00000000000E+00  0.25272692524E+03  0.25272692524E+03  0.00000000000E+00 0.  1.
         -2   -1    0    0    0  501 -0.00000000000E+00 -0.00000000000E+00 -0.11652311392E+02  0.11652311392E+02  0.00000000000E+00 0. -1.
          1    1    1    2  502    0  0.15881735404E+02 -0.42340928944E+02  0.19361001582E+03  0.19882108039E+03  0.00000000000E+00 0.  1.
         -1    1    1    2    0  501 -0.15881735404E+02  0.42340928944E+02  0.47464598031E+02  0.65558156240E+02  0.00000000000E+00 0. -1.
</event>
<event>
 4    1  0.6934088E+001  0.2518875E+02  0.7546771E-02  0.1466703E+00
          2   -1    0    0  502    0  0.00000000000E+00  0.00000000000E+00  0.52414085773E+03  0.52414085773E+03  0.00000000000E+00 0. -1.
         -2   -1    0    0    0  501 -0.00000000000E+00 -0.00000000000E+00 -0.12597034211E+01  0.12597034211E+01  0.00000000000E+00 0.  1.
          1    1    1    2  502    0  0.25183444630E+02 -0.51717377756E+00  0.20952269996E+03  0.21103136059E+03  0.00000000000E+00 0.  1.
         -1    1    1    2    0  501 -0.25183444630E+02  0.51717377756E+00  0.31335845434E+03  0.31436920056E+03  0.00000000000E+00 0. -1.
</event>
<event>
 4    1  0.6934088E+001  0.2326089E+02  0.7546771E-02  0.1489248E+00
          2   -1    0    0  502    0  0.00000000000E+00  0.00000000000E+00  0.40100666994E+02  0.40100666994E+02  0.00000000000E+00 0. -1.
         -2   -1    0    0    0  501 -0.00000000000E+00 -0.00000000000E+00 -0.14650579721E+02  0.14650579721E+02  0.00000000000E+00 0.  1.
          1    1    1    2  502    0  0.54265649735E+01 -0.22619044441E+02  0.50291935247E+01  0.23798352177E+02  0.00000000000E+00 0. -1.
         -1    1    1    2    0  501 -0.54265649735E+01  0.22619044441E+02  0.20420893747E+02  0.30952894538E+02  0.00000000000E+00 0.  1.
</event>
<event>
 4    1  0.6934088E+001  0.8102303E+02  0.7546771E-02  0.1201492E+00
          2   -1    0    0  502    0  0.00000000000E+00  0.00000000000E+00  0.58303836045E+03  0.58303836045E+03  0.00000000000E+00 0.  1.
         -2   -1    0    0    0  501 -0.00000000000E+00 -0.00000000000E+00 -0.11262306286E+02  0.11262306286E+02  0.00000000000E+00 0. -1.
          1    1    1    2  502    0 -0.48582692682E+02  0.64841753307E+02  0.28121261643E+03  0.29265212564E+03  0.00000000000E+00 0. -1.
         -1    1    1    2    0  501  0.48582692682E+02 -0.64841753307E+02  0.29056343774E+03  0.30164854110E+03  0.00000000000E+00 0.  1.
</event>
<event>
 4    1  0.6934088E+001  0.6154818E+02  0.7546771E-02  0.1254661E+00
          2   -1    0    0  502    0  0.00000000000E+00  0.00000000000E+00  0.30770297784E+02  0.30770297784E+02  0.00000000000E+00 0.  1.
         -2   -1    0    0    0  501 -0.00000000000E+00 -0.00000000000E+00 -0.12473839231E+03  0.12473839231E+03  0.00000000000E+00 0. -1.
          1    1    1    2  502    0 -0.46069152110E+02 -0.40814354156E+02 -0.38104298501E+02  0.72388644452E+02  0.00000000000E+00 0.  1.
         -1    1    1    2    0  501  0.46069152110E+02  0.40814354156E+02 -0.55863796027E+02  0.83120045644E+02  0.00000000000E+00 0. -1.
</event>
<event>
 4    1  0.6934088E+001  0.2657394E+02  0.7546771E-02  0.1451936E+00
          2   -1    0    0  502    0  0.00000000000E+00  0.00000000000E+00  0.72296369752E+03  0.72296369752E+03  0.00000000000E+00 0.  1.
         -2   -1    0    0    0  501 -0.00000000000E+00 -0.00000000000E+00 -0.12896926482E+01  0.12896926482E+01  0.00000000000E+00 0. -1.
          1    1    1    2  502    0 -0.34663463175E+01 -0.26346891192E+02  0.53921083594E+03  0.53986526081E+03  0.00000000000E+00 0.  1.
         -1    1    1    2    0  501  0.34663463175E+01  0.26346891192E+02  0.18246316894E+03  0.18438812936E+03  0.00000000000E+00 0. -1.
</event>
<event>
 4    1  0.6934088E+001  0.2362161E+02  0.7546771E-02  0.1484837E+00
          2   -1    0    0  502    0  0.00000000000E+00  0.00000000000E+00  0.74172950250E+02  0.74172950250E+02  0.00000000000E+00 0.  1.
         -2   -1    0    0    0  501 -0.00000000000E+00 -0.00000000000E+00 -0.11783872628E+02  0.11783872628E+02  0.00000000000E+00 0. -1.
          1    1    1    2  502    0  0.14148430991E+02  0.18915668538E+02  0.57039213295E+02  0.61736961936E+02  0.00000000000E+00 0.  1.
         -1    1    1    2    0  501 -0.14148430991E+02 -0.18915668538E+02  0.53498643266E+01  0.24219860942E+02  0.00000000000E+00 0. -1.
</event>
<event>
 4    1  0.6934088E+001  0.2867768E+02  0.7546771E-02  0.1431446E+00
          2   -1    0    0  502    0  0.00000000000E+00  0.00000000000E+00  0.11453370702E+04  0.11453370702E+04  0.00000000000E+00 0. -1.
         -2   -1    0    0    0  501 -0.00000000000E+00 -0.00000000000E+00 -0.73583078538E+00  0.73583078538E+00  0.00000000000E+00 0.  1.
          1    1    1    2  502    0  0.12117785065E+02 -0.25991707604E+02  0.66137762081E+03  0.66199906865E+03  0.00000000000E+00 0.  1.
         -1    1    1    2    0  501 -0.12117785065E+02  0.25991707604E+02  0.48322361863E+03  0.48407383237E+03  0.00000000000E+00 0. -1.
</event>
<event>
 4    1  0.6934088E+001  0.5038269E+02  0.7546771E-02  0.1296522E+00
          2   -1    0    0  502    0  0.00000000000E+00  0.00000000000E+00  0.48268299394E+01  0.48268299394E+01  0.00000000000E+00 0.  1.
         -2   -1    0    0    0  501 -0.00000000000E+00 -0.00000000000E+00 -0.52727029133E+03  0.52727029133E+03  0.00000000000E+00 0. -1.
          1    1    1    2  502    0  0.49331203883E+02 -0.10239534280E+02 -0.27479904892E+03  0.27937955012E+03  0.00000000000E+00 0.  1.
         -1    1    1    2    0  501 -0.49331203883E+02  0.10239534280E+02 -0.24764441247E+03  0.25271757115E+03  0.00000000000E+00 0. -1.
</event>
<event>
 4    1  0.6934088E+001  0.2094629E+02  0.7546771E-02  0.1520033E+00
          2   -1    0    0  502    0  0.00000000000E+00  0.00000000000E+00  0.60827642835E+01  0.60827642835E+01  0.00000000000E+00 0. -1.
         -2   -1    0    0    0  501 -0.00000000000E+00 -0.00000000000E+00 -0.83332942586E+02  0.83332942586E+02  0.00000000000E+00 0.  1.
          1    1    1    2  502    0  0.98914387558E+01 -0.18463651052E+02 -0.22232389152E+02  0.30545475905E+02  0.00000000000E+00 0. -1.
         -1    1    1    2    0  501 -0.98914387558E+01  0.18463651052E+02 -0.55017789150E+02  0.58870230964E+02  0.00000000000E+00 0.  1.
</event>
<event>
 4    1  0.6934088E+001  0.7355984E+02  0.7546771E-02  0.1219644E+00
          2   -1    0    0  502    0  0.00000000000E+00  0.00000000000E+00  0.65222668980E+02  0.65222668980E+02  0.00000000000E+00 0.  1.
         -2   -1    0    0    0  501 -0.00000000000E+00 -0.00000000000E+00 -0.15315060553E+03  0.15315060553E+03  0.00000000000E+00 0. -1.
          1    1    1    2  502    0  0.71425746445E+02 -0.17590115146E+02  0.29952505504E+02  0.79424190220E+02  0.00000000000E+00 0.  1.
         -1    1    1    2    0  501 -0.71425746445E+02  0.17590115146E+02 -0.11788044205E+03  0.13894908429E+03  0.00000000000E+00 0. -1.
</event>
<event>
 4    1  0.6934088E+001  0.2759289E+02  0.7546771E-02  0.1441742E+00
          2   -1    0    0  502    0  0.00000000000E+00  0.00000000000E+00  0.38558499969E+02  0.38558499969E+02  0.00000000000E+00 0. -1.
         -2   -1    0    0    0  501 -0.00000000000E+00 -0.00000000000E+00 -0.40432258436E+02  0.40432258436E+02  0.00000000000E+00 0.  1.
          1    1    1    2  502    0  0.22511270025E+02 -0.15956518492E+02  0.27313581953E+02  0.38825243330E+02  0.00000000000E+00 0. -1.
         -1    1    1    2    0  501 -0.22511270025E+02  0.15956518492E+02 -0.29187340420E+02  0.40165515076E+02  0.00000000000E+00 0.  1.
</event>
<event>
 4    1  0.6934088E+001  0.2141782E+02  0.7546771E-02  0.1513382E+00
          2   -1    0    0  502    0  0.00000000000E+00  0.00000000000E+00  0.24775821629E+02  0.24775821629E+02  0.00000000000E+00 0. -1.
         -2   -1    0    0    0  501 -0.00000000000E+00 -0.00000000000E+00 -0.28544285086E+02  0.28544285086E+02  0.00000000000E+00 0.  1.
          1    1    1    2  502    0  0.13754345953E+02 -0.16417700841E+02 -0.17687162744E+02  0.27776944746E+02  0.00000000000E+00 0.  1.
         -1    1    1    2    0  501 -0.13754345953E+02  0.16417700841E+02  0.13918699288E+02  0.25543161969E+02  0.00000000000E+00 0. -1.
</event>
<event>
 4    1  0.6934088E+001  0.2312179E+02  0.7546771E-02  0.1490974E+00
          2   -1    0    0  502    0  0.00000000000E+00  0.00000000000E+00  0.41485132322E+03  0.41485132322E+03  0.00000000000E+00 0. -1.
         -2   -1    0    0    0  501 -0.00000000000E+00 -0.00000000000E+00 -0.12893984461E+01  0.12893984461E+01  0.00000000000E+00 0.  1.
          1    1    1    2  502    0  0.79632538923E+01  0.21707232397E+02  0.20192538215E+03  0.20324487030E+03  0.00000000000E+00 0. -1.
         -1    1    1    2    0  501 -0.79632538923E+01 -0.21707232397E+02  0.21163654263E+03  0.21289585136E+03  0.00000000000E+00 0.  1.
</event>
<event>
 4    1  0.6934088E+001  0.2250678E+02  0.7546771E-02  0.1498786E+00
          2   -1    0    0  502    0  0.00000000000E+00  0.00000000000E+00  0.41974971902E+01  0.41974971902E+01  0.00000000000E+00 0.  1.
         -2   -1    0    0    0  501 -0.00000000000E+00 -0.00000000000E+00 -0.59603161976E+03  0.59603161976E+03  0.00000000000E+00 0. -1.
          1    1    1    2  502    0  0.17112919733E+02 -0.14618594743E+02 -0.56393246380E+03  0.56438141275E+03  0.00000000000E+00 0. -1.
         -1    1    1    2    0  501 -0.17112919733E+02  0.14618594743E+02 -0.27901658769E+02  0.35847704196E+02  0.00000000000E+00 0.  1.
</event>
<event>
 4    1  0.6934088E+001  0.3146467E+02  0.7546771E-02  0.1407282E+00
          2   -1    0    0  502    0  0.00000000000E+00  0.00000000000E+00  0.14663319862E+02  0.14663319862E+02  0.00000000000E+00 0. -1.
         -2   -1    0    0    0  501 -0.00000000000E+00 -0.00000000000E+00 -0.92302868205E+02  0.92302868205E+02  0.00000000000E+00 0.  1.
          1    1    1    2  502    0  0.29764631218E+02  0.10202570527E+02 -0.66534436363E+02  0.73599299854E+02  0.00000000000E+00 0. -1.
         -1    1    1    2    0  501 -0.29764631218E+02 -0.10202570527E+02 -0.11105111980E+02  0.33366888213E+02  0.00000000000E+00 0.  1.
</event>
<event>
 4    1  0.6934088E+001  0.2740873E+02  0.7546771E-02  0.1443545E+00
          2   -1    0    0  502    0  0.00000000000E+00  0.00000000000E+00  0.62633662022E+03  0.62633662022E+03  0.00000000000E+00 0.  1.
         -2   -1    0    0    0  501 -0.00000000000E+00 -0.00000000000E+00 -0.14318511475E+01  0.14318511475E+01  0.00000000000E+00 0. -1.
          1    1    1    2  502    0  0.70342131790E+01 -0.26490721161E+02  0.43891758091E+03  0.43977253358E+03  0.00000000000E+00 0.  1.
         -1    1    1    2    0  501 -0.70342131790E+01  0.26490721161E+02  0.18598718817E+03  0.18799593779E+03  0.00000000000E+00 0. -1.
</event>
<event>
 4    1  0.6934088E+001  0.3947548E+02  0.7546771E-02  0.1351587E+00
          2   -1    0    0  502    0  0.00000000000E+00  0.00000000000E+00  0.32509904168E+03  0.32509904168E+03  0.00000000000E+00 0. -1.
         -2   -1    0    0    0  501 -0.00000000000E+00 -0.00000000000E+00 -0.67148327992E+01  0.67148327992E+01  0.00000000000E+00 0.  1.
          1    1    1    2  502    0  0.39410454562E+02 -0.22647762170E+01  0.24794148227E+03  0.25106431800E+03  0.00000000000E+00 0. -1.
         -1    1    1    2    0  501 -0.39410454562E+02  0.22647762170E+01  0.70442726614E+02  0.80749556487E+02  0.00000000000E+00 0.  1.
</event>
<event>
 4    1  0.6934088E+001  0.2425262E+02  0.7546771E-02  0.1477341E+00
          2   -1    0    0  502    0  0.00000000000E+00  0.00000000000E+00  0.15717698072E+03  0.15717698072E+03  0.00000000000E+00 0.  1.
         -2   -1    0    0    0  501 -0.00000000000E+00 -0.00000000000E+00 -0.38515758343E+01  0.38515758343E+01  0.00000000000E+00 0. -1.
          1    1    1    2  502    0 -0.10986312913E+02  0.21621525986E+02  0.63095442886E+02  0.67596038126E+02  0.00000000000E+00 0.  1.
         -1    1    1    2    0  501  0.10986312913E+02 -0.21621525986E+02  0.90229961999E+02  0.93432518428E+02  0.00000000000E+00 0. -1.
</event>
<event>
 4    1  0.6934088E+001  0.2475658E+02  0.7546771E-02  0.1471545E+00
          2   -1    0    0  502    0  0.00000000000E+00  0.00000000000E+00  0.16349503497E+03  0.16349503497E+03  0.00000000000E+00 0. -1.
         -2   -1    0    0    0  501 -0.00000000000E+00 -0.00000000000E+00 -0.41595073936E+01  0.41595073936E+01  0.00000000000E+00 0.  1.
          1    1    1    2  502    0 -0.51850028264E+01 -0.24207523496E+02  0.53322598488E+02  0.58789352417E+02  0.00000000000E+00 0.  1.
         -1    1    1    2    0  501  0.51850028264E+01  0.24207523496E+02  0.10601292909E+03  0.10886518994E+03  0.00000000000E+00 0. -1.
</event>
<event>
 4    1  0.6934088E+001  0.2187369E+02  0.7546771E-02  0.1507147E+00
          2   -1    0    0  502    0  0.00000000000E+00  0.00000000000E+00  0.52563634910E+02  0.52563634910E+02  0.00000000000E+00 0. -1.
         -2   -1    0    0    0  501 -0.00000000000E+00 -0.00000000000E+00 -0.94704208043E+01  0.94704208043E+01  0.00000000000E+00 0.  1.
          1    1    1    2  502    0 -0.18697421629E+02  0.11351867537E+02  0.27660464863E+02  0.35264143101E+02  0.00000000000E+00 0.  1.
         -1    1    1    2    0  501  0.18697421629E+02 -0.11351867537E+02  0.15432749242E+02  0.26769912614E+02  0.00000000000E+00 0. -1.
</event>
<event>
 4    1  0.6934088E+001  0.2106717E+02  0.7546771E-02  0.1518308E+00
          2   -1    0    0  502    0  0.00000000000E+00  0.00000000000E+00  0.69573822600E+01  0.69573822600E+01  0.00000000000E+00 0.  1.
         -2   -1    0    0    0  501 -0.00000000000E+00 -0.00000000000E+00 -0.86085720789E+02  0.86085720789E+02  0.00000000000E+00 0. -1.
          1    1    1    2  502    0  0.20574922136E+02 -0.45275091898E+01 -0.15889751591E+02  0.26387685878E+02  0.00000000000E+00 0.  1.
         -1    1    1    2    0  501 -0.20574922136E+02  0.45275091898E+01 -0.63238586938E+02  0.66655417171E+02  0.00000000000E+00 0. -1.
</event>
<event>
 4    1  0.6934088E+001  0.2445557E+02  0.7546771E-02  0.1474987E+00
          2   -1    0    0  502    0  0.00000000000E+00  0.00000000000E+00  0.13704083708E+02  0.13704083708E+02  0.00000000000E+00 0. -1.
         -2   -1    0    0    0  501 -0.00000000000E+00 -0.00000000000E+00 -0.65397286045E+02  0.65397286045E+02  0.00000000000E+00 0.  1.
          1    1    1    2  502    0  0.24455222732E+02  0.12985718602E+00 -0.48658198620E+02  0.54458195662E+02  0.00000000000E+00 0.  1.
         -1    1    1    2    0  501 -0.24455222732E+02 -0.12985718602E+00 -0.30350037166E+01  0.24643174092E+02  0.00000000000E+00 0. -1.
</event>
<event>
 4    1  0.6934088E+001  0.2262658E+02  0.7546771E-02  0.1497241E+00
          2   -1    0    0  502    0  0.00000000000E+00  0.00000000000E+00  0.18984863952E+02  0.18984863952E+02  0.00000000000E+00 0. -1.
         -2   -1    0    0    0  501 -0.00000000000E+00 -0.00000000000E+00 -0.27829565393E+02  0.27829565393E+02  0.00000000000E+00 0.  1.
          1    1    1    2  502    0  0.10932444117E+02  0.19810193018E+02 -0.30110100537E+00  0.22628582448E+02  0.00000000000E+00 0.  1.
         -1    1    1    2    0  501 -0.10932444117E+02 -0.19810193018E+02 -0.85436004355E+01  0.24185846898E+02  0.00000000000E+00 0. -1.
</event>
<event>
 4    1  0.6934088E+001  0.3773020E+02  0.7546771E-02  0.1362326E+00
          2   -1    0    0  502    0  0.00000000000E+00  0.00000000000E+00  0.14351117262E+04  0.14351117262E+04  0.00000000000E+00 0.  1.
         -2   -1    0    0    0  501 -0.00000000000E+00 -0.00000000000E+00 -0.99741815608E+00  0.99741815608E+00  0.00000000000E+00 0. -1.
          1    1    1    2  502    0  0.27980157144E+02 -0.25311632061E+02  0.66392044332E+03  0.66499167135E+03  0.00000000000E+00 0. -1.
         -1    1    1    2    0  501 -0.27980157144E+02  0.25311632061E+02  0.77019386469E+03  0.77111747297E+03  0.00000000000E+00 0.  1.
</event>
<event>
 4    1  0.6934088E+001  0.2269871E+02  0.7546771E-02  0.1496316E+00
          2   -1    0    0  502    0  0.00000000000E+00  0.00000000000E+00  0.36037926728E+03  0.36037926728E+03  0.00000000000E+00 0. -1.
         -2   -1    0    0    0  501 -0.00000000000E+00 -0.00000000000E+00 -0.14579831261E+01  0.14579831261E+01  0.00000000000E+00 0.  1.
          1    1    1    2  502    0 -0.18243843075E+01  0.22625278567E+02  0.15425912066E+03  0.15592019727E+03  0.00000000000E+00 0. -1.
         -1    1    1    2    0  501  0.18243843075E+01 -0.22625278567E+02  0.20466216349E+03  0.20591705314E+03  0.00000000000E+00 0.  1.
</event>
<event>
 4    1  0.6934088E+001  0.3490268E+02  0.7546771E-02  0.1381249E+00
          2   -1    0    0  502    0  0.00000000000E+00  0.00000000000E+00  0.72738681935E+01  0.72738681935E+01  0.00000000000E+00 0.  1.
         -2   -1    0    0    0  501 -0.00000000000E+00 -0.00000000000E+00 -0.32684585154E+03  0.32684585154E+03  0.00000000000E+00 0. -1.
          1    1    1    2  502    0  0.29095259566E+00  0.34901464951E+02 -0.27644115823E+03  0.27863580328E+03  0.00000000000E+00 0. -1.
         -1    1    1    2    0  501 -0.29095259566E+00 -0.34901464951E+02 -0.43130825117E+02  0.55483916449E+02  0.00000000000E+00 0.  1.
</event>
<event>
 4    1  0.6934088E+001  0.3141551E+02  0.7546771E-02  0.1407682E+00
          2   -1    0    0  502    0  0.00000000000E+00  0.00000000000E+00  0.21896814424E+02  0.21896814424E+02  0.00000000000E+00 0.  1.
         -2   -1    0    0    0  501 -0.00000000000E+00 -0.00000000000E+00 -0.45120640531E+02  0.45120640531E+02  0.00000000000E+00 0. -1.
          1    1    1    2  502    0 -0.11480772333E+02 -0.29242535532E+02 -0.10512130818E+02  0.33127615550E+02  0.00000000000E+00 0.  1.
         -1    1    1    2    0  501  0.11480772333E+02  0.29242535532E+02 -0.12711695289E+02  0.33889839404E+02  0.00000000000E+00 0. -1.
</event>
<event>
 4    1  0.6934088E+001  0.2244916E+02  0.7546771E-02  0.1499533E+00
          2   -1    0    0  502    0  0.00000000000E+00  0.00000000000E+00  0.40950829003E+03  0.40950829003E+03  0.00000000000E+00 0.  1.
         -2   -1    0    0    0  501 -0.00000000000E+00 -0.00000000000E+00 -0.15498716588E+01  0.15498716588E+01  0.00000000000E+00 0. -1.
          1    1    1    2  502    0  0.17706229068E+02 -0.13800511000E+02  0.29725440023E+03  0.29810089418E+03  0.00000000000E+00 0.  1.
         -1    1    1    2    0  501 -0.17706229068E+02  0.13800511000E+02  0.11070401813E+03  0.11295726751E+03  0.00000000000E+00 0. -1.
</event>
<event>
 4    1  0.6934088E+001  0.6962284E+02  0.7546771E-02  0.1230233E+00
          2   -1    0    0  502    0  0.00000000000E+00  0.00000000000E+00  0.14444752439E+04  0.14444752439E+04  0.00000000000E+00 0. -1.
         -2   -1    0    0    0  501 -0.00000000000E+00 -0.00000000000E+00 -0.33754038508E+01  0.33754038508E+01  0.00000000000E+00 0.  1.
          1    1    1    2  502    0  0.33113100933E+02 -0.61244279089E+02  0.77574978607E+03  0.77886781276E+03  0.00000000000E+00 0. -1.
         -1    1    1    2    0  501 -0.33113100933E+02  0.61244279089E+02  0.66535005395E+03  0.66898283496E+03  0.00000000000E+00 0.  1.
</event>
<event>
 4    1  0.6934088E+001  0.2066955E+02  0.7546771E-02  0.1524036E+00
          2   -1    0    0  502    0  0.00000000000E+00  0.00000000000E+00  0.52865864929E+03  0.52865864929E+03  0.00000000000E+00 0.  1.
         -2   -1    0    0    0  501 -0.00000000000E+00 -0.00000000000E+00 -0.82016810672E+00  0.82016810672E+00  0.00000000000E+00 0. -1.
          1    1    1    2  502    0 -0.20302336624E+02 -0.38788340462E+01  0.23185913604E+03  0.23277862701E+03  0.00000000000E+00 0. -1.
         -1    1    1    2    0  501  0.20302336624E+02  0.38788340462E+01  0.29597934514E+03  0.29670019039E+03  0.00000000000E+00 0.  1.
</event>
<event>
 4    1  0.6934088E+001  0.2622925E+02  0.7546771E-02  0.1455508E+00
          2   -1    0    0  502    0  0.00000000000E+00  0.00000000000E+00  0.84015921004E+01  0.84015921004E+01  0.00000000000E+00 0. -1.
         -2   -1    0    0    0  501 -0.00000000000E+00 -0.00000000000E+00 -0.89895938335E+02  0.89895938335E+02  0.00000000000E+00 0.  1.
          1    1    1    2  502    0 -0.25644734305E+02 -0.55064571826E+01 -0.26076335444E+02  0.36985791035E+02  0.00000000000E+00 0. -1.
         -1    1    1    2    0  501  0.25644734305E+02  0.55064571826E+01 -0.55418010791E+02  0.61311739401E+02  0.00000000000E+00 0.  1.
</event>
<event>
 4    1  0.6934088E+001  0.6200011E+02  0.7546771E-02  0.1253184E+00
          2   -1    0    0  502    0  0.00000000000E+00  0.00000000000E+00  0.77000974792E+03  0.77000974792E+03  0.00000000000E+00 0. -1.
         -2   -1    0    0    0  501 -0.00000000000E+00 -0.00000000000E+00 -0.59821324351E+01  0.59821324351E+01  0.00000000000E+00 0.  1.
          1    1    1    2  502    0  0.60691698991E+02  0.12670097304E+02  0.53985131002E+03  0.54339989936E+03  0.00000000000E+00 0. -1.
         -1    1    1    2    0  501 -0.60691698991E+02 -0.12670097304E+02  0.22417630546E+03  0.23259198100E+03  0.00000000000E+00 0.  1.
</event>
<event>
 4    1  0.6934088E+001  0.3324450E+02  0.7546771E-02  0.1393343E+00
          2   -1    0    0  502    0  0.00000000000E+00  0.00000000000E+00  0.20153175790E+04  0.20153175790E+04  0.00000000000E+00 0. -1.
         -2   -1    0    0    0  501 -0.00000000000E+00 -0.00000000000E+00 -0.65535396103E+00  0.65535396103E+00  0.00000000000E+00 0.  1.
          1    1    1    2  502    0  0.29165898600E+02 -0.15954528880E+02  0.60012083828E+03  0.60104094467E+03  0.00000000000E+00 0.  1.
         -1    1    1    2    0  501 -0.29165898600E+02  0.15954528880E+02  0.14145413867E+04  0.14149319883E+04  0.00000000000E+00 0. -1.
</event>
<event>
 4    1  0.6934088E+001  0.5282247E+02  0.7546771E-02  0.1286378E+00
          2   -1    0    0  502    0  0.00000000000E+00  0.00000000000E+00  0.87212055208E+02  0.87212055208E+02  0.00000000000E+00 0. -1.
         -2   -1    0    0    0  501 -0.00000000000E+00 -0.00000000000E+00 -0.36427902488E+02  0.36427902488E+02  0.00000000000E+00 0.  1.
          1    1    1    2  502    0  0.29711954548E+02  0.43673943963E+02  0.38229636589E+01  0.52960633262E+02  0.00000000000E+00 0.  1.
         -1    1    1    2    0  501 -0.29711954548E+02 -0.43673943963E+02  0.46961189061E+02  0.70679324433E+02  0.00000000000E+00 0. -1.
</event>
<event>
 4    1  0.6934088E+001  0.2135533E+02  0.7546771E-02  0.1514252E+00
          2   -1    0    0  502    0  0.00000000000E+00  0.00000000000E+00  0.25009927802E+02  0.25009927802E+02  0.00000000000E+00 0. -1.
         -2   -1    0    0    0  501 -0.00000000000E+00 -0.00000000000E+00 -0.18429522533E+02  0.18429522533E+02  0.00000000000E+00 0.  1.
          1    1    1    2  502    0 -0.18199058766E+02  0.11173369981E+02  0.10573801425E+01  0.21381487074E+02  0.00000000000E+00 0.  1.
         -1    1    1    2    0  501  0.18199058766E+02 -0.11173369981E+02  0.55230251260E+01  0.22057963262E+02  0.00000000000E+00 0. -1.
</event>
<event>
 4    1  0.6934088E+001  0.2171944E+02  0.7546771E-02  0.1509236E+00
          2   -1    0    0  502    0  0.00000000000E+00  0.00000000000E+00  0.16441153948E+03  0.16441153948E+03  0.00000000000E+00 0. -1.
         -2   -1    0    0    0  501 -0.00000000000E+00 -0.00000000000E+00 -0.28707418050E+01  0.28707418050E+01  0.00000000000E+00 0.  1.
          1    1    1    2  502    0  0.11985391961E+02  0.18113106784E+02  0.78849958109E+02  0.81786613523E+02  0.00000000000E+00 0.  1.
         -1    1    1    2    0  501 -0.11985391961E+02 -0.18113106784E+02  0.82690839565E+02  0.85495667761E+02  0.00000000000E+00 0. -1.
</event>
<event>
 4    1  0.6934088E+001  0.5848395E+02  0.7546771E-02  0.1265072E+00
          2   -1    0    0  502    0  0.00000000000E+00  0.00000000000E+00  0.23927611321E+02  0.23927611321E+02  0.00000000000E+00 0.  1.
         -2   -1    0    0    0  501 -0.00000000000E+00 -0.00000000000E+00 -0.14464013128E+03  0.14464013128E+03  0.00000000000E+00 0. -1.
          1    1    1    2  502    0 -0.10974974921E+02 -0.57444955165E+02 -0.69476043935E+02  0.90814611321E+02  0.00000000000E+00 0. -1.
         -1    1    1    2    0  501  0.10974974921E+02  0.57444955165E+02 -0.51236476025E+02  0.77753131281E+02  0.00000000000E+00 0.  1.
</event>
<event>
 4    1  0.6934088E+001  0.2735098E+02  0.7546771E-02  0.1444114E+00
          2   -1    0    0  502    0  0.00000000000E+00  0.00000000000E+00  0.18043556481E+01  0.18043556481E+01  0.00000000000E+00 0.  1.
         -2   -1    0    0    0  501 -0.00000000000E+00 -0.00000000000E+00 -0.49692016540E+03  0.49692016540E+03  0.00000000000E+00 0. -1.
          1    1    1    2  502    0 -0.74255689974E+00  0.27340897912E+02 -0.34905527844E+03  0.35012521117E+03  0.00000000000E+00 0. -1.
         -1    1    1    2    0  501  0.74255689974E+00 -0.27340897912E+02 -0.14606053131E+03  0.14859930988E+03  0.00000000000E+00 0.  1.
</event>
<event>
 4    1  0.6934088E+001  0.2321367E+02  0.7546771E-02  0.1489832E+00
          2   -1    0    0  502    0  0.00000000000E+00  0.00000000000E+00  0.26187468620E+03  0.26187468620E+03  0.00000000000E+00 0. -1.
         -2   -1    0    0    0  501 -0.00000000000E+00 -0.00000000000E+00 -0.86388180880E+01  0.86388180880E+01  0.00000000000E+00 0.  1.
          1    1    1    2  502    0 -0.14386592930E+02 -0.18218135201E+02  0.85641950755E+01  0.24743078702E+02  0.00000000000E+00 0.  1.
         -1    1    1    2    0  501  0.14386592930E+02  0.18218135201E+02  0.24467167303E+03  0.24577042558E+03  0.00000000000E+00 0. -1.
</event>
<event>
 4    1  0.6934088E+001  0.2419180E+02  0.7546771E-02  0.1478051E+00
          2   -1    0    0  502    0  0.00000000000E+00  0.00000000000E+00  0.53207555920E+03  0.53207555920E+03  0.00000000000E+00 0.  1.
         -2   -1    0    0    0  501 -0.00000000000E+00 -0.00000000000E+00 -0.11030404206E+01  0.11030404206E+01  0.00000000000E+00 0. -1.
          1    1    1    2  502    0  0.17952246754E+01  0.24125102304E+02  0.27965337122E+03  0.28069779377E+03  0.00000000000E+00 0.  1.
         -1    1    1    2    0  501 -0.17952246754E+01 -0.24125102304E+02  0.25131914755E+03  0.25248080584E+03  0.00000000000E+00 0. -1.
</event>
<event>
 4    1  0.6934088E+001  0.2348797E+02  0.7546771E-02  0.1486460E+00
          2   -1    0    0  502    0  0.00000000000E+00  0.00000000000E+00  0.68783943721E+02  0.68783943721E+02  0.00000000000E+00 0.  1.
         -2   -1    0    0    0  501 -0.00000000000E+00 -0.00000000000E+00 -0.11343396286E+02  0.11343396286E+02  0.00000000000E+00 0. -1.
          1    1    1    2  502    0 -0.17545656893E+01  0.23422342264E+02  0.50404040283E+02  0.55608020058E+02  0.00000000000E+00 0.  1.
         -1    1    1    2    0  501  0.17545656893E+01 -0.23422342264E+02  0.70365071508E+01  0.24519319949E+02  0.00000000000E+00 0. -1.
</event>
<event>
 4    1  0.6934088E+001  0.2278251E+02  0.7546771E-02  0.1495247E+00
          2   -1    0    0  502    0  0.00000000000E+00  0.00000000000E+00  0.41766974834E+03  0.41766974834E+03  0.00000000000E+00 0. -1.
         -2   -1    0    0    0  501 -0.00000000000E+00 -0.00000000000E+00 -0.13178201013E+01  0.13178201013E+01  0.00000000000E+00 0.  1.
          1    1    1    2  502    0  0.71463225916E+01  0.21632682798E+02  0.25818962690E+03  0.25919283619E+03  0.00000000000E+00 0. -1.
         -1    1    1    2    0  501 -0.71463225916E+01 -0.21632682798E+02  0.15816230134E+03  0.15979473226E+03  0.00000000000E+00 0.  1.
</event>
<event>
 4    1  0.6934088E+001  0.2430997E+02  0.7546771E-02  0.1476673E+00
          2   -1    0    0  502    0  0.00000000000E+00  0.00000000000E+00  0.10906769614E+03  0.10906769614E+03  0.00000000000E+00 0.  1.
         -2   -1    0    0    0  501 -0.00000000000E+00 -0.00000000000E+00 -0.54907504728E+01  0.54907504728E+01  0.00000000000E+00 0. -1.
          1    1    1    2  502    0 -0.55624924178E+01  0.23665027896E+02  0.58362540669E+02  0.63223105116E+02  0.00000000000E+00 0.  1.
         -1    1    1    2    0  501  0.55624924178E+01 -0.23665027896E+02  0.45214404999E+02  0.51335341498E+02  0.00000000000E+00 0. -1.
</event>
<event>
 4    1  0.6934088E+001  0.2411656E+02  0.7546771E-02  0.1478934E+00
          2   -1    0    0  502    0  0.00000000000E+00  0.00000000000E+00  0.55099640986E+00  0.55099640986E+00  0.00000000000E+00 0. -1.
         -2   -1    0    0    0  501 -0.00000000000E+00 -0.00000000000E+00 -0.12142171132E+04  0.12142171132E+04  0.00000000000E+00 0.  1.
          1    1    1    2  502    0 -0.20087793640E+02 -0.13344994412E+02 -0.82639070432E+03  0.82674252613E+03  0.00000000000E+00 0.  1.
         -1    1    1    2    0  501  0.20087793640E+02  0.13344994412E+02 -0.38727541248E+03  0.38802558348E+03  0.00000000000E+00 0. -1.
</event>
<event>
 4    1  0.6934088E+001  0.3603757E+02  0.7546771E-02  0.1373412E+00
          2   -1    0    0  502    0  0.00000000000E+00  0.00000000000E+00  0.17703737930E+04  0.17703737930E+04  0.00000000000E+00 0.  1.
         -2   -1    0    0    0  501 -0.00000000000E+00 -0.00000000000E+00 -0.73375248428E+00  0.73375248428E+00  0.00000000000E+00 0. -1.
          1    1    1    2  502    0 -0.22527668346E+02  0.28128462724E+02  0.87114187783E+03  0.87188696375E+03  0.00000000000E+00 0. -1.
         -1    1    1    2    0  501  0.22527668346E+02 -0.28128462724E+02  0.89849816265E+03  0.89922058169E+03  0.00000000000E+00 0.  1.
</event>
<event>
 4    1  0.6934088E+001  0.4710593E+02  0.7546771E-02  0.1311232E+00
          2   -1    0    0  502    0  0.00000000000E+00  0.00000000000E+00  0.32548097026E+03  0.32548097026E+03  0.00000000000E+00 0.  1.
         -2   -1    0    0    0  501 -0.00000000000E+00 -0.00000000000E+00 -0.13626509439E+02  0.13626509439E+02  0.00000000000E+00 0. -1.
          1    1    1    2  502    0  0.39549957951E+02 -0.25588466750E+02  0.36072050951E+02  0.59330950307E+02  0.00000000000E+00 0. -1.
         -1    1    1    2    0  501 -0.39549957951E+02  0.25588466750E+02  0.27578240987E+03  0.27977652939E+03  0.00000000000E+00 0.  1.
</event>
<event>
 4    1  0.6934088E+001  0.2110664E+02  0.7546771E-02  0.1517748E+00
          2   -1    0    0  502    0  0.00000000000E+00  0.00000000000E+00  0.15551358971E+03  0.15551358971E+03  0.00000000000E+00 0.  1.
         -2   -1    0    0    0  501 -0.00000000000E+00 -0.00000000000E+00 -0.34275319710E+01  0.34275319710E+01  0.00000000000E+00 0. -1.
          1    1    1    2  502    0  0.19057632865E+02  0.90717621814E+01  0.43837638404E+02  0.48654175364E+02  0.00000000000E+00 0. -1.
         -1    1    1    2    0  501 -0.19057632865E+02 -0.90717621814E+01  0.10824841933E+03  0.11028694631E+03  0.00000000000E+00 0.  1.
</event>
<event>
 4    1  0.6934088E+001  0.3063601E+02  0.7546771E-02  0.1414149E+00
          2   -1    0    0  502    0  0.00000000000E+00  0.00000000000E+00  0.30129761751E+02  0.30129761751E+02  0.00000000000E+00 0.  1.
         -2   -1    0    0    0  501 -0.00000000000E+00 -0.00000000000E+00 -0.32006625098E+02  0.32006625098E+02  0.00000000000E+00 0. -1.
          1    1    1    2  502    0  0.16237658401E+02 -0.25978901250E+02  0.41419892896E+01  0.30914736547E+02  0.00000000000E+00 0. -1.
         -1    1    1    2    0  501 -0.16237658401E+02  0.25978901250E+02 -0.60188526368E+01  0.31221650302E+02  0.00000000000E+00 0.  1.
</event>
<event>
 4    1  0.6934088E+001  0.2600005E+02  0.7546771E-02  0.1457920E+00
          2   -1    0    0  502    0  0.00000000000E+00  0.00000000000E+00  0.43145716507E+01  0.43145716507E+01  0.00000000000E+00 0.  1.
         -2   -1    0    0    0  501 -0.00000000000E+00 -0.00000000000E+00 -0.31139349919E+03  0.31139349919E+03  0.00000000000E+00 0. -1.
          1    1    1    2  502    0 -0.23495731557E+02  0.11133419680E+02 -0.42272423647E+02  0.49628220159E+02  0.00000000000E+00 0.  1.
         -1    1    1    2    0  501  0.23495731557E+02 -0.11133419680E+02 -0.26480650389E+03  0.26607985068E+03  0.00000000000E+00 0. -1.
</event>
<event>
 4    1  0.6934088E+001  0.2491416E+02  0.7546771E-02  0.1469766E+00
          2   -1    0    0  502    0  0.00000000000E+00  0.00000000000E+00  0.30660446019E+01  0.30660446019E+01  0.00000000000E+00 0.  1.
         -2   -1    0    0    0  501 -0.00000000000E+00 -0.00000000000E+00 -0.20389534689E+03  0.20389534689E+03  0.00000000000E+00 0. -1.
          1    1    1    2  502    0  0.21901922374E+02  0.11875229175E+02 -0.10913249351E+03  0.11194023589E+03  0.00000000000E+00 0. -1.
         -1    1    1    2    0  501 -0.21901922374E+02 -0.11875229175E+02 -0.91696808781E+02  0.95021155604E+02  0.00000000000E+00 0.  1.
</event>
<event>
 4    1  0.6934088E+001  0.3348149E+02  0.7546771E-02  0.1391565E+00
          2   -1    0    0  502    0  0.00000000000E+00  0.00000000000E+00  0.61865863285E+02  0.61865863285E+02  0.00000000000E+00 0.  1.
         -2   -1    0    0    0  501 -0.00000000000E+00 -0.00000000000E+00 -0.21574280966E+02  0.21574280966E+02  0.00000000000E+00 0. -1.
          1    1    1    2  502    0 -0.31973562398E+02  0.99348523386E+01  0.36839589608E+02  0.49781174613E+02  0.00000000000E+00 0.  1.
         -1    1    1    2    0  501  0.31973562398E+02 -0.99348523386E+01  0.34519927111E+01  0.33658969638E+02  0.00000000000E+00 0. -1.
</event>
<event>
 4    1  0.6934088E+001  0.2673934E+02  0.7546771E-02  0.1450244E+00
          2   -1    0    0  502    0  0.00000000000E+00  0.00000000000E+00  0.78382943320E+03  0.78382943320E+03  0.00000000000E+00 0.  1.
         -2   -1    0    0    0  501 -0.00000000000E+00 -0.00000000000E+00 -0.11829954028E+01  0.11829954028E+01  0.00000000000E+00 0. -1.
          1    1    1    2  502    0  0.99028938388E+01  0.24837975519E+02  0.57912206303E+03  0.57973904148E+03  0.00000000000E+00 0.  1.
         -1    1    1    2    0  501 -0.99028938388E+01 -0.24837975519E+02  0.20352437477E+03  0.20527338712E+03  0.00000000000E+00 0. -1.
</event>
<event>
 4    1  0.6934088E+001  0.2273820E+02  0.7546771E-02  0.1495812E+00
          2   -1    0    0  502    0  0.00000000000E+00  0.00000000000E+00  0.21672040663E+03  0.21672040663E+03  0.00000000000E+00 0.  1.
         -2   -1    0    0    0  501 -0.00000000000E+00 -0.00000000000E+00 -0.36847249928E+01  0.36847249928E+01  0.00000000000E+00 0. -1.
          1    1    1    2  502    0  0.18633386259E+02  0.13031601143E+02  0.17195148830E+03  0.17344837861E+03  0.00000000000E+00 0.  1.
         -1    1    1    2    0  501 -0.18633386259E+02 -0.13031601143E+02  0.41084193332E+02  0.46956753014E+02  0.00000000000E+00 0. -1.
</event>
<event>
 4    1  0.6934088E+001  0.3642206E+02  0.7546771E-02  0.1370832E+00
          2   -1    0    0  502    0  0.00000000000E+00  0.00000000000E+00  0.19079697583E+04  0.19079697583E+04  0.00000000000E+00 0.  1.
         -2   -1    0    0    0  501 -0.00000000000E+00 -0.00000000000E+00 -0.69533670049E+00  0.69533670049E+00  0.00000000000E+00 0. -1.
          1    1    1    2  502    0 -0.13996770253E+02  0.33625244394E+02  0.96251303127E+03  0.96320190095E+03  0.00000000000E+00 0. -1.
         -1    1    1    2    0  501  0.13996770253E+02 -0.33625244394E+02  0.94476139036E+03  0.94546319408E+03  0.00000000000E+00 0.  1.
</event>
<event>
 4    1  0.6934088E+001  0.2059878E+02  0.7546771E-02  0.1525071E+00
          2   -1    0    0  502    0  0.00000000000E+00  0.00000000000E+00  0.13095988467E+02  0.13095988467E+02  0.00000000000E+00 0. -1.
         -2   -1    0    0    0  501 -0.00000000000E+00 -0.00000000000E+00 -0.54599589114E+02  0.54599589114E+02  0.00000000000E+00 0.  1.
          1    1    1    2  502    0  0.20593673220E+02  0.45872762296E+00  0.83102254859E+00  0.20615537980E+02  0.00000000000E+00 0. -1.
         -1    1    1    2    0  501 -0.20593673220E+02 -0.45872762296E+00 -0.42334623196E+02  0.47080039601E+02  0.00000000000E+00 0.  1.
</event>
<event>
 4    1  0.6934088E+001  0.2161614E+02  0.7546771E-02  0.1510647E+00
          2   -1    0    0  502    0  0.00000000000E+00  0.00000000000E+00  0.12845063779E+04  0.12845063779E+04  0.00000000000E+00 0.  1.
         -2   -1    0    0    0  501 -0.00000000000E+00 -0.00000000000E+00 -0.36742914243E+00  0.36742914243E+00  0.00000000000E+00 0. -1.
          1    1    1    2  502    0 -0.14320756443E+02  0.16191776302E+02  0.70622967721E+03  0.70656041119E+03  0.00000000000E+00 0.  1.
         -1    1    1    2    0  501  0.14320756443E+02 -0.16191776302E+02  0.57790927151E+03  0.57831339582E+03  0.00000000000E+00 0. -1.
</event>
<event>
 4    1  0.6934088E+001  0.2106617E+02  0.7546771E-02  0.1518322E+00
          2   -1    0    0  502    0  0.00000000000E+00  0.00000000000E+00  0.31523712561E+02  0.31523712561E+02  0.00000000000E+00 0. -1.
         -2   -1    0    0    0  501 -0.00000000000E+00 -0.00000000000E+00 -0.14813616326E+02  0.14813616326E+02  0.00000000000E+00 0.  1.
          1    1    1    2  502    0 -0.20961730703E+02  0.20951258523E+01  0.13518769323E+02  0.25030797638E+02  0.00000000000E+00 0.  1.
         -1    1    1    2    0  501  0.20961730703E+02 -0.20951258523E+01  0.31913269122E+01  0.21306531249E+02  0.00000000000E+00 0. -1.
</event>
<event>
 4    1  0.6934088E+001  0.2790443E+02  0.7546771E-02  0.1438729E+00
          2   -1    0    0  502    0  0.00000000000E+00  0.00000000000E+00  0.13738979185E+03  0.13738979185E+03  0.00000000000E+00 0. -1.
         -2   -1    0    0    0  501 -0.00000000000E+00 -0.00000000000E+00 -0.82009971532E+01  0.82009971532E+01  0.00000000000E+00 0.  1.
          1    1    1    2  502    0 -0.18088751492E+02  0.21247455476E+02  0.10505481659E+03  0.10869761627E+03  0.00000000000E+00 0. -1.
         -1    1    1    2    0  501  0.18088751492E+02 -0.21247455476E+02  0.24133978104E+02  0.36893172727E+02  0.00000000000E+00 0.  1.
</event>
<event>
 4    1  0.6934088E+001  0.2014788E+02  0.7546771E-02  0.1531787E+00
          2   -1    0    0  502    0  0.00000000000E+00  0.00000000000E+00  0.57540984601E+02  0.57540984601E+02  0.00000000000E+00 0. -1.
         -2   -1    0    0    0  501 -0.00000000000E+00 -0.00000000000E+00 -0.75144461494E+01  0.75144461494E+01  0.00000000000E+00 0.  1.
          1    1    1    2  502    0 -0.19530521874E+02  0.49493314979E+01  0.33058551367E+02  0.38714402816E+02  0.00000000000E+00 0. -1.
         -1    1    1    2    0  501  0.19530521874E+02 -0.49493314979E+01  0.16967987085E+02  0.26341027934E+02  0.00000000000E+00 0.  1.
</event>
<event>
 4    1  0.6934088E+001  0.2351158E+02  0.7546771E-02  0.1486172E+00
          2   -1    0    0  502    0  0.00000000000E+00  0.00000000000E+00  0.35426905645E+02  0.35426905645E+02  0.00000000000E+00 0.  1.
         -2   -1    0    0    0  501 -0.00000000000E+00 -0.00000000000E+00 -0.15854587819E+02  0.15854587819E+02  0.00000000000E+00 0. -1.
          1    1    1    2  502    0  0.94683715937E+00 -0.23492504772E+02  0.65613194292E+01  0.24409940470E+02  0.00000000000E+00 0. -1.
         -1    1    1    2    0  501 -0.94683715937E+00  0.23492504772E+02  0.13010998397E+02  0.26871552995E+02  0.00000000000E+00 0.  1.
</event>
<event>
 4    1  0.6934088E+001  0.2076960E+02  0.7546771E-02  0.1522580E+00
          2   -1    0    0  502    0  0.00000000000E+00  0.00000000000E+00  0.55366880194E+01  0.55366880194E+01  0.00000000000E+00 0. -1.
         -2   -1    0    0    0  501 -0.00000000000E+00 -0.00000000000E+00 -0.88023203188E+02  0.88023203188E+02  0.00000000000E+00 0.  1.
          1    1    1    2  502    0  0.13694196507E+02  0.15615540010E+02 -0.25388629233E+02  0.32801807909E+02  0.00000000000E+00 0. -1.
         -1    1    1    2    0  501 -0.13694196507E+02 -0.15615540010E+02 -0.57097885935E+02  0.60758083298E+02  0.00000000000E+00 0.  1.
</event>
<event>
 4    1  0.6934088E+001  0.2465181E+02  0.7546771E-02  0.1472737E+00
          2   -1    0    0  502    0  0.00000000000E+00  0.00000000000E+00  0.31478081135E+03  0.31478081135E+03  0.00000000000E+00 0. -1.
         -2   -1    0    0    0  501 -0.00000000000E+00 -0.00000000000E+00 -0.36712065498E+01  0.36712065498E+01  0.00000000000E+00 0.  1.
          1    1    1    2  502    0 -0.24156293344E+02  0.49178229214E+01  0.26519293455E+03  0.26633626119E+03  0.00000000000E+00 0. -1.
         -1    1    1    2    0  501  0.24156293344E+02 -0.49178229214E+01  0.45916670255E+02  0.52115756713E+02  0.00000000000E+00 0.  1.
</event>
<event>
 4    1  0.6934088E+001  0.2125071E+02  0.7546771E-02  0.1515715E+00
          2   -1    0    0  502    0  0.00000000000E+00  0.00000000000E+00  0.27463432569E+02  0.27463432569E+02  0.00000000000E+00 0. -1.
         -2   -1    0    0    0  501 -0.00000000000E+00 -0.00000000000E+00 -0.17255343513E+02  0.17255343513E+02  0.00000000000E+00 0.  1.
          1    1    1    2  502    0 -0.49421680518E+01  0.20668036739E+02  0.25389020075E+00  0.21252228775E+02  0.00000000000E+00 0. -1.
         -1    1    1    2    0  501  0.49421680518E+01 -0.20668036739E+02  0.99541988552E+01  0.23466547307E+02  0.00000000000E+00 0.  1.
</event>
<event>
 4    1  0.6934088E+001  0.3416953E+02  0.7546771E-02  0.1386498E+00
          2   -1    0    0  502    0  0.00000000000E+00  0.00000000000E+00  0.53754065772E+01  0.53754065772E+01  0.00000000000E+00 0.  1.
         -2   -1    0    0    0  501 -0.00000000000E+00 -0.00000000000E+00 -0.22736380914E+03  0.22736380914E+03  0.00000000000E+00 0. -1.
          1    1    1    2  502    0 -0.33498644749E+02 -0.67377506839E+01 -0.13559418959E+03  0.13983326048E+03  0.00000000000E+00 0. -1.
         -1    1    1    2    0  501  0.33498644749E+02  0.67377506839E+01 -0.86394212965E+02  0.92905955235E+02  0.00000000000E+00 0.  1.
</event>
<event>
 4    1  0.6934088E+001  0.6673815E+02  0.7546771E-02  0.1238511E+00
          2   -1    0    0  502    0  0.00000000000E+00  0.00000000000E+00  0.42511550046E+03  0.42511550046E+03  0.00000000000E+00 0. -1.
         -2   -1    0    0    0  501 -0.00000000000E+00 -0.00000000000E+00 -0.10656930337E+02  0.10656930337E+02  0.00000000000E+00 0.  1.
          1    1    1    2  502    0 -0.57565947168E+02 -0.33765997774E+02  0.17892606261E+03  0.19096731856E+03  0.00000000000E+00 0.  1.
         -1    1    1    2    0  501  0.57565947168E+02  0.33765997774E+02  0.23553250752E+03  0.24480511223E+03  0.00000000000E+00 0. -1.
</event>
<event>
 4    1  0.6934088E+001  0.2053036E+02  0.7546771E-02  0.1526077E+00
          2   -1    0    0  502    0  0.00000000000E+00  0.00000000000E+00  0.28999844212E+01  0.28999844212E+01  0.00000000000E+00 0.  1.
         -2   -1    0    0    0  501 -0.00000000000E+00 -0.00000000000E+00 -0.14549525891E+03  0.14549525891E+03  0.00000000000E+00 0. -1.
          1    1    1    2  502    0  0.63225089815E+01  0.19532575731E+02 -0.68906094905E+02  0.71899551804E+02  0.00000000000E+00 0. -1.
         -1    1    1    2    0  501 -0.63225089815E+01 -0.19532575731E+02 -0.73689179580E+02  0.76495691524E+02  0.00000000000E+00 0.  1.
</event>
<event>
 4    1  0.6934088E+001  0.2991247E+02  0.7546771E-02  0.1420359E+00
          2   -1    0    0  502    0  0.00000000000E+00  0.00000000000E+00  0.59568364782E+03  0.59568364782E+03  0.00000000000E+00 0.  1.
         -2   -1    0    0    0  501 -0.00000000000E+00 -0.00000000000E+00 -0.15061926700E+01  0.15061926700E+01  0.00000000000E+00 0. -1.
          1    1    1    2  502    0 -0.11890363104E+02 -0.27447676157E+02  0.31271968438E+03  0.31414703032E+03  0.00000000000E+00 0. -1.
         -1    1    1    2    0  501  0.11890363104E+02  0.27447676157E+02  0.28145777077E+03  0.28304281017E+03  0.00000000000E+00 0.  1.
</event>
<event>
 4    1  0.6934088E+001  0.2149661E+02  0.7546771E-02  0.1512291E+00
          2   -1    0    0  502    0  0.00000000000E+00  0.00000000000E+00  0.13274749051E+02  0.13274749051E+02  0.00000000000E+00 0.  1.
         -2   -1    0    0    0  501 -0.00000000000E+00 -0.00000000000E+00 -0.10351700675E+03  0.10351700675E+03  0.00000000000E+00 0. -1.
          1    1    1    2  502    0 -0.21495748985E+02 -0.19238785823E+00  0.24533916152E+01  0.21636158807E+02  0.00000000000E+00 0.  1.
         -1    1    1    2    0  501  0.21495748985E+02  0.19238785823E+00 -0.92695649316E+02  0.95155596996E+02  0.00000000000E+00 0. -1.
</event>
<event>
 4    1  0.6934088E+001  0.2359785E+02  0.7546771E-02  0.1485124E+00
          2   -1    0    0  502    0  0.00000000000E+00  0.00000000000E+00  0.82883382673E+02  0.82883382673E+02  0.00000000000E+00 0.  1.
         -2   -1    0    0    0  501 -0.00000000000E+00 -0.00000000000E+00 -0.70415515461E+01  0.70415515461E+01  0.00000000000E+00 0. -1.
          1    1    1    2  502    0  0.19863234536E+02 -0.12740111920E+02  0.28291523095E+02  0.36841129420E+02  0.00000000000E+00 0.  1.
         -1    1    1    2    0  501 -0.19863234536E+02  0.12740111920E+02  0.47550308032E+02  0.53083804798E+02  0.00000000000E+00 0. -1.
</event>
<event>
 4    1  0.6934088E+001  0.2591562E+02  0.7546771E-02  0.1458816E+00
          2   -1    0    0  502    0  0.00000000000E+00  0.00000000000E+00  0.10864939483E+02  0.10864939483E+02  0.00000000000E+00 0. -1.
         -2   -1    0    0    0  501 -0.00000000000E+00 -0.00000000000E+00 -0.61869168865E+02  0.61869168865E+02  0.00000000000E+00 0.  1.
          1    1    1    2  502    0 -0.19547505184E+02  0.17015115283E+02 -0.24428661044E+02  0.35614303130E+02  0.00000000000E+00 0. -1.
         -1    1    1    2    0  501  0.19547505184E+02 -0.17015115283E+02 -0.26575568338E+02  0.37119805219E+02  0.00000000000E+00 0.  1.
</event>
<event>
 4    1  0.6934088E+001  0.3138036E+02  0.7546771E-02  0.1407969E+00
          2   -1    0    0  502    0  0.00000000000E+00  0.00000000000E+00  0.30647859286E+01  0.30647859286E+01  0.00000000000E+00 0.  1.
         -2   -1    0    0    0  501 -0.00000000000E+00 -0.00000000000E+00 -0.41565765761E+03  0.41565765761E+03  0.00000000000E+00 0. -1.
          1    1    1    2  502    0  0.25478119211E+02  0.18319186116E+02 -0.10654748151E+03  0.11107246713E+03  0.00000000000E+00 0.  1.
         -1    1    1    2    0  501 -0.25478119211E+02 -0.18319186116E+02 -0.30604539017E+03  0.30764997640E+03  0.00000000000E+00 0. -1.
</event>
<event>
 4    1  0.6934088E+001  0.2245346E+02  0.7546771E-02  0.1499478E+00
          2   -1    0    0  502    0  0.00000000000E+00  0.00000000000E+00  0.60210796873E+03  0.60210796873E+03  0.00000000000E+00 0.  1.
         -2   -1    0    0    0  501 -0.00000000000E+00 -0.00000000000E+00 -0.98331689144E+00  0.98331689144E+00  0.00000000000E+00 0. -1.
          1    1    1    2  502    0 -0.31141312179E+00 -0.22451295368E+02  0.41675443538E+03  0.41735885884E+03  0.00000000000E+00 0.  1.
         -1    1    1    2    0  501  0.31141312179E+00  0.22451295368E+02  0.18437021646E+03  0.18573242679E+03  0.00000000000E+00 0. -1.
</event>
<event>
 4    1  0.6934088E+001  0.4762212E+02  0.7546771E-02  0.1308825E+00
          2   -1    0    0  502    0  0.00000000000E+00  0.00000000000E+00  0.27734729989E+04  0.27734729989E+04  0.00000000000E+00 0.  1.
         -2   -1    0    0    0  501 -0.00000000000E+00 -0.00000000000E+00 -0.11684566197E+01  0.11684566197E+01  0.00000000000E+00 0. -1.
          1    1    1    2  502    0 -0.47165200363E+02 -0.65810628724E+01  0.62604647784E+03  0.62785512575E+03  0.00000000000E+00 0. -1.
         -1    1    1    2    0  501  0.47165200363E+02  0.65810628724E+01  0.21462580645E+04  0.21467863298E+04  0.00000000000E+00 0.  1.
</event>
<event>
 4    1  0.6934088E+001  0.3346948E+02  0.7546771E-02  0.1391655E+00
          2   -1    0    0  502    0  0.00000000000E+00  0.00000000000E+00  0.10847899926E+04  0.10847899926E+04  0.00000000000E+00 0.  1.
         -2   -1    0    0    0  501 -0.00000000000E+00 -0.00000000000E+00 -0.18147545443E+01  0.18147545443E+01  0.00000000000E+00 0. -1.
          1    1    1    2  502    0  0.16087418430E+02  0.29349630515E+02  0.18481833373E+03  0.18782444549E+03  0.00000000000E+00 0. -1.
         -1    1    1    2    0  501 -0.16087418430E+02 -0.29349630515E+02  0.89815690428E+03  0.89878030160E+03  0.00000000000E+00 0.  1.
</event>
<event>
 4    1  0.6934088E+001  0.2674523E+02  0.7546771E-02  0.1450184E+00
          2   -1    0    0  502    0  0.00000000000E+00  0.00000000000E+00  0.92972548108E+01  0.92972548108E+01  0.00000000000E+00 0.  1.
         -2   -1    0    0    0  501 -0.00000000000E+00 -0.00000000000E+00 -0.13993041772E+03  0.13993041772E+03  0.00000000000E+00 0. -1.
          1    1    1    2  502    0 -0.22637314969E+02  0.14242861994E+02 -0.11537871026E+03  0.11843797502E+03  0.00000000000E+00 0. -1.
         -1    1    1    2    0  501  0.22637314969E+02 -0.14242861994E+02 -0.15254452645E+02  0.30789697502E+02  0.00000000000E+00 0.  1.
</event>
<event>
 4    1  0.6934088E+001  0.3023615E+02  0.7546771E-02  0.1417555E+00
          2   -1    0    0  502    0  0.00000000000E+00  0.00000000000E+00  0.53681599643E+02  0.53681599643E+02  0.00000000000E+00 0.  1.
         -2   -1    0    0    0  501 -0.00000000000E+00 -0.00000000000E+00 -0.27090343147E+02  0.27090343147E+02  0.00000000000E+00 0. -1.
          1    1    1    2  502    0 -0.29782009860E+02 -0.52208054401E+01 -0.11314773808E+02  0.32283881846E+02  0.00000000000E+00 0. -1.
         -1    1    1    2    0  501  0.29782009860E+02  0.52208054401E+01  0.37906030304E+02  0.48488060944E+02  0.00000000000E+00 0.  1.
</event>
<event>
 4    1  0.6934088E+001  0.3539142E+02  0.7546771E-02  0.1377832E+00
          2   -1    0    0  502    0  0.00000000000E+00  0.00000000000E+00  0.25735381252E+04  0.25735381252E+04  0.00000000000E+00 0. -1.
         -2   -1    0    0    0  501 -0.00000000000E+00 -0.00000000000E+00 -0.49194468975E+00  0.49194468975E+00  0.00000000000E+00 0.  1.
          1    1    1    2  502    0 -0.12226466425E+02  0.33212434438E+02  0.14193554481E+04  0.14197966194E+04  0.00000000000E+00 0.  1.
         -1    1    1    2    0  501  0.12226466425E+02 -0.33212434438E+02  0.11536907323E+04  0.11542334505E+04  0.00000000000E+00 0. -1.
</event>
<event>
 4    1  0.6934088E+001  0.3707565E+02  0.7546771E-02  0.1366530E+00
          2   -1    0    0  502    0  0.00000000000E+00  0.00000000000E+00  0.37886124667E+03  0.37886124667E+03  0.00000000000E+00 0.  1.
         -2   -1    0    0    0  501 -0.00000000000E+00 -0.00000000000E+00 -0.38794986675E+01  0.38794986675E+01  0.00000000000E+00 0. -1.
          1    1    1    2  502    0  0.21731612364E+02 -0.30038982882E+02  0.13878981110E+03  0.14365658751E+03  0.00000000000E+00 0. -1.
         -1    1    1    2    0  501 -0.21731612364E+02  0.30038982882E+02  0.23619193690E+03  0.23908415783E+03  0.00000000000E+00 0.  1.
</event>
<event>
 4    1  0.6934088E+001  0.4258078E+02  0.7546771E-02  0.1333992E+00
          2   -1    0    0  502    0  0.00000000000E+00  0.00000000000E+00  0.65953605051E+03  0.65953605051E+03  0.00000000000E+00 0.  1.
         -2   -1    0    0    0  501 -0.00000000000E+00 -0.00000000000E+00 -0.40649314632E+01  0.40649314632E+01  0.00000000000E+00 0. -1.
          1    1    1    2  502    0 -0.33117910541E+01 -0.42451791491E+02  0.51651406545E+03  0.51826624660E+03  0.00000000000E+00 0.  1.
         -1    1    1    2    0  501  0.33117910541E+01  0.42451791491E+02  0.13895705360E+03  0.14533473538E+03  0.00000000000E+00 0. -1.
</event>
<event>
 4    1  0.6934088E+001  0.3926111E+02  0.7546771E-02  0.1352871E+00
          2   -1    0    0  502    0  0.00000000000E+00  0.00000000000E+00  0.74991157683E+01  0.74991157683E+01  0.00000000000E+00 0. -1.
         -2   -1    0    0    0  501 -0.00000000000E+00 -0.00000000000E+00 -0.25708746142E+03  0.25708746142E+03  0.00000000000E+00 0.  1.
          1    1    1    2  502    0  0.20264518552E+02  0.33627133253E+02 -0.65561187756E+02  0.76417956941E+02  0.00000000000E+00 0. -1.
         -1    1    1    2    0  501 -0.20264518552E+02 -0.33627133253E+02 -0.18402715790E+03  0.18816862025E+03  0.00000000000E+00 0.  1.
</event>
<event>
 4    1  0.6934088E+001  0.2691594E+02  0.7546771E-02  0.1448454E+00
          2   -1    0    0  502    0  0.00000000000E+00  0.00000000000E+00  0.26109951896E+01  0.26109951896E+01  0.00000000000E+00 0. -1.
         -2   -1    0    0    0  501 -0.00000000000E+00 -0.00000000000E+00 -0.30165671064E+03  0.30165671064E+03  0.00000000000E+00 0.  1.
          1    1    1    2  502    0  0.13505271088E+02  0.23282519756E+02 -0.19260270414E+03  0.19447434205E+03  0.00000000000E+00 0. -1.
         -1    1    1    2    0  501 -0.13505271088E+02 -0.23282519756E+02 -0.10644301130E+03  0.10979336377E+03  0.00000000000E+00 0.  1.
</event>
<event>
 4    1  0.6934088E+001  0.2285310E+02  0.7546771E-02  0.1494351E+00
          2   -1    0    0  502    0  0.00000000000E+00  0.00000000000E+00  0.66596757017E+03  0.66596757017E+03  0.00000000000E+00 0. -1.
         -2   -1    0    0    0  501 -0.00000000000E+00 -0.00000000000E+00 -0.97279972787E+00  0.97279972787E+00  0.00000000000E+00 0.  1.
          1    1    1    2  502    0 -0.10736379586E+02  0.20174098448E+02  0.18567424461E+03  0.18707535703E+03  0.00000000000E+00 0.  1.
         -1    1    1    2    0  501  0.10736379586E+02 -0.20174098448E+02  0.47932052584E+03  0.47986501288E+03  0.00000000000E+00 0. -1.
</event>
<event>
 4    1  0.6934088E+001  0.3737240E+02  0.7546771E-02  0.1364612E+00
          2   -1    0    0  502    0  0.00000000000E+00  0.00000000000E+00  0.22078809152E+04  0.22078809152E+04  0.00000000000E+00 0.  1.
         -2   -1    0    0    0  501 -0.00000000000E+00 -0.00000000000E+00 -0.77114286984E+00  0.77114286984E+00  0.00000000000E+00 0. -1.
          1    1    1    2  502    0 -0.37354997896E+02 -0.11404678965E+01  0.15716437569E+04  0.15720880367E+04  0.00000000000E+00 0.  1.
         -1    1    1    2    0  501  0.37354997896E+02  0.11404678965E+01  0.63546601541E+03  0.63656402135E+03  0.00000000000E+00 0. -1.
</event>
<event>
 4    1  0.6934088E+001  0.2047356E+02  0.7546771E-02  0.1526915E+00
          2   -1    0    0  502    0  0.00000000000E+00  0.00000000000E+00  0.53725641346E+03  0.53725641346E+03  0.00000000000E+00 0. -1.
         -2   -1    0    0    0  501 -0.00000000000E+00 -0.00000000000E+00 -0.13127270812E+01  0.13127270812E+01  0.00000000000E+00 0.  1.
          1    1    1    2  502    0 -0.93004961153E+01  0.18239169500E+02  0.96459335868E+02  0.98608164003E+02  0.00000000000E+00 0.  1.
         -1    1    1    2    0  501  0.93004961153E+01 -0.18239169500E+02  0.43948435052E+03  0.43996097654E+03  0.00000000000E+00 0. -1.
</event>
<event>
 4    1  0.6934088E+001  0.3852711E+02  0.7546771E-02  0.1357340E+00
          2   -1    0    0  502    0  0.00000000000E+00  0.00000000000E+00  0.32020506276E+02  0.32020506276E+02  0.00000000000E+00 0. -1.
         -2   -1    0    0    0  501 -0.00000000000E+00 -0.00000000000E+00 -0.58847843979E+02  0.58847843979E+02  0.00000000000E+00 0.  1.
          1    1    1    2  502    0 -0.16260027351E+02  0.34927778823E+02  0.75194054750E+01  0.39254040322E+02  0.00000000000E+00 0. -1.
         -1    1    1    2    0  501  0.16260027351E+02 -0.34927778823E+02 -0.34346743178E+02  0.51614309933E+02  0.00000000000E+00 0.  1.
</event>
<event>
 4    1  0.6934088E+001  0.3728202E+02  0.7546771E-02  0.1365194E+00
          2   -1    0    0  502    0  0.00000000000E+00  0.00000000000E+00  0.25261065186E+04  0.25261065186E+04  0.00000000000E+00 0.  1.
         -2   -1    0    0    0  501 -0.00000000000E+00 -0.00000000000E+00 -0.79932850271E+00  0.79932850271E+00  0.00000000000E+00 0. -1.
          1    1    1    2  502    0 -0.22240191702E+02  0.29921951173E+02  0.19679612970E+04  0.19683144098E+04  0.00000000000E+00 0.  1.
         -1    1    1    2    0  501  0.22240191702E+02 -0.29921951173E+02  0.55734589310E+03  0.55859143732E+03  0.00000000000E+00 0. -1.
</event>
<event>
 4    1  0.6934088E+001  0.3004927E+02  0.7546771E-02  0.1419169E+00
          2   -1    0    0  502    0  0.00000000000E+00  0.00000000000E+00  0.38046981731E+03  0.38046981731E+03  0.00000000000E+00 0.  1.
         -2   -1    0    0    0  501 -0.00000000000E+00 -0.00000000000E+00 -0.24218495308E+01  0.24218495308E+01  0.00000000000E+00 0. -1.
          1    1    1    2  502    0 -0.19682755535E+02  0.22705682477E+02  0.21613738340E+03  0.21821623997E+03  0.00000000000E+00 0.  1.
         -1    1    1    2    0  501  0.19682755535E+02 -0.22705682477E+02  0.16191058438E+03  0.16467542688E+03  0.00000000000E+00 0. -1.
</event>
<event>
 4    1  0.6934088E+001  0.3623409E+02  0.7546771E-02  0.1372089E+00
          2   -1    0    0  502    0  0.00000000000E+00  0.00000000000E+00  0.20208777222E+03  0.20208777222E+03  0.00000000000E+00 0. -1.
         -2   -1    0    0    0  501 -0.00000000000E+00 -0.00000000000E+00 -0.64968411736E+01  0.64968411736E+01  0.00000000000E+00 0.  1.
          1    1    1    2  502    0  0.73326270310E+01 -0.35484389948E+02  0.97360760550E+02  0.10388468147E+03  0.00000000000E+00 0.  1.
         -1    1    1    2    0  501 -0.73326270310E+01  0.35484389948E+02  0.98230170498E+02  0.10469993193E+03  0.00000000000E+00 0. -1.
</event>
<event>
 4    1  0.6934088E+001  0.2354660E+02  0.7546771E-02  0.1485746E+00
          2   -1    0    0  502    0  0.00000000000E+00  0.00000000000E+00  0.30452246191E+03  0.30452246191E+03  0.00000000000E+00 0.  1.
         -2   -1    0    0    0  501 -0.00000000000E+00 -0.00000000000E+00 -0.18394392159E+01  0.18394392159E+01  0.00000000000E+00 0. -1.
          1    1    1    2  502    0  0.12633216311E+02 -0.19870692991E+02  0.16680448431E+03  0.16845823987E+03  0.00000000000E+00 0.  1.
         -1    1    1    2    0  501 -0.12633216311E+02  0.19870692991E+02  0.13587853839E+03  0.13790366126E+03  0.00000000000E+00 0. -1.
</event>
<event>
 4    1  0.6934088E+001  0.2255013E+02  0.7546771E-02  0.1498226E+00
          2   -1    0    0  502    0  0.00000000000E+00  0.00000000000E+00  0.79515090831E+03  0.79515090831E+03  0.00000000000E+00 0.  1.
         -2   -1    0    0    0  501 -0.00000000000E+00 -0.00000000000E+00 -0.12531999274E+01  0.12531999274E+01  0.00000000000E+00 0. -1.
          1    1    1    2  502    0 -0.30694596869E+01 -0.22340245500E+02  0.67560413742E+03  0.67598036854E+03  0.00000000000E+00 0.  1.
         -1    1    1    2    0  501  0.30694596869E+01  0.22340245500E+02  0.11829357096E+03  0.12042373970E+03  0.00000000000E+00 0. -1.
</event>
<event>
 4    1  0.6934088E+001  0.4805100E+02  0.7546771E-02  0.1306851E+00
          2   -1    0    0  502    0  0.00000000000E+00  0.00000000000E+00  0.32803411447E+03  0.32803411447E+03  0.00000000000E+00 0.  1.
         -2   -1    0    0    0  501 -0.00000000000E+00 -0.00000000000E+00 -0.70611504667E+01  0.70611504667E+01  0.00000000000E+00 0. -1.
          1    1    1    2  502    0 -0.47812000877E+02  0.47865202032E+01  0.16995665693E+03  0.17661869504E+03  0.00000000000E+00 0. -1.
         -1    1    1    2    0  501  0.47812000877E+02 -0.47865202032E+01  0.15101630708E+03  0.15847656990E+03  0.00000000000E+00 0.  1.
</event>
<event>
 4    1  0.6934088E+001  0.2268359E+02  0.7546771E-02  0.1496510E+00
          2   -1    0    0  502    0  0.00000000000E+00  0.00000000000E+00  0.45052061197E+03  0.45052061197E+03  0.00000000000E+00 0.  1.
         -2   -1    0    0    0  501 -0.00000000000E+00 -0.00000000000E+00 -0.39785541249E+01  0.39785541249E+01  0.00000000000E+00 0. -1.
          1    1    1    2  502    0  0.17456476577E+02 -0.14485051748E+02  0.31392061889E+02  0.38729921873E+02  0.00000000000E+00 0. -1.
         -1    1    1    2    0  501 -0.17456476577E+02  0.14485051748E+02  0.41514999596E+03  0.41576924423E+03  0.00000000000E+00 0.  1.
</event>
<event>
 4    1  0.6934088E+001  0.2458830E+02  0.7546771E-02  0.1473462E+00
          2   -1    0    0  502    0  0.00000000000E+00  0.00000000000E+00  0.65445033823E+03  0.65445033823E+03  0.00000000000E+00 0. -1.
         -2   -1    0    0    0  501 -0.00000000000E+00 -0.00000000000E+00 -0.11773143256E+01  0.11773143256E+01  0.00000000000E+00 0.  1.
          1    1    1    2  502    0  0.15462439803E+02  0.19117984646E+02  0.17451936524E+03  0.17624299483E+03  0.00000000000E+00 0.  1.
         -1    1    1    2    0  501 -0.15462439803E+02 -0.19117984646E+02  0.47875365866E+03  0.47938465772E+03  0.00000000000E+00 0. -1.
</event>
<event>
 4    1  0.6934088E+001  0.2363622E+02  0.7546771E-02  0.1484660E+00
          2   -1    0    0  502    0  0.00000000000E+00  0.00000000000E+00  0.11596068226E+03  0.11596068226E+03  0.00000000000E+00 0.  1.
         -2   -1    0    0    0  501 -0.00000000000E+00 -0.00000000000E+00 -0.55258670225E+01  0.55258670225E+01  0.00000000000E+00 0. -1.
          1    1    1    2  502    0  0.10960427147E+00  0.23635963970E+02  0.33473016387E+02  0.40976989054E+02  0.00000000000E+00 0.  1.
         -1    1    1    2    0  501 -0.10960427147E+00 -0.23635963970E+02  0.76961798849E+02  0.80509560227E+02  0.00000000000E+00 0. -1.
</event>
<event>
 4    1  0.6934088E+001  0.2012121E+02  0.7546771E-02  0.1532191E+00
          2   -1    0    0  502    0  0.00000000000E+00  0.00000000000E+00  0.50681741780E+01  0.50681741780E+01  0.00000000000E+00 0. -1.
         -2   -1    0    0    0  501 -0.00000000000E+00 -0.00000000000E+00 -0.90457578194E+02  0.90457578194E+02  0.00000000000E+00 0.  1.
          1    1    1    2  502    0 -0.11129903806E+02 -0.16762710609E+02 -0.59024857905E+02  0.62360220304E+02  0.00000000000E+00 0. -1.
         -1    1    1    2    0  501  0.11129903806E+02  0.16762710609E+02 -0.26364546112E+02  0.33165532068E+02  0.00000000000E+00 0.  1.
</event>
<event>
 4    1  0.6934088E+001  0.3002843E+02  0.7546771E-02  0.1419350E+00
          2   -1    0    0  502    0  0.00000000000E+00  0.00000000000E+00  0.10711827227E+04  0.10711827227E+04  0.00000000000E+00 0.  1.
         -2   -1    0    0    0  501 -0.00000000000E+00 -0.00000000000E+00 -0.84240097132E+00  0.84240097132E+00  0.00000000000E+00 0. -1.
          1    1    1    2  502    0 -0.27156912486E+02  0.12814389885E+02  0.54965413168E+03  0.55047376955E+03  0.00000000000E+00 0.  1.
         -1    1    1    2    0  501  0.27156912486E+02 -0.12814389885E+02  0.52068619006E+03  0.52155135414E+03  0.00000000000E+00 0. -1.
</event>
<event>
 4    1  0.6934088E+001  0.2211829E+02  0.7546771E-02  0.1503877E+00
          2   -1    0    0  502    0  0.00000000000E+00  0.00000000000E+00  0.18130465391E+03  0.18130465391E+03  0.00000000000E+00 0. -1.
         -2   -1    0    0    0  501 -0.00000000000E+00 -0.00000000000E+00 -0.30296713664E+01  0.30296713664E+01  0.00000000000E+00 0.  1.
          1    1    1    2  502    0 -0.22059169299E+02  0.16161057646E+01  0.58657134859E+02  0.62688740758E+02  0.00000000000E+00 0.  1.
         -1    1    1    2    0  501  0.22059169299E+02 -0.16161057646E+01  0.11961784768E+03  0.12164558451E+03  0.00000000000E+00 0. -1.
</event>
<event>
 4    1  0.6934088E+001  0.2064195E+02  0.7546771E-02  0.1524439E+00
          2   -1    0    0  502    0  0.00000000000E+00  0.00000000000E+00  0.18305781944E+03  0.18305781944E+03  0.00000000000E+00 0. -1.
         -2   -1    0    0    0  501 -0.00000000000E+00 -0.00000000000E+00 -0.23646904840E+01  0.23646904840E+01  0.00000000000E+00 0.  1.
          1    1    1    2  502    0  0.18304392628E+02  0.95414443785E+01  0.78739287194E+02  0.81400032544E+02  0.00000000000E+00 0. -1.
         -1    1    1    2    0  501 -0.18304392628E+02 -0.95414443785E+01  0.10195384176E+03  0.10402247738E+03  0.00000000000E+00 0.  1.
</event>
<event>
 4    1  0.6934088E+001  0.4404465E+02  0.7546771E-02  0.1326286E+00
          2   -1    0    0  502    0  0.00000000000E+00  0.00000000000E+00  0.11114668627E+04  0.11114668627E+04  0.00000000000E+00 0. -1.
         -2   -1    0    0    0  501 -0.00000000000E+00 -0.00000000000E+00 -0.32729608077E+01  0.32729608077E+01  0.00000000000E+00 0.  1.
          1    1    1    2  502    0 -0.17174652162E+02  0.40558138538E+02  0.17331591471E+03  0.17882487962E+03  0.00000000000E+00 0.  1.
         -1    1    1    2    0  501  0.17174652162E+02 -0.40558138538E+02  0.93487798714E+03  0.93591494385E+03  0.00000000000E+00 0. -1.
</event>
<event>
 4    1  0.6934088E+001  0.2241930E+02  0.7546771E-02  0.1499922E+00
          2   -1    0    0  502    0  0.00000000000E+00  0.00000000000E+00  0.27141979799E+03  0.27141979799E+03  0.00000000000E+00 0. -1.
         -2   -1    0    0    0  501 -0.00000000000E+00 -0.00000000000E+00 -0.25868916008E+01  0.25868916008E+01  0.00000000000E+00 0.  1.
          1    1    1    2  502    0 -0.14473118221E+01  0.22372536632E+02  0.61386338477E+02  0.65352181742E+02  0.00000000000E+00 0.  1.
         -1    1    1    2    0  501  0.14473118221E+01 -0.22372536632E+02  0.20744656791E+03  0.20865450784E+03  0.00000000000E+00 0. -1.
</event>
<event>
 4    1  0.6934088E+001  0.2233452E+02  0.7546771E-02  0.1501028E+00
          2   -1    0    0  502    0  0.00000000000E+00  0.00000000000E+00  0.12984918259E+02  0.12984918259E+02  0.00000000000E+00 0. -1.
         -2   -1    0    0    0  501 -0.00000000000E+00 -0.00000000000E+00 -0.53389633028E+02  0.53389633028E+02  0.00000000000E+00 0.  1.
          1    1    1    2  502    0 -0.14998651683E+01 -0.22284104190E+02 -0.26269991388E+01  0.22488486377E+02  0.00000000000E+00 0. -1.
         -1    1    1    2    0  501  0.14998651683E+01  0.22284104190E+02 -0.37777715630E+02  0.43886064910E+02  0.00000000000E+00 0.  1.
</event>
<event>
 4    1  0.6934088E+001  0.2228634E+02  0.7546771E-02  0.1501659E+00
          2   -1    0    0  502    0  0.00000000000E+00  0.00000000000E+00  0.53185035783E+03  0.53185035783E+03  0.00000000000E+00 0.  1.
         -2   -1    0    0    0  501 -0.00000000000E+00 -0.00000000000E+00 -0.10462322222E+01  0.10462322222E+01  0.00000000000E+00 0. -1.
          1    1    1    2  502    0  0.22045372597E+02  0.32684230195E+01  0.35271970094E+03  0.35342307293E+03  0.00000000000E+00 0. -1.
         -1    1    1    2    0  501 -0.22045372597E+02 -0.32684230195E+01  0.17808442466E+03  0.17947351712E+03  0.00000000000E+00 0.  1.
</event>
<event>
 4    1  0.6934088E+001  0.2720952E+02  0.7546771E-02  0.1445515E+00
          2   -1    0    0  502    0  0.00000000000E+00  0.00000000000E+00  0.16815452741E+04  0.16815452741E+04  0.00000000000E+00 0.  1.
         -2   -1    0    0    0  501 -0.00000000000E+00 -0.00000000000E+00 -0.45413281663E+00  0.45413281663E+00  0.00000000000E+00 0. -1.
          1    1    1    2  502    0  0.18898557552E+01  0.27143806226E+02  0.98740708821E+03  0.98778191703E+03  0.00000000000E+00 0. -1.
         -1    1    1    2    0  501 -0.18898557552E+01 -0.27143806226E+02  0.69368405308E+03  0.69421748989E+03  0.00000000000E+00 0.  1.
</event>
<event>
 4    1  0.6934088E+001  0.3008314E+02  0.7546771E-02  0.1418875E+00
          2   -1    0    0  502    0  0.00000000000E+00  0.00000000000E+00  0.69766773473E+01  0.69766773473E+01  0.00000000000E+00 0.  1.
         -2   -1    0    0    0  501 -0.00000000000E+00 -0.00000000000E+00 -0.15791728534E+03  0.15791728534E+03  0.00000000000E+00 0. -1.
          1    1    1    2  502    0  0.29902362936E+02 -0.32930147024E+01 -0.11031084663E+03  0.11433931143E+03  0.00000000000E+00 0. -1.
         -1    1    1    2    0  501 -0.29902362936E+02  0.32930147024E+01 -0.40629761362E+02  0.50554651253E+02  0.00000000000E+00 0.  1.
</event>
<event>
 4    1  0.6934088E+001  0.2902747E+02  0.7546771E-02  0.1428240E+00
          2   -1    0    0  502    0  0.00000000000E+00  0.00000000000E+00  0.15338046727E+03  0.15338046727E+03  0.00000000000E+00 0.  1.
         -2   -1    0    0    0  501 -0.00000000000E+00 -0.00000000000E+00 -0.59495816811E+01  0.59495816811E+01  0.00000000000E+00 0. -1.
          1    1    1    2  502    0 -0.29006409736E+02 -0.11054284532E+01  0.95772696543E+02  0.10007498779E+03  0.00000000000E+00 0.  1.
         -1    1    1    2    0  501  0.29006409736E+02  0.11054284532E+01  0.51658189045E+02  0.59255061161E+02  0.00000000000E+00 0. -1.
</event>
<event>
 4    1  0.6934088E+001  0.2572323E+02  0.7546771E-02  0.1460873E+00
          2   -1    0    0  502    0  0.00000000000E+00  0.00000000000E+00  0.11812754810E+03  0.11812754810E+03  0.00000000000E+00 0.  1.
         -2   -1    0    0    0  501 -0.00000000000E+00 -0.00000000000E+00 -0.57959826210E+01  0.57959826210E+01  0.00000000000E+00 0. -1.
          1    1    1    2  502    0  0.14175351449E+02  0.21464949650E+02  0.44813975989E+02  0.51671821103E+02  0.00000000000E+00 0. -1.
         -1    1    1    2    0  501 -0.14175351449E+02 -0.21464949650E+02  0.67517589494E+02  0.72251709622E+02  0.00000000000E+00 0.  1.
</event>
<event>
 4    1  0.6934088E+001  0.2938063E+02  0.7546771E-02  0.1425056E+00
          2   -1    0    0  502    0  0.00000000000E+00  0.00000000000E+00  0.34353550005E+01  0.34353550005E+01  0.00000000000E+00 0.  1.
         -2   -1    0    0    0  501 -0.00000000000E+00 -0.00000000000E+00 -0.25855666524E+03  0.25855666524E+03  0.00000000000E+00 0. -1.
          1    1    1    2  502    0  0.22511769989E+00  0.29379764646E+02 -0.10557828389E+03  0.10959012400E+03  0.00000000000E+00 0. -1.
         -1    1    1    2    0  501 -0.22511769989E+00 -0.29379764646E+02 -0.14954302634E+03  0.15240189624E+03  0.00000000000E+00 0.  1.
</event>
<event>
 4    1  0.6934088E+001  0.6600759E+02  0.7546771E-02  0.1240682E+00
          2   -1    0    0  502    0  0.00000000000E+00  0.00000000000E+00  0.50906717368E+02  0.50906717368E+02  0.00000000000E+00 0.  1.
         -2   -1    0    0    0  501 -0.00000000000E+00 -0.00000000000E+00 -0.95904768274E+02  0.95904768274E+02  0.00000000000E+00 0. -1.
          1    1    1    2  502    0  0.24593650138E+02  0.61254829461E+02 -0.46574937834E+02  0.80785064174E+02  0.00000000000E+00 0. -1.
         -1    1    1    2    0  501 -0.24593650138E+02 -0.61254829461E+02  0.15768869276E+01  0.66026421468E+02  0.00000000000E+00 0.  1.
</event>
<event>
 4    1  0.6934088E+001  0.2187842E+02  0.7546771E-02  0.1507083E+00
          2   -1    0    0  502    0  0.00000000000E+00  0.00000000000E+00  0.14372263660E+03  0.14372263660E+03  0.00000000000E+00 0. -1.
         -2   -1    0    0    0  501 -0.00000000000E+00 -0.00000000000E+00 -0.45561324697E+01  0.45561324697E+01  0.00000000000E+00 0.  1.
          1    1    1    2  502    0  0.15001816930E+01 -0.21826926603E+02  0.10803663888E+03  0.11022967209E+03  0.00000000000E+00 0. -1.
         -1    1    1    2    0  501 -0.15001816930E+01  0.21826926603E+02  0.31129865257E+02  0.38049096980E+02  0.00000000000E+00 0.  1.
</event>
<event>
 4    1  0.6934088E+001  0.2627859E+02  0.7546771E-02  0.1454992E+00
          2   -1    0    0  502    0  0.00000000000E+00  0.00000000000E+00  0.37684232808E+03  0.37684232808E+03  0.00000000000E+00 0.  1.
         -2   -1    0    0    0  501 -0.00000000000E+00 -0.00000000000E+00 -0.20933172075E+01  0.20933172075E+01  0.00000000000E+00 0. -1.
          1    1    1    2  502    0  0.10073107695E+02  0.24271318724E+02  0.12049636391E+03  0.12332857790E+03  0.00000000000E+00 0. -1.
         -1    1    1    2    0  501 -0.10073107695E+02 -0.24271318724E+02  0.25425264695E+03  0.25560706738E+03  0.00000000000E+00 0.  1.
</event>
<event>
 4    1  0.6934088E+001  0.2056788E+02  0.7546771E-02  0.1525525E+00
          2   -1    0    0  502    0  0.00000000000E+00  0.00000000000E+00  0.68775218866E+03  0.68775218866E+03  0.00000000000E+00 0. -1.
         -2   -1    0    0    0  501 -0.00000000000E+00 -0.00000000000E+00 -0.24069535306E+01  0.24069535306E+01  0.00000000000E+00 0.  1.
          1    1    1    2  502    0  0.10796810520E+02 -0.17506191320E+02  0.44933162494E+02  0.49416869019E+02  0.00000000000E+00 0.  1.
         -1    1    1    2    0  501 -0.10796810520E+02  0.17506191320E+02  0.64041207263E+03  0.64074227317E+03  0.00000000000E+00 0. -1.
</event>
<event>
 4    1  0.6934088E+001  0.5573441E+02  0.7546771E-02  0.1275057E+00
          2   -1    0    0  502    0  0.00000000000E+00  0.00000000000E+00  0.21934867749E+04  0.21934867749E+04  0.00000000000E+00 0.  1.
         -2   -1    0    0    0  501 -0.00000000000E+00 -0.00000000000E+00 -0.14208861555E+01  0.14208861555E+01  0.00000000000E+00 0. -1.
          1    1    1    2  502    0 -0.50783752663E+02  0.22963784689E+02  0.10327291838E+04  0.10342320300E+04  0.00000000000E+00 0.  1.
         -1    1    1    2    0  501  0.50783752663E+02 -0.22963784689E+02  0.11593367050E+04  0.11606756310E+04  0.00000000000E+00 0. -1.
</event>
<event>
 4    1  0.6934088E+001  0.6788795E+02  0.7546771E-02  0.1235156E+00
          2   -1    0    0  502    0  0.00000000000E+00  0.00000000000E+00  0.98530334490E+03  0.98530334490E+03  0.00000000000E+00 0. -1.
         -2   -1    0    0    0  501 -0.00000000000E+00 -0.00000000000E+00 -0.61651868200E+01  0.61651868200E+01  0.00000000000E+00 0.  1.
          1    1    1    2  502    0  0.23151520464E+02  0.63818338713E+02  0.73308596328E+03  0.73622265845E+03  0.00000000000E+00 0. -1.
         -1    1    1    2    0  501 -0.23151520464E+02 -0.63818338713E+02  0.24605219480E+03  0.25524587327E+03  0.00000000000E+00 0.  1.
</event>
<event>
 4    1  0.6934088E+001  0.2015053E+02  0.7546771E-02  0.1531747E+00
          2   -1    0    0  502    0  0.00000000000E+00  0.00000000000E+00  0.81103304184E+02  0.81103304184E+02  0.00000000000E+00 0. -1.
         -2   -1    0    0    0  501 -0.00000000000E+00 -0.00000000000E+00 -0.10431325482E+02  0.10431325482E+02  0.00000000000E+00 0.  1.
          1    1    1    2  502    0  0.11317620615E+02  0.16671995076E+02  0.68340890800E+02  0.71249710958E+02  0.00000000000E+00 0. -1.
         -1    1    1    2    0  501 -0.11317620615E+02 -0.16671995076E+02  0.23310879024E+01  0.20284918708E+02  0.00000000000E+00 0.  1.
</event>
<event>
 4    1  0.6934088E+001  0.2556038E+02  0.7546771E-02  0.1462631E+00
          2   -1    0    0  502    0  0.00000000000E+00  0.00000000000E+00  0.76477163888E+03  0.76477163888E+03  0.00000000000E+00 0.  1.
         -2   -1    0    0    0  501 -0.00000000000E+00 -0.00000000000E+00 -0.14758450795E+01  0.14758450795E+01  0.00000000000E+00 0. -1.
          1    1    1    2  502    0 -0.14201556146E+02 -0.21252025957E+02  0.63028177189E+03  0.63079984526E+03  0.00000000000E+00 0.  1.
         -1    1    1    2    0  501  0.14201556146E+02  0.21252025957E+02  0.13301402191E+03  0.13544763870E+03  0.00000000000E+00 0. -1.
</event>
<event>
 4    1  0.6934088E+001  0.2350601E+02  0.7546771E-02  0.1486240E+00
          2   -1    0    0  502    0  0.00000000000E+00  0.00000000000E+00  0.18158948380E+02  0.18158948380E+02  0.00000000000E+00 0. -1.
         -2   -1    0    0    0  501 -0.00000000000E+00 -0.00000000000E+00 -0.31935599996E+02  0.31935599996E+02  0.00000000000E+00 0.  1.
          1    1    1    2  502    0  0.23085051358E+02 -0.44286589915E+01 -0.12331200880E+02  0.26544135545E+02  0.00000000000E+00 0.  1.
         -1    1    1    2    0  501 -0.23085051358E+02  0.44286589915E+01 -0.14454507351E+01  0.23550412831E+02  0.00000000000E+00 0. -1.
</event>
<event>
 4    1  0.6934088E+001  0.2431462E+02  0.7546771E-02  0.1476619E+00
          2   -1    0    0  502    0  0.00000000000E+00  0.00000000000E+00  0.85926677355E+03  0.85926677355E+03  0.00000000000E+00 0.  1.
         -2   -1    0    0    0  501 -0.00000000000E+00 -0.00000000000E+00 -0.17693789987E+01  0.17693789987E+01  0.00000000000E+00 0. -1.
          1    1    1    2  502    0  0.14871831752E+02  0.19236150847E+02  0.76530986107E+03  0.76569601301E+03  0.00000000000E+00 0.  1.
         -1    1    1    2    0  501 -0.14871831752E+02 -0.19236150847E+02  0.92187533481E+02  0.95340139545E+02  0.00000000000E+00 0. -1.
</event>
<event>
 4    1  0.6934088E+001  0.2047945E+02  0.7546771E-02  0.1526828E+00
          2   -1    0    0  502    0  0.00000000000E+00  0.00000000000E+00  0.30669336465E+02  0.30669336465E+02  0.00000000000E+00 0. -1.
         -2   -1    0    0    0  501 -0.00000000000E+00 -0.00000000000E+00 -0.17066636191E+02  0.17066636191E+02  0.00000000000E+00 0.  1.
          1    1    1    2  502    0 -0.48618154763E+01 -0.19893989002E+02  0.17441218983E+02  0.26899891594E+02  0.00000000000E+00 0. -1.
         -1    1    1    2    0  501  0.48618154763E+01  0.19893989002E+02 -0.38385187093E+01  0.20836081062E+02  0.00000000000E+00 0.  1.
</event>
<event>
 4    1  0.6934088E+001  0.5302552E+02  0.7546771E-02  0.1285562E+00
          2   -1    0    0  502    0  0.00000000000E+00  0.00000000000E+00  0.31458434293E+03  0.31458434293E+03  0.00000000000E+00 0.  1.
         -2   -1    0    0    0  501 -0.00000000000E+00 -0.00000000000E+00 -0.11372647634E+02  0.11372647634E+02  0.00000000000E+00 0. -1.
          1    1    1    2  502    0  0.20818825550E+02  0.48767634646E+02  0.22701629374E+03  0.23312679664E+03  0.00000000000E+00 0.  1.
         -1    1    1    2    0  501 -0.20818825550E+02 -0.48767634646E+02  0.76195401555E+02  0.92830193926E+02  0.00000000000E+00 0. -1.
</event>
<event>
 4    1  0.6934088E+001  0.2100565E+02  0.7546771E-02  0.1519184E+00
          2   -1    0    0  502    0  0.00000000000E+00  0.00000000000E+00  0.27722773783E+03  0.27722773783E+03  0.00000000000E+00 0.  1.
         -2   -1    0    0    0  501 -0.00000000000E+00 -0.00000000000E+00 -0.17889987524E+01  0.17889987524E+01  0.00000000000E+00 0. -1.
          1    1    1    2  502    0  0.54765902588E+01 -0.20279154246E+02  0.91378774294E+02  0.93762026052E+02  0.00000000000E+00 0. -1.
         -1    1    1    2    0  501 -0.54765902588E+01  0.20279154246E+02  0.18405996478E+03  0.18525471053E+03  0.00000000000E+00 0.  1.
</event>
<event>
 4    1  0.6934088E+001  0.3001395E+02  0.7546771E-02  0.1419475E+00
          2   -1    0    0  502    0  0.00000000000E+00  0.00000000000E+00  0.37241494641E+02  0.37241494641E+02  0.00000000000E+00 0. -1.
         -2   -1    0    0    0  501 -0.00000000000E+00 -0.00000000000E+00 -0.25061732907E+02  0.25061732907E+02  0.00000000000E+00 0.  1.
          1    1    1    2  502    0  0.20188686065E+02  0.22209324101E+02  0.11902853132E+02  0.32288001405E+02  0.00000000000E+00 0. -1.
         -1    1    1    2    0  501 -0.20188686065E+02 -0.22209324101E+02  0.27690860134E+00  0.30015226143E+02  0.00000000000E+00 0.  1.
</event>
<event>
 4    1  0.6934088E+001  0.3619516E+02  0.7546771E-02  0.1372350E+00
          2   -1    0    0  502    0  0.00000000000E+00  0.00000000000E+00  0.16457177591E+04  0.16457177591E+04  0.00000000000E+00 0.  1.
         -2   -1    0    0    0  501 -0.00000000000E+00 -0.00000000000E+00 -0.85410401673E+00  0.85410401673E+00  0.00000000000E+00 0. -1.
          1    1    1    2  502    0 -0.29130354794E+02 -0.21482831861E+02  0.60780942563E+03  0.60888618602E+03  0.00000000000E+00 0. -1.
         -1    1    1    2    0  501  0.29130354794E+02  0.21482831861E+02  0.10370542295E+04  0.10376856771E+04  0.00000000000E+00 0.  1.
</event>
<event>
 4    1  0.6934088E+001  0.3282765E+02  0.7546771E-02  0.1396514E+00
          2   -1    0    0  502    0  0.00000000000E+00  0.00000000000E+00  0.12082606008E+04  0.12082606008E+04  0.00000000000E+00 0.  1.
         -2   -1    0    0    0  501 -0.00000000000E+00 -0.00000000000E+00 -0.13568571992E+01  0.13568571992E+01  0.00000000000E+00 0. -1.
          1    1    1    2  502    0  0.18257266369E+02  0.27282358364E+02  0.24940996168E+03  0.25156109365E+03  0.00000000000E+00 0. -1.
         -1    1    1    2    0  501 -0.18257266369E+02 -0.27282358364E+02  0.95749378191E+03  0.95805636434E+03  0.00000000000E+00 0.  1.
</event>
<event>
 4    1  0.6934088E+001  0.3192036E+02  0.7546771E-02  0.1403611E+00
          2   -1    0    0  502    0  0.00000000000E+00  0.00000000000E+00  0.11378987230E+03  0.11378987230E+03  0.00000000000E+00 0.  1.
         -2   -1    0    0    0  501 -0.00000000000E+00 -0.00000000000E+00 -0.90283450885E+01  0.90283450885E+01  0.00000000000E+00 0. -1.
          1    1    1    2  502    0  0.30709851032E+02  0.87071475999E+01  0.57941833925E+02  0.66152592453E+02  0.00000000000E+00 0.  1.
         -1    1    1    2    0  501 -0.30709851032E+02 -0.87071475999E+01  0.46819693282E+02  0.56665624930E+02  0.00000000000E+00 0. -1.
</event>
<event>
 4    1  0.6934088E+001  0.2108389E+02  0.7546771E-02  0.1518070E+00
          2   -1    0    0  502    0  0.00000000000E+00  0.00000000000E+00  0.15941108343E+03  0.15941108343E+03  0.00000000000E+00 0. -1.
         -2   -1    0    0    0  501 -0.00000000000E+00 -0.00000000000E+00 -0.31086442164E+01  0.31086442164E+01  0.00000000000E+00 0.  1.
          1    1    1    2  502    0  0.15098498171E+02 -0.14716169520E+02  0.52077062605E+02  0.56183189140E+02  0.00000000000E+00 0.  1.
         -1    1    1    2    0  501 -0.15098498171E+02  0.14716169520E+02  0.10422537661E+03  0.10633653851E+03  0.00000000000E+00 0. -1.
</event>
<event>
 4    1  0.6934088E+001  0.2922179E+02  0.7546771E-02  0.1426482E+00
          2   -1    0    0  502    0  0.00000000000E+00  0.00000000000E+00  0.40932300446E+03  0.40932300446E+03  0.00000000000E+00 0. -1.
         -2   -1    0    0    0  501 -0.00000000000E+00 -0.00000000000E+00 -0.56867455915E+01  0.56867455915E+01  0.00000000000E+00 0.  1.
          1    1    1    2  502    0  0.21536300899E+02  0.19750968910E+02  0.36693179193E+03  0.36809353832E+03  0.00000000000E+00 0. -1.
         -1    1    1    2    0  501 -0.21536300899E+02 -0.19750968910E+02  0.36704466938E+02  0.46916211724E+02  0.00000000000E+00 0.  1.
</event>
<event>
 4    1  0.6934088E+001  0.3002669E+02  0.7546771E-02  0.1419365E+00
          2   -1    0    0  502    0  0.00000000000E+00  0.00000000000E+00  0.37040303656E+01  0.37040303656E+01  0.00000000000E+00 0.  1.
         -2   -1    0    0    0  501 -0.00000000000E+00 -0.00000000000E+00 -0.24607180606E+03  0.24607180606E+03  0.00000000000E+00 0. -1.
          1    1    1    2  502    0  0.65996888484E+01  0.29292424107E+02 -0.13417033079E+03  0.13748919837E+03  0.00000000000E+00 0. -1.
         -1    1    1    2    0  501 -0.65996888484E+01 -0.29292424107E+02 -0.10819744490E+03  0.11228663806E+03  0.00000000000E+00 0.  1.
</event>
<event>
 4    1  0.6934088E+001  0.3079297E+02  0.7546771E-02  0.1412828E+00
          2   -1    0    0  502    0  0.00000000000E+00  0.00000000000E+00  0.11341195762E+02  0.11341195762E+02  0.00000000000E+00 0.  1.
         -2   -1    0    0    0  501 -0.00000000000E+00 -0.00000000000E+00 -0.11288791794E+03  0.11288791794E+03  0.00000000000E+00 0. -1.
          1    1    1    2  502    0  0.16996538925E+02 -0.25677318328E+02 -0.82407761793E+02  0.87972985715E+02  0.00000000000E+00 0. -1.
         -1    1    1    2    0  501 -0.16996538925E+02  0.25677318328E+02 -0.19138960384E+02  0.36256127986E+02  0.00000000000E+00 0.  1.
</event>
<event>
 4    1  0.6934088E+001  0.2020496E+02  0.7546771E-02  0.1530925E+00
          2   -1    0    0  502    0  0.00000000000E+00  0.00000000000E+00  0.97747064217E+03  0.97747064217E+03  0.00000000000E+00 0.  1.
         -2   -1    0    0    0  501 -0.00000000000E+00 -0.00000000000E+00 -0.52879873559E+00  0.52879873559E+00  0.00000000000E+00 0. -1.
          1    1    1    2  502    0 -0.17852343869E+02 -0.94622531798E+01  0.71266083219E+03  0.71294719451E+03  0.00000000000E+00 0.  1.
         -1    1    1    2    0  501  0.17852343869E+02  0.94622531798E+01  0.26428101125E+03  0.26505224640E+03  0.00000000000E+00 0. -1.
</event>
<event>
 4    1  0.6934088E+001  0.3097829E+02  0.7546771E-02  0.1411281E+00
          2   -1    0    0  502    0  0.00000000000E+00  0.00000000000E+00  0.24816507649E+03  0.24816507649E+03  0.00000000000E+00 0.  1.
         -2   -1    0    0    0  501 -0.00000000000E+00 -0.00000000000E+00 -0.41248792106E+01  0.41248792106E+01  0.00000000000E+00 0. -1.
          1    1    1    2  502    0 -0.27913432372E+02 -0.13434823062E+02  0.15356092744E+03  0.15665443694E+03  0.00000000000E+00 0.  1.
         -1    1    1    2    0  501  0.27913432372E+02  0.13434823062E+02  0.90479269836E+02  0.95635518755E+02  0.00000000000E+00 0. -1.
</event>
<event>
 4    1  0.6934088E+001  0.2517395E+02  0.7546771E-02  0.1466867E+00
          2   -1    0    0  502    0  0.00000000000E+00  0.00000000000E+00  0.12726600810E+04  0.12726600810E+04  0.00000000000E+00 0.  1.
         -2   -1    0    0    0  501 -0.00000000000E+00 -0.00000000000E+00 -0.52777624868E+00  0.52777624868E+00  0.00000000000E+00 0. -1.
          1    1    1    2  502    0 -0.91147226460E+01 -0.23465925003E+02  0.78738689186E+03  0.78778921373E+03  0.00000000000E+00 0.  1.
         -1    1    1    2    0  501  0.91147226460E+01  0.23465925003E+02  0.48474541285E+03  0.48539864347E+03  0.00000000000E+00 0. -1.
</event>
<event>
 4    1  0.6934088E+001  0.3138453E+02  0.7546771E-02  0.1407935E+00
          2   -1    0    0  502    0  0.00000000000E+00  0.00000000000E+00  0.21731199235E+04  0.21731199235E+04  0.00000000000E+00 0. -1.
         -2   -1    0    0    0  501 -0.00000000000E+00 -0.00000000000E+00 -0.12000672829E+01  0.12000672829E+01  0.00000000000E+00 0.  1.
          1    1    1    2  502    0  0.17195650421E+02  0.26254488703E+02  0.19435799396E+04  0.19438333185E+04  0.00000000000E+00 0. -1.
         -1    1    1    2    0  501 -0.17195650421E+02 -0.26254488703E+02  0.22833991662E+03  0.23048667226E+03  0.00000000000E+00 0.  1.
</event>
<event>
 4    1  0.6934088E+001  0.3614423E+02  0.7546771E-02  0.1372693E+00
          2   -1    0    0  502    0  0.00000000000E+00  0.00000000000E+00  0.60000336821E+02  0.60000336821E+02  0.00000000000E+00 0.  1.
         -2   -1    0    0    0  501 -0.00000000000E+00 -0.00000000000E+00 -0.22144641441E+02  0.22144641441E+02  0.00000000000E+00 0. -1.
          1    1    1    2  502    0 -0.27697318742E+02 -0.23222049777E+02  0.13609140762E+02  0.38621415997E+02  0.00000000000E+00 0. -1.
         -1    1    1    2    0  501  0.27697318742E+02  0.23222049777E+02  0.24246554618E+02  0.43523562264E+02  0.00000000000E+00 0.  1.
</event>
<event>
 4    1  0.6934088E+001  0.2446771E+02  0.7546771E-02  0.1474847E+00
          2   -1    0    0  502    0  0.00000000000E+00  0.00000000000E+00  0.18475457014E+04  0.18475457014E+04  0.00000000000E+00 0.  1.
         -2   -1    0    0    0  501 -0.00000000000E+00 -0.00000000000E+00 -0.32438534973E+00  0.32438534973E+00  0.00000000000E+00 0. -1.
          1    1    1    2  502    0  0.24172714712E+02  0.37879379580E+01  0.89322628306E+03  0.89356133609E+03  0.00000000000E+00 0.  1.
         -1    1    1    2    0  501 -0.24172714712E+02 -0.37879379580E+01  0.95399503299E+03  0.95430875066E+03  0.00000000000E+00 0. -1.
</event>
<event>
 4    1  0.6934088E+001  0.2930571E+02  0.7546771E-02  0.1425727E+00
          2   -1    0    0  502    0  0.00000000000E+00  0.00000000000E+00  0.20641060784E+01  0.20641060784E+01  0.00000000000E+00 0. -1.
         -2   -1    0    0    0  501 -0.00000000000E+00 -0.00000000000E+00 -0.44555558248E+03  0.44555558248E+03  0.00000000000E+00 0.  1.
          1    1    1    2  502    0  0.10344992766E+02 -0.27419081886E+02 -0.16417667422E+03  0.16677171608E+03  0.00000000000E+00 0. -1.
         -1    1    1    2    0  501 -0.10344992766E+02  0.27419081886E+02 -0.27931480218E+03  0.28084797248E+03  0.00000000000E+00 0.  1.
</event>
<event>
 4    1  0.6934088E+001  0.2551704E+02  0.7546771E-02  0.1463102E+00
          2   -1    0    0  502    0  0.00000000000E+00  0.00000000000E+00  0.57738618493E+03  0.57738618493E+03  0.00000000000E+00 0.  1.
         -2   -1    0    0    0  501 -0.00000000000E+00 -0.00000000000E+00 -0.12035561075E+01  0.12035561075E+01  0.00000000000E+00 0. -1.
          1    1    1    2  502    0 -0.18231932201E+02  0.17852613414E+02  0.21546415012E+03  0.21696985769E+03  0.00000000000E+00 0. -1.
         -1    1    1    2    0  501  0.18231932201E+02 -0.17852613414E+02  0.36071847870E+03  0.36161988335E+03  0.00000000000E+00 0.  1.
</event>
<event>
 4    1  0.6934088E+001  0.2078949E+02  0.7546771E-02  0.1522292E+00
          2   -1    0    0  502    0  0.00000000000E+00  0.00000000000E+00  0.40869507423E+02  0.40869507423E+02  0.00000000000E+00 0. -1.
         -2   -1    0    0    0  501 -0.00000000000E+00 -0.00000000000E+00 -0.11794587277E+02  0.11794587277E+02  0.00000000000E+00 0.  1.
          1    1    1    2  502    0  0.50733893755E+01  0.20160944722E+02  0.23004178988E+02  0.31006373905E+02  0.00000000000E+00 0. -1.
         -1    1    1    2    0  501 -0.50733893755E+01 -0.20160944722E+02  0.60707411594E+01  0.21657720795E+02  0.00000000000E+00 0.  1.
</event>
<event>
 4    1  0.6934088E+001  0.2521218E+02  0.7546771E-02  0.1466444E+00
          2   -1    0    0  502    0  0.00000000000E+00  0.00000000000E+00  0.12055097116E+03  0.12055097116E+03  0.00000000000E+00 0.  1.
         -2   -1    0    0    0  501 -0.00000000000E+00 -0.00000000000E+00 -0.11999295940E+02  0.11999295940E+02  0.00000000000E+00 0. -1.
          1    1    1    2  502    0 -0.16954109801E+02 -0.18660443240E+02  0.10389663493E+03  0.10691194849E+03  0.00000000000E+00 0.  1.
         -1    1    1    2    0  501  0.16954109801E+02  0.18660443240E+02  0.46550402969E+01  0.25638318612E+02  0.00000000000E+00 0. -1.
</event>
<event>
 4    1  0.6934088E+001  0.4105225E+02  0.7546771E-02  0.1342428E+00
          2   -1    0    0  502    0  0.00000000000E+00  0.00000000000E+00  0.24840443154E+04  0.24840443154E+04  0.00000000000E+00 0. -1.
         -2   -1    0    0    0  501 -0.00000000000E+00 -0.00000000000E+00 -0.12685841588E+01  0.12685841588E+01  0.00000000000E+00 0.  1.
          1    1    1    2  502    0  0.39193449994E+02  0.12213124761E+02  0.20889445006E+04  0.20893478440E+04  0.00000000000E+00 0. -1.
         -1    1    1    2    0  501 -0.39193449994E+02 -0.12213124761E+02  0.39383123068E+03  0.39596505552E+03  0.00000000000E+00 0.  1.
</event>
<event>
 4    1  0.6934088E+001  0.2198833E+02  0.7546771E-02  0.1505608E+00
          2   -1    0    0  502    0  0.00000000000E+00  0.00000000000E+00  0.35617193338E+02  0.35617193338E+02  0.00000000000E+00 0.  1.
         -2   -1    0    0    0  501 -0.00000000000E+00 -0.00000000000E+00 -0.14433256173E+02  0.14433256173E+02  0.00000000000E+00 0. -1.
          1    1    1    2  502    0  0.16068227339E+02 -0.15009949781E+02  0.16696103877E+02  0.27608810313E+02  0.00000000000E+00 0.  1.
         -1    1    1    2    0  501 -0.16068227339E+02  0.15009949781E+02  0.44878332890E+01  0.22441639198E+02  0.00000000000E+00 0. -1.
</event>
<event>
 4    1  0.6934088E+001  0.3104711E+02  0.7546771E-02  0.1410710E+00
          2   -1    0    0  502    0  0.00000000000E+00  0.00000000000E+00  0.13377639702E+03  0.13377639702E+03  0.00000000000E+00 0. -1.
         -2   -1    0    0    0  501 -0.00000000000E+00 -0.00000000000E+00 -0.15474142196E+02  0.15474142196E+02  0.00000000000E+00 0.  1.
          1    1    1    2  502    0 -0.29010031687E+02  0.11060784634E+02  0.46004312843E+01  0.31386093468E+02  0.00000000000E+00 0.  1.
         -1    1    1    2    0  501  0.29010031687E+02 -0.11060784634E+02  0.11370182354E+03  0.11786444575E+03  0.00000000000E+00 0. -1.
</event>
<event>
 4    1  0.6934088E+001  0.3280065E+02  0.7546771E-02  0.1396722E+00
          2   -1    0    0  502    0  0.00000000000E+00  0.00000000000E+00  0.10584374573E+02  0.10584374573E+02  0.00000000000E+00 0. -1.
         -2   -1    0    0    0  501 -0.00000000000E+00 -0.00000000000E+00 -0.10515132363E+03  0.10515132363E+03  0.00000000000E+00 0.  1.
          1    1    1    2  502    0 -0.91916139001E+01  0.31486454959E+02 -0.36721192308E+02  0.49237471264E+02  0.00000000000E+00 0. -1.
         -1    1    1    2    0  501  0.91916139001E+01 -0.31486454959E+02 -0.57845756749E+02  0.66498226938E+02  0.00000000000E+00 0.  1.
</event>
<event>
 4    1  0.6934088E+001  0.2630514E+02  0.7546771E-02  0.1454716E+00
          2   -1    0    0  502    0  0.00000000000E+00  0.00000000000E+00  0.23450177925E+01  0.23450177925E+01  0.00000000000E+00 0.  1.
         -2   -1    0    0    0  501 -0.00000000000E+00 -0.00000000000E+00 -0.29754107500E+03  0.29754107500E+03  0.00000000000E+00 0. -1.
          1    1    1    2  502    0 -0.10190809553E+02  0.24250935621E+02 -0.13395243280E+03  0.13651085939E+03  0.00000000000E+00 0.  1.
         -1    1    1    2    0  501  0.10190809553E+02 -0.24250935621E+02 -0.16124362440E+03  0.16337523340E+03  0.00000000000E+00 0. -1.
</event>
<event>
 4    1  0.6934088E+001  0.2951172E+02  0.7546771E-02  0.1423888E+00
          2   -1    0    0  502    0  0.00000000000E+00  0.00000000000E+00  0.55558697841E+03  0.55558697841E+03  0.00000000000E+00 0.  1.
         -2   -1    0    0    0  501 -0.00000000000E+00 -0.00000000000E+00 -0.23001990987E+01  0.23001990987E+01  0.00000000000E+00 0. -1.
          1    1    1    2  502    0 -0.17301595091E+02 -0.23908084148E+02  0.11922155312E+03  0.12281986976E+03  0.00000000000E+00 0. -1.
         -1    1    1    2    0  501  0.17301595091E+02  0.23908084148E+02  0.43406522619E+03  0.43506730775E+03  0.00000000000E+00 0.  1.
</event>
<event>
 4    1  0.6934088E+001  0.2583518E+02  0.7546771E-02  0.1459673E+00
          2   -1    0    0  502    0  0.00000000000E+00  0.00000000000E+00  0.19554131897E+03  0.19554131897E+03  0.00000000000E+00 0. -1.
         -2   -1    0    0    0  501 -0.00000000000E+00 -0.00000000000E+00 -0.77414054142E+01  0.77414054142E+01  0.00000000000E+00 0.  1.
          1    1    1    2  502    0  0.17809215500E+02  0.18715998939E+02  0.17901375343E+02  0.31431131258E+02  0.00000000000E+00 0.  1.
         -1    1    1    2    0  501 -0.17809215500E+02 -0.18715998939E+02  0.16989853821E+03  0.17185159313E+03  0.00000000000E+00 0. -1.
</event>
<event>
 4    1  0.6934088E+001  0.2914364E+02  0.7546771E-02  0.1427187E+00
          2   -1    0    0  502    0  0.00000000000E+00  0.00000000000E+00  0.28492350452E+01  0.28492350452E+01  0.00000000000E+00 0. -1.
         -2   -1    0    0    0  501 -0.00000000000E+00 -0.00000000000E+00 -0.36278689577E+03  0.36278689577E+03  0.00000000000E+00 0.  1.
          1    1    1    2  502    0  0.17500848077E+02 -0.23303907440E+02 -0.25716710128E+03  0.25881319473E+03  0.00000000000E+00 0.  1.
         -1    1    1    2    0  501 -0.17500848077E+02  0.23303907440E+02 -0.10277055945E+03  0.10682293609E+03  0.00000000000E+00 0. -1.
</event>
<event>
 4    1  0.6934088E+001  0.4765171E+02  0.7546771E-02  0.1308688E+00
          2   -1    0    0  502    0  0.00000000000E+00  0.00000000000E+00  0.16003180226E+04  0.16003180226E+04  0.00000000000E+00 0.  1.
         -2   -1    0    0    0  501 -0.00000000000E+00 -0.00000000000E+00 -0.14891052327E+01  0.14891052327E+01  0.00000000000E+00 0. -1.
          1    1    1    2  502    0 -0.47445040679E+02 -0.44332553070E+01  0.62550904370E+03  0.62732148807E+03  0.00000000000E+00 0. -1.
         -1    1    1    2    0  501  0.47445040679E+02  0.44332553070E+01  0.97331987362E+03  0.97448563972E+03  0.00000000000E+00 0.  1.
</event>
<event>
 4    1  0.6934088E+001  0.2912346E+02  0.7546771E-02  0.1427369E+00
          2   -1    0    0  502    0  0.00000000000E+00  0.00000000000E+00  0.27597890262E+03  0.27597890262E+03  0.00000000000E+00 0.  1.
         -2   -1    0    0    0  501 -0.00000000000E+00 -0.00000000000E+00 -0.37949775259E+01  0.37949775259E+01  0.00000000000E+00 0. -1.
          1    1    1    2  502    0  0.18285435437E+02  0.22667575647E+02  0.75091508917E+02  0.80541361090E+02  0.00000000000E+00 0. -1.
         -1    1    1    2    0  501 -0.18285435437E+02 -0.22667575647E+02  0.19709241618E+03  0.19923251906E+03  0.00000000000E+00 0.  1.
</event>
<event>
 4    1  0.6934088E+001  0.2942846E+02  0.7546771E-02  0.1424629E+00
          2   -1    0    0  502    0  0.00000000000E+00  0.00000000000E+00  0.21194781664E+02  0.21194781664E+02  0.00000000000E+00 0. -1.
         -2   -1    0    0    0  501 -0.00000000000E+00 -0.00000000000E+00 -0.12161966993E+03  0.12161966993E+03  0.00000000000E+00 0.  1.
          1    1    1    2  502    0  0.27440457899E+02 -0.10632744356E+02  0.79758451889E+01  0.30490131005E+02  0.00000000000E+00 0. -1.
         -1    1    1    2    0  501 -0.27440457899E+02  0.10632744356E+02 -0.10840073346E+03  0.11232432059E+03  0.00000000000E+00 0.  1.
</event>
<event>
 4    1  0.6934088E+001  0.3883506E+02  0.7546771E-02  0.1355451E+00
          2   -1    0    0  502    0  0.00000000000E+00  0.00000000000E+00  0.15557434347E+04  0.15557434347E+04  0.00000000000E+00 0. -1.
         -2   -1    0    0    0  501 -0.00000000000E+00 -0.00000000000E+00 -0.13155938964E+01  0.13155938964E+01  0.00000000000E+00 0.  1.
          1    1    1    2  502    0 -0.17558359096E+02  0.34639080887E+02  0.11765734916E+04  0.11772142299E+04  0.00000000000E+00 0. -1.
         -1    1    1    2    0  501  0.17558359096E+02 -0.34639080887E+02  0.37785434919E+03  0.37984479870E+03  0.00000000000E+00 0.  1.
</event>
<event>
 4    1  0.6934088E+001  0.2049592E+02  0.7546771E-02  0.1526585E+00
          2   -1    0    0  502    0  0.00000000000E+00  0.00000000000E+00  0.41503572384E+03  0.41503572384E+03  0.00000000000E+00 0. -1.
         -2   -1    0    0    0  501 -0.00000000000E+00 -0.00000000000E+00 -0.16259001248E+01  0.16259001248E+01  0.00000000000E+00 0.  1.
          1    1    1    2  502    0  0.15205460151E+02  0.13743241229E+02  0.78708229207E+02  0.81333068569E+02  0.00000000000E+00 0.  1.
         -1    1    1    2    0  501 -0.15205460151E+02 -0.13743241229E+02  0.33470159451E+03  0.33532855540E+03  0.00000000000E+00 0. -1.
</event>
<event>
 4    1  0.6934088E+001  0.2455129E+02  0.7546771E-02  0.1473886E+00
          2   -1    0    0  502    0  0.00000000000E+00  0.00000000000E+00  0.14025047295E+04  0.14025047295E+04  0.00000000000E+00 0. -1.
         -2   -1    0    0    0  501 -0.00000000000E+00 -0.00000000000E+00 -0.47736419305E+00  0.47736419305E+00  0.00000000000E+00 0.  1.
          1    1    1    2  502    0  0.44826560738E+01 -0.24138596886E+02  0.47953270441E+03  0.48016078626E+03  0.00000000000E+00 0.  1.
         -1    1    1    2    0  501 -0.44826560738E+01  0.24138596886E+02  0.92249466093E+03  0.92282130746E+03  0.00000000000E+00 0. -1.
</event>
<event>
 4    1  0.6934088E+001  0.9346331E+02  0.7546771E-02  0.1175644E+00
          2   -1    0    0  502    0  0.00000000000E+00  0.00000000000E+00  0.14501636956E+04  0.14501636956E+04  0.00000000000E+00 0. -1.
         -2   -1    0    0    0  501 -0.00000000000E+00 -0.00000000000E+00 -0.77036950369E+01  0.77036950369E+01  0.00000000000E+00 0.  1.
          1    1    1    2  502    0 -0.84830968283E+02 -0.39231327135E+02  0.38083043685E+03  0.39213162566E+03  0.00000000000E+00 0.  1.
         -1    1    1    2    0  501  0.84830968283E+02  0.39231327135E+02  0.10616295637E+04  0.10657357649E+04  0.00000000000E+00 0. -1.
</event>
<event>
 4    1  0.6934088E+001  0.2146542E+02  0.7546771E-02  0.1512723E+00
          2   -1    0    0  502    0  0.00000000000E+00  0.00000000000E+00  0.15756012043E+04  0.15756012043E+04  0.00000000000E+00 0. -1.
         -2   -1    0    0    0  501 -0.00000000000E+00 -0.00000000000E+00 -0.31357470438E+00  0.31357470438E+00  0.00000000000E+00 0.  1.
          1    1    1    2  502    0  0.21301376670E+02 -0.26486786929E+01  0.99222267617E+03  0.99245483688E+03  0.00000000000E+00 0. -1.
         -1    1    1    2    0  501 -0.21301376670E+02  0.26486786929E+01  0.58306495340E+03  0.58345994209E+03  0.00000000000E+00 0.  1.
</event>
<event>
 4    1  0.6934088E+001  0.2202485E+02  0.7546771E-02  0.1505120E+00
          2   -1    0    0  502    0  0.00000000000E+00  0.00000000000E+00  0.24500802299E+02  0.24500802299E+02  0.00000000000E+00 0.  1.
         -2   -1    0    0    0  501 -0.00000000000E+00 -0.00000000000E+00 -0.25649221050E+02  0.25649221050E+02  0.00000000000E+00 0. -1.
          1    1    1    2  502    0  0.14153380536E+02  0.16875297749E+02 -0.12549510693E+02  0.25349242067E+02  0.00000000000E+00 0. -1.
         -1    1    1    2    0  501 -0.14153380536E+02 -0.16875297749E+02  0.11401091942E+02  0.24800781282E+02  0.00000000000E+00 0.  1.
</event>
<event>
 4    1  0.6934088E+001  0.2059931E+02  0.7546771E-02  0.1525063E+00
          2   -1    0    0  502    0  0.00000000000E+00  0.00000000000E+00  0.11480812216E+02  0.11480812216E+02  0.00000000000E+00 0. -1.
         -2   -1    0    0    0  501 -0.00000000000E+00 -0.00000000000E+00 -0.36995436531E+02  0.36995436531E+02  0.00000000000E+00 0.  1.
          1    1    1    2  502    0  0.79045385038E+01 -0.19022351941E+02 -0.13506744285E+02  0.24632574845E+02  0.00000000000E+00 0.  1.
         -1    1    1    2    0  501 -0.79045385038E+01  0.19022351941E+02 -0.12007880029E+02  0.23843673902E+02  0.00000000000E+00 0. -1.
</event>
<event>
 4    1  0.6934088E+001  0.2143797E+02  0.7546771E-02  0.1513103E+00
          2   -1    0    0  502    0  0.00000000000E+00  0.00000000000E+00  0.13600834213E+03  0.13600834213E+03  0.00000000000E+00 0. -1.
         -2   -1    0    0    0  501 -0.00000000000E+00 -0.00000000000E+00 -0.36545726314E+01  0.36545726314E+01  0.00000000000E+00 0.  1.
          1    1    1    2  502    0 -0.21423290842E+02 -0.79328378457E+00  0.47004911467E+02  0.51662833756E+02  0.00000000000E+00 0.  1.
         -1    1    1    2    0  501  0.21423290842E+02  0.79328378457E+00  0.85348858029E+02  0.88000081003E+02  0.00000000000E+00 0. -1.
</event>
<event>
 4    1  0.6934088E+001  0.3744390E+02  0.7546771E-02  0.1364152E+00
          2   -1    0    0  502    0  0.00000000000E+00  0.00000000000E+00  0.26351055768E+03  0.26351055768E+03  0.00000000000E+00 0.  1.
         -2   -1    0    0    0  501 -0.00000000000E+00 -0.00000000000E+00 -0.68222465637E+01  0.68222465637E+01  0.00000000000E+00 0. -1.
          1    1    1    2  502    0 -0.34170476367E+02  0.15310913132E+02  0.64930506960E+02  0.74953427208E+02  0.00000000000E+00 0. -1.
         -1    1    1    2    0  501  0.34170476367E+02 -0.15310913132E+02  0.19175780415E+03  0.19537937703E+03  0.00000000000E+00 0.  1.
</event>
<event>
 4    1  0.6934088E+001  0.2669502E+02  0.7546771E-02  0.1450696E+00
          2   -1    0    0  502    0  0.00000000000E+00  0.00000000000E+00  0.64477777036E+03  0.64477777036E+03  0.00000000000E+00 0. -1.
         -2   -1    0    0    0  501 -0.00000000000E+00 -0.00000000000E+00 -0.18691966300E+01  0.18691966300E+01  0.00000000000E+00 0.  1.
          1    1    1    2  502    0  0.22725167361E+02  0.14006809847E+02  0.52815816082E+03  0.52883236171E+03  0.00000000000E+00 0. -1.
         -1    1    1    2    0  501 -0.22725167361E+02 -0.14006809847E+02  0.11475041291E+03  0.11781460528E+03  0.00000000000E+00 0.  1.
</event>
<event>
 4    1  0.6934088E+001  0.2744439E+02  0.7546771E-02  0.1443194E+00
          2   -1    0    0  502    0  0.00000000000E+00  0.00000000000E+00  0.44512258418E+02  0.44512258418E+02  0.00000000000E+00 0. -1.
         -2   -1    0    0    0  501 -0.00000000000E+00 -0.00000000000E+00 -0.20500912149E+02  0.20500912149E+02  0.00000000000E+00 0.  1.
          1    1    1    2  502    0  0.27436106078E+02  0.67435255518E+00 -0.15779994323E+01  0.27489720812E+02  0.00000000000E+00 0.  1.
         -1    1    1    2    0  501 -0.27436106078E+02 -0.67435255518E+00  0.25589345701E+02  0.37523449755E+02  0.00000000000E+00 0. -1.
</event>
<event>
 4    1  0.6934088E+001  0.2428000E+02  0.7546771E-02  0.1477022E+00
          2   -1    0    0  502    0  0.00000000000E+00  0.00000000000E+00  0.37671523795E+03  0.37671523795E+03  0.00000000000E+00 0.  1.
         -2   -1    0    0    0  501 -0.00000000000E+00 -0.00000000000E+00 -0.33038996163E+01  0.33038996163E+01  0.00000000000E+00 0. -1.
          1    1    1    2  502    0 -0.25153098460E+01  0.24149356948E+02  0.48853711607E+02  0.54554590663E+02  0.00000000000E+00 0. -1.
         -1    1    1    2    0  501  0.25153098460E+01 -0.24149356948E+02  0.32455762672E+03  0.32546454690E+03  0.00000000000E+00 0.  1.
</event>
<event>
 4    1  0.6934088E+001  0.2459188E+02  0.7546771E-02  0.1473421E+00
          2   -1    0    0  502    0  0.00000000000E+00  0.00000000000E+00  0.38919147467E+03  0.38919147467E+03  0.00000000000E+00 0. -1.
         -2   -1    0    0    0  501 -0.00000000000E+00 -0.00000000000E+00 -0.25321845588E+01  0.25321845588E+01  0.00000000000E+00 0.  1.
          1    1    1    2  502    0 -0.21851430406E+02  0.11281638727E+02  0.71588564583E+02  0.75694669312E+02  0.00000000000E+00 0.  1.
         -1    1    1    2    0  501  0.21851430406E+02 -0.11281638727E+02  0.31507072553E+03  0.31602898992E+03  0.00000000000E+00 0. -1.
</event>
<event>
 4    1  0.6934088E+001  0.3368885E+02  0.7546771E-02  0.1390023E+00
          2   -1    0    0  502    0  0.00000000000E+00  0.00000000000E+00  0.76229375109E+02  0.76229375109E+02  0.00000000000E+00 0.  1.
         -2   -1    0    0    0  501 -0.00000000000E+00 -0.00000000000E+00 -0.17004015696E+02  0.17004015696E+02  0.00000000000E+00 0. -1.
          1    1    1    2  502    0 -0.10304922143E+02 -0.32074093075E+02  0.13169840789E+02  0.36171585165E+02  0.00000000000E+00 0. -1.
         -1    1    1    2    0  501  0.10304922143E+02  0.32074093075E+02  0.46055518625E+02  0.57061805639E+02  0.00000000000E+00 0.  1.
</event>
<event>
 4    1  0.6934088E+001  0.2838473E+02  0.7546771E-02  0.1434173E+00
          2   -1    0    0  502    0  0.00000000000E+00  0.00000000000E+00  0.79135325515E+02  0.79135325515E+02  0.00000000000E+00 0. -1.
         -2   -1    0    0    0  501 -0.00000000000E+00 -0.00000000000E+00 -0.19893377190E+02  0.19893377190E+02  0.00000000000E+00 0.  1.
          1    1    1    2  502    0  0.24537635972E+02  0.14268757173E+02 -0.49757525809E+01  0.28817548891E+02  0.00000000000E+00 0.  1.
         -1    1    1    2    0  501 -0.24537635972E+02 -0.14268757173E+02  0.64217700906E+02  0.70211153814E+02  0.00000000000E+00 0. -1.
</event>
<event>
 4    1  0.6934088E+001  0.3214392E+02  0.7546771E-02  0.1401837E+00
          2   -1    0    0  502    0  0.00000000000E+00  0.00000000000E+00  0.50059763590E+03  0.50059763590E+03  0.00000000000E+00 0.  1.
         -2   -1    0    0    0  501 -0.00000000000E+00 -0.00000000000E+00 -0.20915442943E+01  0.20915442943E+01  0.00000000000E+00 0. -1.
          1    1    1    2  502    0 -0.10511310130E+02 -0.30376702120E+02  0.22040735546E+03  0.22273893690E+03  0.00000000000E+00 0. -1.
         -1    1    1    2    0  501  0.10511310130E+02  0.30376702120E+02  0.27809873615E+03  0.27995024330E+03  0.00000000000E+00 0.  1.
</event>
<event>
 4    1  0.6934088E+001  0.3939569E+02  0.7546771E-02  0.1352064E+00
          2   -1    0    0  502    0  0.00000000000E+00  0.00000000000E+00  0.23619445031E+02  0.23619445031E+02  0.00000000000E+00 0.  1.
         -2   -1    0    0    0  501 -0.00000000000E+00 -0.00000000000E+00 -0.67212495731E+02  0.67212495731E+02  0.00000000000E+00 0. -1.
          1    1    1    2  502    0 -0.88857525740E+01  0.38380509602E+02 -0.28588147473E+02  0.48675479372E+02  0.00000000000E+00 0.  1.
         -1    1    1    2    0  501  0.88857525740E+01 -0.38380509602E+02 -0.15004903227E+02  0.42156461390E+02  0.00000000000E+00 0. -1.
</event>
<event>
 4    1  0.6934088E+001  0.2930803E+02  0.7546771E-02  0.1425706E+00
          2   -1    0    0  502    0  0.00000000000E+00  0.00000000000E+00  0.43110359064E+02  0.43110359064E+02  0.00000000000E+00 0.  1.
         -2   -1    0    0    0  501 -0.00000000000E+00 -0.00000000000E+00 -0.58644943171E+02  0.58644943171E+02  0.00000000000E+00 0. -1.
          1    1    1    2  502    0 -0.25030559382E+02  0.15245707725E+02 -0.49108281475E+02  0.57189018320E+02  0.00000000000E+00 0. -1.
         -1    1    1    2    0  501  0.25030559382E+02 -0.15245707725E+02  0.33573697367E+02  0.44566283914E+02  0.00000000000E+00 0.  1.
</event>
<event>
 4    1  0.6934088E+001  0.2367823E+02  0.7546771E-02  0.1484153E+00
          2   -1    0    0  502    0  0.00000000000E+00  0.00000000000E+00  0.18702967425E+03  0.18702967425E+03  0.00000000000E+00 0.  1.
         -2   -1    0    0    0  501 -0.00000000000E+00 -0.00000000000E+00 -0.39377209662E+01  0.39377209662E+01  0.00000000000E+00 0. -1.
          1    1    1    2  502    0 -0.27848789692E+01 -0.23513890913E+02  0.44893379758E+02  0.50755040763E+02  0.00000000000E+00 0. -1.
         -1    1    1    2    0  501  0.27848789692E+01  0.23513890913E+02  0.13819857353E+03  0.14021235445E+03  0.00000000000E+00 0.  1.
</event>
<event>
 4    1  0.6934088E+001  0.2326339E+02  0.7546771E-02  0.1489217E+00
          2   -1    0    0  502    0  0.00000000000E+00  0.00000000000E+00  0.30791124958E+02  0.30791124958E+02  0.00000000000E+00 0. -1.
         -2   -1    0    0    0  501 -0.00000000000E+00 -0.00000000000E+00 -0.20631744913E+02  0.20631744913E+02  0.00000000000E+00 0.  1.
          1    1    1    2  502    0  0.23189966789E+02  0.18468379697E+01 -0.48153053698E+01  0.23756526177E+02  0.00000000000E+00 0.  1.
         -1    1    1    2    0  501 -0.23189966789E+02 -0.18468379697E+01  0.14974685415E+02  0.27666343695E+02  0.00000000000E+00 0. -1.
</event>
<event>
 4    1  0.6934088E+001  0.2754208E+02  0.7546771E-02  0.1442237E+00
          2   -1    0    0  502    0  0.00000000000E+00  0.00000000000E+00  0.91109434716E+00  0.91109434716E+00  0.00000000000E+00 0. -1.
         -2   -1    0    0    0  501 -0.00000000000E+00 -0.00000000000E+00 -0.10404484363E+04  0.10404484363E+04  0.00000000000E+00 0.  1.
          1    1    1    2  502    0  0.49265042549E+01  0.27097894194E+02 -0.28704196129E+03  0.28836028481E+03  0.00000000000E+00 0.  1.
         -1    1    1    2    0  501 -0.49265042549E+01 -0.27097894194E+02 -0.75249538067E+03  0.75299924584E+03  0.00000000000E+00 0. -1.
</event>
<event>
 4    1  0.6934088E+001  0.2067863E+02  0.7546771E-02  0.1523903E+00
          2   -1    0    0  502    0  0.00000000000E+00  0.00000000000E+00  0.12216012955E+01  0.12216012955E+01  0.00000000000E+00 0. -1.
         -2   -1    0    0    0  501 -0.00000000000E+00 -0.00000000000E+00 -0.37444108856E+03  0.37444108856E+03  0.00000000000E+00 0.  1.
          1    1    1    2  502    0 -0.17899886936E+02  0.10353726130E+02 -0.23456188652E+03  0.23547162081E+03  0.00000000000E+00 0.  1.
         -1    1    1    2    0  501  0.17899886936E+02 -0.10353726130E+02 -0.13865760074E+03  0.14019106905E+03  0.00000000000E+00 0. -1.
</event>
<event>
 4    1  0.6934088E+001  0.2267704E+02  0.7546771E-02  0.1496594E+00
          2   -1    0    0  502    0  0.00000000000E+00  0.00000000000E+00  0.96417163972E+03  0.96417163972E+03  0.00000000000E+00 0.  1.
         -2   -1    0    0    0  501 -0.00000000000E+00 -0.00000000000E+00 -0.69140433346E+00  0.69140433346E+00  0.00000000000E+00 0. -1.
          1    1    1    2  502    0  0.86583394176E+01 -0.20959035833E+02  0.71239504821E+03  0.71275588580E+03  0.00000000000E+00 0.  1.
         -1    1    1    2    0  501 -0.86583394176E+01  0.20959035833E+02  0.25108518717E+03  0.25210715825E+03  0.00000000000E+00 0. -1.
</event>
<event>
 4    1  0.6934088E+001  0.4000766E+02  0.7546771E-02  0.1348441E+00
          2   -1    0    0  502    0  0.00000000000E+00  0.00000000000E+00  0.16858864901E+04  0.16858864901E+04  0.00000000000E+00 0. -1.
         -2   -1    0    0    0  501 -0.00000000000E+00 -0.00000000000E+00 -0.10247680855E+01  0.10247680855E+01  0.00000000000E+00 0.  1.
          1    1    1    2  502    0 -0.36513495916E+02  0.16351677639E+02  0.10711425185E+04  0.10718894102E+04  0.00000000000E+00 0. -1.
         -1    1    1    2    0  501  0.36513495916E+02 -0.16351677639E+02  0.61371920359E+03  0.61502184807E+03  0.00000000000E+00 0.  1.
</event>
<event>
 4    1  0.6934088E+001  0.2769500E+02  0.7546771E-02  0.1440749E+00
          2   -1    0    0  502    0  0.00000000000E+00  0.00000000000E+00  0.12243279044E+03  0.12243279044E+03  0.00000000000E+00 0. -1.
         -2   -1    0    0    0  501 -0.00000000000E+00 -0.00000000000E+00 -0.10041668142E+02  0.10041668142E+02  0.00000000000E+00 0.  1.
          1    1    1    2  502    0 -0.24532345899E+02  0.12852113101E+02  0.96818101661E+02  0.10070132877E+03  0.00000000000E+00 0. -1.
         -1    1    1    2    0  501  0.24532345899E+02 -0.12852113101E+02  0.15573020639E+02  0.31773129816E+02  0.00000000000E+00 0.  1.
</event>
<event>
 4    1  0.6934088E+001  0.3965192E+02  0.7546771E-02  0.1350538E+00
          2   -1    0    0  502    0  0.00000000000E+00  0.00000000000E+00  0.81814141092E+02  0.81814141092E+02  0.00000000000E+00 0. -1.
         -2   -1    0    0    0  501 -0.00000000000E+00 -0.00000000000E+00 -0.20708876440E+02  0.20708876440E+02  0.00000000000E+00 0.  1.
          1    1    1    2  502    0  0.63106014424E+00 -0.39646900038E+02  0.44308436912E+02  0.59460175757E+02  0.00000000000E+00 0.  1.
         -1    1    1    2    0  501 -0.63106014424E+00  0.39646900038E+02  0.16796827741E+02  0.43062841775E+02  0.00000000000E+00 0. -1.
</event>
<event>
 4    1  0.6934088E+001  0.2598251E+02  0.7546771E-02  0.1458106E+00
          2   -1    0    0  502    0  0.00000000000E+00  0.00000000000E+00  0.42181370180E+03  0.42181370180E+03  0.00000000000E+00 0.  1.
         -2   -1    0    0    0  501 -0.00000000000E+00 -0.00000000000E+00 -0.16222574589E+01  0.16222574589E+01  0.00000000000E+00 0. -1.
          1    1    1    2  502    0  0.15485970630E+02 -0.20863257622E+02  0.18554736510E+03  0.18735772068E+03  0.00000000000E+00 0.  1.
         -1    1    1    2    0  501 -0.15485970630E+02  0.20863257622E+02  0.23464407924E+03  0.23607823857E+03  0.00000000000E+00 0. -1.
</event>
<event>
 4    1  0.6934088E+001  0.2334174E+02  0.7546771E-02  0.1488251E+00
          2   -1    0    0  502    0  0.00000000000E+00  0.00000000000E+00  0.91090898164E+03  0.91090898164E+03  0.00000000000E+00 0. -1.
         -2   -1    0    0    0  501 -0.00000000000E+00 -0.00000000000E+00 -0.14205825819E+01  0.14205825819E+01  0.00000000000E+00 0.  1.
          1    1    1    2  502    0 -0.21643422844E+02  0.87406439647E+01  0.10765148045E+03  0.11015297478E+03  0.00000000000E+00 0.  1.
         -1    1    1    2    0  501  0.21643422844E+02 -0.87406439647E+01  0.80183691860E+03  0.80217658944E+03  0.00000000000E+00 0. -1.
</event>
<event>
 4    1  0.6934088E+001  0.3895135E+02  0.7546771E-02  0.1354743E+00
          2   -1    0    0  502    0  0.00000000000E+00  0.00000000000E+00  0.10460297860E+03  0.10460297860E+03  0.00000000000E+00 0. -1.
         -2   -1    0    0    0  501 -0.00000000000E+00 -0.00000000000E+00 -0.20502958526E+02  0.20502958526E+02  0.00000000000E+00 0.  1.
          1    1    1    2  502    0  0.20421858129E+02 -0.33168594112E+02  0.75884649829E+02  0.85297643604E+02  0.00000000000E+00 0. -1.
         -1    1    1    2    0  501 -0.20421858129E+02  0.33168594112E+02  0.82153702435E+01  0.39808293521E+02  0.00000000000E+00 0.  1.
</event>
<event>
 4    1  0.6934088E+001  0.4233020E+02  0.7546771E-02  0.1335347E+00
          2   -1    0    0  502    0  0.00000000000E+00  0.00000000000E+00  0.59639584501E+02  0.59639584501E+02  0.00000000000E+00 0. -1.
         -2   -1    0    0    0  501 -0.00000000000E+00 -0.00000000000E+00 -0.30047710079E+02  0.30047710079E+02  0.00000000000E+00 0.  1.
          1    1    1    2  502    0 -0.37418699735E+02 -0.19791082253E+02  0.15253924239E+02  0.44994757820E+02  0.00000000000E+00 0. -1.
         -1    1    1    2    0  501  0.37418699735E+02  0.19791082253E+02  0.14337950183E+02  0.44692536760E+02  0.00000000000E+00 0.  1.
</event>
<event>
 4    1  0.6934088E+001  0.3676049E+02  0.7546771E-02  0.1368592E+00
          2   -1    0    0  502    0  0.00000000000E+00  0.00000000000E+00  0.16052423498E+03  0.16052423498E+03  0.00000000000E+00 0.  1.
         -2   -1    0    0    0  501 -0.00000000000E+00 -0.00000000000E+00 -0.14008868026E+02  0.14008868026E+02  0.00000000000E+00 0. -1.
          1    1    1    2  502    0  0.32142093887E+00  0.36759088661E+02  0.18129203710E+02  0.40987826702E+02  0.00000000000E+00 0. -1.
         -1    1    1    2    0  501 -0.32142093887E+00 -0.36759088661E+02  0.12838616324E+03  0.13354527630E+03  0.00000000000E+00 0.  1.
</event>
<event>
 4    1  0.6934088E+001  0.2653002E+02  0.7546771E-02  0.1452387E+00
          2   -1    0    0  502    0  0.00000000000E+00  0.00000000000E+00  0.15252928005E+04  0.15252928005E+04  0.00000000000E+00 0. -1.
         -2   -1    0    0    0  501 -0.00000000000E+00 -0.00000000000E+00 -0.46243445822E+00  0.46243445822E+00  0.00000000000E+00 0.  1.
          1    1    1    2  502    0 -0.23538343460E+02  0.12238812786E+02  0.79766335609E+03  0.79810442412E+03  0.00000000000E+00 0.  1.
         -1    1    1    2    0  501  0.23538343460E+02 -0.12238812786E+02  0.72716701000E+03  0.72765081089E+03  0.00000000000E+00 0. -1.
</event>
<event>
 4    1  0.6934088E+001  0.2026521E+02  0.7546771E-02  0.1530019E+00
          2   -1    0    0  502    0  0.00000000000E+00  0.00000000000E+00  0.20980513664E+01  0.20980513664E+01  0.00000000000E+00 0.  1.
         -2   -1    0    0    0  501 -0.00000000000E+00 -0.00000000000E+00 -0.19695357862E+03  0.19695357862E+03  0.00000000000E+00 0. -1.
          1    1    1    2  502    0  0.19311754571E+02 -0.61428576196E+01 -0.10523102789E+03  0.10716458275E+03  0.00000000000E+00 0. -1.
         -1    1    1    2    0  501 -0.19311754571E+02  0.61428576196E+01 -0.89624499358E+02  0.91887047235E+02  0.00000000000E+00 0.  1.
</event>
<event>
 4    1  0.6934088E+001  0.2980236E+02  0.7546771E-02  0.1421322E+00
          2   -1    0    0  502    0  0.00000000000E+00  0.00000000000E+00  0.88478866193E+01  0.88478866193E+01  0.00000000000E+00 0.  1.
         -2   -1    0    0    0  501 -0.00000000000E+00 -0.00000000000E+00 -0.11527599051E+03  0.11527599051E+03  0.00000000000E+00 0. -1.
          1    1    1    2  502    0  0.11770551093E+02  0.27379456194E+02 -0.30907021157E+02  0.42935119091E+02  0.00000000000E+00 0.  1.
         -1    1    1    2    0  501 -0.11770551093E+02 -0.27379456194E+02 -0.75521082732E+02  0.81188758037E+02  0.00000000000E+00 0. -1.
</event>
<event>
 4    1  0.6934088E+001  0.6107513E+02  0.7546771E-02  0.1256223E+00
          2   -1    0    0  502    0  0.00000000000E+00  0.00000000000E+00  0.32132570990E+04  0.32132570990E+04  0.00000000000E+00 0.  1.
         -2   -1    0    0    0  501 -0.00000000000E+00 -0.00000000000E+00 -0.25241236454E+01  0.25241236454E+01  0.00000000000E+00 0. -1.
          1    1    1    2  502    0  0.66495894783E+01 -0.60712058966E+02  0.27870186408E+04  0.27876877651E+04  0.00000000000E+00 0.  1.
         -1    1    1    2    0  501 -0.66495894783E+01  0.60712058966E+02  0.42371433456E+03  0.42809345762E+03  0.00000000000E+00 0. -1.
</event>
<event>
 4    1  0.6934088E+001  0.2216701E+02  0.7546771E-02  0.1503231E+00
          2   -1    0    0  502    0  0.00000000000E+00  0.00000000000E+00  0.14027976162E+03  0.14027976162E+03  0.00000000000E+00 0.  1.
         -2   -1    0    0    0  501 -0.00000000000E+00 -0.00000000000E+00 -0.52155083015E+01  0.52155083015E+01  0.00000000000E+00 0. -1.
          1    1    1    2  502    0 -0.21874128806E+02  0.35915214569E+01  0.25844409586E+02  0.34048642326E+02  0.00000000000E+00 0. -1.
         -1    1    1    2    0  501  0.21874128806E+02 -0.35915214569E+01  0.10921984373E+03  0.11144662760E+03  0.00000000000E+00 0.  1.
</event>
<event>
 4    1  0.6934088E+001  0.1319733E+03  0.7546771E-02  0.1117675E+00
          2   -1    0    0  502    0  0.00000000000E+00  0.00000000000E+00  0.10613280395E+04  0.10613280395E+04  0.00000000000E+00 0. -1.
         -2   -1    0    0    0  501 -0.00000000000E+00 -0.00000000000E+00 -0.18190138486E+02  0.18190138486E+02  0.00000000000E+00 0.  1.
          1    1    1    2  502    0  0.13123415400E+03  0.13948370725E+02  0.69039663648E+03  0.70289720150E+03  0.00000000000E+00 0. -1.
         -1    1    1    2    0  501 -0.13123415400E+03 -0.13948370725E+02  0.35274126455E+03  0.37662097650E+03  0.00000000000E+00 0.  1.
</event>
<event>
 4    1  0.6934088E+001  0.2356053E+02  0.7546771E-02  0.1485577E+00
          2   -1    0    0  502    0  0.00000000000E+00  0.00000000000E+00  0.19204484275E+03  0.19204484275E+03  0.00000000000E+00 0.  1.
         -2   -1    0    0    0  501 -0.00000000000E+00 -0.00000000000E+00 -0.42678880156E+01  0.42678880156E+01  0.00000000000E+00 0. -1.
          1    1    1    2  502    0  0.14911801662E+02 -0.18241075483E+02  0.14965143747E+03  0.15149472400E+03  0.00000000000E+00 0.  1.
         -1    1    1    2    0  501 -0.14911801662E+02  0.18241075483E+02  0.38125517264E+02  0.44818006764E+02  0.00000000000E+00 0. -1.
</event>
<event>
 4    1  0.6934088E+001  0.5130529E+02  0.7546771E-02  0.1292610E+00
          2   -1    0    0  502    0  0.00000000000E+00  0.00000000000E+00  0.27553896562E+04  0.27553896562E+04  0.00000000000E+00 0. -1.
         -2   -1    0    0    0  501 -0.00000000000E+00 -0.00000000000E+00 -0.96657200208E+00  0.96657200208E+00  0.00000000000E+00 0.  1.
          1    1    1    2  502    0  0.34597876064E+02 -0.37884289666E+02  0.15260201273E+04  0.15268823338E+04  0.00000000000E+00 0.  1.
         -1    1    1    2    0  501 -0.34597876064E+02  0.37884289666E+02  0.12284029570E+04  0.12294738944E+04  0.00000000000E+00 0. -1.
</event>
<event>
 4    1  0.6934088E+001  0.2099881E+02  0.7546771E-02  0.1519282E+00
          2   -1    0    0  502    0  0.00000000000E+00  0.00000000000E+00  0.10023753652E+04  0.10023753652E+04  0.00000000000E+00 0.  1.
         -2   -1    0    0    0  501 -0.00000000000E+00 -0.00000000000E+00 -0.63497590461E+00  0.63497590461E+00  0.00000000000E+00 0. -1.
          1    1    1    2  502    0 -0.20958556182E+02  0.12996023907E+01  0.22290339897E+03  0.22389031984E+03  0.00000000000E+00 0. -1.
         -1    1    1    2    0  501  0.20958556182E+02 -0.12996023907E+01  0.77883699037E+03  0.77912002131E+03  0.00000000000E+00 0.  1.
</event>
<event>
 4    1  0.6934088E+001  0.4083597E+02  0.7546771E-02  0.1343656E+00
          2   -1    0    0  502    0  0.00000000000E+00  0.00000000000E+00  0.35160179225E+03  0.35160179225E+03  0.00000000000E+00 0. -1.
         -2   -1    0    0    0  501 -0.00000000000E+00 -0.00000000000E+00 -0.97960119294E+01  0.97960119294E+01  0.00000000000E+00 0.  1.
          1    1    1    2  502    0  0.37557134079E+02  0.16032398918E+02  0.30068496734E+03  0.30344525984E+03  0.00000000000E+00 0. -1.
         -1    1    1    2    0  501 -0.37557134079E+02 -0.16032398918E+02  0.41120812983E+02  0.57952544342E+02  0.00000000000E+00 0.  1.
</event>
<event>
 4    1  0.6934088E+001  0.2898017E+02  0.7546771E-02  0.1428671E+00
          2   -1    0    0  502    0  0.00000000000E+00  0.00000000000E+00  0.15858229237E+01  0.15858229237E+01  0.00000000000E+00 0. -1.
         -2   -1    0    0    0  501 -0.00000000000E+00 -0.00000000000E+00 -0.63145734791E+03  0.63145734791E+03  0.00000000000E+00 0.  1.
          1    1    1    2  502    0 -0.26849233441E+02  0.10907284561E+02 -0.18781113547E+03  0.19003387276E+03  0.00000000000E+00 0. -1.
         -1    1    1    2    0  501  0.26849233441E+02 -0.10907284561E+02 -0.44206038952E+03  0.44300929807E+03  0.00000000000E+00 0.  1.
</event>
<event>
 4    1  0.6934088E+001  0.2075540E+02  0.7546771E-02  0.1522786E+00
          2   -1    0    0  502    0  0.00000000000E+00  0.00000000000E+00  0.22758929359E+03  0.22758929359E+03  0.00000000000E+00 0.  1.
         -2   -1    0    0    0  501 -0.00000000000E+00 -0.00000000000E+00 -0.25303432792E+01  0.25303432792E+01  0.00000000000E+00 0. -1.
          1    1    1    2  502    0 -0.75986148534E+01  0.19314441701E+02  0.17028325739E+03  0.17154350572E+03  0.00000000000E+00 0.  1.
         -1    1    1    2    0  501  0.75986148534E+01 -0.19314441701E+02  0.54775692919E+02  0.58576131151E+02  0.00000000000E+00 0. -1.
</event>
<event>
 4    1  0.6934088E+001  0.2307533E+02  0.7546771E-02  0.1491554E+00
          2   -1    0    0  502    0  0.00000000000E+00  0.00000000000E+00  0.86118077694E+03  0.86118077694E+03  0.00000000000E+00 0. -1.
         -2   -1    0    0    0  501 -0.00000000000E+00 -0.00000000000E+00 -0.66484559494E+00  0.66484559494E+00  0.00000000000E+00 0.  1.
          1    1    1    2  502    0 -0.18555230942E+02 -0.13717669169E+02  0.54427304626E+03  0.54476198466E+03  0.00000000000E+00 0.  1.
         -1    1    1    2    0  501  0.18555230942E+02  0.13717669169E+02  0.31624288509E+03  0.31708363788E+03  0.00000000000E+00 0. -1.
</event>
<event>
 4    1  0.6934088E+001  0.3892769E+02  0.7546771E-02  0.1354887E+00
          2   -1    0    0  502    0  0.00000000000E+00  0.00000000000E+00  0.13785863052E+02  0.13785863052E+02  0.00000000000E+00 0. -1.
         -2   -1    0    0    0  501 -0.00000000000E+00 -0.00000000000E+00 -0.11427169289E+03  0.11427169289E+03  0.00000000000E+00 0.  1.
          1    1    1    2  502    0  0.34727945135E+02  0.17587910998E+02 -0.37750317388E+02  0.54225927834E+02  0.00000000000E+00 0. -1.
         -1    1    1    2    0  501 -0.34727945135E+02 -0.17587910998E+02 -0.62735512447E+02  0.73831628104E+02  0.00000000000E+00 0.  1.
</event>
<event>
 4    1  0.6934088E+001  0.2115633E+02  0.7546771E-02  0.1517045E+00
          2   -1    0    0  502    0  0.00000000000E+00  0.00000000000E+00  0.14891898438E+03  0.14891898438E+03  0.00000000000E+00 0.  1.
         -2   -1    0    0    0  501 -0.00000000000E+00 -0.00000000000E+00 -0.92960536932E+01  0.92960536932E+01  0.00000000000E+00 0. -1.
          1    1    1    2  502    0 -0.79075885415E+01 -0.19622951954E+02  0.47371511797E+01  0.21680193754E+02  0.00000000000E+00 0. -1.
         -1    1    1    2    0  501  0.79075885415E+01  0.19622951954E+02  0.13488577950E+03  0.13653484432E+03  0.00000000000E+00 0.  1.
</event>
<event>
 4    1  0.6934088E+001  0.2612706E+02  0.7546771E-02  0.1456580E+00
          2   -1    0    0  502    0  0.00000000000E+00  0.00000000000E+00  0.33986537724E+02  0.33986537724E+02  0.00000000000E+00 0. -1.
         -2   -1    0    0    0  501 -0.00000000000E+00 -0.00000000000E+00 -0.31601313699E+02  0.31601313699E+02  0.00000000000E+00 0.  1.
          1    1    1    2  502    0  0.55904477692E+01 -0.25521949881E+02  0.20989443427E+02  0.33513874252E+02  0.00000000000E+00 0. -1.
         -1    1    1    2    0  501 -0.55904477692E+01  0.25521949881E+02 -0.18604219402E+02  0.32073977171E+02  0.00000000000E+00 0.  1.
</event>
<event>
 4    1  0.6934088E+001  0.3132517E+02  0.7546771E-02  0.1408420E+00
          2   -1    0    0  502    0  0.00000000000E+00  0.00000000000E+00  0.13849310793E+02  0.13849310793E+02  0.00000000000E+00 0. -1.
         -2   -1    0    0    0  501 -0.00000000000E+00 -0.00000000000E+00 -0.15810320341E+03  0.15810320341E+03  0.00000000000E+00 0.  1.
          1    1    1    2  502    0 -0.10040981533E+02  0.29672290341E+02 -0.13599611462E+03  0.13955719013E+03  0.00000000000E+00 0.  1.
         -1    1    1    2    0  501  0.10040981533E+02 -0.29672290341E+02 -0.82577779898E+01  0.32395324069E+02  0.00000000000E+00 0. -1.
</event>
<event>
 4    1  0.6934088E+001  0.6890025E+02  0.7546771E-02  0.1232263E+00
          2   -1    0    0  502    0  0.00000000000E+00  0.00000000000E+00  0.86568417824E+03  0.86568417824E+03  0.00000000000E+00 0. -1.
         -2   -1    0    0    0  501 -0.00000000000E+00 -0.00000000000E+00 -0.58549399839E+01  0.58549399839E+01  0.00000000000E+00 0.  1.
          1    1    1    2  502    0 -0.38580367576E+02 -0.57085897495E+02  0.32020093952E+03  0.32752997745E+03  0.00000000000E+00 0. -1.
         -1    1    1    2    0  501  0.38580367576E+02  0.57085897495E+02  0.53962829873E+03  0.54400914078E+03  0.00000000000E+00 0.  1.
</event>
<event>
 4    1  0.6934088E+001  0.2362775E+02  0.7546771E-02  0.1484762E+00
          2   -1    0    0  502    0  0.00000000000E+00  0.00000000000E+00  0.60021138798E+00  0.60021138798E+00  0.00000000000E+00 0.  1.
         -2   -1    0    0    0  501 -0.00000000000E+00 -0.00000000000E+00 -0.95970417761E+03  0.95970417761E+03  0.00000000000E+00 0. -1.
          1    1    1    2  502    0 -0.19672041608E+02 -0.13087443448E+02 -0.39525380334E+03  0.39595939116E+03  0.00000000000E+00 0.  1.
         -1    1    1    2    0  501  0.19672041608E+02  0.13087443448E+02 -0.56385016289E+03  0.56434499784E+03  0.00000000000E+00 0. -1.
</event>
<event>
 4    1  0.6934088E+001  0.2215273E+02  0.7546771E-02  0.1503421E+00
          2   -1    0    0  502    0  0.00000000000E+00  0.00000000000E+00  0.44395019949E+03  0.44395019949E+03  0.00000000000E+00 0.  1.
         -2   -1    0    0    0  501 -0.00000000000E+00 -0.00000000000E+00 -0.15270811660E+01  0.15270811660E+01  0.00000000000E+00 0. -1.
          1    1    1    2  502    0  0.10571808155E+02  0.19467414155E+02  0.33825731980E+03  0.33898194309E+03  0.00000000000E+00 0.  1.
         -1    1    1    2    0  501 -0.10571808155E+02 -0.19467414155E+02  0.10416579853E+03  0.10649533757E+03  0.00000000000E+00 0. -1.
</event>
<event>
 4    1  0.6934088E+001  0.2753419E+02  0.7546771E-02  0.1442315E+00
          2   -1    0    0  502    0  0.00000000000E+00  0.00000000000E+00  0.11560643574E+04  0.11560643574E+04  0.00000000000E+00 0. -1.
         -2   -1    0    0    0  501 -0.00000000000E+00 -0.00000000000E+00 -0.66153113133E+00  0.66153113133E+00  0.00000000000E+00 0.  1.
          1    1    1    2  502    0  0.27410947128E+02  0.26022181628E+01  0.63159673436E+03  0.63219662006E+03  0.00000000000E+00 0. -1.
         -1    1    1    2    0  501 -0.27410947128E+02 -0.26022181628E+01  0.52380609192E+03  0.52452926848E+03  0.00000000000E+00 0.  1.
</event>
<event>
 4    1  0.6934088E+001  0.3997427E+02  0.7546771E-02  0.1348637E+00
          2   -1    0    0  502    0  0.00000000000E+00  0.00000000000E+00  0.87640043930E+03  0.87640043930E+03  0.00000000000E+00 0. -1.
         -2   -1    0    0    0  501 -0.00000000000E+00 -0.00000000000E+00 -0.18589066058E+01  0.18589066058E+01  0.00000000000E+00 0.  1.
          1    1    1    2  502    0  0.39043050808E+02  0.85780106212E+01  0.49804523967E+03  0.49964687815E+03  0.00000000000E+00 0. -1.
         -1    1    1    2    0  501 -0.39043050808E+02 -0.85780106212E+01  0.37649629302E+03  0.37861246775E+03  0.00000000000E+00 0.  1.
</event>
<event>
 4    1  0.6934088E+001  0.2621190E+02  0.7546771E-02  0.1455689E+00
          2   -1    0    0  502    0  0.00000000000E+00  0.00000000000E+00  0.35624439294E+03  0.35624439294E+03  0.00000000000E+00 0. -1.
         -2   -1    0    0    0  501 -0.00000000000E+00 -0.00000000000E+00 -0.19714185723E+01  0.19714185723E+01  0.00000000000E+00 0.  1.
          1    1    1    2  502    0  0.24502966876E+02  0.93095958315E+01  0.15074982631E+03  0.15301167960E+03  0.00000000000E+00 0. -1.
         -1    1    1    2    0  501 -0.24502966876E+02 -0.93095958315E+01  0.20352314805E+03  0.20520413191E+03  0.00000000000E+00 0.  1.
</event>
<event>
 4    1  0.6934088E+001  0.2162084E+02  0.7546771E-02  0.1510583E+00
          2   -1    0    0  502    0  0.00000000000E+00  0.00000000000E+00  0.11756641171E+03  0.11756641171E+03  0.00000000000E+00 0. -1.
         -2   -1    0    0    0  501 -0.00000000000E+00 -0.00000000000E+00 -0.64254288145E+01  0.64254288145E+01  0.00000000000E+00 0.  1.
          1    1    1    2  502    0 -0.19381164895E+01  0.21533796038E+02  0.17294016450E+02  0.27686525103E+02  0.00000000000E+00 0.  1.
         -1    1    1    2    0  501  0.19381164895E+01 -0.21533796038E+02  0.93846966450E+02  0.96305315425E+02  0.00000000000E+00 0. -1.
</event>
<event>
 4    1  0.6934088E+001  0.2126291E+02  0.7546771E-02  0.1515544E+00
          2   -1    0    0  502    0  0.00000000000E+00  0.00000000000E+00  0.11832414344E+03  0.11832414344E+03  0.00000000000E+00 0.  1.
         -2   -1    0    0    0  501 -0.00000000000E+00 -0.00000000000E+00 -0.44398769441E+01  0.44398769441E+01  0.00000000000E+00 0. -1.
          1    1    1    2  502    0 -0.17859268588E+02  0.11539402005E+02  0.34024305789E+02  0.40121872558E+02  0.00000000000E+00 0. -1.
         -1    1    1    2    0  501  0.17859268588E+02 -0.11539402005E+02  0.79859960706E+02  0.82642147824E+02  0.00000000000E+00 0.  1.
</event>
<event>
 4    1  0.6934088E+001  0.4347413E+02  0.7546771E-02  0.1329248E+00
          2   -1    0    0  502    0  0.00000000000E+00  0.00000000000E+00  0.35536943084E+04  0.35536943084E+04  0.00000000000E+00 0.  1.
         -2   -1    0    0    0  501 -0.00000000000E+00 -0.00000000000E+00 -0.65421290997E+00  0.65421290997E+00  0.00000000000E+00 0. -1.
          1    1    1    2  502    0 -0.11738035483E+02  0.41859506424E+02  0.25451399368E+04  0.25455112055E+04  0.00000000000E+00 0.  1.
         -1    1    1    2    0  501  0.11738035483E+02 -0.41859506424E+02  0.10079001587E+04  0.10088373157E+04  0.00000000000E+00 0. -1.
</event>
<event>
 4    1  0.6934088E+001  0.2278754E+02  0.7546771E-02  0.1495183E+00
          2   -1    0    0  502    0  0.00000000000E+00  0.00000000000E+00  0.32936190738E+03  0.32936190738E+03  0.00000000000E+00 0.  1.
         -2   -1    0    0    0  501 -0.00000000000E+00 -0.00000000000E+00 -0.15883219756E+01  0.15883219756E+01  0.00000000000E+00 0. -1.
          1    1    1    2  502    0  0.10131583949E+02 -0.20411345454E+02  0.14967129899E+03  0.15139606916E+03  0.00000000000E+00 0. -1.
         -1    1    1    2    0  501 -0.10131583949E+02  0.20411345454E+02  0.17810228641E+03  0.17955416019E+03  0.00000000000E+00 0.  1.
</event>
<event>
 4    1  0.6934088E+001  0.2342129E+02  0.7546771E-02  0.1487275E+00
          2   -1    0    0  502    0  0.00000000000E+00  0.00000000000E+00  0.17304840088E+03  0.17304840088E+03  0.00000000000E+00 0.  1.
         -2   -1    0    0    0  501 -0.00000000000E+00 -0.00000000000E+00 -0.48783742222E+01  0.48783742222E+01  0.00000000000E+00 0. -1.
          1    1    1    2  502    0  0.45371520655E+00  0.23416889940E+02  0.13673160782E+03  0.13872306647E+03  0.00000000000E+00 0.  1.
         -1    1    1    2    0  501 -0.45371520655E+00 -0.23416889940E+02  0.31438418833E+02  0.39203708634E+02  0.00000000000E+00 0. -1.
</event>
<event>
 4    1  0.6934088E+001  0.2448182E+02  0.7546771E-02  0.1474684E+00
          2   -1    0    0  502    0  0.00000000000E+00  0.00000000000E+00  0.17543686934E+03  0.17543686934E+03  0.00000000000E+00 0.  1.
         -2   -1    0    0    0  501 -0.00000000000E+00 -0.00000000000E+00 -0.34259011301E+01  0.34259011301E+01  0.00000000000E+00 0. -1.
          1    1    1    2  502    0 -0.10597149302E+02  0.22069434804E+02  0.90719379507E+02  0.93964702649E+02  0.00000000000E+00 0.  1.
         -1    1    1    2    0  501  0.10597149302E+02 -0.22069434804E+02  0.81291588707E+02  0.84898067825E+02  0.00000000000E+00 0. -1.
</event>
<event>
 4    1  0.6934088E+001  0.2794040E+02  0.7546771E-02  0.1438384E+00
          2   -1    0    0  502    0  0.00000000000E+00  0.00000000000E+00  0.11694941064E+02  0.11694941064E+02  0.00000000000E+00 0. -1.
         -2   -1    0    0    0  501 -0.00000000000E+00 -0.00000000000E+00 -0.79022262821E+02  0.79022262821E+02  0.00000000000E+00 0.  1.
          1    1    1    2  502    0  0.24772474497E+02 -0.12922477916E+02 -0.15790393216E+02  0.32093651181E+02  0.00000000000E+00 0. -1.
         -1    1    1    2    0  501 -0.24772474497E+02  0.12922477916E+02 -0.51536928542E+02  0.58623552704E+02  0.00000000000E+00 0.  1.
</event>
<event>
 4    1  0.6934088E+001  0.2395546E+02  0.7546771E-02  0.1480837E+00
          2   -1    0    0  502    0  0.00000000000E+00  0.00000000000E+00  0.72977909994E+01  0.72977909994E+01  0.00000000000E+00 0. -1.
         -2   -1    0    0    0  501 -0.00000000000E+00 -0.00000000000E+00 -0.10435850094E+03  0.10435850094E+03  0.00000000000E+00 0.  1.
          1    1    1    2  502    0 -0.17718962690E+02  0.16121495096E+02 -0.76247691545E+02  0.79922304202E+02  0.00000000000E+00 0.  1.
         -1    1    1    2    0  501  0.17718962690E+02 -0.16121495096E+02 -0.20813018392E+02  0.31733987734E+02  0.00000000000E+00 0. -1.
</event>
<event>
 4    1  0.6934088E+001  0.4908268E+02  0.7546771E-02  0.1302199E+00
          2   -1    0    0  502    0  0.00000000000E+00  0.00000000000E+00  0.13942856598E+03  0.13942856598E+03  0.00000000000E+00 0.  1.
         -2   -1    0    0    0  501 -0.00000000000E+00 -0.00000000000E+00 -0.21033830536E+02  0.21033830536E+02  0.00000000000E+00 0. -1.
          1    1    1    2  502    0  0.48630726718E+02  0.66454448180E+01  0.93098254893E+02  0.10524445155E+03  0.00000000000E+00 0.  1.
         -1    1    1    2    0  501 -0.48630726718E+02 -0.66454448180E+01  0.25296480552E+02  0.55217944966E+02  0.00000000000E+00 0. -1.
</event>
<event>
 4    1  0.6934088E+001  0.2302056E+02  0.7546771E-02  0.1492240E+00
          2   -1    0    0  502    0  0.00000000000E+00  0.00000000000E+00  0.71784176657E+02  0.71784176657E+02  0.00000000000E+00 0.  1.
         -2   -1    0    0    0  501 -0.00000000000E+00 -0.00000000000E+00 -0.13178669675E+02  0.13178669675E+02  0.00000000000E+00 0. -1.
          1    1    1    2  502    0 -0.59128840120E+01 -0.22248232267E+02  0.11296847695E+01  0.23048258590E+02  0.00000000000E+00 0. -1.
         -1    1    1    2    0  501  0.59128840120E+01  0.22248232267E+02  0.57475822212E+02  0.61914587743E+02  0.00000000000E+00 0.  1.
</event>
<event>
 4    1  0.6934088E+001  0.2296816E+02  0.7546771E-02  0.1492898E+00
          2   -1    0    0  502    0  0.00000000000E+00  0.00000000000E+00  0.46651274201E+03  0.46651274201E+03  0.00000000000E+00 0.  1.
         -2   -1    0    0    0  501 -0.00000000000E+00 -0.00000000000E+00 -0.13253861825E+01  0.13253861825E+01  0.00000000000E+00 0. -1.
          1    1    1    2  502    0 -0.19994977942E+01  0.22880964085E+02  0.32222113348E+03  0.32303869021E+03  0.00000000000E+00 0.  1.
         -1    1    1    2    0  501  0.19994977942E+01 -0.22880964085E+02  0.14296622235E+03  0.14479943799E+03  0.00000000000E+00 0. -1.
</event>
<event>
 4    1  0.6934088E+001  0.2392872E+02  0.7546771E-02  0.1481154E+00
          2   -1    0    0  502    0  0.00000000000E+00  0.00000000000E+00  0.33935668185E+03  0.33935668185E+03  0.00000000000E+00 0.  1.
         -2   -1    0    0    0  501 -0.00000000000E+00 -0.00000000000E+00 -0.37922460870E+01  0.37922460870E+01  0.00000000000E+00 0. -1.
          1    1    1    2  502    0  0.23909072815E+02  0.96941184534E+00  0.39953381014E+02  0.46570979983E+02  0.00000000000E+00 0. -1.
         -1    1    1    2    0  501 -0.23909072815E+02 -0.96941184534E+00  0.29561105475E+03  0.29657794796E+03  0.00000000000E+00 0.  1.
</event>
<event>
 4    1  0.6934088E+001  0.2247050E+02  0.7546771E-02  0.1499256E+00
          2   -1    0    0  502    0  0.00000000000E+00  0.00000000000E+00  0.10762151782E+01  0.10762151782E+01  0.00000000000E+00 0.  1.
         -2   -1    0    0    0  501 -0.00000000000E+00 -0.00000000000E+00 -0.64219772402E+03  0.64219772402E+03  0.00000000000E+00 0. -1.
          1    1    1    2  502    0 -0.14907428114E+02  0.16813447578E+02 -0.48751390107E+03  0.48803148174E+03  0.00000000000E+00 0. -1.
         -1    1    1    2    0  501  0.14907428114E+02 -0.16813447578E+02 -0.15360760777E+03  0.15524245746E+03  0.00000000000E+00 0.  1.
</event>
<event>
 4    1  0.6934088E+001  0.5269815E+02  0.7546771E-02  0.1286880E+00
          2   -1    0    0  502    0  0.00000000000E+00  0.00000000000E+00  0.52346496958E+03  0.52346496958E+03  0.00000000000E+00 0.  1.
         -2   -1    0    0    0  501 -0.00000000000E+00 -0.00000000000E+00 -0.71068949233E+01  0.71068949233E+01  0.00000000000E+00 0. -1.
          1    1    1    2  502    0 -0.43812809679E+02 -0.29283655441E+02  0.12460779536E+03  0.13529300585E+03  0.00000000000E+00 0. -1.
         -1    1    1    2    0  501  0.43812809679E+02  0.29283655441E+02  0.39175027929E+03  0.39527885865E+03  0.00000000000E+00 0.  1.
</event>
<event>
 4    1  0.6934088E+001  0.2564023E+02  0.7546771E-02  0.1461767E+00
          2   -1    0    0  502    0  0.00000000000E+00  0.00000000000E+00  0.72679009602E+01  0.72679009602E+01  0.00000000000E+00 0.  1.
         -2   -1    0    0    0  501 -0.00000000000E+00 -0.00000000000E+00 -0.93509449900E+02  0.93509449900E+02  0.00000000000E+00 0. -1.
          1    1    1    2  502    0  0.34391885042E+01  0.25408530795E+02 -0.34014563320E+02  0.42595914976E+02  0.00000000000E+00 0.  1.
         -1    1    1    2    0  501 -0.34391885042E+01 -0.25408530795E+02 -0.52226985619E+02  0.58181435885E+02  0.00000000000E+00 0. -1.
</event>
<event>
 4    1  0.6934088E+001  0.2453798E+02  0.7546771E-02  0.1474039E+00
          2   -1    0    0  502    0  0.00000000000E+00  0.00000000000E+00  0.26307611702E+02  0.26307611702E+02  0.00000000000E+00 0. -1.
         -2   -1    0    0    0  501 -0.00000000000E+00 -0.00000000000E+00 -0.23079965431E+02  0.23079965431E+02  0.00000000000E+00 0.  1.
          1    1    1    2  502    0  0.31085087398E+00  0.24536009265E+02 -0.64186332961E+00  0.24546371778E+02  0.00000000000E+00 0.  1.
         -1    1    1    2    0  501 -0.31085087398E+00 -0.24536009265E+02  0.38695096010E+01  0.24841205355E+02  0.00000000000E+00 0. -1.
</event>
<event>
 4    1  0.6934088E+001  0.2728261E+02  0.7546771E-02  0.1444790E+00
          2   -1    0    0  502    0  0.00000000000E+00  0.00000000000E+00  0.94180929448E+02  0.94180929448E+02  0.00000000000E+00 0.  1.
         -2   -1    0    0    0  501 -0.00000000000E+00 -0.00000000000E+00 -0.79037321934E+01  0.79037321934E+01  0.00000000000E+00 0. -1.
          1    1    1    2  502    0 -0.18295173527E+02  0.20239249985E+02  0.43513836347E+02  0.51359464250E+02  0.00000000000E+00 0. -1.
         -1    1    1    2    0  501  0.18295173527E+02 -0.20239249985E+02  0.42763360907E+02  0.50725197392E+02  0.00000000000E+00 0.  1.
</event>
<event>
 4    1  0.6934088E+001  0.3259072E+02  0.7546771E-02  0.1398341E+00
          2   -1    0    0  502    0  0.00000000000E+00  0.00000000000E+00  0.15743401804E+04  0.15743401804E+04  0.00000000000E+00 0. -1.
         -2   -1    0    0    0  501 -0.00000000000E+00 -0.00000000000E+00 -0.13140471568E+01  0.13140471568E+01  0.00000000000E+00 0.  1.
          1    1    1    2  502    0 -0.11775428049E+02  0.30389053722E+02  0.13360603192E+04  0.13364577553E+04  0.00000000000E+00 0. -1.
         -1    1    1    2    0  501  0.11775428049E+02 -0.30389053722E+02  0.23696581414E+03  0.23919647230E+03  0.00000000000E+00 0.  1.
</event>
<event>
 4    1  0.6934088E+001  0.2097649E+02  0.7546771E-02  0.1519601E+00
          2   -1    0    0  502    0  0.00000000000E+00  0.00000000000E+00  0.37324629185E+00  0.37324629185E+00  0.00000000000E+00 0. -1.
         -2   -1    0    0    0  501 -0.00000000000E+00 -0.00000000000E+00 -0.12650931161E+04  0.12650931161E+04  0.00000000000E+00 0.  1.
          1    1    1    2  502    0 -0.95024628277E+01  0.18700699754E+02 -0.46718526272E+03  0.46765594477E+03  0.00000000000E+00 0. -1.
         -1    1    1    2    0  501  0.95024628277E+01 -0.18700699754E+02 -0.79753460713E+03  0.79781041767E+03  0.00000000000E+00 0.  1.
</event>
<event>
 4    1  0.6934088E+001  0.2565196E+02  0.7546771E-02  0.1461640E+00
          2   -1    0    0  502    0  0.00000000000E+00  0.00000000000E+00  0.48313789533E+03  0.48313789533E+03  0.00000000000E+00 0. -1.
         -2   -1    0    0    0  501 -0.00000000000E+00 -0.00000000000E+00 -0.17529638485E+01  0.17529638485E+01  0.00000000000E+00 0.  1.
          1    1    1    2  502    0  0.14774987294E+02 -0.20969562729E+02  0.35519325247E+03  0.35611833625E+03  0.00000000000E+00 0. -1.
         -1    1    1    2    0  501 -0.14774987294E+02  0.20969562729E+02  0.12619167901E+03  0.12877252294E+03  0.00000000000E+00 0.  1.
</event>
<event>
 4    1  0.6934088E+001  0.2438380E+02  0.7546771E-02  0.1475816E+00
          2   -1    0    0  502    0  0.00000000000E+00  0.00000000000E+00  0.17914293001E+02  0.17914293001E+02  0.00000000000E+00 0.  1.
         -2   -1    0    0    0  501 -0.00000000000E+00 -0.00000000000E+00 -0.40760868599E+02  0.40760868599E+02  0.00000000000E+00 0. -1.
          1    1    1    2  502    0  0.47613771540E+01 -0.23914414382E+02 -0.24067278708E+02  0.34260820656E+02  0.00000000000E+00 0. -1.
         -1    1    1    2    0  501 -0.47613771540E+01  0.23914414382E+02  0.12207031101E+01  0.24414340944E+02  0.00000000000E+00 0.  1.
</event>
<event>
 4    1  0.6934088E+001  0.2644872E+02  0.7546771E-02  0.1453226E+00
          2   -1    0    0  502    0  0.00000000000E+00  0.00000000000E+00  0.17899743671E+04  0.17899743671E+04  0.00000000000E+00 0.  1.
         -2   -1    0    0    0  501 -0.00000000000E+00 -0.00000000000E+00 -0.59570387619E+00  0.59570387619E+00  0.00000000000E+00 0. -1.
          1    1    1    2  502    0 -0.26408914221E+02  0.14504798854E+01  0.36962356466E+03  0.37056863628E+03  0.00000000000E+00 0. -1.
         -1    1    1    2    0  501  0.26408914221E+02 -0.14504798854E+01  0.14197550985E+04  0.14200014347E+04  0.00000000000E+00 0.  1.
</event>
<event>
 4    1  0.6934088E+001  0.2003565E+02  0.7546771E-02  0.1533491E+00
          2   -1    0    0  502    0  0.00000000000E+00  0.00000000000E+00  0.50521230071E+01  0.50521230071E+01  0.00000000000E+00 0. -1.
         -2   -1    0    0    0  501 -0.00000000000E+00 -0.00000000000E+00 -0.10106684410E+03  0.10106684410E+03  0.00000000000E+00 0.  1.
          1    1    1    2  502    0 -0.63217812126E+01  0.19012161837E+02 -0.23472525906E+02  0.30860762917E+02  0.00000000000E+00 0. -1.
         -1    1    1    2    0  501  0.63217812126E+01 -0.19012161837E+02 -0.72542195191E+02  0.75258204194E+02  0.00000000000E+00 0.  1.
</event>
<event>
 4    1  0.6934088E+001  0.2400822E+02  0.7546771E-02  0.1480212E+00
          2   -1    0    0  502    0  0.00000000000E+00  0.00000000000E+00  0.24132634894E+04  0.24132634894E+04  0.00000000000E+00 0. -1.
         -2   -1    0    0    0  501 -0.00000000000E+00 -0.00000000000E+00 -0.25733562479E+00  0.25733562479E+00  0.00000000000E+00 0.  1.
          1    1    1    2  502    0  0.53509081742E+01 -0.23404322172E+02  0.88301839420E+03  0.88334471132E+03  0.00000000000E+00 0. -1.
         -1    1    1    2    0  501 -0.53509081742E+01  0.23404322172E+02  0.15299877596E+04  0.15301761137E+04  0.00000000000E+00 0.  1.
</event>
<event>
 4    1  0.6934088E+001  0.3339962E+02  0.7546771E-02  0.1392177E+00
          2   -1    0    0  502    0  0.00000000000E+00  0.00000000000E+00  0.41008858777E+03  0.41008858777E+03  0.00000000000E+00 0.  1.
         -2   -1    0    0    0  501 -0.00000000000E+00 -0.00000000000E+00 -0.72792859231E+01  0.72792859231E+01  0.00000000000E+00 0. -1.
          1    1    1    2  502    0  0.32748157492E+02 -0.65645173396E+01  0.36253289506E+02  0.49293363722E+02  0.00000000000E+00 0. -1.
         -1    1    1    2    0  501 -0.32748157492E+02  0.65645173396E+01  0.36655601235E+03  0.36807450997E+03  0.00000000000E+00 0.  1.
</event>
<event>
 4    1  0.6934088E+001  0.2075141E+02  0.7546771E-02  0.1522844E+00
          2   -1    0    0  502    0  0.00000000000E+00  0.00000000000E+00  0.23970217038E+03  0.23970217038E+03  0.00000000000E+00 0. -1.
         -2   -1    0    0    0  501 -0.00000000000E+00 -0.00000000000E+00 -0.24036821037E+01  0.24036821037E+01  0.00000000000E+00 0.  1.
          1    1    1    2  502    0 -0.18356794925E+02 -0.96772411192E+01  0.17949107525E+03  0.18068665421E+03  0.00000000000E+00 0. -1.
         -1    1    1    2    0  501  0.18356794925E+02  0.96772411192E+01  0.57807413021E+02  0.61419198267E+02  0.00000000000E+00 0.  1.
</event>
<event>
 4    1  0.6934088E+001  0.2319991E+02  0.7546771E-02  0.1490003E+00
          2   -1    0    0  502    0  0.00000000000E+00  0.00000000000E+00  0.10489368215E+04  0.10489368215E+04  0.00000000000E+00 0. -1.
         -2   -1    0    0    0  501 -0.00000000000E+00 -0.00000000000E+00 -0.76471294591E+00  0.76471294591E+00  0.00000000000E+00 0.  1.
          1    1    1    2  502    0  0.92962266678E+01 -0.21255965045E+02  0.22304107618E+03  0.22424441474E+03  0.00000000000E+00 0.  1.
         -1    1    1    2    0  501 -0.92962266678E+01  0.21255965045E+02  0.82513103237E+03  0.82545711970E+03  0.00000000000E+00 0. -1.
</event>
<event>
 4    1  0.6934088E+001  0.2077743E+02  0.7546771E-02  0.1522467E+00
          2   -1    0    0  502    0  0.00000000000E+00  0.00000000000E+00  0.57634806048E+01  0.57634806048E+01  0.00000000000E+00 0. -1.
         -2   -1    0    0    0  501 -0.00000000000E+00 -0.00000000000E+00 -0.88253785199E+02  0.88253785199E+02  0.00000000000E+00 0.  1.
          1    1    1    2  502    0  0.20658573124E+02  0.22191835636E+01 -0.59528931134E+02  0.63050734025E+02  0.00000000000E+00 0.  1.
         -1    1    1    2    0  501 -0.20658573124E+02 -0.22191835636E+01 -0.22961373460E+02  0.30966531778E+02  0.00000000000E+00 0. -1.
</event>
<event>
 4    1  0.6934088E+001  0.2376321E+02  0.7546771E-02  0.1483131E+00
          2   -1    0    0  502    0  0.00000000000E+00  0.00000000000E+00  0.70445404784E+02  0.70445404784E+02  0.00000000000E+00 0.  1.
         -2   -1    0    0    0  501 -0.00000000000E+00 -0.00000000000E+00 -0.10281918203E+02  0.10281918203E+02  0.00000000000E+00 0. -1.
          1    1    1    2  502    0 -0.22668324301E+02  0.71300193169E+01  0.49030292092E+02  0.54485407631E+02  0.00000000000E+00 0.  1.
         -1    1    1    2    0  501  0.22668324301E+02 -0.71300193169E+01  0.11133194489E+02  0.26241915357E+02  0.00000000000E+00 0. -1.
</event>
<event>
 4    1  0.6934088E+001  0.2262618E+02  0.7546771E-02  0.1497246E+00
          2   -1    0    0  502    0  0.00000000000E+00  0.00000000000E+00  0.33711884773E+03  0.33711884773E+03  0.00000000000E+00 0.  1.
         -2   -1    0    0    0  501 -0.00000000000E+00 -0.00000000000E+00 -0.16051551642E+01  0.16051551642E+01  0.00000000000E+00 0. -1.
          1    1    1    2  502    0 -0.16176438195E+02 -0.15819827355E+02  0.20708813068E+03  0.20832051737E+03  0.00000000000E+00 0.  1.
         -1    1    1    2    0  501  0.16176438195E+02  0.15819827355E+02  0.12842556188E+03  0.13040348552E+03  0.00000000000E+00 0. -1.
</event>
<event>
 4    1  0.6934088E+001  0.2608613E+02  0.7546771E-02  0.1457010E+00
          2   -1    0    0  502    0  0.00000000000E+00  0.00000000000E+00  0.12438113090E+04  0.12438113090E+04  0.00000000000E+00 0. -1.
         -2   -1    0    0    0  501 -0.00000000000E+00 -0.00000000000E+00 -0.74466276295E+00  0.74466276295E+00  0.00000000000E+00 0.  1.
          1    1    1    2  502    0  0.18062600457E+02 -0.18820966331E+02  0.94205668553E+03  0.94241778689E+03  0.00000000000E+00 0. -1.
         -1    1    1    2    0  501 -0.18062600457E+02  0.18820966331E+02  0.30100996067E+03  0.30213818483E+03  0.00000000000E+00 0.  1.
</event>
<event>
 4    1  0.6934088E+001  0.2459427E+02  0.7546771E-02  0.1473394E+00
          2   -1    0    0  502    0  0.00000000000E+00  0.00000000000E+00  0.34952471458E+01  0.34952471458E+01  0.00000000000E+00 0.  1.
         -2   -1    0    0    0  501 -0.00000000000E+00 -0.00000000000E+00 -0.17306207824E+03  0.17306207824E+03  0.00000000000E+00 0. -1.
          1    1    1    2  502    0  0.15423122183E+02 -0.19157387238E+02 -0.85245192839E+02  0.88722156679E+02  0.00000000000E+00 0.  1.
         -1    1    1    2    0  501 -0.15423122183E+02  0.19157387238E+02 -0.84321638255E+02  0.87835168707E+02  0.00000000000E+00 0. -1.
</event>
<event>
 4    1  0.6934088E+001  0.2311533E+02  0.7546771E-02  0.1491055E+00
          2   -1    0    0  502    0  0.00000000000E+00  0.00000000000E+00  0.32377720361E+03  0.32377720361E+03  0.00000000000E+00 0.  1.
         -2   -1    0    0    0  501 -0.00000000000E+00 -0.00000000000E+00 -0.79605775436E+01  0.79605775436E+01  0.00000000000E+00 0. -1.
          1    1    1    2  502    0 -0.35838739979E+01  0.22835815089E+02  0.30558707470E+03  0.30646007705E+03  0.00000000000E+00 0.  1.
         -1    1    1    2    0  501  0.35838739979E+01 -0.22835815089E+02  0.10229551372E+02  0.25277704106E+02  0.00000000000E+00 0. -1.
</event>
<event>
 4    1  0.6934088E+001  0.2547653E+02  0.7546771E-02  0.1463542E+00
          2   -1    0    0  502    0  0.00000000000E+00  0.00000000000E+00  0.14655469627E+04  0.14655469627E+04  0.00000000000E+00 0. -1.
         -2   -1    0    0    0  501 -0.00000000000E+00 -0.00000000000E+00 -0.48009819430E+00  0.48009819430E+00  0.00000000000E+00 0.  1.
          1    1    1    2  502    0  0.18235704994E+02  0.17790800773E+02  0.52842728138E+03  0.52904106196E+03  0.00000000000E+00 0.  1.
         -1    1    1    2    0  501 -0.18235704994E+02 -0.17790800773E+02  0.93663958316E+03  0.93698599897E+03  0.00000000000E+00 0. -1.
</event>
<event>
 4    1  0.6934088E+001  0.2186496E+02  0.7546771E-02  0.1507265E+00
          2   -1    0    0  502    0  0.00000000000E+00  0.00000000000E+00  0.32731628677E+02  0.32731628677E+02  0.00000000000E+00 0.  1.
         -2   -1    0    0    0  501 -0.00000000000E+00 -0.00000000000E+00 -0.14854642668E+02  0.14854642668E+02  0.00000000000E+00 0. -1.
          1    1    1    2  502    0 -0.14318087546E+02 -0.16524800533E+02  0.12017059595E+02  0.24949677051E+02  0.00000000000E+00 0. -1.
         -1    1    1    2    0  501  0.14318087546E+02  0.16524800533E+02  0.58599264146E+01  0.22636594294E+02  0.00000000000E+00 0.  1.
</event>
<event>
 4    1  0.6934088E+001  0.2226157E+02  0.7546771E-02  0.1501985E+00
          2   -1    0    0  502    0  0.00000000000E+00  0.00000000000E+00  0.11791648512E+04  0.11791648512E+04  0.00000000000E+00 0.  1.
         -2   -1    0    0    0  501 -0.00000000000E+00 -0.00000000000E+00 -0.44860651715E+00  0.44860651715E+00  0.00000000000E+00 0. -1.
          1    1    1    2  502    0 -0.15119322266E+02 -0.16339631764E+02  0.73757104840E+03  0.73790692428E+03  0.00000000000E+00 0.  1.
         -1    1    1    2    0  501  0.15119322266E+02  0.16339631764E+02  0.44114519632E+03  0.44170653347E+03  0.00000000000E+00 0. -1.
</event>
<event>
 4    1  0.6934088E+001  0.4385725E+02  0.7546771E-02  0.1327253E+00
          2   -1    0    0  502    0  0.00000000000E+00  0.00000000000E+00  0.15072459130E+03  0.15072459130E+03  0.00000000000E+00 0.  1.
         -2   -1    0    0    0  501 -0.00000000000E+00 -0.00000000000E+00 -0.16352513273E+02  0.16352513273E+02  0.00000000000E+00 0. -1.
          1    1    1    2  502    0  0.41627368150E+02 -0.13806555930E+02  0.10633393743E+03  0.11502332379E+03  0.00000000000E+00 0.  1.
         -1    1    1    2    0  501 -0.41627368150E+02  0.13806555930E+02  0.28038140591E+02  0.52053780780E+02  0.00000000000E+00 0. -1.
</event>
<event>
 4    1  0.6934088E+001  0.2707222E+02  0.7546771E-02  0.1446884E+00
          2   -1    0    0  502    0  0.00000000000E+00  0.00000000000E+00  0.18438775767E+02  0.18438775767E+02  0.00000000000E+00 0.  1.
         -2   -1    0    0    0  501 -0.00000000000E+00 -0.00000000000E+00 -0.43553442537E+02  0.43553442537E+02  0.00000000000E+00 0. -1.
          1    1    1    2  502    0  0.24099837879E+02 -0.12333001602E+02 -0.21719464328E+02  0.34707927697E+02  0.00000000000E+00 0. -1.
         -1    1    1    2    0  501 -0.24099837879E+02  0.12333001602E+02 -0.33952024413E+01  0.27284290607E+02  0.00000000000E+00 0.  1.
</event>
<event>
 4    1  0.6934088E+001  0.2385224E+02  0.7546771E-02  0.1482065E+00
          2   -1    0    0  502    0  0.00000000000E+00  0.00000000000E+00  0.16500967132E+04  0.16500967132E+04  0.00000000000E+00 0. -1.
         -2   -1    0    0    0  501 -0.00000000000E+00 -0.00000000000E+00 -0.50590550650E+00  0.50590550650E+00  0.00000000000E+00 0.  1.
          1    1    1    2  502    0 -0.99922722244E+01  0.21658338816E+02  0.12905453265E+04  0.12907657297E+04  0.00000000000E+00 0. -1.
         -1    1    1    2    0  501  0.99922722244E+01 -0.21658338816E+02  0.35904548111E+03  0.35983688895E+03  0.00000000000E+00 0.  1.
</event>
<event>
 4    1  0.6934088E+001  0.2849168E+02  0.7546771E-02  0.1433173E+00
          2   -1    0    0  502    0  0.00000000000E+00  0.00000000000E+00  0.14493636266E+04  0.14493636266E+04  0.00000000000E+00 0.  1.
         -2   -1    0    0    0  501 -0.00000000000E+00 -0.00000000000E+00 -0.66789855083E+00  0.66789855083E+00  0.00000000000E+00 0. -1.
          1    1    1    2  502    0 -0.20597295968E+02 -0.19685714877E+02  0.43306417589E+03  0.43400041061E+03  0.00000000000E+00 0. -1.
         -1    1    1    2    0  501  0.20597295968E+02  0.19685714877E+02  0.10156315522E+04  0.10160311146E+04  0.00000000000E+00 0.  1.
</event>
<event>
 4    1  0.6934088E+001  0.2549726E+02  0.7546771E-02  0.1463317E+00
          2   -1    0    0  502    0  0.00000000000E+00  0.00000000000E+00  0.63724880808E+01  0.63724880808E+01  0.00000000000E+00 0.  1.
         -2   -1    0    0    0  501 -0.00000000000E+00 -0.00000000000E+00 -0.10383794530E+03  0.10383794530E+03  0.00000000000E+00 0. -1.
          1    1    1    2  502    0  0.42948545400E+01 -0.25132934846E+02 -0.56027505228E+02  0.61556409346E+02  0.00000000000E+00 0. -1.
         -1    1    1    2    0  501 -0.42948545400E+01  0.25132934846E+02 -0.41437951990E+02  0.48654024033E+02  0.00000000000E+00 0.  1.
</event>
<event>
 4    1  0.6934088E+001  0.3179717E+02  0.7546771E-02  0.1404596E+00
          2   -1    0    0  502    0  0.00000000000E+00  0.00000000000E+00  0.31729477833E+03  0.31729477833E+03  0.00000000000E+00 0.  1.
         -2   -1    0    0    0  501 -0.00000000000E+00 -0.00000000000E+00 -0.39817805974E+01  0.39817805974E+01  0.00000000000E+00 0. -1.
          1    1    1    2  502    0 -0.17620373281E+02 -0.26468520489E+02  0.84865449939E+02  0.90626732948E+02  0.00000000000E+00 0. -1.
         -1    1    1    2    0  501  0.17620373281E+02  0.26468520489E+02  0.22844754780E+03  0.23064982598E+03  0.00000000000E+00 0.  1.
</event>
<event>
 4    1  0.6934088E+001  0.2396294E+02  0.7546771E-02  0.1480748E+00
          2   -1    0    0  502    0  0.00000000000E+00  0.00000000000E+00  0.29121230082E+02  0.29121230082E+02  0.00000000000E+00 0.  1.
         -2   -1    0    0    0  501 -0.00000000000E+00 -0.00000000000E+00 -0.19818829412E+02  0.19818829412E+02  0.00000000000E+00 0. -1.
          1    1    1    2  502    0 -0.66582357608E+01 -0.23019344611E+02  0.29087731959E+01  0.24138833677E+02  0.00000000000E+00 0. -1.
         -1    1    1    2    0  501  0.66582357608E+01  0.23019344611E+02  0.63936274738E+01  0.24801225817E+02  0.00000000000E+00 0.  1.
</event>
<event>
 4    1  0.6934088E+001  0.4844033E+02  0.7546771E-02  0.1305080E+00
          2   -1    0    0  502    0  0.00000000000E+00  0.00000000000E+00  0.71117284826E+03  0.71117284826E+03  0.00000000000E+00 0. -1.
         -2   -1    0    0    0  501 -0.00000000000E+00 -0.00000000000E+00 -0.33040234260E+01  0.33040234260E+01  0.00000000000E+00 0.  1.
          1    1    1    2  502    0 -0.47811406192E+02  0.77804467570E+01  0.36725263519E+03  0.37043348116E+03  0.00000000000E+00 0.  1.
         -1    1    1    2    0  501  0.47811406192E+02 -0.77804467570E+01  0.34061618965E+03  0.34404339053E+03  0.00000000000E+00 0. -1.
</event>
<event>
 4    1  0.6934088E+001  0.3491833E+02  0.7546771E-02  0.1381138E+00
          2   -1    0    0  502    0  0.00000000000E+00  0.00000000000E+00  0.37241138934E+02  0.37241138934E+02  0.00000000000E+00 0. -1.
         -2   -1    0    0    0  501 -0.00000000000E+00 -0.00000000000E+00 -0.49697623731E+02  0.49697623731E+02  0.00000000000E+00 0.  1.
          1    1    1    2  502    0 -0.30396956054E+02 -0.17184720932E+02 -0.31620019452E+02  0.47107485615E+02  0.00000000000E+00 0.  1.
         -1    1    1    2    0  501  0.30396956054E+02  0.17184720932E+02  0.19163534655E+02  0.39831277049E+02  0.00000000000E+00 0. -1.
</event>
<event>
 4    1  0.6934088E+001  0.2116832E+02  0.7546771E-02  0.1516875E+00
          2   -1    0    0  502    0  0.00000000000E+00  0.00000000000E+00  0.13223508688E+03  0.13223508688E+03  0.00000000000E+00 0. -1.
         -2   -1    0    0    0  501 -0.00000000000E+00 -0.00000000000E+00 -0.34578949848E+01  0.34578949848E+01  0.00000000000E+00 0.  1.
          1    1    1    2  502    0  0.57735579875E+00 -0.21160441459E+02  0.73989999764E+02  0.76958545253E+02  0.00000000000E+00 0.  1.
         -1    1    1    2    0  501 -0.57735579875E+00  0.21160441459E+02  0.54787192136E+02  0.58734436616E+02  0.00000000000E+00 0. -1.
</event>
<event>
 4    1  0.6934088E+001  0.2596242E+02  0.7546771E-02  0.1458319E+00
          2   -1    0    0  502    0  0.00000000000E+00  0.00000000000E+00  0.14982920545E+04  0.14982920545E+04  0.00000000000E+00 0.  1.
         -2   -1    0    0    0  501 -0.00000000000E+00 -0.00000000000E+00 -0.32467267257E+01  0.32467267257E+01  0.00000000000E+00 0. -1.
          1    1    1    2  502    0 -0.25725262650E+02 -0.35011317327E+01  0.14443388976E+04  0.14445722198E+04  0.00000000000E+00 0.  1.
         -1    1    1    2    0  501  0.25725262650E+02  0.35011317327E+01  0.50706430236E+02  0.56966561500E+02  0.00000000000E+00 0. -1.
</event>
<event>
 4    1  0.6934088E+001  0.2155266E+02  0.7546771E-02  0.1511519E+00
          2   -1    0    0  502    0  0.00000000000E+00  0.00000000000E+00  0.22015037038E+02  0.22015037038E+02  0.00000000000E+00 0.  1.
         -2   -1    0    0    0  501 -0.00000000000E+00 -0.00000000000E+00 -0.27953226278E+02  0.27953226278E+02  0.00000000000E+00 0. -1.
          1    1    1    2  502    0  0.21046460167E+02 -0.46436791113E+01  0.94016511958E+01  0.23514001923E+02  0.00000000000E+00 0.  1.
         -1    1    1    2    0  501 -0.21046460167E+02  0.46436791113E+01 -0.15339840435E+02  0.26454261392E+02  0.00000000000E+00 0. -1.
</event>
<event>
 4    1  0.6934088E+001  0.2315049E+02  0.7546771E-02  0.1490617E+00
          2   -1    0    0  502    0  0.00000000000E+00  0.00000000000E+00  0.33401407285E+02  0.33401407285E+02  0.00000000000E+00 0. -1.
         -2   -1    0    0    0  501 -0.00000000000E+00 -0.00000000000E+00 -0.24684652844E+02  0.24684652844E+02  0.00000000000E+00 0.  1.
          1    1    1    2  502    0  0.12286242230E+02 -0.19621249641E+02  0.21539906052E+02  0.31621396843E+02  0.00000000000E+00 0. -1.
         -1    1    1    2    0  501 -0.12286242230E+02  0.19621249641E+02 -0.12823151610E+02  0.26464663285E+02  0.00000000000E+00 0.  1.
</event>
<event>
 4    1  0.6934088E+001  0.1120538E+03  0.7546771E-02  0.1144416E+00
          2   -1    0    0  502    0  0.00000000000E+00  0.00000000000E+00  0.13457107477E+04  0.13457107477E+04  0.00000000000E+00 0.  1.
         -2   -1    0    0    0  501 -0.00000000000E+00 -0.00000000000E+00 -0.10001876298E+02  0.10001876298E+02  0.00000000000E+00 0. -1.
          1    1    1    2  502    0  0.53616420817E+02 -0.98393725508E+02  0.84348736415E+03  0.85089774901E+03  0.00000000000E+00 0.  1.
         -1    1    1    2    0  501 -0.53616420817E+02  0.98393725508E+02  0.49222150722E+03  0.50481487495E+03  0.00000000000E+00 0. -1.
</event>
<event>
 4    1  0.6934088E+001  0.2442119E+02  0.7546771E-02  0.1475384E+00
          2   -1    0    0  502    0  0.00000000000E+00  0.00000000000E+00  0.56143634003E+02  0.56143634003E+02  0.00000000000E+00 0.  1.
         -2   -1    0    0    0  501 -0.00000000000E+00 -0.00000000000E+00 -0.10910245256E+02  0.10910245256E+02  0.00000000000E+00 0. -1.
          1    1    1    2  502    0  0.23236195866E+02 -0.75149152301E+01  0.28059963098E+02  0.37198874691E+02  0.00000000000E+00 0.  1.
         -1    1    1    2    0  501 -0.23236195866E+02  0.75149152301E+01  0.17173425648E+02  0.29855004567E+02  0.00000000000E+00 0. -1.
</event>
<event>
 4    1  0.6934088E+001  0.3593325E+02  0.7546771E-02  0.1374118E+00
          2   -1    0    0  502    0  0.00000000000E+00  0.00000000000E+00  0.11752711442E+02  0.11752711442E+02  0.00000000000E+00 0. -1.
         -2   -1    0    0    0  501 -0.00000000000E+00 -0.00000000000E+00 -0.11016066494E+03  0.11016066494E+03  0.00000000000E+00 0.  1.
          1    1    1    2  502    0  0.20237405010E+02 -0.29692526172E+02 -0.46040118340E+02  0.58402835280E+02  0.00000000000E+00 0.  1.
         -1    1    1    2    0  501 -0.20237405010E+02  0.29692526172E+02 -0.52367835161E+02  0.63510541104E+02  0.00000000000E+00 0. -1.
</event>
<event>
 4    1  0.6934088E+001  0.2058236E+02  0.7546771E-02  0.1525312E+00
          2   -1    0    0  502    0  0.00000000000E+00  0.00000000000E+00  0.14334179644E+04  0.14334179644E+04  0.00000000000E+00 0. -1.
         -2   -1    0    0    0  501 -0.00000000000E+00 -0.00000000000E+00 -0.29713923597E+00  0.29713923597E+00  0.00000000000E+00 0.  1.
          1    1    1    2  502    0  0.20420911686E+02 -0.25728904933E+01  0.66398178603E+03  0.66430071924E+03  0.00000000000E+00 0.  1.
         -1    1    1    2    0  501 -0.20420911686E+02  0.25728904933E+01  0.76913903911E+03  0.76941438438E+03  0.00000000000E+00 0. -1.
</event>
<event>
 4    1  0.6934088E+001  0.5640736E+02  0.7546771E-02  0.1272553E+00
          2   -1    0    0  502    0  0.00000000000E+00  0.00000000000E+00  0.40841813559E+02  0.40841813559E+02  0.00000000000E+00 0.  1.
         -2   -1    0    0    0  501 -0.00000000000E+00 -0.00000000000E+00 -0.86649518936E+02  0.86649518936E+02  0.00000000000E+00 0. -1.
          1    1    1    2  502    0 -0.37175216689E+02  0.42423975248E+02 -0.26536152183E+01  0.56469744868E+02  0.00000000000E+00 0. -1.
         -1    1    1    2    0  501  0.37175216689E+02 -0.42423975248E+02 -0.43154090159E+02  0.71021587628E+02  0.00000000000E+00 0.  1.
</event>
<event>
 4    1  0.6934088E+001  0.2069335E+02  0.7546771E-02  0.1523688E+00
          2   -1    0    0  502    0  0.00000000000E+00  0.00000000000E+00  0.55442661670E+03  0.55442661670E+03  0.00000000000E+00 0. -1.
         -2   -1    0    0    0  501 -0.00000000000E+00 -0.00000000000E+00 -0.34418982806E+01  0.34418982806E+01  0.00000000000E+00 0.  1.
          1    1    1    2  502    0 -0.11631781685E+02  0.17114799698E+02  0.52114489034E+03  0.52155556889E+03  0.00000000000E+00 0. -1.
         -1    1    1    2    0  501  0.11631781685E+02 -0.17114799698E+02  0.29839828079E+02  0.36312946089E+02  0.00000000000E+00 0.  1.
</event>
<event>
 4    1  0.6934088E+001  0.2785513E+02  0.7546771E-02  0.1439202E+00
          2   -1    0    0  502    0  0.00000000000E+00  0.00000000000E+00  0.83489981285E+03  0.83489981285E+03  0.00000000000E+00 0.  1.
         -2   -1    0    0    0  501 -0.00000000000E+00 -0.00000000000E+00 -0.93041495632E+00  0.93041495632E+00  0.00000000000E+00 0. -1.
          1    1    1    2  502    0  0.27626673790E+02  0.35602191049E+01  0.43117024438E+03  0.43206907770E+03  0.00000000000E+00 0.  1.
         -1    1    1    2    0  501 -0.27626673790E+02 -0.35602191049E+01  0.40279915351E+03  0.40376115011E+03  0.00000000000E+00 0. -1.
</event>
<event>
 4    1  0.6934088E+001  0.2695630E+02  0.7546771E-02  0.1448048E+00
          2   -1    0    0  502    0  0.00000000000E+00  0.00000000000E+00  0.47884638481E+03  0.47884638481E+03  0.00000000000E+00 0. -1.
         -2   -1    0    0    0  501 -0.00000000000E+00 -0.00000000000E+00 -0.15177728716E+01  0.15177728716E+01  0.00000000000E+00 0.  1.
          1    1    1    2  502    0  0.23851132131E+02  0.12560485160E+02  0.23535754734E+03  0.23689621647E+03  0.00000000000E+00 0.  1.
         -1    1    1    2    0  501 -0.23851132131E+02 -0.12560485160E+02  0.24197106460E+03  0.24346794121E+03  0.00000000000E+00 0. -1.
</event>
<event>
 4    1  0.6934088E+001  0.2360134E+02  0.7546771E-02  0.1485082E+00
          2   -1    0    0  502    0  0.00000000000E+00  0.00000000000E+00  0.21052275312E+04  0.21052275312E+04  0.00000000000E+00 0. -1.
         -2   -1    0    0    0  501 -0.00000000000E+00 -0.00000000000E+00 -0.41083130000E+00  0.41083130000E+00  0.00000000000E+00 0.  1.
          1    1    1    2  502    0 -0.12596825367E+02  0.19958538928E+02  0.16805480564E+04  0.16807137749E+04  0.00000000000E+00 0. -1.
         -1    1    1    2    0  501  0.12596825367E+02 -0.19958538928E+02  0.42426864347E+03  0.42492458756E+03  0.00000000000E+00 0.  1.
</event>
<event>
 4    1  0.6934088E+001  0.3052802E+02  0.7546771E-02  0.1415062E+00
          2   -1    0    0  502    0  0.00000000000E+00  0.00000000000E+00  0.76518474459E+03  0.76518474459E+03  0.00000000000E+00 0.  1.
         -2   -1    0    0    0  501 -0.00000000000E+00 -0.00000000000E+00 -0.14363778115E+01  0.14363778115E+01  0.00000000000E+00 0. -1.
          1    1    1    2  502    0 -0.29482961543E+02  0.79192773001E+01  0.23239998527E+03  0.23439648702E+03  0.00000000000E+00 0. -1.
         -1    1    1    2    0  501  0.29482961543E+02 -0.79192773001E+01  0.53134838151E+03  0.53222463538E+03  0.00000000000E+00 0.  1.
</event>
<event>
 4    1  0.6934088E+001  0.2057494E+02  0.7546771E-02  0.1525421E+00
          2   -1    0    0  502    0  0.00000000000E+00  0.00000000000E+00  0.10553243123E+04  0.10553243123E+04  0.00000000000E+00 0. -1.
         -2   -1    0    0    0  501 -0.00000000000E+00 -0.00000000000E+00 -0.40481908761E+00  0.40481908761E+00  0.00000000000E+00 0.  1.
          1    1    1    2  502    0 -0.16723200276E+02 -0.11985944758E+02  0.47710813702E+03  0.47755157073E+03  0.00000000000E+00 0. -1.
         -1    1    1    2    0  501  0.16723200276E+02  0.11985944758E+02  0.57781135622E+03  0.57817756068E+03  0.00000000000E+00 0.  1.
</event>
<event>
 4    1  0.6934088E+001  0.2898428E+02  0.7546771E-02  0.1428633E+00
          2   -1    0    0  502    0  0.00000000000E+00  0.00000000000E+00  0.11060786996E+03  0.11060786996E+03  0.00000000000E+00 0. -1.
         -2   -1    0    0    0  501 -0.00000000000E+00 -0.00000000000E+00 -0.11004475960E+02  0.11004475960E+02  0.00000000000E+00 0.  1.
          1    1    1    2  502    0  0.59270105104E+00 -0.28978215965E+02  0.83646688584E+02  0.88526023327E+02  0.00000000000E+00 0. -1.
         -1    1    1    2    0  501 -0.59270105104E+00  0.28978215965E+02  0.15956705419E+02  0.33086322596E+02  0.00000000000E+00 0.  1.
</event>
<event>
 4    1  0.6934088E+001  0.3443861E+02  0.7546771E-02  0.1384553E+00
          2   -1    0    0  502    0  0.00000000000E+00  0.00000000000E+00  0.37775632240E+03  0.37775632240E+03  0.00000000000E+00 0. -1.
         -2   -1    0    0    0  501 -0.00000000000E+00 -0.00000000000E+00 -0.36427072617E+01  0.36427072617E+01  0.00000000000E+00 0.  1.
          1    1    1    2  502    0 -0.33402421270E+02 -0.83842868262E+01  0.11618859995E+03  0.12118501876E+03  0.00000000000E+00 0.  1.
         -1    1    1    2    0  501  0.33402421270E+02  0.83842868262E+01  0.25792501518E+03  0.26021401090E+03  0.00000000000E+00 0. -1.
</event>
<event>
 4    1  0.6934088E+001  0.2193737E+02  0.7546771E-02  0.1506291E+00
          2   -1    0    0  502    0  0.00000000000E+00  0.00000000000E+00  0.23599507979E+04  0.23599507979E+04  0.00000000000E+00 0. -1.
         -2   -1    0    0    0  501 -0.00000000000E+00 -0.00000000000E+00 -0.20710002405E+00  0.20710002405E+00  0.00000000000E+00 0.  1.
          1    1    1    2  502    0 -0.14419284122E+02 -0.16532764054E+02  0.13260347548E+04  0.13262162038E+04  0.00000000000E+00 0.  1.
         -1    1    1    2    0  501  0.14419284122E+02  0.16532764054E+02  0.10337089431E+04  0.10339416942E+04  0.00000000000E+00 0. -1.
</event>
<event>
 4    1  0.6934088E+001  0.2717382E+02  0.7546771E-02  0.1445870E+00
          2   -1    0    0  502    0  0.00000000000E+00  0.00000000000E+00  0.18206186394E+03  0.18206186394E+03  0.00000000000E+00 0.  1.
         -2   -1    0    0    0  501 -0.00000000000E+00 -0.00000000000E+00 -0.41704642804E+01  0.41704642804E+01  0.00000000000E+00 0. -1.
          1    1    1    2  502    0 -0.63874145729E+01  0.26412449707E+02  0.73509431607E+02  0.78371251742E+02  0.00000000000E+00 0.  1.
         -1    1    1    2    0  501  0.63874145729E+01 -0.26412449707E+02  0.10438196805E+03  0.10786107647E+03  0.00000000000E+00 0. -1.
</event>
<event>
 4    1  0.6934088E+001  0.2131224E+02  0.7546771E-02  0.1514853E+00
          2   -1    0    0  502    0  0.00000000000E+00  0.00000000000E+00  0.24092597035E+02  0.24092597035E+02  0.00000000000E+00 0. -1.
         -2   -1    0    0    0  501 -0.00000000000E+00 -0.00000000000E+00 -0.26922621459E+02  0.26922621459E+02  0.00000000000E+00 0.  1.
          1    1    1    2  502    0  0.38998228592E+01 -0.20952399650E+02 -0.15380124608E+02  0.26282311588E+02  0.00000000000E+00 0.  1.
         -1    1    1    2    0  501 -0.38998228592E+01  0.20952399650E+02  0.12550100184E+02  0.24732906907E+02  0.00000000000E+00 0. -1.
</event>
<event>
 4    1  0.6934088E+001  0.3858878E+02  0.7546771E-02  0.1356960E+00
          2   -1    0    0  502    0  0.00000000000E+00  0.00000000000E+00  0.49705561629E+03  0.49705561629E+03  0.00000000000E+00 0.  1.
         -2   -1    0    0    0  501 -0.00000000000E+00 -0.00000000000E+00 -0.37819578590E+01  0.37819578590E+01  0.00000000000E+00 0. -1.
          1    1    1    2  502    0 -0.29305578399E+02 -0.25105315665E+02  0.36080770706E+03  0.36286539553E+03  0.00000000000E+00 0.  1.
         -1    1    1    2    0  501  0.29305578399E+02  0.25105315665E+02  0.13246595137E+03  0.13797217861E+03  0.00000000000E+00 0. -1.
</event>
<event>
 4    1  0.6934088E+001  0.3224992E+02  0.7546771E-02  0.1401002E+00
          2   -1    0    0  502    0  0.00000000000E+00  0.00000000000E+00  0.16976654975E+04  0.16976654975E+04  0.00000000000E+00 0. -1.
         -2   -1    0    0    0  501 -0.00000000000E+00 -0.00000000000E+00 -0.72850373938E+00  0.72850373938E+00  0.00000000000E+00 0.  1.
          1    1    1    2  502    0 -0.44785311217E+01 -0.31937436152E+02  0.11871310091E+04  0.11875689832E+04  0.00000000000E+00 0. -1.
         -1    1    1    2    0  501  0.44785311217E+01  0.31937436152E+02  0.50980598466E+03  0.51082501805E+03  0.00000000000E+00 0.  1.
</event>
<event>
 4    1  0.6934088E+001  0.2778698E+02  0.7546771E-02  0.1439859E+00
          2   -1    0    0  502    0  0.00000000000E+00  0.00000000000E+00  0.32684283815E+04  0.32684283815E+04  0.00000000000E+00 0. -1.
         -2   -1    0    0    0  501 -0.00000000000E+00 -0.00000000000E+00 -0.23623720061E+00  0.23623720061E+00  0.00000000000E+00 0.  1.
          1    1    1    2  502    0  0.18694867591E+02  0.20557684188E+02  0.16393296504E+04  0.16395651311E+04  0.00000000000E+00 0. -1.
         -1    1    1    2    0  501 -0.18694867591E+02 -0.20557684188E+02  0.16288624939E+04  0.16290994876E+04  0.00000000000E+00 0.  1.
</event>
<event>
 4    1  0.6934088E+001  0.2910349E+02  0.7546771E-02  0.1427550E+00
          2   -1    0    0  502    0  0.00000000000E+00  0.00000000000E+00  0.11884051083E+03  0.11884051083E+03  0.00000000000E+00 0. -1.
         -2   -1    0    0    0  501 -0.00000000000E+00 -0.00000000000E+00 -0.71706594033E+01  0.71706594033E+01  0.00000000000E+00 0.  1.
          1    1    1    2  502    0 -0.14583029626E+02  0.25186278166E+02  0.50936205373E+02  0.58664387653E+02  0.00000000000E+00 0. -1.
         -1    1    1    2    0  501  0.14583029626E+02 -0.25186278166E+02  0.60733646053E+02  0.67346782580E+02  0.00000000000E+00 0.  1.
</event>
<event>
 4    1  0.6934088E+001  0.2057921E+02  0.7546771E-02  0.1525358E+00
          2   -1    0    0  502    0  0.00000000000E+00  0.00000000000E+00  0.22911963007E+03  0.22911963007E+03  0.00000000000E+00 0.  1.
         -2   -1    0    0    0  501 -0.00000000000E+00 -0.00000000000E+00 -0.18587594567E+01  0.18587594567E+01  0.00000000000E+00 0. -1.
          1    1    1    2  502    0 -0.10573914295E+02 -0.17654916803E+02  0.10500686161E+03  0.10700441456E+03  0.00000000000E+00 0.  1.
         -1    1    1    2    0  501  0.10573914295E+02  0.17654916803E+02  0.12225400900E+03  0.12397397496E+03  0.00000000000E+00 0. -1.
</event>
<event>
 4    1  0.6934088E+001  0.2054454E+02  0.7546771E-02  0.1525868E+00
          2   -1    0    0  502    0  0.00000000000E+00  0.00000000000E+00  0.31101633277E+03  0.31101633277E+03  0.00000000000E+00 0. -1.
         -2   -1    0    0    0  501 -0.00000000000E+00 -0.00000000000E+00 -0.23093103694E+01  0.23093103694E+01  0.00000000000E+00 0.  1.
          1    1    1    2  502    0  0.11243556782E+02  0.17194782694E+02  0.53754707379E+02  0.57546908574E+02  0.00000000000E+00 0.  1.
         -1    1    1    2    0  501 -0.11243556782E+02 -0.17194782694E+02  0.25495231503E+03  0.25577873457E+03  0.00000000000E+00 0. -1.
</event>
<event>
 4    1  0.6934088E+001  0.2085825E+02  0.7546771E-02  0.1521298E+00
          2   -1    0    0  502    0  0.00000000000E+00  0.00000000000E+00  0.34672196075E+03  0.34672196075E+03  0.00000000000E+00 0.  1.
         -2   -1    0    0    0  501 -0.00000000000E+00 -0.00000000000E+00 -0.21776528043E+01  0.21776528043E+01  0.00000000000E+00 0. -1.
          1    1    1    2  502    0 -0.20281105879E+02 -0.48727308793E+01  0.58707714793E+02  0.62302989801E+02  0.00000000000E+00 0. -1.
         -1    1    1    2    0  501  0.20281105879E+02  0.48727308793E+01  0.28583659315E+03  0.28659662375E+03  0.00000000000E+00 0.  1.
</event>
<event>
 4    1  0.6934088E+001  0.2114849E+02  0.7546771E-02  0.1517155E+00
          2   -1    0    0  502    0  0.00000000000E+00  0.00000000000E+00  0.18396097804E+01  0.18396097804E+01  0.00000000000E+00 0. -1.
         -2   -1    0    0    0  501 -0.00000000000E+00 -0.00000000000E+00 -0.26456313393E+03  0.26456313393E+03  0.00000000000E+00 0.  1.
          1    1    1    2  502    0  0.19043996833E+02  0.91969932371E+01 -0.16927745144E+03  0.17059341741E+03  0.00000000000E+00 0.  1.
         -1    1    1    2    0  501 -0.19043996833E+02 -0.91969932371E+01 -0.93446072708E+02  0.95809326292E+02  0.00000000000E+00 0. -1.
</event>
<event>
 4    1  0.6934088E+001  0.3774305E+02  0.7546771E-02  0.1362244E+00
          2   -1    0    0  502    0  0.00000000000E+00  0.00000000000E+00  0.17162207928E+04  0.17162207928E+04  0.00000000000E+00 0.  1.
         -2   -1    0    0    0  501 -0.00000000000E+00 -0.00000000000E+00 -0.93477423381E+00  0.93477423381E+00  0.00000000000E+00 0. -1.
          1    1    1    2  502    0 -0.12300710933E+02  0.35682353394E+02  0.57025843673E+03  0.57150610014E+03  0.00000000000E+00 0. -1.
         -1    1    1    2    0  501  0.12300710933E+02 -0.35682353394E+02  0.11450275818E+04  0.11456494669E+04  0.00000000000E+00 0.  1.
</event>
<event>
 4    1  0.6934088E+001  0.3105968E+02  0.7546771E-02  0.1410606E+00
          2   -1    0    0  502    0  0.00000000000E+00  0.00000000000E+00  0.31173211911E+02  0.31173211911E+02  0.00000000000E+00 0. -1.
         -2   -1    0    0    0  501 -0.00000000000E+00 -0.00000000000E+00 -0.39942757652E+02  0.39942757652E+02  0.00000000000E+00 0.  1.
          1    1    1    2  502    0 -0.31059674987E+02  0.24679461593E-01  0.12490365518E+02  0.33477055577E+02  0.00000000000E+00 0.  1.
         -1    1    1    2    0  501  0.31059674987E+02 -0.24679461593E-01 -0.21259911259E+02  0.37638913987E+02  0.00000000000E+00 0. -1.
</event>
<event>
 4    1  0.6934088E+001  0.2222302E+02  0.7546771E-02  0.1502492E+00
          2   -1    0    0  502    0  0.00000000000E+00  0.00000000000E+00  0.14805638492E+01  0.14805638492E+01  0.00000000000E+00 0. -1.
         -2   -1    0    0    0  501 -0.00000000000E+00 -0.00000000000E+00 -0.33495233019E+03  0.33495233019E+03  0.00000000000E+00 0.  1.
          1    1    1    2  502    0  0.22181938288E+02  0.13506087149E+01 -0.17756646592E+03  0.17895170396E+03  0.00000000000E+00 0.  1.
         -1    1    1    2    0  501 -0.22181938288E+02 -0.13506087149E+01 -0.15590530042E+03  0.15748119008E+03  0.00000000000E+00 0. -1.
</event>
<event>
 4    1  0.6934088E+001  0.3023822E+02  0.7546771E-02  0.1417537E+00
          2   -1    0    0  502    0  0.00000000000E+00  0.00000000000E+00  0.21222701051E+04  0.21222701051E+04  0.00000000000E+00 0. -1.
         -2   -1    0    0    0  501 -0.00000000000E+00 -0.00000000000E+00 -0.50851354706E+00  0.50851354706E+00  0.00000000000E+00 0.  1.
          1    1    1    2  502    0 -0.30163238171E+02  0.21281357015E+01  0.64604921779E+03  0.64675647790E+03  0.00000000000E+00 0.  1.
         -1    1    1    2    0  501  0.30163238171E+02 -0.21281357015E+01  0.14757123738E+04  0.14760221408E+04  0.00000000000E+00 0. -1.
</event>
<event>
 4    1  0.6934088E+001  0.2231586E+02  0.7546771E-02  0.1501272E+00
          2   -1    0    0  502    0  0.00000000000E+00  0.00000000000E+00  0.22851505987E+04  0.22851505987E+04  0.00000000000E+00 0. -1.
         -2   -1    0    0    0  501 -0.00000000000E+00 -0.00000000000E+00 -0.25409380340E+00  0.25409380340E+00  0.00000000000E+00 0.  1.
          1    1    1    2  502    0  0.21861798627E+02 -0.44787804433E+01  0.15735568469E+04  0.15737150785E+04  0.00000000000E+00 0. -1.
         -1    1    1    2    0  501 -0.21861798627E+02  0.44787804433E+01  0.71133965804E+03  0.71168961409E+03  0.00000000000E+00 0.  1.
</event>
<event>
 4    1  0.6934088E+001  0.2376948E+02  0.7546771E-02  0.1483055E+00
          2   -1    0    0  502    0  0.00000000000E+00  0.00000000000E+00  0.36095833462E+01  0.36095833462E+01  0.00000000000E+00 0.  1.
         -2   -1    0    0    0  501 -0.00000000000E+00 -0.00000000000E+00 -0.20997004189E+03  0.20997004189E+03  0.00000000000E+00 0. -1.
          1    1    1    2  502    0  0.22470753779E+02  0.77494030174E+01 -0.49302767032E+02  0.54733452838E+02  0.00000000000E+00 0.  1.
         -1    1    1    2    0  501 -0.22470753779E+02 -0.77494030174E+01 -0.15705769151E+03  0.15884617239E+03  0.00000000000E+00 0. -1.
</event>
<event>
 4    1  0.6934088E+001  0.2510520E+02  0.7546771E-02  0.1467630E+00
          2   -1    0    0  502    0  0.00000000000E+00  0.00000000000E+00  0.88533879232E+02  0.88533879232E+02  0.00000000000E+00 0.  1.
         -2   -1    0    0    0  501 -0.00000000000E+00 -0.00000000000E+00 -0.72255032114E+01  0.72255032114E+01  0.00000000000E+00 0. -1.
          1    1    1    2  502    0 -0.17935536545E+02  0.17566658675E+02  0.34840680927E+02  0.42943497944E+02  0.00000000000E+00 0. -1.
         -1    1    1    2    0  501  0.17935536545E+02 -0.17566658675E+02  0.46467695093E+02  0.52815884499E+02  0.00000000000E+00 0.  1.
</event>
<event>
 4    1  0.6934088E+001  0.2343963E+02  0.7546771E-02  0.1487050E+00
          2   -1    0    0  502    0  0.00000000000E+00  0.00000000000E+00  0.30845920955E+03  0.30845920955E+03  0.00000000000E+00 0. -1.
         -2   -1    0    0    0  501 -0.00000000000E+00 -0.00000000000E+00 -0.24464806035E+01  0.24464806035E+01  0.00000000000E+00 0.  1.
          1    1    1    2  502    0  0.95032397945E+00 -0.23420360858E+02  0.23407297024E+03  0.23524364352E+03  0.00000000000E+00 0. -1.
         -1    1    1    2    0  501 -0.95032397945E+00  0.23420360858E+02  0.71939758706E+02  0.75662046635E+02  0.00000000000E+00 0.  1.
</event>
<event>
 4    1  0.6934088E+001  0.5628899E+02  0.7546771E-02  0.1272991E+00
          2   -1    0    0  502    0  0.00000000000E+00  0.00000000000E+00  0.14555351144E+04  0.14555351144E+04  0.00000000000E+00 0.  1.
         -2   -1    0    0    0  501 -0.00000000000E+00 -0.00000000000E+00 -0.48672475308E+01  0.48672475308E+01  0.00000000000E+00 0. -1.
          1    1    1    2  502    0 -0.50448249496E+02  0.24968480592E+02  0.12682225624E+04  0.12694711177E+04  0.00000000000E+00 0.  1.
         -1    1    1    2    0  501  0.50448249496E+02 -0.24968480592E+02  0.18244530450E+03  0.19093124426E+03  0.00000000000E+00 0. -1.
</event>
<event>
 4    1  0.6934088E+001  0.2060548E+02  0.7546771E-02  0.1524973E+00
          2   -1    0    0  502    0  0.00000000000E+00  0.00000000000E+00  0.62750604491E+03  0.62750604491E+03  0.00000000000E+00 0.  1.
         -2   -1    0    0    0  501 -0.00000000000E+00 -0.00000000000E+00 -0.86260107460E+00  0.86260107460E+00  0.00000000000E+00 0. -1.
          1    1    1    2  502    0 -0.20393880476E+02  0.29454154653E+01  0.45920613052E+03  0.45966820223E+03  0.00000000000E+00 0.  1.
         -1    1    1    2    0  501  0.20393880476E+02 -0.29454154653E+01  0.16743731332E+03  0.16870044376E+03  0.00000000000E+00 0. -1.
</event>
<event>
 4    1  0.6934088E+001  0.2299544E+02  0.7546771E-02  0.1492555E+00
          2   -1    0    0  502    0  0.00000000000E+00  0.00000000000E+00  0.51130906675E+01  0.51130906675E+01  0.00000000000E+00 0. -1.
         -2   -1    0    0    0  501 -0.00000000000E+00 -0.00000000000E+00 -0.11517494504E+03  0.11517494504E+03  0.00000000000E+00 0.  1.
          1    1    1    2  502    0 -0.19323244105E+02  0.12466049329E+02 -0.74246099419E+02  0.77725629155E+02  0.00000000000E+00 0.  1.
         -1    1    1    2    0  501  0.19323244105E+02 -0.12466049329E+02 -0.35815754952E+02  0.42562406551E+02  0.00000000000E+00 0. -1.
</event>
<event>
 4    1  0.6934088E+001  0.2131425E+02  0.7546771E-02  0.1514825E+00
          2   -1    0    0  502    0  0.00000000000E+00  0.00000000000E+00  0.84383521941E+02  0.84383521941E+02  0.00000000000E+00 0.  1.
         -2   -1    0    0    0  501 -0.00000000000E+00 -0.00000000000E+00 -0.53855397368E+01  0.53855397368E+01  0.00000000000E+00 0. -1.
          1    1    1    2  502    0  0.18856341771E+02 -0.99365796104E+01  0.38673888118E+02  0.44158429111E+02  0.00000000000E+00 0. -1.
         -1    1    1    2    0  501 -0.18856341771E+02  0.99365796104E+01  0.40324094086E+02  0.45610632567E+02  0.00000000000E+00 0.  1.
</event>
<event>
 4    1  0.6934088E+001  0.2256042E+02  0.7546771E-02  0.1498093E+00
          2   -1    0    0  502    0  0.00000000000E+00  0.00000000000E+00  0.98555452795E+03  0.98555452795E+03  0.00000000000E+00 0. -1.
         -2   -1    0    0    0  501 -0.00000000000E+00 -0.00000000000E+00 -0.60793586544E+00  0.60793586544E+00  0.00000000000E+00 0.  1.
          1    1    1    2  502    0 -0.20818575286E+02 -0.86924905085E+01  0.68377019593E+03  0.68414227563E+03  0.00000000000E+00 0. -1.
         -1    1    1    2    0  501  0.20818575286E+02  0.86924905085E+01  0.30117639615E+03  0.30202018818E+03  0.00000000000E+00 0.  1.
</event>
<event>
 4    1  0.6934088E+001  0.2103845E+02  0.7546771E-02  0.1518717E+00
          2   -1    0    0  502    0  0.00000000000E+00  0.00000000000E+00  0.17175051293E+03  0.17175051293E+03  0.00000000000E+00 0.  1.
         -2   -1    0    0    0  501 -0.00000000000E+00 -0.00000000000E+00 -0.38381824732E+01  0.38381824732E+01  0.00000000000E+00 0. -1.
          1    1    1    2  502    0 -0.20537979839E+02  0.45615351638E+01  0.13428044006E+03  0.13591855209E+03  0.00000000000E+00 0.  1.
         -1    1    1    2    0  501  0.20537979839E+02 -0.45615351638E+01  0.33631890391E+02  0.39670143309E+02  0.00000000000E+00 0. -1.
</event>
<event>
 4    1  0.6934088E+001  0.5297510E+02  0.7546771E-02  0.1285764E+00
          2   -1    0    0  502    0  0.00000000000E+00  0.00000000000E+00  0.11375739084E+04  0.11375739084E+04  0.00000000000E+00 0. -1.
         -2   -1    0    0    0  501 -0.00000000000E+00 -0.00000000000E+00 -0.45392388547E+01  0.45392388547E+01  0.00000000000E+00 0.  1.
          1    1    1    2  502    0  0.11581426991E+02  0.51693633958E+02  0.95236032766E+03  0.95383256127E+03  0.00000000000E+00 0. -1.
         -1    1    1    2    0  501 -0.11581426991E+02 -0.51693633958E+02  0.18067434194E+03  0.18828058603E+03  0.00000000000E+00 0.  1.
</event>
<event>
 4    1  0.6934088E+001  0.3413527E+02  0.7546771E-02  0.1386747E+00
          2   -1    0    0  502    0  0.00000000000E+00  0.00000000000E+00  0.14855163873E+03  0.14855163873E+03  0.00000000000E+00 0.  1.
         -2   -1    0    0    0  501 -0.00000000000E+00 -0.00000000000E+00 -0.99704507615E+01  0.99704507615E+01  0.00000000000E+00 0. -1.
          1    1    1    2  502    0  0.23654054410E+01  0.34053214302E+02  0.10589602565E+03  0.11126178497E+03  0.00000000000E+00 0.  1.
         -1    1    1    2    0  501 -0.23654054410E+01 -0.34053214302E+02  0.32685162315E+02  0.47260304513E+02  0.00000000000E+00 0. -1.
</event>
<event>
 4    1  0.6934088E+001  0.2822990E+02  0.7546771E-02  0.1435630E+00
          2   -1    0    0  502    0  0.00000000000E+00  0.00000000000E+00  0.16619832432E+03  0.16619832432E+03  0.00000000000E+00 0.  1.
         -2   -1    0    0    0  501 -0.00000000000E+00 -0.00000000000E+00 -0.73684580819E+01  0.73684580819E+01  0.00000000000E+00 0. -1.
          1    1    1    2  502    0 -0.67514051631E+01 -0.27410691370E+02  0.28128375093E+02  0.39851385904E+02  0.00000000000E+00 0. -1.
         -1    1    1    2    0  501  0.67514051631E+01  0.27410691370E+02  0.13070149115E+03  0.13371539650E+03  0.00000000000E+00 0.  1.
</event>
<event>
 4    1  0.6934088E+001  0.2375201E+02  0.7546771E-02  0.1483265E+00
          2   -1    0    0  502    0  0.00000000000E+00  0.00000000000E+00  0.87943145637E+03  0.87943145637E+03  0.00000000000E+00 0.  1.
         -2   -1    0    0    0  501 -0.00000000000E+00 -0.00000000000E+00 -0.69605547436E+00  0.69605547436E+00  0.00000000000E+00 0. -1.
          1    1    1    2  502    0 -0.18714930541E+01  0.23678161962E+02  0.31617038296E+03  0.31706130149E+03  0.00000000000E+00 0. -1.
         -1    1    1    2    0  501  0.18714930541E+01 -0.23678161962E+02  0.56256501793E+03  0.56306621035E+03  0.00000000000E+00 0.  1.
</event>
<event>
 4    1  0.6934088E+001  0.6489544E+02  0.7546771E-02  0.1244049E+00
          2   -1    0    0  502    0  0.00000000000E+00  0.00000000000E+00  0.32537952533E+04  0.32537952533E+04  0.00000000000E+00 0.  1.
         -2   -1    0    0    0  501 -0.00000000000E+00 -0.00000000000E+00 -0.19280610323E+01  0.19280610323E+01  0.00000000000E+00 0. -1.
          1    1    1    2  502    0  0.14048641502E+02  0.63356562497E+02  0.69264364019E+03  0.69567710227E+03  0.00000000000E+00 0. -1.
         -1    1    1    2    0  501 -0.14048641502E+02 -0.63356562497E+02  0.25592235521E+04  0.25600462121E+04  0.00000000000E+00 0.  1.
</event>
<event>
 4    1  0.6934088E+001  0.2583873E+02  0.7546771E-02  0.1459635E+00
          2   -1    0    0  502    0  0.00000000000E+00  0.00000000000E+00  0.15207181154E+03  0.15207181154E+03  0.00000000000E+00 0. -1.
         -2   -1    0    0    0  501 -0.00000000000E+00 -0.00000000000E+00 -0.61308536190E+01  0.61308536190E+01  0.00000000000E+00 0.  1.
          1    1    1    2  502    0 -0.24991416902E+02 -0.65627053680E+01  0.30823375818E+02  0.40220896526E+02  0.00000000000E+00 0.  1.
         -1    1    1    2    0  501  0.24991416902E+02  0.65627053680E+01  0.11511758210E+03  0.11798176863E+03  0.00000000000E+00 0. -1.
</event>
<event>
 4    1  0.6934088E+001  0.2463855E+02  0.7546771E-02  0.1472888E+00
          2   -1    0    0  502    0  0.00000000000E+00  0.00000000000E+00  0.98882320702E+02  0.98882320702E+02  0.00000000000E+00 0. -1.
         -2   -1    0    0    0  501 -0.00000000000E+00 -0.00000000000E+00 -0.73134313030E+01  0.73134313030E+01  0.00000000000E+00 0.  1.
          1    1    1    2  502    0  0.98707631035E+01 -0.22574905430E+02  0.24508275899E+02  0.34752178449E+02  0.00000000000E+00 0.  1.
         -1    1    1    2    0  501 -0.98707631035E+01  0.22574905430E+02  0.67060613500E+02  0.71443573556E+02  0.00000000000E+00 0. -1.
</event>
<event>
 4    1  0.6934088E+001  0.2323650E+02  0.7546771E-02  0.1489550E+00
          2   -1    0    0  502    0  0.00000000000E+00  0.00000000000E+00  0.29694938814E+02  0.29694938814E+02  0.00000000000E+00 0.  1.
         -2   -1    0    0    0  501 -0.00000000000E+00 -0.00000000000E+00 -0.23775774164E+02  0.23775774164E+02  0.00000000000E+00 0. -1.
          1    1    1    2  502    0 -0.21073471573E+02 -0.97899770446E+01  0.15926687455E+02  0.28170804532E+02  0.00000000000E+00 0.  1.
         -1    1    1    2    0  501  0.21073471573E+02  0.97899770446E+01 -0.10007522805E+02  0.25299908446E+02  0.00000000000E+00 0. -1.
</event>
<event>
 4    1  0.6934088E+001  0.3105332E+02  0.7546771E-02  0.1410659E+00
          2   -1    0    0  502    0  0.00000000000E+00  0.00000000000E+00  0.19370883515E+04  0.19370883515E+04  0.00000000000E+00 0. -1.
         -2   -1    0    0    0  501 -0.00000000000E+00 -0.00000000000E+00 -0.49784034152E+00  0.49784034152E+00  0.00000000000E+00 0.  1.
          1    1    1    2  502    0  0.16515467095E+02  0.26297296381E+02  0.97542810595E+03  0.97592228089E+03  0.00000000000E+00 0.  1.
         -1    1    1    2    0  501 -0.16515467095E+02 -0.26297296381E+02  0.96116240525E+03  0.96166391100E+03  0.00000000000E+00 0. -1.
</event>
<event>
 4    1  0.6934088E+001  0.3124520E+02  0.7546771E-02  0.1409076E+00
          2   -1    0    0  502    0  0.00000000000E+00  0.00000000000E+00  0.62410808621E+03  0.62410808621E+03  0.00000000000E+00 0. -1.
         -2   -1    0    0    0  501 -0.00000000000E+00 -0.00000000000E+00 -0.45579074332E+01  0.45579074332E+01  0.00000000000E+00 0.  1.
          1    1    1    2  502    0  0.87089402447E+01  0.30006947908E+02  0.56452151595E+03  0.56538553619E+03  0.00000000000E+00 0. -1.
         -1    1    1    2    0  501 -0.87089402447E+01 -0.30006947908E+02  0.55028662828E+02  0.63280457454E+02  0.00000000000E+00 0.  1.
</event>
<event>
 4    1  0.6934088E+001  0.2690868E+02  0.7546771E-02  0.1448528E+00
          2   -1    0    0  502    0  0.00000000000E+00  0.00000000000E+00  0.19009449689E+02  0.19009449689E+02  0.00000000000E+00 0.  1.
         -2   -1    0    0    0  501 -0.00000000000E+00 -0.00000000000E+00 -0.60097905422E+02  0.60097905422E+02  0.00000000000E+00 0. -1.
          1    1    1    2  502    0  0.13796705126E+02  0.23102557740E+02 -0.44479742149E+02  0.51985812565E+02  0.00000000000E+00 0. -1.
         -1    1    1    2    0  501 -0.13796705126E+02 -0.23102557740E+02  0.33912864153E+01  0.27121542545E+02  0.00000000000E+00 0.  1.
</event>
<event>
 4    1  0.6934088E+001  0.2635186E+02  0.7546771E-02  0.1454230E+00
          2   -1    0    0  502    0  0.00000000000E+00  0.00000000000E+00  0.11799010477E+04  0.11799010477E+04  0.00000000000E+00 0. -1.
         -2   -1    0    0    0  501 -0.00000000000E+00 -0.00000000000E+00 -0.59423776630E+00  0.59423776630E+00  0.00000000000E+00 0.  1.
          1    1    1    2  502    0 -0.24928524133E+02 -0.85433666900E+01  0.53186255869E+03  0.53251497797E+03  0.00000000000E+00 0.  1.
         -1    1    1    2    0  501  0.24928524133E+02  0.85433666900E+01  0.64744425121E+03  0.64798030746E+03  0.00000000000E+00 0. -1.
</event>
<event>
 4    1  0.6934088E+001  0.2158393E+02  0.7546771E-02  0.1511089E+00
          2   -1    0    0  502    0  0.00000000000E+00  0.00000000000E+00  0.41766974214E+02  0.41766974214E+02  0.00000000000E+00 0. -1.
         -2   -1    0    0    0  501 -0.00000000000E+00 -0.00000000000E+00 -0.11572242959E+02  0.11572242959E+02  0.00000000000E+00 0.  1.
          1    1    1    2  502    0 -0.16491377504E+02  0.13924816573E+02  0.10026795818E+02  0.23799216015E+02  0.00000000000E+00 0.  1.
         -1    1    1    2    0  501  0.16491377504E+02 -0.13924816573E+02  0.20167935438E+02  0.29540001158E+02  0.00000000000E+00 0. -1.
</event>
<event>
 4    1  0.6934088E+001  0.2290931E+02  0.7546771E-02  0.1493640E+00
          2   -1    0    0  502    0  0.00000000000E+00  0.00000000000E+00  0.65011963955E+03  0.65011963955E+03  0.00000000000E+00 0.  1.
         -2   -1    0    0    0  501 -0.00000000000E+00 -0.00000000000E+00 -0.85625918218E+00  0.85625918218E+00  0.00000000000E+00 0. -1.
          1    1    1    2  502    0  0.18727270538E+02 -0.13195673519E+02  0.40246837355E+03  0.40311986824E+03  0.00000000000E+00 0.  1.
         -1    1    1    2    0  501 -0.18727270538E+02  0.13195673519E+02  0.24679500682E+03  0.24785603050E+03  0.00000000000E+00 0. -1.
</event>
<event>
 4    1  0.6934088E+001  0.2006515E+02  0.7546771E-02  0.1533042E+00
          2   -1    0    0  502    0  0.00000000000E+00  0.00000000000E+00  0.39998810150E+03  0.39998810150E+03  0.00000000000E+00 0.  1.
         -2   -1    0    0    0  501 -0.00000000000E+00 -0.00000000000E+00 -0.11453053653E+01  0.11453053653E+01  0.00000000000E+00 0. -1.
          1    1    1    2  502    0 -0.12082517881E+02 -0.16019454148E+02  0.26923093595E+03  0.26997760467E+03  0.00000000000E+00 0. -1.
         -1    1    1    2    0  501  0.12082517881E+02  0.16019454148E+02  0.12961186019E+03  0.13115580220E+03  0.00000000000E+00 0.  1.
</event>
<event>
 4    1  0.6934088E+001  0.2024213E+02  0.7546771E-02  0.1530366E+00
          2   -1    0    0  502    0  0.00000000000E+00  0.00000000000E+00  0.43954996396E+03  0.43954996396E+03  0.00000000000E+00 0.  1.
         -2   -1    0    0    0  501 -0.00000000000E+00 -0.00000000000E+00 -0.11990004816E+01  0.11990004816E+01  0.00000000000E+00 0. -1.
          1    1    1    2  502    0  0.17642666887E+02  0.99237089352E+01  0.11521847027E+03  0.11698307392E+03  0.00000000000E+00 0. -1.
         -1    1    1    2    0  501 -0.17642666887E+02 -0.99237089352E+01  0.32313249321E+03  0.32376589052E+03  0.00000000000E+00 0.  1.
</event>
<event>
 4    1  0.6934088E+001  0.2326657E+02  0.7546771E-02  0.1489178E+00
          2   -1    0    0  502    0  0.00000000000E+00  0.00000000000E+00  0.59986669605E+02  0.59986669605E+02  0.00000000000E+00 0. -1.
         -2   -1    0    0    0  501 -0.00000000000E+00 -0.00000000000E+00 -0.16619547870E+02  0.16619547870E+02  0.00000000000E+00 0.  1.
          1    1    1    2  502    0 -0.23008595961E+02 -0.34551043249E+01 -0.42103427118E+01  0.23644454313E+02  0.00000000000E+00 0.  1.
         -1    1    1    2    0  501  0.23008595961E+02  0.34551043249E+01  0.47577464447E+02  0.52961763162E+02  0.00000000000E+00 0. -1.
</event>
<event>
 4    1  0.6934088E+001  0.4054679E+02  0.7546771E-02  0.1345311E+00
          2   -1    0    0  502    0  0.00000000000E+00  0.00000000000E+00  0.69429921174E+03  0.69429921174E+03  0.00000000000E+00 0. -1.
         -2   -1    0    0    0  501 -0.00000000000E+00 -0.00000000000E+00 -0.31463987907E+01  0.31463987907E+01  0.00000000000E+00 0.  1.
          1    1    1    2  502    0 -0.27972020872E+02  0.29353168120E+02  0.17211698763E+03  0.17682844754E+03  0.00000000000E+00 0.  1.
         -1    1    1    2    0  501  0.27972020872E+02 -0.29353168120E+02  0.51903582532E+03  0.52061716299E+03  0.00000000000E+00 0. -1.
</event>
<event>
 4    1  0.6934088E+001  0.2121413E+02  0.7546771E-02  0.1516230E+00
          2   -1    0    0  502    0  0.00000000000E+00  0.00000000000E+00  0.30313255104E+03  0.30313255104E+03  0.00000000000E+00 0.  1.
         -2   -1    0    0    0  501 -0.00000000000E+00 -0.00000000000E+00 -0.23744561670E+01  0.23744561670E+01  0.00000000000E+00 0. -1.
          1    1    1    2  502    0  0.45055905695E+01 -0.20730141759E+02  0.24388992557E+03  0.24481081455E+03  0.00000000000E+00 0.  1.
         -1    1    1    2    0  501 -0.45055905695E+01  0.20730141759E+02  0.56868169299E+02  0.60696192658E+02  0.00000000000E+00 0. -1.
</event>
<event>
 4    1  0.6934088E+001  0.4280615E+02  0.7546771E-02  0.1332783E+00
          2   -1    0    0  502    0  0.00000000000E+00  0.00000000000E+00  0.57772984411E+01  0.57772984411E+01  0.00000000000E+00 0. -1.
         -2   -1    0    0    0  501 -0.00000000000E+00 -0.00000000000E+00 -0.31717602842E+03  0.31717602842E+03  0.00000000000E+00 0.  1.
          1    1    1    2  502    0 -0.18691439407E+02 -0.38509693850E+02 -0.15482158738E+03  0.16063029088E+03  0.00000000000E+00 0. -1.
         -1    1    1    2    0  501  0.18691439407E+02  0.38509693850E+02 -0.15657714260E+03  0.16232303599E+03  0.00000000000E+00 0.  1.
</event>
<event>
 4    1  0.6934088E+001  0.2293357E+02  0.7546771E-02  0.1493334E+00
          2   -1    0    0  502    0  0.00000000000E+00  0.00000000000E+00  0.92930471114E+03  0.92930471114E+03  0.00000000000E+00 0.  1.
         -2   -1    0    0    0  501 -0.00000000000E+00 -0.00000000000E+00 -0.66270928276E+00  0.66270928276E+00  0.00000000000E+00 0. -1.
          1    1    1    2  502    0  0.21814102173E+02  0.70776950331E+01  0.64198573605E+03  0.64239523202E+03  0.00000000000E+00 0. -1.
         -1    1    1    2    0  501 -0.21814102173E+02 -0.70776950331E+01  0.28665626581E+03  0.28757218841E+03  0.00000000000E+00 0.  1.
</event>
<event>
 4    1  0.6934088E+001  0.4701944E+02  0.7546771E-02  0.1311639E+00
          2   -1    0    0  502    0  0.00000000000E+00  0.00000000000E+00  0.19224632492E+04  0.19224632492E+04  0.00000000000E+00 0.  1.
         -2   -1    0    0    0  501 -0.00000000000E+00 -0.00000000000E+00 -0.11963296982E+01  0.11963296982E+01  0.00000000000E+00 0. -1.
          1    1    1    2  502    0 -0.24525047351E+02  0.40116704305E+02  0.11499176232E+04  0.11508785202E+04  0.00000000000E+00 0.  1.
         -1    1    1    2    0  501  0.24525047351E+02 -0.40116704305E+02  0.77134929631E+03  0.77278105879E+03  0.00000000000E+00 0. -1.
</event>
<event>
 4    1  0.6934088E+001  0.3438963E+02  0.7546771E-02  0.1384906E+00
          2   -1    0    0  502    0  0.00000000000E+00  0.00000000000E+00  0.19754078150E+03  0.19754078150E+03  0.00000000000E+00 0. -1.
         -2   -1    0    0    0  501 -0.00000000000E+00 -0.00000000000E+00 -0.64111387459E+01  0.64111387459E+01  0.00000000000E+00 0.  1.
          1    1    1    2  502    0  0.34083489194E+02  0.45784777961E+01  0.69330983249E+02  0.77391420279E+02  0.00000000000E+00 0.  1.
         -1    1    1    2    0  501 -0.34083489194E+02 -0.45784777961E+01  0.12179865950E+03  0.12656049996E+03  0.00000000000E+00 0. -1.
</event>
<event>
 4    1  0.6934088E+001  0.2438763E+02  0.7546771E-02  0.1475772E+00
          2   -1    0    0  502    0  0.00000000000E+00  0.00000000000E+00  0.88371369865E+03  0.88371369865E+03  0.00000000000E+00 0.  1.
         -2   -1    0    0    0  501 -0.00000000000E+00 -0.00000000000E+00 -0.19882481588E+01  0.19882481588E+01  0.00000000000E+00 0. -1.
          1    1    1    2  502    0  0.12695727408E+02 -0.20822461472E+02  0.80679925182E+02  0.84285269909E+02  0.00000000000E+00 0. -1.
         -1    1    1    2    0  501 -0.12695727408E+02  0.20822461472E+02  0.80104552531E+03  0.80141667690E+03  0.00000000000E+00 0.  1.
</event>
<event>
 4    1  0.6934088E+001  0.2033925E+02  0.7546771E-02  0.1528911E+00
          2   -1    0    0  502    0  0.00000000000E+00  0.00000000000E+00  0.14048696830E+04  0.14048696830E+04  0.00000000000E+00 0. -1.
         -2   -1    0    0    0  501 -0.00000000000E+00 -0.00000000000E+00 -0.32826020233E+00  0.32826020233E+00  0.00000000000E+00 0.  1.
          1    1    1    2  502    0 -0.17117166115E+02  0.10985790709E+02  0.47683338890E+03  0.47726697533E+03  0.00000000000E+00 0.  1.
         -1    1    1    2    0  501  0.17117166115E+02 -0.10985790709E+02  0.92770803386E+03  0.92793096783E+03  0.00000000000E+00 0. -1.
</event>
<event>
 4    1  0.6934088E+001  0.2150765E+02  0.7546771E-02  0.1512139E+00
          2   -1    0    0  502    0  0.00000000000E+00  0.00000000000E+00  0.14117075025E+02  0.14117075025E+02  0.00000000000E+00 0.  1.
         -2   -1    0    0    0  501 -0.00000000000E+00 -0.00000000000E+00 -0.46753902240E+02  0.46753902240E+02  0.00000000000E+00 0. -1.
          1    1    1    2  502    0 -0.45668720318E+00  0.21502803493E+02  0.32823074173E+00  0.21510157059E+02  0.00000000000E+00 0. -1.
         -1    1    1    2    0  501  0.45668720318E+00 -0.21502803493E+02 -0.32965057956E+02  0.39360820207E+02  0.00000000000E+00 0.  1.
</event>
<event>
 4    1  0.6934088E+001  0.3073234E+02  0.7546771E-02  0.1413337E+00
          2   -1    0    0  502    0  0.00000000000E+00  0.00000000000E+00  0.18501157123E+04  0.18501157123E+04  0.00000000000E+00 0. -1.
         -2   -1    0    0    0  501 -0.00000000000E+00 -0.00000000000E+00 -0.51987769707E+00  0.51987769707E+00  0.00000000000E+00 0.  1.
          1    1    1    2  502    0 -0.24170367220E+02 -0.18980787764E+02  0.80049610563E+03  0.80108582067E+03  0.00000000000E+00 0.  1.
         -1    1    1    2    0  501  0.24170367220E+02  0.18980787764E+02  0.10490997290E+04  0.10495497694E+04  0.00000000000E+00 0. -1.
</event>
<event>
 4    1  0.6934088E+001  0.5979192E+02  0.7546771E-02  0.1260541E+00
          2   -1    0    0  502    0  0.00000000000E+00  0.00000000000E+00  0.29187678257E+02  0.29187678257E+02  0.00000000000E+00 0. -1.
         -2   -1    0    0    0  501 -0.00000000000E+00 -0.00000000000E+00 -0.19131079919E+03  0.19131079919E+03  0.00000000000E+00 0.  1.
          1    1    1    2  502    0  0.50930066463E+02 -0.31324150452E+02 -0.14718861604E+03  0.15886964079E+03  0.00000000000E+00 0.  1.
         -1    1    1    2    0  501 -0.50930066463E+02  0.31324150452E+02 -0.14934504888E+02  0.61628836657E+02  0.00000000000E+00 0. -1.
</event>
<event>
 4    1  0.6934088E+001  0.2087005E+02  0.7546771E-02  0.1521128E+00
          2   -1    0    0  502    0  0.00000000000E+00  0.00000000000E+00  0.35984852675E+03  0.35984852675E+03  0.00000000000E+00 0. -1.
         -2   -1    0    0    0  501 -0.00000000000E+00 -0.00000000000E+00 -0.12272360526E+01  0.12272360526E+01  0.00000000000E+00 0.  1.
          1    1    1    2  502    0 -0.20646698974E+02 -0.30451307652E+01  0.20045935154E+03  0.20154282577E+03  0.00000000000E+00 0.  1.
         -1    1    1    2    0  501  0.20646698974E+02  0.30451307652E+01  0.15816193915E+03  0.15953293703E+03  0.00000000000E+00 0. -1.
</event>
<event>
 4    1  0.6934088E+001  0.2198693E+02  0.7546771E-02  0.1505627E+00
          2   -1    0    0  502    0  0.00000000000E+00  0.00000000000E+00  0.11166873157E+04  0.11166873157E+04  0.00000000000E+00 0.  1.
         -2   -1    0    0    0  501 -0.00000000000E+00 -0.00000000000E+00 -0.46335996752E+00  0.46335996752E+00  0.00000000000E+00 0. -1.
          1    1    1    2  502    0 -0.18031145837E+02 -0.12581850715E+02  0.70130287057E+03  0.70164744812E+03  0.00000000000E+00 0.  1.
         -1    1    1    2    0  501  0.18031145837E+02  0.12581850715E+02  0.41492108518E+03  0.41550322756E+03  0.00000000000E+00 0. -1.
</event>
<event>
 4    1  0.6934088E+001  0.4079383E+02  0.7546771E-02  0.1343896E+00
          2   -1    0    0  502    0  0.00000000000E+00  0.00000000000E+00  0.15383144714E+04  0.15383144714E+04  0.00000000000E+00 0. -1.
         -2   -1    0    0    0  501 -0.00000000000E+00 -0.00000000000E+00 -0.13218022251E+01  0.13218022251E+01  0.00000000000E+00 0.  1.
          1    1    1    2  502    0 -0.21660119502E+02  0.34568420141E+02  0.44046171654E+03  0.44234676463E+03  0.00000000000E+00 0.  1.
         -1    1    1    2    0  501  0.21660119502E+02 -0.34568420141E+02  0.10965309527E+04  0.10972895090E+04  0.00000000000E+00 0. -1.
</event>
<event>
 4    1  0.6934088E+001  0.2181796E+02  0.7546771E-02  0.1507900E+00
          2   -1    0    0  502    0  0.00000000000E+00  0.00000000000E+00  0.60603900680E+02  0.60603900680E+02  0.00000000000E+00 0. -1.
         -2   -1    0    0    0  501 -0.00000000000E+00 -0.00000000000E+00 -0.96177901527E+01  0.96177901527E+01  0.00000000000E+00 0.  1.
          1    1    1    2  502    0 -0.20783804077E+02 -0.66375224347E+01  0.10460062246E+02  0.24195787199E+02  0.00000000000E+00 0.  1.
         -1    1    1    2    0  501  0.20783804077E+02  0.66375224347E+01  0.40526048281E+02  0.46025903633E+02  0.00000000000E+00 0. -1.
</event>
<event>
 4    1  0.6934088E+001  0.2271837E+02  0.7546771E-02  0.1496065E+00
          2   -1    0    0  502    0  0.00000000000E+00  0.00000000000E+00  0.13043108517E+03  0.13043108517E+03  0.00000000000E+00 0.  1.
         -2   -1    0    0    0  501 -0.00000000000E+00 -0.00000000000E+00 -0.50337330201E+01  0.50337330201E+01  0.00000000000E+00 0. -1.
          1    1    1    2  502    0  0.13443358634E+02 -0.18313935191E+02  0.94023785831E+02  0.96729501267E+02  0.00000000000E+00 0.  1.
         -1    1    1    2    0  501 -0.13443358634E+02  0.18313935191E+02  0.31373566322E+02  0.38735316925E+02  0.00000000000E+00 0. -1.
</event>
<event>
 4    1  0.6934088E+001  0.2056056E+02  0.7546771E-02  0.1525632E+00
          2   -1    0    0  502    0  0.00000000000E+00  0.00000000000E+00  0.34234665252E+03  0.34234665252E+03  0.00000000000E+00 0.  1.
         -2   -1    0    0    0  501 -0.00000000000E+00 -0.00000000000E+00 -0.22272252283E+01  0.22272252283E+01  0.00000000000E+00 0. -1.
          1    1    1    2  502    0 -0.13318846460E+02  0.15663486129E+02  0.55055216427E+02  0.58769152832E+02  0.00000000000E+00 0. -1.
         -1    1    1    2    0  501  0.13318846460E+02 -0.15663486129E+02  0.28506421086E+03  0.28580472492E+03  0.00000000000E+00 0.  1.
</event>
<event>
 4    1  0.6934088E+001  0.2634017E+02  0.7546771E-02  0.1454351E+00
          2   -1    0    0  502    0  0.00000000000E+00  0.00000000000E+00  0.10711532154E+04  0.10711532154E+04  0.00000000000E+00 0. -1.
         -2   -1    0    0    0  501 -0.00000000000E+00 -0.00000000000E+00 -0.88872662187E+01  0.88872662187E+01  0.00000000000E+00 0.  1.
          1    1    1    2  502    0  0.25332211986E+02  0.72169041059E+01  0.11163729840E+02  0.28608277350E+02  0.00000000000E+00 0.  1.
         -1    1    1    2    0  501 -0.25332211986E+02 -0.72169041059E+01  0.10511022193E+04  0.10514322042E+04  0.00000000000E+00 0. -1.
</event>
<event>
 4    1  0.6934088E+001  0.2806585E+02  0.7546771E-02  0.1437185E+00
          2   -1    0    0  502    0  0.00000000000E+00  0.00000000000E+00  0.67247989459E+03  0.67247989459E+03  0.00000000000E+00 0. -1.
         -2   -1    0    0    0  501 -0.00000000000E+00 -0.00000000000E+00 -0.13787256851E+01  0.13787256851E+01  0.00000000000E+00 0.  1.
          1    1    1    2  502    0 -0.25128220328E+02 -0.12500587797E+02  0.20487167126E+03  0.20678513930E+03  0.00000000000E+00 0.  1.
         -1    1    1    2    0  501  0.25128220328E+02  0.12500587797E+02  0.46622949765E+03  0.46707348098E+03  0.00000000000E+00 0. -1.
</event>
<event>
 4    1  0.6934088E+001  0.2239301E+02  0.7546771E-02  0.1500264E+00
          2   -1    0    0  502    0  0.00000000000E+00  0.00000000000E+00  0.52176081230E+02  0.52176081230E+02  0.00000000000E+00 0. -1.
         -2   -1    0    0    0  501 -0.00000000000E+00 -0.00000000000E+00 -0.12508837625E+02  0.12508837625E+02  0.00000000000E+00 0.  1.
          1    1    1    2  502    0  0.19810766407E+02 -0.10439360778E+02  0.35401408047E+02  0.41889215925E+02  0.00000000000E+00 0. -1.
         -1    1    1    2    0  501 -0.19810766407E+02  0.10439360778E+02  0.42658355576E+01  0.22795702930E+02  0.00000000000E+00 0.  1.
</event>
<event>
 4    1  0.6934088E+001  0.2027236E+02  0.7546771E-02  0.1529912E+00
          2   -1    0    0  502    0  0.00000000000E+00  0.00000000000E+00  0.74016560844E+01  0.74016560844E+01  0.00000000000E+00 0. -1.
         -2   -1    0    0    0  501 -0.00000000000E+00 -0.00000000000E+00 -0.75712852679E+02  0.75712852679E+02  0.00000000000E+00 0.  1.
          1    1    1    2  502    0  0.59449490273E+01  0.19381076904E+02 -0.55615083641E+02  0.59194645782E+02  0.00000000000E+00 0.  1.
         -1    1    1    2    0  501 -0.59449490273E+01 -0.19381076904E+02 -0.12696112954E+02  0.23919862981E+02  0.00000000000E+00 0. -1.
</event>
<event>
 4    1  0.6934088E+001  0.3647617E+02  0.7546771E-02  0.1370472E+00
          2   -1    0    0  502    0  0.00000000000E+00  0.00000000000E+00  0.18150003958E+02  0.18150003958E+02  0.00000000000E+00 0. -1.
         -2   -1    0    0    0  501 -0.00000000000E+00 -0.00000000000E+00 -0.83125143576E+02  0.83125143576E+02  0.00000000000E+00 0.  1.
          1    1    1    2  502    0 -0.10094068084E+02  0.35051691930E+02 -0.49890997982E+02  0.61803098606E+02  0.00000000000E+00 0.  1.
         -1    1    1    2    0  501  0.10094068084E+02 -0.35051691930E+02 -0.15084141637E+02  0.39472048928E+02  0.00000000000E+00 0. -1.
</event>
<event>
 4    1  0.6934088E+001  0.2319631E+02  0.7546771E-02  0.1490048E+00
          2   -1    0    0  502    0  0.00000000000E+00  0.00000000000E+00  0.25219672376E+02  0.25219672376E+02  0.00000000000E+00 0. -1.
         -2   -1    0    0    0  501 -0.00000000000E+00 -0.00000000000E+00 -0.21386633824E+02  0.21386633824E+02  0.00000000000E+00 0.  1.
          1    1    1    2  502    0 -0.64022055303E+01 -0.22295301256E+02  0.77458022004E+00  0.23209236702E+02  0.00000000000E+00 0. -1.
         -1    1    1    2    0  501  0.64022055303E+01  0.22295301256E+02  0.30584583313E+01  0.23397069499E+02  0.00000000000E+00 0.  1.
</event>
<event>
 4    1  0.6934088E+001  0.2443770E+02  0.7546771E-02  0.1475193E+00
          2   -1    0    0  502    0  0.00000000000E+00  0.00000000000E+00  0.78393048721E+02  0.78393048721E+02  0.00000000000E+00 0.  1.
         -2   -1    0    0    0  501 -0.00000000000E+00 -0.00000000000E+00 -0.76349963986E+01  0.76349963986E+01  0.00000000000E+00 0. -1.
          1    1    1    2  502    0 -0.24040574916E+02  0.43877232846E+01  0.33351921387E+02  0.41346729231E+02  0.00000000000E+00 0. -1.
         -1    1    1    2    0  501  0.24040574916E+02 -0.43877232846E+01  0.37406130936E+02  0.44681315889E+02  0.00000000000E+00 0.  1.
</event>
<event>
 4    1  0.6934088E+001  0.2592424E+02  0.7546771E-02  0.1458724E+00
          2   -1    0    0  502    0  0.00000000000E+00  0.00000000000E+00  0.58516486110E+02  0.58516486110E+02  0.00000000000E+00 0. -1.
         -2   -1    0    0    0  501 -0.00000000000E+00 -0.00000000000E+00 -0.33052969577E+02  0.33052969577E+02  0.00000000000E+00 0.  1.
          1    1    1    2  502    0  0.14366061530E+02  0.21579680693E+02  0.49716215702E+02  0.56069318227E+02  0.00000000000E+00 0. -1.
         -1    1    1    2    0  501 -0.14366061530E+02 -0.21579680693E+02 -0.24252699168E+02  0.35500137460E+02  0.00000000000E+00 0.  1.
</event>
<event>
 4    1  0.6934088E+001  0.2644776E+02  0.7546771E-02  0.1453236E+00
          2   -1    0    0  502    0  0.00000000000E+00  0.00000000000E+00  0.31174626434E+03  0.31174626434E+03  0.00000000000E+00 0.  1.
         -2   -1    0    0    0  501 -0.00000000000E+00 -0.00000000000E+00 -0.28931525515E+01  0.28931525515E+01  0.00000000000E+00 0. -1.
          1    1    1    2  502    0  0.24562344786E+02 -0.98069041148E+01  0.22895992282E+03  0.23048238632E+03  0.00000000000E+00 0.  1.
         -1    1    1    2    0  501 -0.24562344786E+02  0.98069041148E+01  0.79893188970E+02  0.84157030565E+02  0.00000000000E+00 0. -1.
</event>
<event>
 4    1  0.6934088E+001  0.2077916E+02  0.7546771E-02  0.1522441E+00
          2   -1    0    0  502    0  0.00000000000E+00  0.00000000000E+00  0.22833355384E+04  0.22833355384E+04  0.00000000000E+00 0. -1.
         -2   -1    0    0    0  501 -0.00000000000E+00 -0.00000000000E+00 -0.19672902961E+00  0.19672902961E+00  0.00000000000E+00 0.  1.
          1    1    1    2  502    0  0.15682300947E+02 -0.13632273219E+02  0.13664457721E+04  0.13666037544E+04  0.00000000000E+00 0. -1.
         -1    1    1    2    0  501 -0.15682300947E+02  0.13632273219E+02  0.91669303725E+03  0.91692851302E+03  0.00000000000E+00 0.  1.
</event>
<event>
 4    1  0.6934088E+001  0.3080744E+02  0.7546771E-02  0.1412707E+00
          2   -1    0    0  502    0  0.00000000000E+00  0.00000000000E+00  0.51998232988E+02  0.51998232988E+02  0.00000000000E+00 0.  1.
         -2   -1    0    0    0  501 -0.00000000000E+00 -0.00000000000E+00 -0.18655012318E+02  0.18655012318E+02  0.00000000000E+00 0. -1.
          1    1    1    2  502    0 -0.94405090711E+01 -0.29325329457E+02  0.21860681961E+02  0.37775489078E+02  0.00000000000E+00 0.  1.
         -1    1    1    2    0  501  0.94405090711E+01  0.29325329457E+02  0.11482538709E+02  0.32877756227E+02  0.00000000000E+00 0. -1.
</event>
<event>
 4    1  0.6934088E+001  0.2765599E+02  0.7546771E-02  0.1441128E+00
          2   -1    0    0  502    0  0.00000000000E+00  0.00000000000E+00  0.28034423135E+02  0.28034423135E+02  0.00000000000E+00 0.  1.
         -2   -1    0    0    0  501 -0.00000000000E+00 -0.00000000000E+00 -0.37557088079E+02  0.37557088079E+02  0.00000000000E+00 0. -1.
          1    1    1    2  502    0 -0.16014482287E+02  0.22547508261E+02  0.12392075229E+02  0.30305400512E+02  0.00000000000E+00 0.  1.
         -1    1    1    2    0  501  0.16014482287E+02 -0.22547508261E+02 -0.21914740173E+02  0.35286110703E+02  0.00000000000E+00 0. -1.
</event>
<event>
 4    1  0.6934088E+001  0.2129935E+02  0.7546771E-02  0.1515034E+00
          2   -1    0    0  502    0  0.00000000000E+00  0.00000000000E+00  0.14551021512E+03  0.14551021512E+03  0.00000000000E+00 0. -1.
         -2   -1    0    0    0  501 -0.00000000000E+00 -0.00000000000E+00 -0.88656402669E+01  0.88656402669E+01  0.00000000000E+00 0.  1.
          1    1    1    2  502    0 -0.14212942739E+02  0.15863621298E+02  0.61711405130E+01  0.22175328571E+02  0.00000000000E+00 0.  1.
         -1    1    1    2    0  501  0.14212942739E+02 -0.15863621298E+02  0.13047343434E+03  0.13220052682E+03  0.00000000000E+00 0. -1.
</event>
<event>
 4    1  0.6934088E+001  0.3184203E+02  0.7546771E-02  0.1404237E+00
          2   -1    0    0  502    0  0.00000000000E+00  0.00000000000E+00  0.87453429606E+02  0.87453429606E+02  0.00000000000E+00 0. -1.
         -2   -1    0    0    0  501 -0.00000000000E+00 -0.00000000000E+00 -0.11703559959E+02  0.11703559959E+02  0.00000000000E+00 0.  1.
          1    1    1    2  502    0  0.31835626895E+02 -0.63850431950E+00  0.42676893231E+02  0.53246897030E+02  0.00000000000E+00 0. -1.
         -1    1    1    2    0  501 -0.31835626895E+02  0.63850431950E+00  0.33072976416E+02  0.45910092535E+02  0.00000000000E+00 0.  1.
</event>
<event>
 4    1  0.6934088E+001  0.2368672E+02  0.7546771E-02  0.1484050E+00
          2   -1    0    0  502    0  0.00000000000E+00  0.00000000000E+00  0.31190236246E+01  0.31190236246E+01  0.00000000000E+00 0.  1.
         -2   -1    0    0    0  501 -0.00000000000E+00 -0.00000000000E+00 -0.19862927059E+03  0.19862927059E+03  0.00000000000E+00 0. -1.
          1    1    1    2  502    0 -0.23009007063E+02  0.56254869876E+01 -0.12874439010E+03  0.13090522713E+03  0.00000000000E+00 0.  1.
         -1    1    1    2    0  501  0.23009007063E+02 -0.56254869876E+01 -0.66765856873E+02  0.70843067084E+02  0.00000000000E+00 0. -1.
</event>
<event>
 4    1  0.6934088E+001  0.2517751E+02  0.7546771E-02  0.1466827E+00
          2   -1    0    0  502    0  0.00000000000E+00  0.00000000000E+00  0.91685046150E+03  0.91685046150E+03  0.00000000000E+00 0. -1.
         -2   -1    0    0    0  501 -0.00000000000E+00 -0.00000000000E+00 -0.71479933393E+00  0.71479933393E+00  0.00000000000E+00 0.  1.
          1    1    1    2  502    0  0.23695579394E+02  0.85103672106E+01  0.54108211751E+03  0.54166757769E+03  0.00000000000E+00 0. -1.
         -1    1    1    2    0  501 -0.23695579394E+02 -0.85103672106E+01  0.37505354466E+03  0.37589768314E+03  0.00000000000E+00 0.  1.
</event>
<event>
 4    1  0.6934088E+001  0.2050395E+02  0.7546771E-02  0.1526466E+00
          2   -1    0    0  502    0  0.00000000000E+00  0.00000000000E+00  0.11724223066E+02  0.11724223066E+02  0.00000000000E+00 0. -1.
         -2   -1    0    0    0  501 -0.00000000000E+00 -0.00000000000E+00 -0.36718234476E+02  0.36718234476E+02  0.00000000000E+00 0.  1.
          1    1    1    2  502    0  0.13253662022E+02 -0.15644563270E+02 -0.16203487896E+02  0.26133597856E+02  0.00000000000E+00 0. -1.
         -1    1    1    2    0  501 -0.13253662022E+02  0.15644563270E+02 -0.87905235140E+01  0.22308859687E+02  0.00000000000E+00 0.  1.
</event>
<event>
 4    1  0.6934088E+001  0.2228992E+02  0.7546771E-02  0.1501612E+00
          2   -1    0    0  502    0  0.00000000000E+00  0.00000000000E+00  0.20177888610E+03  0.20177888610E+03  0.00000000000E+00 0.  1.
         -2   -1    0    0    0  501 -0.00000000000E+00 -0.00000000000E+00 -0.39819782785E+01  0.39819782785E+01  0.00000000000E+00 0. -1.
          1    1    1    2  502    0 -0.22252268856E+02 -0.12949952704E+01  0.35342106482E+02  0.41784027721E+02  0.00000000000E+00 0. -1.
         -1    1    1    2    0  501  0.22252268856E+02  0.12949952704E+01  0.16245480134E+03  0.16397683665E+03  0.00000000000E+00 0.  1.
</event>
<event>
 4    1  0.6934088E+001  0.5877173E+02  0.7546771E-02  0.1264064E+00
          2   -1    0    0  502    0  0.00000000000E+00  0.00000000000E+00  0.13959813812E+04  0.13959813812E+04  0.00000000000E+00 0.  1.
         -2   -1    0    0    0  501 -0.00000000000E+00 -0.00000000000E+00 -0.24983316128E+01  0.24983316128E+01  0.00000000000E+00 0. -1.
          1    1    1    2  502    0  0.40105821029E+02 -0.42960905757E+02  0.62820275641E+03  0.63094597190E+03  0.00000000000E+00 0. -1.
         -1    1    1    2    0  501 -0.40105821029E+02  0.42960905757E+02  0.76528029314E+03  0.76753374086E+03  0.00000000000E+00 0.  1.
</event>
<event>
 4    1  0.6934088E+001  0.5303534E+02  0.7546771E-02  0.1285523E+00
          2   -1    0    0  502    0  0.00000000000E+00  0.00000000000E+00  0.18069177748E+02  0.18069177748E+02  0.00000000000E+00 0.  1.
         -2   -1    0    0    0  501 -0.00000000000E+00 -0.00000000000E+00 -0.16814076406E+03  0.16814076406E+03  0.00000000000E+00 0. -1.
          1    1    1    2  502    0 -0.50843854564E+02  0.15088062533E+02 -0.49675070203E+02  0.72666084095E+02  0.00000000000E+00 0.  1.
         -1    1    1    2    0  501  0.50843854564E+02 -0.15088062533E+02 -0.10039651611E+03  0.11354385772E+03  0.00000000000E+00 0. -1.
</event>
<event>
 4    1  0.6934088E+001  0.2040778E+02  0.7546771E-02  0.1527891E+00
          2   -1    0    0  502    0  0.00000000000E+00  0.00000000000E+00  0.75035308518E+03  0.75035308518E+03  0.00000000000E+00 0.  1.
         -2   -1    0    0    0  501 -0.00000000000E+00 -0.00000000000E+00 -0.59360376199E+00  0.59360376199E+00  0.00000000000E+00 0. -1.
          1    1    1    2  502    0  0.14607561159E+02 -0.14251199854E+02  0.27918044328E+03  0.27992534264E+03  0.00000000000E+00 0. -1.
         -1    1    1    2    0  501 -0.14607561159E+02  0.14251199854E+02  0.47057903813E+03  0.47102134630E+03  0.00000000000E+00 0.  1.
</event>
<event>
 4    1  0.6934088E+001  0.2994680E+02  0.7546771E-02  0.1420059E+00
          2   -1    0    0  502    0  0.00000000000E+00  0.00000000000E+00  0.21237872406E+01  0.21237872406E+01  0.00000000000E+00 0.  1.
         -2   -1    0    0    0  501 -0.00000000000E+00 -0.00000000000E+00 -0.64999949620E+03  0.64999949620E+03  0.00000000000E+00 0. -1.
          1    1    1    2  502    0  0.24986904629E+02  0.16506526175E+02 -0.13093967355E+03  0.13432054540E+03  0.00000000000E+00 0.  1.
         -1    1    1    2    0  501 -0.24986904629E+02 -0.16506526175E+02 -0.51693603541E+03  0.51780273803E+03  0.00000000000E+00 0. -1.
</event>
<event>
 4    1  0.6934088E+001  0.2058365E+02  0.7546771E-02  0.1525293E+00
          2   -1    0    0  502    0  0.00000000000E+00  0.00000000000E+00  0.66339434946E+02  0.66339434946E+02  0.00000000000E+00 0.  1.
         -2   -1    0    0    0  501 -0.00000000000E+00 -0.00000000000E+00 -0.11986341996E+02  0.11986341996E+02  0.00000000000E+00 0. -1.
          1    1    1    2  502    0  0.12046311764E+02 -0.16690507557E+02  0.40869575874E+00  0.20587707543E+02  0.00000000000E+00 0. -1.
         -1    1    1    2    0  501 -0.12046311764E+02  0.16690507557E+02  0.53944397192E+02  0.57738069400E+02  0.00000000000E+00 0.  1.
</event>
<event>
 4    1  0.6934088E+001  0.5247106E+02  0.7546771E-02  0.1287800E+00
          2   -1    0    0  502    0  0.00000000000E+00  0.00000000000E+00  0.15547960825E+04  0.15547960825E+04  0.00000000000E+00 0. -1.
         -2   -1    0    0    0  501 -0.00000000000E+00 -0.00000000000E+00 -0.19966335237E+01  0.19966335237E+01  0.00000000000E+00 0.  1.
          1    1    1    2  502    0 -0.34030301985E+02  0.39939336865E+02  0.10381931267E+04  0.10395182444E+04  0.00000000000E+00 0. -1.
         -1    1    1    2    0  501  0.34030301985E+02 -0.39939336865E+02  0.51460632228E+03  0.51727447165E+03  0.00000000000E+00 0.  1.
</event>
<event>
 4    1  0.6934088E+001  0.2024092E+02  0.7546771E-02  0.1530384E+00
          2   -1    0    0  502    0  0.00000000000E+00  0.00000000000E+00  0.16711403945E+02  0.16711403945E+02  0.00000000000E+00 0. -1.
         -2   -1    0    0    0  501 -0.00000000000E+00 -0.00000000000E+00 -0.27074530383E+02  0.27074530383E+02  0.00000000000E+00 0.  1.
          1    1    1    2  502    0  0.16387177242E+02  0.11880873028E+02 -0.11911793074E+02  0.23485858215E+02  0.00000000000E+00 0.  1.
         -1    1    1    2    0  501 -0.16387177242E+02 -0.11880873028E+02  0.15486666359E+01  0.20300076113E+02  0.00000000000E+00 0. -1.
</event>
<event>
 4    1  0.6934088E+001  0.2147618E+02  0.7546771E-02  0.1512574E+00
          2   -1    0    0  502    0  0.00000000000E+00  0.00000000000E+00  0.21227928200E+04  0.21227928200E+04  0.00000000000E+00 0.  1.
         -2   -1    0    0    0  501 -0.00000000000E+00 -0.00000000000E+00 -0.21786348362E+00  0.21786348362E+00  0.00000000000E+00 0. -1.
          1    1    1    2  502    0  0.31315988680E+00 -0.21473894854E+02  0.11165357464E+04  0.11167422707E+04  0.00000000000E+00 0. -1.
         -1    1    1    2    0  501 -0.31315988680E+00  0.21473894854E+02  0.10060392101E+04  0.10062684127E+04  0.00000000000E+00 0.  1.
</event>
<event>
 4    1  0.6934088E+001  0.2017336E+02  0.7546771E-02  0.1531402E+00
          2   -1    0    0  502    0  0.00000000000E+00  0.00000000000E+00  0.58353150834E+03  0.58353150834E+03  0.00000000000E+00 0.  1.
         -2   -1    0    0    0  501 -0.00000000000E+00 -0.00000000000E+00 -0.70539505747E+00  0.70539505747E+00  0.00000000000E+00 0. -1.
          1    1    1    2  502    0 -0.65041881454E+00 -0.20162874047E+02  0.32248035352E+03  0.32311072861E+03  0.00000000000E+00 0.  1.
         -1    1    1    2    0  501  0.65041881454E+00  0.20162874047E+02  0.26034575976E+03  0.26112617479E+03  0.00000000000E+00 0. -1.
</event>
<event>
 4    1  0.6934088E+001  0.3651978E+02  0.7546771E-02  0.1370182E+00
          2   -1    0    0  502    0  0.00000000000E+00  0.00000000000E+00  0.22713069389E+01  0.22713069389E+01  0.00000000000E+00 0. -1.
         -2   -1    0    0    0  501 -0.00000000000E+00 -0.00000000000E+00 -0.96336022067E+03  0.96336022067E+03  0.00000000000E+00 0.  1.
          1    1    1    2  502    0  0.19586514106E+02 -0.30823085021E+02 -0.17884264088E+03  0.18253324164E+03  0.00000000000E+00 0. -1.
         -1    1    1    2    0  501 -0.19586514106E+02  0.30823085021E+02 -0.78224627285E+03  0.78309828597E+03  0.00000000000E+00 0.  1.
</event>
<event>
 4    1  0.6934088E+001  0.2544196E+02  0.7546771E-02  0.1463919E+00
          2   -1    0    0  502    0  0.00000000000E+00  0.00000000000E+00  0.22477763608E+02  0.22477763608E+02  0.00000000000E+00 0. -1.
         -2   -1    0    0    0  501 -0.00000000000E+00 -0.00000000000E+00 -0.41567188738E+02  0.41567188738E+02  0.00000000000E+00 0.  1.
          1    1    1    2  502    0  0.86390889479E+01 -0.23930303136E+02 -0.27293856232E+02  0.37312837657E+02  0.00000000000E+00 0.  1.
         -1    1    1    2    0  501 -0.86390889479E+01  0.23930303136E+02  0.82044311021E+01  0.26732114689E+02  0.00000000000E+00 0. -1.
</event>
<event>
 4    1  0.6934088E+001  0.3832926E+02  0.7546771E-02  0.1358564E+00
          2   -1    0    0  502    0  0.00000000000E+00  0.00000000000E+00  0.85563049103E+02  0.85563049103E+02  0.00000000000E+00 0.  1.
         -2   -1    0    0    0  501 -0.00000000000E+00 -0.00000000000E+00 -0.19783531787E+02  0.19783531787E+02  0.00000000000E+00 0. -1.
          1    1    1    2  502    0  0.88898043300E+00 -0.38318952502E+02  0.13745524153E+02  0.40719428303E+02  0.00000000000E+00 0. -1.
         -1    1    1    2    0  501 -0.88898043300E+00  0.38318952502E+02  0.52033993164E+02  0.64627152588E+02  0.00000000000E+00 0.  1.
</event>
<event>
 4    1  0.6934088E+001  0.3279196E+02  0.7546771E-02  0.1396788E+00
          2   -1    0    0  502    0  0.00000000000E+00  0.00000000000E+00  0.67900829638E+01  0.67900829638E+01  0.00000000000E+00 0.  1.
         -2   -1    0    0    0  501 -0.00000000000E+00 -0.00000000000E+00 -0.32159668267E+03  0.32159668267E+03  0.00000000000E+00 0. -1.
          1    1    1    2  502    0  0.22145692990E+02  0.24184316649E+02 -0.27438066225E+03  0.27633324213E+03  0.00000000000E+00 0. -1.
         -1    1    1    2    0  501 -0.22145692990E+02 -0.24184316649E+02 -0.40425937455E+02  0.52053523501E+02  0.00000000000E+00 0.  1.
</event>
<event>
 4    1  0.6934088E+001  0.3753939E+02  0.7546771E-02  0.1363541E+00
          2   -1    0    0  502    0  0.00000000000E+00  0.00000000000E+00  0.88826651964E+03  0.88826651964E+03  0.00000000000E+00 0. -1.
         -2   -1    0    0    0  501 -0.00000000000E+00 -0.00000000000E+00 -0.16220339091E+01  0.16220339091E+01  0.00000000000E+00 0.  1.
          1    1    1    2  502    0  0.10329568247E+02  0.36090247608E+02  0.50920863912E+03  0.51059048572E+03  0.00000000000E+00 0. -1.
         -1    1    1    2    0  501 -0.10329568247E+02 -0.36090247608E+02  0.37743584661E+03  0.37929806783E+03  0.00000000000E+00 0.  1.
</event>
<event>
 4    1  0.6934088E+001  0.2174531E+02  0.7546771E-02  0.1508884E+00
          2   -1    0    0  502    0  0.00000000000E+00  0.00000000000E+00  0.77442492813E+01  0.77442492813E+01  0.00000000000E+00 0.  1.
         -2   -1    0    0    0  501 -0.00000000000E+00 -0.00000000000E+00 -0.22939243444E+03  0.22939243444E+03  0.00000000000E+00 0. -1.
          1    1    1    2  502    0  0.12007519339E+02  0.18129483093E+02 -0.92544400396E+01  0.23632675226E+02  0.00000000000E+00 0.  1.
         -1    1    1    2    0  501 -0.12007519339E+02 -0.18129483093E+02 -0.21239374512E+03  0.21350400850E+03  0.00000000000E+00 0. -1.
</event>
<event>
 4    1  0.6934088E+001  0.6873369E+02  0.7546771E-02  0.1232735E+00
          2   -1    0    0  502    0  0.00000000000E+00  0.00000000000E+00  0.31908643269E+03  0.31908643269E+03  0.00000000000E+00 0.  1.
         -2   -1    0    0    0  501 -0.00000000000E+00 -0.00000000000E+00 -0.22288360892E+02  0.22288360892E+02  0.00000000000E+00 0. -1.
          1    1    1    2  502    0  0.66442168336E+02 -0.17599950822E+02  0.49500828492E+02  0.84703317665E+02  0.00000000000E+00 0. -1.
         -1    1    1    2    0  501 -0.66442168336E+02  0.17599950822E+02  0.24729724331E+03  0.25667147591E+03  0.00000000000E+00 0.  1.
</event>
<event>
 4    1  0.6934088E+001  0.2022313E+02  0.7546771E-02  0.1530652E+00
          2   -1    0    0  502    0  0.00000000000E+00  0.00000000000E+00  0.15053760593E+04  0.15053760593E+04  0.00000000000E+00 0. -1.
         -2   -1    0    0    0  501 -0.00000000000E+00 -0.00000000000E+00 -0.38142716356E+00  0.38142716356E+00  0.00000000000E+00 0.  1.
          1    1    1    2  502    0  0.20135748070E+02  0.18778969206E+01  0.34864423791E+03  0.34923026712E+03  0.00000000000E+00 0.  1.
         -1    1    1    2    0  501 -0.20135748070E+02 -0.18778969206E+01  0.11563503942E+04  0.11565272194E+04  0.00000000000E+00 0. -1.
</event>
<event>
 4    1  0.6934088E+001  0.2163716E+02  0.7546771E-02  0.1510359E+00
          2   -1    0    0  502    0  0.00000000000E+00  0.00000000000E+00  0.24880754560E+03  0.24880754560E+03  0.00000000000E+00 0. -1.
         -2   -1    0    0    0  501 -0.00000000000E+00 -0.00000000000E+00 -0.19552052384E+01  0.19552052384E+01  0.00000000000E+00 0.  1.
          1    1    1    2  502    0 -0.21042102574E+02 -0.50395168055E+01  0.99106017728E+02  0.10144047299E+03  0.00000000000E+00 0.  1.
         -1    1    1    2    0  501  0.21042102574E+02  0.50395168055E+01  0.14774632264E+03  0.14932227785E+03  0.00000000000E+00 0. -1.
</event>
<event>
 4    1  0.6934088E+001  0.2012597E+02  0.7546771E-02  0.1532119E+00
          2   -1    0    0  502    0  0.00000000000E+00  0.00000000000E+00  0.75319185001E+03  0.75319185001E+03  0.00000000000E+00 0.  1.
         -2   -1    0    0    0  501 -0.00000000000E+00 -0.00000000000E+00 -0.55154358186E+00  0.55154358186E+00  0.00000000000E+00 0. -1.
          1    1    1    2  502    0 -0.12115466606E+02  0.16070789894E+02  0.43584524631E+03  0.43630967620E+03  0.00000000000E+00 0.  1.
         -1    1    1    2    0  501  0.12115466606E+02 -0.16070789894E+02  0.31679506012E+03  0.31743371739E+03  0.00000000000E+00 0. -1.
</event>
<event>
 4    1  0.6934088E+001  0.2042331E+02  0.7546771E-02  0.1527660E+00
          2   -1    0    0  502    0  0.00000000000E+00  0.00000000000E+00  0.93478012580E+02  0.93478012580E+02  0.00000000000E+00 0. -1.
         -2   -1    0    0    0  501 -0.00000000000E+00 -0.00000000000E+00 -0.62402292397E+01  0.62402292397E+01  0.00000000000E+00 0.  1.
          1    1    1    2  502    0  0.20415032447E+02  0.58146606878E+00  0.70233590024E+02  0.73142797460E+02  0.00000000000E+00 0. -1.
         -1    1    1    2    0  501 -0.20415032447E+02 -0.58146606878E+00  0.17004193316E+02  0.26575444360E+02  0.00000000000E+00 0.  1.
</event>
<event>
 4    1  0.6934088E+001  0.2318516E+02  0.7546771E-02  0.1490186E+00
          2   -1    0    0  502    0  0.00000000000E+00  0.00000000000E+00  0.64465789119E+03  0.64465789119E+03  0.00000000000E+00 0. -1.
         -2   -1    0    0    0  501 -0.00000000000E+00 -0.00000000000E+00 -0.85594278436E+00  0.85594278436E+00  0.00000000000E+00 0.  1.
          1    1    1    2  502    0 -0.12922544034E+02 -0.19249927750E+02  0.37374745110E+03  0.37446589840E+03  0.00000000000E+00 0. -1.
         -1    1    1    2    0  501  0.12922544034E+02  0.19249927750E+02  0.27005449731E+03  0.27104793558E+03  0.00000000000E+00 0.  1.
</event>
<event>
 4    1  0.6934088E+001  0.2051532E+02  0.7546771E-02  0.1526299E+00
          2   -1    0    0  502    0  0.00000000000E+00  0.00000000000E+00  0.22638636502E+03  0.22638636502E+03  0.00000000000E+00 0. -1.
         -2   -1    0    0    0  501 -0.00000000000E+00 -0.00000000000E+00 -0.19089218960E+01  0.19089218960E+01  0.00000000000E+00 0.  1.
          1    1    1    2  502    0  0.42156175370E+01 -0.20077525485E+02  0.93800702414E+02  0.96017968288E+02  0.00000000000E+00 0. -1.
         -1    1    1    2    0  501 -0.42156175370E+01  0.20077525485E+02  0.13067674071E+03  0.13227731863E+03  0.00000000000E+00 0.  1.
</event>
<event>
 4    1  0.6934088E+001  0.2243709E+02  0.7546771E-02  0.1499690E+00
          2   -1    0    0  502    0  0.00000000000E+00  0.00000000000E+00  0.27565256282E+01  0.27565256282E+01  0.00000000000E+00 0. -1.
         -2   -1    0    0    0  501 -0.00000000000E+00 -0.00000000000E+00 -0.20980701739E+03  0.20980701739E+03  0.00000000000E+00 0.  1.
          1    1    1    2  502    0  0.14271405086E+02  0.17313288393E+02 -0.65273303375E+02  0.69021931961E+02  0.00000000000E+00 0. -1.
         -1    1    1    2    0  501 -0.14271405086E+02 -0.17313288393E+02 -0.14177718839E+03  0.14354161106E+03  0.00000000000E+00 0.  1.
</event>
<event>
 4    1  0.6934088E+001  0.2052776E+02  0.7546771E-02  0.1526115E+00
          2   -1    0    0  502    0  0.00000000000E+00  0.00000000000E+00  0.23660966900E+04  0.23660966900E+04  0.00000000000E+00 0.  1.
         -2   -1    0    0    0  501 -0.00000000000E+00 -0.00000000000E+00 -0.17998651004E+00  0.17998651004E+00  0.00000000000E+00 0. -1.
          1    1    1    2  502    0 -0.14236128290E+02 -0.14789245336E+02  0.10616580791E+04  0.10618565186E+04  0.00000000000E+00 0. -1.
         -1    1    1    2    0  501  0.14236128290E+02  0.14789245336E+02  0.13042586244E+04  0.13044201579E+04  0.00000000000E+00 0.  1.
</event>
<event>
 4    1  0.6934088E+001  0.2233888E+02  0.7546771E-02  0.1500971E+00
          2   -1    0    0  502    0  0.00000000000E+00  0.00000000000E+00  0.15336085720E+04  0.15336085720E+04  0.00000000000E+00 0. -1.
         -2   -1    0    0    0  501 -0.00000000000E+00 -0.00000000000E+00 -0.44956722402E+00  0.44956722402E+00  0.00000000000E+00 0.  1.
          1    1    1    2  502    0 -0.63948979049E+01  0.21403991826E+02  0.11696955862E+04  0.11699088811E+04  0.00000000000E+00 0. -1.
         -1    1    1    2    0  501  0.63948979049E+01 -0.21403991826E+02  0.36346341859E+03  0.36414925819E+03  0.00000000000E+00 0.  1.
</event>
<event>
 4    1  0.6934088E+001  0.7618834E+02  0.7546771E-02  0.1212984E+00
          2   -1    0    0  502    0  0.00000000000E+00  0.00000000000E+00  0.75306463601E+03  0.75306463601E+03  0.00000000000E+00 0. -1.
         -2   -1    0    0    0  501 -0.00000000000E+00 -0.00000000000E+00 -0.82418625528E+01  0.82418625528E+01  0.00000000000E+00 0.  1.
          1    1    1    2  502    0 -0.71036782448E+02 -0.27539776277E+02  0.46928581622E+03  0.47543016421E+03  0.00000000000E+00 0. -1.
         -1    1    1    2    0  501  0.71036782448E+02  0.27539776277E+02  0.27553695724E+03  0.28587633436E+03  0.00000000000E+00 0.  1.
</event>
<event>
 4    1  0.6934088E+001  0.4489217E+02  0.7546771E-02  0.1321979E+00
          2   -1    0    0  502    0  0.00000000000E+00  0.00000000000E+00  0.19023933458E+03  0.19023933458E+03  0.00000000000E+00 0.  1.
         -2   -1    0    0    0  501 -0.00000000000E+00 -0.00000000000E+00 -0.11572440069E+02  0.11572440069E+02  0.00000000000E+00 0. -1.
          1    1    1    2  502    0 -0.18086489654E+02 -0.41087537081E+02  0.59985711390E+02  0.74923910618E+02  0.00000000000E+00 0.  1.
         -1    1    1    2    0  501  0.18086489654E+02  0.41087537081E+02  0.11868118312E+03  0.12688786403E+03  0.00000000000E+00 0. -1.
</event>
<event>
 4    1  0.6934088E+001  0.3459321E+02  0.7546771E-02  0.1383446E+00
          2   -1    0    0  502    0  0.00000000000E+00  0.00000000000E+00  0.38575086232E+02  0.38575086232E+02  0.00000000000E+00 0. -1.
         -2   -1    0    0    0  501 -0.00000000000E+00 -0.00000000000E+00 -0.33086625787E+02  0.33086625787E+02  0.00000000000E+00 0.  1.
          1    1    1    2  502    0  0.34391627674E+02  0.37290766330E+01 -0.62055866267E+01  0.35145403284E+02  0.00000000000E+00 0.  1.
         -1    1    1    2    0  501 -0.34391627674E+02 -0.37290766330E+01  0.11694047072E+02  0.36516308734E+02  0.00000000000E+00 0. -1.
</event>
<event>
 4    1  0.6934088E+001  0.3589933E+02  0.7546771E-02  0.1374349E+00
          2   -1    0    0  502    0  0.00000000000E+00  0.00000000000E+00  0.47027588340E+02  0.47027588340E+02  0.00000000000E+00 0. -1.
         -2   -1    0    0    0  501 -0.00000000000E+00 -0.00000000000E+00 -0.29196282822E+02  0.29196282822E+02  0.00000000000E+00 0.  1.
          1    1    1    2  502    0 -0.10075546827E+02 -0.34456422803E+02 -0.52615010460E+00  0.35903183009E+02  0.00000000000E+00 0.  1.
         -1    1    1    2    0  501  0.10075546827E+02  0.34456422803E+02  0.18357455623E+02  0.40320688153E+02  0.00000000000E+00 0. -1.
</event>
<event>
 4    1  0.6934088E+001  0.2551191E+02  0.7546771E-02  0.1463157E+00
          2   -1    0    0  502    0  0.00000000000E+00  0.00000000000E+00  0.82477021275E+03  0.82477021275E+03  0.00000000000E+00 0. -1.
         -2   -1    0    0    0  501 -0.00000000000E+00 -0.00000000000E+00 -0.83143947330E+00  0.83143947330E+00  0.00000000000E+00 0.  1.
          1    1    1    2  502    0 -0.23680743464E+02  0.94910435153E+01  0.31885796161E+03  0.31987694072E+03  0.00000000000E+00 0. -1.
         -1    1    1    2    0  501  0.23680743464E+02 -0.94910435153E+01  0.50508081166E+03  0.50572471151E+03  0.00000000000E+00 0.  1.
</event>
<event>
 4    1  0.6934088E+001  0.2456229E+02  0.7546771E-02  0.1473760E+00
          2   -1    0    0  502    0  0.00000000000E+00  0.00000000000E+00  0.49752645686E+01  0.49752645686E+01  0.00000000000E+00 0.  1.
         -2   -1    0    0    0  501 -0.00000000000E+00 -0.00000000000E+00 -0.18087843232E+03  0.18087843232E+03  0.00000000000E+00 0. -1.
          1    1    1    2  502    0 -0.55339254722E+01 -0.23930769784E+02 -0.14130154058E+03  0.14342047080E+03  0.00000000000E+00 0. -1.
         -1    1    1    2    0  501  0.55339254722E+01  0.23930769784E+02 -0.34601627173E+02  0.42433226092E+02  0.00000000000E+00 0.  1.
</event>
<event>
 4    1  0.6934088E+001  0.2395637E+02  0.7546771E-02  0.1480826E+00
          2   -1    0    0  502    0  0.00000000000E+00  0.00000000000E+00  0.16110438969E+04  0.16110438969E+04  0.00000000000E+00 0.  1.
         -2   -1    0    0    0  501 -0.00000000000E+00 -0.00000000000E+00 -0.40879927520E+00  0.40879927520E+00  0.00000000000E+00 0. -1.
          1    1    1    2  502    0 -0.73918563899E+01 -0.22787455730E+02  0.51639305021E+03  0.51694844035E+03  0.00000000000E+00 0. -1.
         -1    1    1    2    0  501  0.73918563899E+01  0.22787455730E+02  0.10942420474E+04  0.10945042558E+04  0.00000000000E+00 0.  1.
</event>
<event>
 4    1  0.6934088E+001  0.4181859E+02  0.7546771E-02  0.1338146E+00
          2   -1    0    0  502    0  0.00000000000E+00  0.00000000000E+00  0.26419664612E+03  0.26419664612E+03  0.00000000000E+00 0.  1.
         -2   -1    0    0    0  501 -0.00000000000E+00 -0.00000000000E+00 -0.67247426888E+01  0.67247426888E+01  0.00000000000E+00 0. -1.
          1    1    1    2  502    0 -0.12666249843E+02  0.39854237990E+02  0.14569902959E+03  0.15158166576E+03  0.00000000000E+00 0.  1.
         -1    1    1    2    0  501  0.12666249843E+02 -0.39854237990E+02  0.11177287384E+03  0.11933972305E+03  0.00000000000E+00 0. -1.
</event>
<event>
 4    1  0.6934088E+001  0.7493291E+02  0.7546771E-02  0.1216126E+00
          2   -1    0    0  502    0  0.00000000000E+00  0.00000000000E+00  0.48872221593E+02  0.48872221593E+02  0.00000000000E+00 0.  1.
         -2   -1    0    0    0  501 -0.00000000000E+00 -0.00000000000E+00 -0.24406413016E+03  0.24406413016E+03  0.00000000000E+00 0. -1.
          1    1    1    2  502    0 -0.57585663851E+02  0.47946135146E+02 -0.20415214553E+03  0.21746962795E+03  0.00000000000E+00 0. -1.
         -1    1    1    2    0  501  0.57585663851E+02 -0.47946135146E+02  0.89602369534E+01  0.75466723811E+02  0.00000000000E+00 0.  1.
</event>
<event>
 4    1  0.6934088E+001  0.2103442E+02  0.7546771E-02  0.1518774E+00
          2   -1    0    0  502    0  0.00000000000E+00  0.00000000000E+00  0.15491328931E+02  0.15491328931E+02  0.00000000000E+00 0. -1.
         -2   -1    0    0    0  501 -0.00000000000E+00 -0.00000000000E+00 -0.32035785933E+02  0.32035785933E+02  0.00000000000E+00 0.  1.
          1    1    1    2  502    0 -0.15888630541E+02 -0.13783985475E+02 -0.44583168461E+00  0.21039144515E+02  0.00000000000E+00 0. -1.
         -1    1    1    2    0  501  0.15888630541E+02  0.13783985475E+02 -0.16098625317E+02  0.26487970348E+02  0.00000000000E+00 0.  1.
</event>
<event>
 4    1  0.6934088E+001  0.2039713E+02  0.7546771E-02  0.1528049E+00
          2   -1    0    0  502    0  0.00000000000E+00  0.00000000000E+00  0.12167137056E+04  0.12167137056E+04  0.00000000000E+00 0.  1.
         -2   -1    0    0    0  501 -0.00000000000E+00 -0.00000000000E+00 -0.59486802512E+00  0.59486802512E+00  0.00000000000E+00 0. -1.
          1    1    1    2  502    0  0.19588360507E+02  0.56867251171E+01  0.21117951099E+03  0.21216226943E+03  0.00000000000E+00 0. -1.
         -1    1    1    2    0  501 -0.19588360507E+02 -0.56867251171E+01  0.10049393266E+04  0.10051463042E+04  0.00000000000E+00 0.  1.
</event>
<event>
 4    1  0.6934088E+001  0.2304976E+02  0.7546771E-02  0.1491874E+00
          2   -1    0    0  502    0  0.00000000000E+00  0.00000000000E+00  0.48135244670E+03  0.48135244670E+03  0.00000000000E+00 0. -1.
         -2   -1    0    0    0  501 -0.00000000000E+00 -0.00000000000E+00 -0.12402497636E+01  0.12402497636E+01  0.00000000000E+00 0.  1.
          1    1    1    2  502    0 -0.98502106805E+01  0.20839023842E+02  0.16000522382E+03  0.16165693061E+03  0.00000000000E+00 0.  1.
         -1    1    1    2    0  501  0.98502106805E+01 -0.20839023842E+02  0.32010697312E+03  0.32093576586E+03  0.00000000000E+00 0. -1.
</event>
<event>
 4    1  0.6934088E+001  0.2678068E+02  0.7546771E-02  0.1449824E+00
          2   -1    0    0  502    0  0.00000000000E+00  0.00000000000E+00  0.65486239565E+03  0.65486239565E+03  0.00000000000E+00 0.  1.
         -2   -1    0    0    0  501 -0.00000000000E+00 -0.00000000000E+00 -0.11391066723E+01  0.11391066723E+01  0.00000000000E+00 0. -1.
          1    1    1    2  502    0  0.97346165266E+01  0.24948786115E+02  0.26246511020E+03  0.26382785819E+03  0.00000000000E+00 0. -1.
         -1    1    1    2    0  501 -0.97346165266E+01 -0.24948786115E+02  0.39125817878E+03  0.39217364413E+03  0.00000000000E+00 0.  1.
</event>
<event>
 4    1  0.6934088E+001  0.2137012E+02  0.7546771E-02  0.1514046E+00
          2   -1    0    0  502    0  0.00000000000E+00  0.00000000000E+00  0.13978602193E+04  0.13978602193E+04  0.00000000000E+00 0.  1.
         -2   -1    0    0    0  501 -0.00000000000E+00 -0.00000000000E+00 -0.80656977794E+00  0.80656977794E+00  0.00000000000E+00 0. -1.
          1    1    1    2  502    0  0.97591773537E+01 -0.19011589946E+02  0.15910983855E+03  0.16053853998E+03  0.00000000000E+00 0. -1.
         -1    1    1    2    0  501 -0.97591773537E+01  0.19011589946E+02  0.12379438109E+04  0.12381282491E+04  0.00000000000E+00 0.  1.
</event>
<event>
 4    1  0.6934088E+001  0.2257432E+02  0.7546771E-02  0.1497914E+00
          2   -1    0    0  502    0  0.00000000000E+00  0.00000000000E+00  0.51578568796E+02  0.51578568796E+02  0.00000000000E+00 0. -1.
         -2   -1    0    0    0  501 -0.00000000000E+00 -0.00000000000E+00 -0.10637361315E+02  0.10637361315E+02  0.00000000000E+00 0.  1.
          1    1    1    2  502    0 -0.18509115876E+02  0.12923341117E+02  0.12170476161E+02  0.25646064145E+02  0.00000000000E+00 0.  1.
         -1    1    1    2    0  501  0.18509115876E+02 -0.12923341117E+02  0.28770731319E+02  0.36569865966E+02  0.00000000000E+00 0. -1.
</event>
<event>
 4    1  0.6934088E+001  0.2385199E+02  0.7546771E-02  0.1482068E+00
          2   -1    0    0  502    0  0.00000000000E+00  0.00000000000E+00  0.45664200662E+02  0.45664200662E+02  0.00000000000E+00 0.  1.
         -2   -1    0    0    0  501 -0.00000000000E+00 -0.00000000000E+00 -0.13097345273E+02  0.13097345273E+02  0.00000000000E+00 0. -1.
          1    1    1    2  502    0 -0.19955655153E+02  0.13064817915E+02  0.97956865257E+01  0.25785133590E+02  0.00000000000E+00 0. -1.
         -1    1    1    2    0  501  0.19955655153E+02 -0.13064817915E+02  0.22771168864E+02  0.32976412345E+02  0.00000000000E+00 0.  1.
</event>
<event>
 4    1  0.6934088E+001  0.4758802E+02  0.7546771E-02  0.1308983E+00
          2   -1    0    0  502    0  0.00000000000E+00  0.00000000000E+00  0.84108649607E+03  0.84108649607E+03  0.00000000000E+00 0. -1.
         -2   -1    0    0    0  501 -0.00000000000E+00 -0.00000000000E+00 -0.30096602515E+01  0.30096602515E+01  0.00000000000E+00 0.  1.
          1    1    1    2  502    0 -0.33817389874E+01  0.47467714197E+02  0.55604672972E+03  0.55807937221E+03  0.00000000000E+00 0. -1.
         -1    1    1    2    0  501  0.33817389874E+01 -0.47467714197E+02  0.28203010609E+03  0.28601678411E+03  0.00000000000E+00 0.  1.
</event>
<event>
 4    1  0.6934088E+001  0.2951945E+02  0.7546771E-02  0.1423819E+00
          2   -1    0    0  502    0  0.00000000000E+00  0.00000000000E+00  0.42237440183E+03  0.42237440183E+03  0.00000000000E+00 0. -1.
         -2   -1    0    0    0  501 -0.00000000000E+00 -0.00000000000E+00 -0.42062651129E+01  0.42062651129E+01  0.00000000000E+00 0.  1.
          1    1    1    2  502    0  0.68695046111E+01  0.28709015588E+02  0.36133199169E+03  0.36253579946E+03  0.00000000000E+00 0. -1.
         -1    1    1    2    0  501 -0.68695046111E+01 -0.28709015588E+02  0.56836145026E+02  0.64044867485E+02  0.00000000000E+00 0.  1.
</event>
<event>
 4    1  0.6934088E+001  0.2458378E+02  0.7546771E-02  0.1473514E+00
          2   -1    0    0  502    0  0.00000000000E+00  0.00000000000E+00  0.28465015343E+03  0.28465015343E+03  0.00000000000E+00 0.  1.
         -2   -1    0    0    0  501 -0.00000000000E+00 -0.00000000000E+00 -0.21388041774E+01  0.21388041774E+01  0.00000000000E+00 0. -1.
          1    1    1    2  502    0  0.31384534011E+01  0.24382620540E+02  0.15351356485E+03  0.15546953614E+03  0.00000000000E+00 0.  1.
         -1    1    1    2    0  501 -0.31384534011E+01 -0.24382620540E+02  0.12899778440E+03  0.13131942147E+03  0.00000000000E+00 0. -1.
</event>
<event>
 4    1  0.6934088E+001  0.3335414E+02  0.7546771E-02  0.1392518E+00
          2   -1    0    0  502    0  0.00000000000E+00  0.00000000000E+00  0.36804175939E+02  0.36804175939E+02  0.00000000000E+00 0.  1.
         -2   -1    0    0    0  501 -0.00000000000E+00 -0.00000000000E+00 -0.40222080641E+02  0.40222080641E+02  0.00000000000E+00 0. -1.
          1    1    1    2  502    0  0.26146602626E+01 -0.33251499943E+02 -0.20907065269E+02  0.39365010795E+02  0.00000000000E+00 0. -1.
         -1    1    1    2    0  501 -0.26146602626E+01  0.33251499943E+02  0.17489160566E+02  0.37661245785E+02  0.00000000000E+00 0.  1.
</event>
<event>
 4    1  0.6934088E+001  0.2644506E+02  0.7546771E-02  0.1453264E+00
          2   -1    0    0  502    0  0.00000000000E+00  0.00000000000E+00  0.28161071169E+03  0.28161071169E+03  0.00000000000E+00 0. -1.
         -2   -1    0    0    0  501 -0.00000000000E+00 -0.00000000000E+00 -0.26293673295E+01  0.26293673295E+01  0.00000000000E+00 0.  1.
          1    1    1    2  502    0 -0.22329818948E+02 -0.14167580426E+02  0.17298066471E+03  0.17499043263E+03  0.00000000000E+00 0. -1.
         -1    1    1    2    0  501  0.22329818948E+02  0.14167580426E+02  0.10600067966E+03  0.10924964639E+03  0.00000000000E+00 0.  1.
</event>
<event>
 4    1  0.6934088E+001  0.2007763E+02  0.7546771E-02  0.1532852E+00
          2   -1    0    0  502    0  0.00000000000E+00  0.00000000000E+00  0.11171668837E+04  0.11171668837E+04  0.00000000000E+00 0. -1.
         -2   -1    0    0    0  501 -0.00000000000E+00 -0.00000000000E+00 -0.42287242968E+00  0.42287242968E+00  0.00000000000E+00 0.  1.
          1    1    1    2  502    0 -0.18529817881E+02 -0.77302636545E+01  0.34433925949E+03  0.34492410289E+03  0.00000000000E+00 0.  1.
         -1    1    1    2    0  501  0.18529817881E+02  0.77302636545E+01  0.77240475178E+03  0.77266565324E+03  0.00000000000E+00 0. -1.
</event>
<event>
 4    1  0.6934088E+001  0.3268593E+02  0.7546771E-02  0.1397605E+00
          2   -1    0    0  502    0  0.00000000000E+00  0.00000000000E+00  0.25392652844E+03  0.25392652844E+03  0.00000000000E+00 0.  1.
         -2   -1    0    0    0  501 -0.00000000000E+00 -0.00000000000E+00 -0.43534345272E+01  0.43534345272E+01  0.00000000000E+00 0. -1.
          1    1    1    2  502    0  0.18945213064E+02 -0.26635487429E+02  0.14843885800E+03  0.15199495009E+03  0.00000000000E+00 0.  1.
         -1    1    1    2    0  501 -0.18945213064E+02  0.26635487429E+02  0.10113423591E+03  0.10628501288E+03  0.00000000000E+00 0. -1.
</event>
<event>
 4    1  0.6934088E+001  0.2609457E+02  0.7546771E-02  0.1456922E+00
          2   -1    0    0  502    0  0.00000000000E+00  0.00000000000E+00  0.18409369909E+01  0.18409369909E+01  0.00000000000E+00 0. -1.
         -2   -1    0    0    0  501 -0.00000000000E+00 -0.00000000000E+00 -0.56116693140E+03  0.56116693140E+03  0.00000000000E+00 0.  1.
          1    1    1    2  502    0  0.18083556791E+02 -0.18812536882E+02 -0.44401711619E+03  0.44478323489E+03  0.00000000000E+00 0. -1.
         -1    1    1    2    0  501 -0.18083556791E+02  0.18812536882E+02 -0.11530887822E+03  0.11822463350E+03  0.00000000000E+00 0.  1.
</event>
<event>
 4    1  0.6934088E+001  0.3791376E+02  0.7546771E-02  0.1361165E+00
          2   -1    0    0  502    0  0.00000000000E+00  0.00000000000E+00  0.32821059360E+03  0.32821059360E+03  0.00000000000E+00 0.  1.
         -2   -1    0    0    0  501 -0.00000000000E+00 -0.00000000000E+00 -0.44060131848E+01  0.44060131848E+01  0.00000000000E+00 0. -1.
          1    1    1    2  502    0  0.29580598216E+02  0.23715854539E+02  0.14904235395E+03  0.15378906599E+03  0.00000000000E+00 0. -1.
         -1    1    1    2    0  501 -0.29580598216E+02 -0.23715854539E+02  0.17476222647E+03  0.17882754080E+03  0.00000000000E+00 0.  1.
</event>
<event>
 4    1  0.6934088E+001  0.2424984E+02  0.7546771E-02  0.1477373E+00
          2   -1    0    0  502    0  0.00000000000E+00  0.00000000000E+00  0.37862433245E+01  0.37862433245E+01  0.00000000000E+00 0. -1.
         -2   -1    0    0    0  501 -0.00000000000E+00 -0.00000000000E+00 -0.16087132190E+03  0.16087132190E+03  0.00000000000E+00 0.  1.
          1    1    1    2  502    0 -0.24217135465E+02 -0.12590830477E+01 -0.93845034015E+02  0.96927526273E+02  0.00000000000E+00 0.  1.
         -1    1    1    2    0  501  0.24217135465E+02  0.12590830477E+01 -0.63240044556E+02  0.67730038946E+02  0.00000000000E+00 0. -1.
</event>
<event>
 4    1  0.6934088E+001  0.2373293E+02  0.7546771E-02  0.1483494E+00
          2   -1    0    0  502    0  0.00000000000E+00  0.00000000000E+00  0.42638463088E+03  0.42638463088E+03  0.00000000000E+00 0.  1.
         -2   -1    0    0    0  501 -0.00000000000E+00 -0.00000000000E+00 -0.13297080020E+01  0.13297080020E+01  0.00000000000E+00 0. -1.
          1    1    1    2  502    0 -0.62297898507E+01  0.22900689383E+02  0.19521591001E+03  0.19665325672E+03  0.00000000000E+00 0.  1.
         -1    1    1    2    0  501  0.62297898507E+01 -0.22900689383E+02  0.22983901287E+03  0.23106108217E+03  0.00000000000E+00 0. -1.
</event>
<event>
 4    1  0.6934088E+001  0.4540387E+02  0.7546771E-02  0.1319432E+00
          2   -1    0    0  502    0  0.00000000000E+00  0.00000000000E+00  0.12135969860E+04  0.12135969860E+04  0.00000000000E+00 0.  1.
         -2   -1    0    0    0  501 -0.00000000000E+00 -0.00000000000E+00 -0.31772269345E+01  0.31772269345E+01  0.00000000000E+00 0. -1.
          1    1    1    2  502    0 -0.29791424417E+02 -0.34263427371E+02  0.19018548628E+03  0.19553012713E+03  0.00000000000E+00 0. -1.
         -1    1    1    2    0  501  0.29791424417E+02  0.34263427371E+02  0.10202342728E+04  0.10212440858E+04  0.00000000000E+00 0.  1.
</event>
<event>
 4    1  0.6934088E+001  0.2507345E+02  0.7546771E-02  0.1467983E+00
          2   -1    0    0  502    0  0.00000000000E+00  0.00000000000E+00  0.16461462840E+02  0.16461462840E+02  0.00000000000E+00 0. -1.
         -2   -1    0    0    0  501 -0.00000000000E+00 -0.00000000000E+00 -0.72341445451E+02  0.72341445451E+02  0.00000000000E+00 0.  1.
          1    1    1    2  502    0  0.19750798681E+02 -0.15446161600E+02 -0.58447199985E+02  0.63598373743E+02  0.00000000000E+00 0.  1.
         -1    1    1    2    0  501 -0.19750798681E+02  0.15446161600E+02  0.25672173746E+01  0.25204534548E+02  0.00000000000E+00 0. -1.
</event>
<event>
 4    1  0.6934088E+001  0.2733523E+02  0.7546771E-02  0.1444269E+00
          2   -1    0    0  502    0  0.00000000000E+00  0.00000000000E+00  0.40954137225E+03  0.40954137225E+03  0.00000000000E+00 0. -1.
         -2   -1    0    0    0  501 -0.00000000000E+00 -0.00000000000E+00 -0.23987963469E+01  0.23987963469E+01  0.00000000000E+00 0.  1.
          1    1    1    2  502    0 -0.27019235054E+02  0.41443701195E+01  0.30435012914E+03  0.30557522147E+03  0.00000000000E+00 0.  1.
         -1    1    1    2    0  501  0.27019235054E+02 -0.41443701195E+01  0.10279244676E+03  0.10636494713E+03  0.00000000000E+00 0. -1.
</event>
<event>
 4    1  0.6934088E+001  0.2092866E+02  0.7546771E-02  0.1520286E+00
          2   -1    0    0  502    0  0.00000000000E+00  0.00000000000E+00  0.16392760848E+04  0.16392760848E+04  0.00000000000E+00 0. -1.
         -2   -1    0    0    0  501 -0.00000000000E+00 -0.00000000000E+00 -0.26722289804E+00  0.26722289804E+00  0.00000000000E+00 0.  1.
          1    1    1    2  502    0 -0.98182262244E+01  0.18482733344E+02  0.82763664648E+03  0.82790121850E+03  0.00000000000E+00 0. -1.
         -1    1    1    2    0  501  0.98182262244E+01 -0.18482733344E+02  0.81137221538E+03  0.81164208916E+03  0.00000000000E+00 0.  1.
</event>
<event>
 4    1  0.6934088E+001  0.2539438E+02  0.7546771E-02  0.1464440E+00
          2   -1    0    0  502    0  0.00000000000E+00  0.00000000000E+00  0.48601431171E+03  0.48601431171E+03  0.00000000000E+00 0.  1.
         -2   -1    0    0    0  501 -0.00000000000E+00 -0.00000000000E+00 -0.30137396124E+01  0.30137396124E+01  0.00000000000E+00 0. -1.
          1    1    1    2  502    0  0.38078228329E+01 -0.25107267601E+02  0.42443350352E+03  0.42519251323E+03  0.00000000000E+00 0.  1.
         -1    1    1    2    0  501 -0.38078228329E+01  0.25107267601E+02  0.58567068579E+02  0.63835538088E+02  0.00000000000E+00 0. -1.
</event>
<event>
 4    1  0.6934088E+001  0.3394246E+02  0.7546771E-02  0.1388154E+00
          2   -1    0    0  502    0  0.00000000000E+00  0.00000000000E+00  0.83781156636E+02  0.83781156636E+02  0.00000000000E+00 0. -1.
         -2   -1    0    0    0  501 -0.00000000000E+00 -0.00000000000E+00 -0.14772068347E+02  0.14772068347E+02  0.00000000000E+00 0.  1.
          1    1    1    2  502    0 -0.24046363096E+02  0.23955441877E+02  0.21550458785E+02  0.40205883245E+02  0.00000000000E+00 0. -1.
         -1    1    1    2    0  501  0.24046363096E+02 -0.23955441877E+02  0.47458629504E+02  0.58347341739E+02  0.00000000000E+00 0.  1.
</event>
<event>
 4    1  0.6934088E+001  0.2363252E+02  0.7546771E-02  0.1484705E+00
          2   -1    0    0  502    0  0.00000000000E+00  0.00000000000E+00  0.71333548027E+03  0.71333548027E+03  0.00000000000E+00 0. -1.
         -2   -1    0    0    0  501 -0.00000000000E+00 -0.00000000000E+00 -0.98764029947E+00  0.98764029947E+00  0.00000000000E+00 0.  1.
          1    1    1    2  502    0 -0.12570144114E+02 -0.20012179017E+02  0.19357072183E+03  0.19500800030E+03  0.00000000000E+00 0.  1.
         -1    1    1    2    0  501  0.12570144114E+02  0.20012179017E+02  0.51877711814E+03  0.51931512027E+03  0.00000000000E+00 0. -1.
</event>
<event>
 4    1  0.6934088E+001  0.5508441E+02  0.7546771E-02  0.1277515E+00
          2   -1    0    0  502    0  0.00000000000E+00  0.00000000000E+00  0.81454183521E+03  0.81454183521E+03  0.00000000000E+00 0. -1.
         -2   -1    0    0    0  501 -0.00000000000E+00 -0.00000000000E+00 -0.37325416833E+01  0.37325416833E+01  0.00000000000E+00 0.  1.
          1    1    1    2  502    0  0.40062951771E+02  0.37805447398E+02  0.42360946521E+03  0.42717592508E+03  0.00000000000E+00 0. -1.
         -1    1    1    2    0  501 -0.40062951771E+02 -0.37805447398E+02  0.38719982831E+03  0.39109845180E+03  0.00000000000E+00 0.  1.
</event>
<event>
 4    1  0.6934088E+001  0.7124698E+02  0.7546771E-02  0.1225770E+00
          2   -1    0    0  502    0  0.00000000000E+00  0.00000000000E+00  0.10906189240E+04  0.10906189240E+04  0.00000000000E+00 0. -1.
         -2   -1    0    0    0  501 -0.00000000000E+00 -0.00000000000E+00 -0.59104941638E+01  0.59104941638E+01  0.00000000000E+00 0.  1.
          1    1    1    2  502    0 -0.71159382770E+02  0.35319054948E+01  0.28960107177E+03  0.29823633730E+03  0.00000000000E+00 0.  1.
         -1    1    1    2    0  501  0.71159382770E+02 -0.35319054948E+01  0.79510735806E+03  0.79829308087E+03  0.00000000000E+00 0. -1.
</event>
<event>
 4    1  0.6934088E+001  0.5443832E+02  0.7546771E-02  0.1279997E+00
          2   -1    0    0  502    0  0.00000000000E+00  0.00000000000E+00  0.12466389602E+03  0.12466389602E+03  0.00000000000E+00 0.  1.
         -2   -1    0    0    0  501 -0.00000000000E+00 -0.00000000000E+00 -0.24617598949E+02  0.24617598949E+02  0.00000000000E+00 0. -1.
          1    1    1    2  502    0  0.52953464809E+02  0.12627817089E+02  0.63855370771E+02  0.83910902605E+02  0.00000000000E+00 0.  1.
         -1    1    1    2    0  501 -0.52953464809E+02 -0.12627817089E+02  0.36190926303E+02  0.65370592367E+02  0.00000000000E+00 0. -1.
</event>
<event>
 4    1  0.6934088E+001  0.2971350E+02  0.7546771E-02  0.1422103E+00
          2   -1    0    0  502    0  0.00000000000E+00  0.00000000000E+00  0.10159447446E+04  0.10159447446E+04  0.00000000000E+00 0. -1.
         -2   -1    0    0    0  501 -0.00000000000E+00 -0.00000000000E+00 -0.91810999414E+00  0.91810999414E+00  0.00000000000E+00 0.  1.
          1    1    1    2  502    0 -0.29620683787E+02  0.23467592097E+01  0.62506053288E+03  0.62576637969E+03  0.00000000000E+00 0. -1.
         -1    1    1    2    0  501  0.29620683787E+02 -0.23467592097E+01  0.38996610173E+03  0.39109647491E+03  0.00000000000E+00 0.  1.
</event>
<event>
 4    1  0.6934088E+001  0.5881456E+02  0.7546771E-02  0.1263914E+00
          2   -1    0    0  502    0  0.00000000000E+00  0.00000000000E+00  0.45351086861E+02  0.45351086861E+02  0.00000000000E+00 0.  1.
         -2   -1    0    0    0  501 -0.00000000000E+00 -0.00000000000E+00 -0.84368727885E+02  0.84368727885E+02  0.00000000000E+00 0. -1.
          1    1    1    2  502    0 -0.92613627380E+01  0.58080799146E+02 -0.39597949368E+02  0.70902395329E+02  0.00000000000E+00 0.  1.
         -1    1    1    2    0  501  0.92613627380E+01 -0.58080799146E+02  0.58030834376E+00  0.58817419418E+02  0.00000000000E+00 0. -1.
</event>
<event>
 4    1  0.6934088E+001  0.4545527E+02  0.7546771E-02  0.1319178E+00
          2   -1    0    0  502    0  0.00000000000E+00  0.00000000000E+00  0.26180637814E+04  0.26180637814E+04  0.00000000000E+00 0. -1.
         -2   -1    0    0    0  501 -0.00000000000E+00 -0.00000000000E+00 -0.10752056862E+01  0.10752056862E+01  0.00000000000E+00 0.  1.
          1    1    1    2  502    0  0.33763230415E+02  0.30433952285E+02  0.63308257690E+03  0.63471232094E+03  0.00000000000E+00 0. -1.
         -1    1    1    2    0  501 -0.33763230415E+02 -0.30433952285E+02  0.19839059988E+04  0.19844266662E+04  0.00000000000E+00 0.  1.
</event>
<event>
 4    1  0.6934088E+001  0.2056661E+02  0.7546771E-02  0.1525543E+00
          2   -1    0    0  502    0  0.00000000000E+00  0.00000000000E+00  0.13694590743E+03  0.13694590743E+03  0.00000000000E+00 0.  1.
         -2   -1    0    0    0  501 -0.00000000000E+00 -0.00000000000E+00 -0.32828581287E+02  0.32828581287E+02  0.00000000000E+00 0. -1.
          1    1    1    2  502    0 -0.13941848742E+02  0.15119858807E+02  0.13285393917E+03  0.13443643268E+03  0.00000000000E+00 0.  1.
         -1    1    1    2    0  501  0.13941848742E+02 -0.15119858807E+02 -0.28736613028E+02  0.35338056044E+02  0.00000000000E+00 0. -1.
</event>
<event>
 4    1  0.6934088E+001  0.2072406E+02  0.7546771E-02  0.1523241E+00
          2   -1    0    0  502    0  0.00000000000E+00  0.00000000000E+00  0.99917783490E+02  0.99917783490E+02  0.00000000000E+00 0. -1.
         -2   -1    0    0    0  501 -0.00000000000E+00 -0.00000000000E+00 -0.45122945446E+01  0.45122945446E+01  0.00000000000E+00 0.  1.
          1    1    1    2  502    0 -0.53493059181E+01  0.20021778641E+02  0.59071051483E+02  0.62600925050E+02  0.00000000000E+00 0. -1.
         -1    1    1    2    0  501  0.53493059181E+01 -0.20021778641E+02  0.36334437462E+02  0.41829152984E+02  0.00000000000E+00 0.  1.
</event>
<event>
 4    1  0.6934088E+001  0.2797817E+02  0.7546771E-02  0.1438022E+00
          2   -1    0    0  502    0  0.00000000000E+00  0.00000000000E+00  0.69593149266E+02  0.69593149266E+02  0.00000000000E+00 0. -1.
         -2   -1    0    0    0  501 -0.00000000000E+00 -0.00000000000E+00 -0.13124558987E+02  0.13124558987E+02  0.00000000000E+00 0.  1.
          1    1    1    2  502    0  0.92357592643E+01 -0.26409826130E+02  0.12595023528E+02  0.30682450735E+02  0.00000000000E+00 0.  1.
         -1    1    1    2    0  501 -0.92357592643E+01  0.26409826130E+02  0.43873566751E+02  0.52035257518E+02  0.00000000000E+00 0. -1.
</event>
<event>
 4    1  0.6934088E+001  0.2772898E+02  0.7546771E-02  0.1440420E+00
          2   -1    0    0  502    0  0.00000000000E+00  0.00000000000E+00  0.42242670959E+03  0.42242670959E+03  0.00000000000E+00 0.  1.
         -2   -1    0    0    0  501 -0.00000000000E+00 -0.00000000000E+00 -0.18837809970E+01  0.18837809970E+01  0.00000000000E+00 0. -1.
          1    1    1    2  502    0 -0.13460982562E+02  0.24242488993E+02  0.24925137306E+03  0.25078904142E+03  0.00000000000E+00 0.  1.
         -1    1    1    2    0  501  0.13460982562E+02 -0.24242488993E+02  0.17129155553E+03  0.17352144917E+03  0.00000000000E+00 0. -1.
</event>
<event>
 4    1  0.6934088E+001  0.3668474E+02  0.7546771E-02  0.1369091E+00
          2   -1    0    0  502    0  0.00000000000E+00  0.00000000000E+00  0.39063357614E+01  0.39063357614E+01  0.00000000000E+00 0. -1.
         -2   -1    0    0    0  501 -0.00000000000E+00 -0.00000000000E+00 -0.34550100158E+03  0.34550100158E+03  0.00000000000E+00 0.  1.
          1    1    1    2  502    0 -0.32957750884E+02  0.16110765674E+02 -0.18015581367E+03  0.18385289585E+03  0.00000000000E+00 0.  1.
         -1    1    1    2    0  501  0.32957750884E+02 -0.16110765674E+02 -0.16143885215E+03  0.16555444149E+03  0.00000000000E+00 0. -1.
</event>
<event>
 4    1  0.6934088E+001  0.2505799E+02  0.7546771E-02  0.1468156E+00
          2   -1    0    0  502    0  0.00000000000E+00  0.00000000000E+00  0.19165424526E+01  0.19165424526E+01  0.00000000000E+00 0.  1.
         -2   -1    0    0    0  501 -0.00000000000E+00 -0.00000000000E+00 -0.33865628881E+03  0.33865628881E+03  0.00000000000E+00 0. -1.
          1    1    1    2  502    0  0.23432273383E+02  0.88786985381E+01 -0.13763299563E+03  0.13989547601E+03  0.00000000000E+00 0. -1.
         -1    1    1    2    0  501 -0.23432273383E+02 -0.88786985381E+01 -0.19910675073E+03  0.20067735525E+03  0.00000000000E+00 0.  1.
</event>
<event>
 4    1  0.6934088E+001  0.3086835E+02  0.7546771E-02  0.1412197E+00
          2   -1    0    0  502    0  0.00000000000E+00  0.00000000000E+00  0.12217293696E+02  0.12217293696E+02  0.00000000000E+00 0.  1.
         -2   -1    0    0    0  501 -0.00000000000E+00 -0.00000000000E+00 -0.91655397120E+02  0.91655397120E+02  0.00000000000E+00 0. -1.
          1    1    1    2  502    0 -0.28994670099E+02  0.10590749319E+02 -0.19666626597E+02  0.36600970848E+02  0.00000000000E+00 0.  1.
         -1    1    1    2    0  501  0.28994670099E+02 -0.10590749319E+02 -0.59771476828E+02  0.67271719968E+02  0.00000000000E+00 0. -1.
</event>
<event>
 4    1  0.6934088E+001  0.2853395E+02  0.7546771E-02  0.1432779E+00
          2   -1    0    0  502    0  0.00000000000E+00  0.00000000000E+00  0.16497328042E+03  0.16497328042E+03  0.00000000000E+00 0. -1.
         -2   -1    0    0    0  501 -0.00000000000E+00 -0.00000000000E+00 -0.60119145471E+01  0.60119145471E+01  0.00000000000E+00 0.  1.
          1    1    1    2  502    0 -0.19849763097E+02  0.20498129294E+02  0.11565995736E+03  0.11912771355E+03  0.00000000000E+00 0. -1.
         -1    1    1    2    0  501  0.19849763097E+02 -0.20498129294E+02  0.43301408513E+02  0.51857481415E+02  0.00000000000E+00 0.  1.
</event>
<event>
 4    1  0.6934088E+001  0.2022468E+02  0.7546771E-02  0.1530628E+00
          2   -1    0    0  502    0  0.00000000000E+00  0.00000000000E+00  0.14813861932E+01  0.14813861932E+01  0.00000000000E+00 0.  1.
         -2   -1    0    0    0  501 -0.00000000000E+00 -0.00000000000E+00 -0.27948306273E+03  0.27948306273E+03  0.00000000000E+00 0. -1.
          1    1    1    2  502    0 -0.70683261959E+01 -0.18949312360E+02 -0.15441528564E+03  0.15573412636E+03  0.00000000000E+00 0. -1.
         -1    1    1    2    0  501  0.70683261959E+01  0.18949312360E+02 -0.12358639090E+03  0.12523032256E+03  0.00000000000E+00 0.  1.
</event>
<event>
 4    1  0.6934088E+001  0.4279066E+02  0.7546771E-02  0.1332865E+00
          2   -1    0    0  502    0  0.00000000000E+00  0.00000000000E+00  0.18006249416E+03  0.18006249416E+03  0.00000000000E+00 0. -1.
         -2   -1    0    0    0  501 -0.00000000000E+00 -0.00000000000E+00 -0.10492847095E+02  0.10492847095E+02  0.00000000000E+00 0.  1.
          1    1    1    2  502    0 -0.35050869707E+02  0.24545409097E+02  0.10152538597E+03  0.11017460947E+03  0.00000000000E+00 0. -1.
         -1    1    1    2    0  501  0.35050869707E+02 -0.24545409097E+02  0.68044261100E+02  0.80380731793E+02  0.00000000000E+00 0.  1.
</event>
<event>
 4    1  0.6934088E+001  0.2771325E+02  0.7546771E-02  0.1440572E+00
          2   -1    0    0  502    0  0.00000000000E+00  0.00000000000E+00  0.51776292943E+03  0.51776292943E+03  0.00000000000E+00 0.  1.
         -2   -1    0    0    0  501 -0.00000000000E+00 -0.00000000000E+00 -0.20785034617E+01  0.20785034617E+01  0.00000000000E+00 0. -1.
          1    1    1    2  502    0 -0.17744592862E+02 -0.21287407990E+02  0.11875745895E+03  0.12194817904E+03  0.00000000000E+00 0. -1.
         -1    1    1    2    0  501  0.17744592862E+02  0.21287407990E+02  0.39692696702E+03  0.39789325385E+03  0.00000000000E+00 0.  1.
</event>
<event>
 4    1  0.6934088E+001  0.5073475E+02  0.7546771E-02  0.1295018E+00
          2   -1    0    0  502    0  0.00000000000E+00  0.00000000000E+00  0.13565146556E+04  0.13565146556E+04  0.00000000000E+00 0.  1.
         -2   -1    0    0    0  501 -0.00000000000E+00 -0.00000000000E+00 -0.20936731306E+01  0.20936731306E+01  0.00000000000E+00 0. -1.
          1    1    1    2  502    0 -0.10570630414E+02  0.49621327444E+02  0.88513558594E+03  0.88658841627E+03  0.00000000000E+00 0.  1.
         -1    1    1    2    0  501  0.10570630414E+02 -0.49621327444E+02  0.46928539652E+03  0.47201991245E+03  0.00000000000E+00 0. -1.
</event>
<event>
 4    1  0.6934088E+001  0.2801056E+02  0.7546771E-02  0.1437713E+00
          2   -1    0    0  502    0  0.00000000000E+00  0.00000000000E+00  0.18494449582E+04  0.18494449582E+04  0.00000000000E+00 0. -1.
         -2   -1    0    0    0  501 -0.00000000000E+00 -0.00000000000E+00 -0.42425265749E+00  0.42425265749E+00  0.00000000000E+00 0.  1.
          1    1    1    2  502    0  0.28001392533E+02  0.71651592722E+00  0.93116039468E+03  0.93158159707E+03  0.00000000000E+00 0. -1.
         -1    1    1    2    0  501 -0.28001392533E+02 -0.71651592722E+00  0.91786031084E+03  0.91828761376E+03  0.00000000000E+00 0.  1.
</event>
<event>
 4    1  0.6934088E+001  0.2250389E+02  0.7546771E-02  0.1498824E+00
          2   -1    0    0  502    0  0.00000000000E+00  0.00000000000E+00  0.13687684586E+04  0.13687684586E+04  0.00000000000E+00 0. -1.
         -2   -1    0    0    0  501 -0.00000000000E+00 -0.00000000000E+00 -0.44929214574E+00  0.44929214574E+00  0.00000000000E+00 0.  1.
          1    1    1    2  502    0 -0.19121776077E+02  0.11865188638E+02  0.39653114436E+03  0.39716920005E+03  0.00000000000E+00 0.  1.
         -1    1    1    2    0  501  0.19121776077E+02 -0.11865188638E+02  0.97178802206E+03  0.97204855066E+03  0.00000000000E+00 0. -1.
</event>
<event>
 4    1  0.6934088E+001  0.4243796E+02  0.7546771E-02  0.1334763E+00
          2   -1    0    0  502    0  0.00000000000E+00  0.00000000000E+00  0.34646367312E+04  0.34646367312E+04  0.00000000000E+00 0. -1.
         -2   -1    0    0    0  501 -0.00000000000E+00 -0.00000000000E+00 -0.57026476416E+00  0.57026476416E+00  0.00000000000E+00 0.  1.
          1    1    1    2  502    0  0.22934066929E+02  0.35707262783E+02  0.12167118190E+04  0.12174516954E+04  0.00000000000E+00 0.  1.
         -1    1    1    2    0  501 -0.22934066929E+02 -0.35707262783E+02  0.22473546474E+04  0.22477553006E+04  0.00000000000E+00 0. -1.
</event>
<event>
 4    1  0.6934088E+001  0.3496329E+02  0.7546771E-02  0.1380821E+00
          2   -1    0    0  502    0  0.00000000000E+00  0.00000000000E+00  0.58815721249E+03  0.58815721249E+03  0.00000000000E+00 0. -1.
         -2   -1    0    0    0  501 -0.00000000000E+00 -0.00000000000E+00 -0.20784101043E+01  0.20784101043E+01  0.00000000000E+00 0.  1.
          1    1    1    2  502    0  0.21012545302E+02  0.27944672113E+02  0.29294175750E+03  0.29502085528E+03  0.00000000000E+00 0. -1.
         -1    1    1    2    0  501 -0.21012545302E+02 -0.27944672113E+02  0.29313704488E+03  0.29521476732E+03  0.00000000000E+00 0.  1.
</event>
<event>
 4    1  0.6934088E+001  0.2703935E+02  0.7546771E-02  0.1447213E+00
          2   -1    0    0  502    0  0.00000000000E+00  0.00000000000E+00  0.10711933208E+03  0.10711933208E+03  0.00000000000E+00 0. -1.
         -2   -1    0    0    0  501 -0.00000000000E+00 -0.00000000000E+00 -0.11315282918E+02  0.11315282918E+02  0.00000000000E+00 0.  1.
          1    1    1    2  502    0  0.21462954438E+02  0.16445912068E+02  0.10599682658E+02  0.29042722142E+02  0.00000000000E+00 0.  1.
         -1    1    1    2    0  501 -0.21462954438E+02 -0.16445912068E+02  0.85204366505E+02  0.89391892857E+02  0.00000000000E+00 0. -1.
</event>
<event>
 4    1  0.6934088E+001  0.3619127E+02  0.7546771E-02  0.1372376E+00
          2   -1    0    0  502    0  0.00000000000E+00  0.00000000000E+00  0.12371084094E+04  0.12371084094E+04  0.00000000000E+00 0.  1.
         -2   -1    0    0    0  501 -0.00000000000E+00 -0.00000000000E+00 -0.10607235871E+01  0.10607235871E+01  0.00000000000E+00 0. -1.
          1    1    1    2  502    0 -0.35918057963E+02 -0.44386104799E+01  0.59142732546E+03  0.59253361884E+03  0.00000000000E+00 0. -1.
         -1    1    1    2    0  501  0.35918057963E+02  0.44386104799E+01  0.64462036032E+03  0.64563551412E+03  0.00000000000E+00 0.  1.
</event>
<event>
 4    1  0.6934088E+001  0.2945930E+02  0.7546771E-02  0.1424354E+00
          2   -1    0    0  502    0  0.00000000000E+00  0.00000000000E+00  0.14018670270E+04  0.14018670270E+04  0.00000000000E+00 0. -1.
         -2   -1    0    0    0  501 -0.00000000000E+00 -0.00000000000E+00 -0.61929688271E+00  0.61929688271E+00  0.00000000000E+00 0.  1.
          1    1    1    2  502    0  0.48986072564E+01  0.29049164884E+02  0.68712840991E+03  0.68775962519E+03  0.00000000000E+00 0. -1.
         -1    1    1    2    0  501 -0.48986072564E+01 -0.29049164884E+02  0.71411932018E+03  0.71472669867E+03  0.00000000000E+00 0.  1.
</event>
<event>
 4    1  0.6934088E+001  0.2651308E+02  0.7546771E-02  0.1452562E+00
          2   -1    0    0  502    0  0.00000000000E+00  0.00000000000E+00  0.42983856175E+00  0.42983856175E+00  0.00000000000E+00 0.  1.
         -2   -1    0    0    0  501 -0.00000000000E+00 -0.00000000000E+00 -0.17488520966E+04  0.17488520966E+04  0.00000000000E+00 0. -1.
          1    1    1    2  502    0  0.60333781131E+00  0.26506216743E+02 -0.65140669319E+03  0.65194602804E+03  0.00000000000E+00 0.  1.
         -1    1    1    2    0  501 -0.60333781131E+00 -0.26506216743E+02 -0.10970155649E+04  0.10973359071E+04  0.00000000000E+00 0. -1.
</event>
<event>
 4    1  0.6934088E+001  0.2095608E+02  0.7546771E-02  0.1519893E+00
          2   -1    0    0  502    0  0.00000000000E+00  0.00000000000E+00  0.10033467850E+02  0.10033467850E+02  0.00000000000E+00 0. -1.
         -2   -1    0    0    0  501 -0.00000000000E+00 -0.00000000000E+00 -0.45427986266E+02  0.45427986266E+02  0.00000000000E+00 0.  1.
          1    1    1    2  502    0  0.42490540827E+01  0.20520786036E+02 -0.12398290587E+02  0.24349019069E+02  0.00000000000E+00 0.  1.
         -1    1    1    2    0  501 -0.42490540827E+01 -0.20520786036E+02 -0.22996227829E+02  0.31112435047E+02  0.00000000000E+00 0. -1.
</event>
<event>
 4    1  0.6934088E+001  0.8880697E+02  0.7546771E-02  0.1184758E+00
          2   -1    0    0  502    0  0.00000000000E+00  0.00000000000E+00  0.16943868458E+04  0.16943868458E+04  0.00000000000E+00 0.  1.
         -2   -1    0    0    0  501 -0.00000000000E+00 -0.00000000000E+00 -0.51435243428E+01  0.51435243428E+01  0.00000000000E+00 0. -1.
          1    1    1    2  502    0  0.82909094786E+02  0.31823887906E+02  0.58262645653E+03  0.58935580568E+03  0.00000000000E+00 0. -1.
         -1    1    1    2    0  501 -0.82909094786E+02 -0.31823887906E+02  0.11066168649E+04  0.11101745645E+04  0.00000000000E+00 0.  1.
</event>
<event>
 4    1  0.6934088E+001  0.2015368E+02  0.7546771E-02  0.1531699E+00
          2   -1    0    0  502    0  0.00000000000E+00  0.00000000000E+00  0.67128440073E+03  0.67128440073E+03  0.00000000000E+00 0.  1.
         -2   -1    0    0    0  501 -0.00000000000E+00 -0.00000000000E+00 -0.66414685801E+00  0.66414685801E+00  0.00000000000E+00 0. -1.
          1    1    1    2  502    0 -0.33193403512E+01  0.19878447074E+02  0.43551783535E+03  0.43598389373E+03  0.00000000000E+00 0.  1.
         -1    1    1    2    0  501  0.33193403512E+01 -0.19878447074E+02  0.23510241852E+03  0.23596465386E+03  0.00000000000E+00 0. -1.
</event>
<event>
 4    1  0.6934088E+001  0.2732776E+02  0.7546771E-02  0.1444343E+00
          2   -1    0    0  502    0  0.00000000000E+00  0.00000000000E+00  0.34814881063E+03  0.34814881063E+03  0.00000000000E+00 0. -1.
         -2   -1    0    0    0  501 -0.00000000000E+00 -0.00000000000E+00 -0.26706023659E+01  0.26706023659E+01  0.00000000000E+00 0.  1.
          1    1    1    2  502    0  0.15246858076E+02 -0.22679059122E+02  0.25055088892E+03  0.25203681148E+03  0.00000000000E+00 0. -1.
         -1    1    1    2    0  501 -0.15246858076E+02  0.22679059122E+02  0.94927319348E+02  0.98782601517E+02  0.00000000000E+00 0.  1.
</event>
<event>
 4    1  0.6934088E+001  0.5007950E+02  0.7546771E-02  0.1297828E+00
          2   -1    0    0  502    0  0.00000000000E+00  0.00000000000E+00  0.12055652895E+04  0.12055652895E+04  0.00000000000E+00 0.  1.
         -2   -1    0    0    0  501 -0.00000000000E+00 -0.00000000000E+00 -0.65440303138E+01  0.65440303138E+01  0.00000000000E+00 0. -1.
          1    1    1    2  502    0 -0.49656598887E+02 -0.64944603592E+01  0.98972257510E+02  0.11092097901E+03  0.00000000000E+00 0. -1.
         -1    1    1    2    0  501  0.49656598887E+02  0.64944603592E+01  0.11000490017E+04  0.11011883408E+04  0.00000000000E+00 0.  1.
</event>
<event>
 4    1  0.6934088E+001  0.2515388E+02  0.7546771E-02  0.1467089E+00
          2   -1    0    0  502    0  0.00000000000E+00  0.00000000000E+00  0.21828885378E+04  0.21828885378E+04  0.00000000000E+00 0.  1.
         -2   -1    0    0    0  501 -0.00000000000E+00 -0.00000000000E+00 -0.35870229089E+00  0.35870229089E+00  0.00000000000E+00 0. -1.
          1    1    1    2  502    0 -0.25152356583E+02  0.27706306584E+00  0.61301586412E+03  0.61353171676E+03  0.00000000000E+00 0.  1.
         -1    1    1    2    0  501  0.25152356583E+02 -0.27706306584E+00  0.15695139714E+04  0.15697155233E+04  0.00000000000E+00 0. -1.
</event>
<event>
 4    1  0.6934088E+001  0.4651830E+02  0.7546771E-02  0.1314017E+00
          2   -1    0    0  502    0  0.00000000000E+00  0.00000000000E+00  0.13959556702E+04  0.13959556702E+04  0.00000000000E+00 0.  1.
         -2   -1    0    0    0  501 -0.00000000000E+00 -0.00000000000E+00 -0.17504071253E+01  0.17504071253E+01  0.00000000000E+00 0. -1.
          1    1    1    2  502    0 -0.43540891644E+02 -0.16375079935E+02  0.93347741261E+03  0.93463577523E+03  0.00000000000E+00 0.  1.
         -1    1    1    2    0  501  0.43540891644E+02  0.16375079935E+02  0.46072785044E+03  0.46307030207E+03  0.00000000000E+00 0. -1.
</event>
<event>
 4    1  0.6934088E+001  0.2800496E+02  0.7546771E-02  0.1437766E+00
          2   -1    0    0  502    0  0.00000000000E+00  0.00000000000E+00  0.82401172275E+01  0.82401172275E+01  0.00000000000E+00 0. -1.
         -2   -1    0    0    0  501 -0.00000000000E+00 -0.00000000000E+00 -0.11258763441E+03  0.11258763441E+03  0.00000000000E+00 0.  1.
          1    1    1    2  502    0  0.27549630393E+02 -0.50294520209E+01 -0.75930491471E+02  0.80930322238E+02  0.00000000000E+00 0. -1.
         -1    1    1    2    0  501 -0.27549630393E+02  0.50294520209E+01 -0.28417025709E+02  0.39897429397E+02  0.00000000000E+00 0.  1.
</event>
<event>
 4    1  0.6934088E+001  0.2623714E+02  0.7546771E-02  0.1455425E+00
          2   -1    0    0  502    0  0.00000000000E+00  0.00000000000E+00  0.13610687972E+03  0.13610687972E+03  0.00000000000E+00 0.  1.
         -2   -1    0    0    0  501 -0.00000000000E+00 -0.00000000000E+00 -0.51698850138E+01  0.51698850138E+01  0.00000000000E+00 0. -1.
          1    1    1    2  502    0  0.50164676937E+00  0.26232341243E+02  0.75874244257E+02  0.80282553012E+02  0.00000000000E+00 0. -1.
         -1    1    1    2    0  501 -0.50164676937E+00 -0.26232341243E+02  0.55062750451E+02  0.60994211723E+02  0.00000000000E+00 0.  1.
</event>
<event>
 4    1  0.6934088E+001  0.2037552E+02  0.7546771E-02  0.1528371E+00
          2   -1    0    0  502    0  0.00000000000E+00  0.00000000000E+00  0.41082130225E+03  0.41082130225E+03  0.00000000000E+00 0.  1.
         -2   -1    0    0    0  501 -0.00000000000E+00 -0.00000000000E+00 -0.11825502940E+01  0.11825502940E+01  0.00000000000E+00 0. -1.
          1    1    1    2  502    0  0.17344260703E+02  0.10692912890E+02  0.12625842907E+03  0.12789195704E+03  0.00000000000E+00 0. -1.
         -1    1    1    2    0  501 -0.17344260703E+02 -0.10692912890E+02  0.28338032289E+03  0.28411189550E+03  0.00000000000E+00 0.  1.
</event>
<event>
 4    1  0.6934088E+001  0.3664679E+02  0.7546771E-02  0.1369341E+00
          2   -1    0    0  502    0  0.00000000000E+00  0.00000000000E+00  0.73148561195E+02  0.73148561195E+02  0.00000000000E+00 0.  1.
         -2   -1    0    0    0  501 -0.00000000000E+00 -0.00000000000E+00 -0.18773326806E+02  0.18773326806E+02  0.00000000000E+00 0. -1.
          1    1    1    2  502    0  0.20348040994E+02  0.30478587847E+02  0.34009625573E+02  0.49996417082E+02  0.00000000000E+00 0. -1.
         -1    1    1    2    0  501 -0.20348040994E+02 -0.30478587847E+02  0.20365608816E+02  0.41925470920E+02  0.00000000000E+00 0.  1.
</event>
<event>
 4    1  0.6934088E+001  0.2341699E+02  0.7546771E-02  0.1487327E+00
          2   -1    0    0  502    0  0.00000000000E+00  0.00000000000E+00  0.81410046046E+03  0.81410046046E+03  0.00000000000E+00 0. -1.
         -2   -1    0    0    0  501 -0.00000000000E+00 -0.00000000000E+00 -0.68190790454E+00  0.68190790454E+00  0.00000000000E+00 0.  1.
          1    1    1    2  502    0 -0.14544563752E+02 -0.18352414871E+02  0.36166713594E+03  0.36242443721E+03  0.00000000000E+00 0. -1.
         -1    1    1    2    0  501  0.14544563752E+02  0.18352414871E+02  0.45175141662E+03  0.45235793116E+03  0.00000000000E+00 0.  1.
</event>
<event>
 4    1  0.6934088E+001  0.2348000E+02  0.7546771E-02  0.1486557E+00
          2   -1    0    0  502    0  0.00000000000E+00  0.00000000000E+00  0.51787463739E+02  0.51787463739E+02  0.00000000000E+00 0.  1.
         -2   -1    0    0    0  501 -0.00000000000E+00 -0.00000000000E+00 -0.10647712277E+02  0.10647712277E+02  0.00000000000E+00 0. -1.
          1    1    1    2  502    0  0.13964870516E+02  0.18875718523E+02  0.20133685130E+02  0.30930173540E+02  0.00000000000E+00 0. -1.
         -1    1    1    2    0  501 -0.13964870516E+02 -0.18875718523E+02  0.21006066332E+02  0.31505002476E+02  0.00000000000E+00 0.  1.
</event>
<event>
 4    1  0.6934088E+001  0.2023893E+02  0.7546771E-02  0.1530414E+00
          2   -1    0    0  502    0  0.00000000000E+00  0.00000000000E+00  0.38799122082E+03  0.38799122082E+03  0.00000000000E+00 0. -1.
         -2   -1    0    0    0  501 -0.00000000000E+00 -0.00000000000E+00 -0.10826080202E+01  0.10826080202E+01  0.00000000000E+00 0.  1.
          1    1    1    2  502    0 -0.15731807349E+02  0.12732819185E+02  0.16280256565E+03  0.16405575220E+03  0.00000000000E+00 0. -1.
         -1    1    1    2    0  501  0.15731807349E+02 -0.12732819185E+02  0.22410604715E+03  0.22501807665E+03  0.00000000000E+00 0.  1.
</event>
<event>
 4    1  0.6934088E+001  0.2210019E+02  0.7546771E-02  0.1504117E+00
          2   -1    0    0  502    0  0.00000000000E+00  0.00000000000E+00  0.60752146209E+01  0.60752146209E+01  0.00000000000E+00 0.  1.
         -2   -1    0    0    0  501 -0.00000000000E+00 -0.00000000000E+00 -0.84542312019E+02  0.84542312019E+02  0.00000000000E+00 0. -1.
          1    1    1    2  502    0 -0.93745427385E+01 -0.20013403219E+02 -0.29198586443E+02  0.36619336562E+02  0.00000000000E+00 0. -1.
         -1    1    1    2    0  501  0.93745427385E+01  0.20013403219E+02 -0.49268510955E+02  0.53998190078E+02  0.00000000000E+00 0.  1.
</event>
<event>
 4    1  0.6934088E+001  0.2120713E+02  0.7546771E-02  0.1516328E+00
          2   -1    0    0  502    0  0.00000000000E+00  0.00000000000E+00  0.18079428753E+03  0.18079428753E+03  0.00000000000E+00 0. -1.
         -2   -1    0    0    0  501 -0.00000000000E+00 -0.00000000000E+00 -0.33171300292E+01  0.33171300292E+01  0.00000000000E+00 0.  1.
          1    1    1    2  502    0 -0.16007092932E+01 -0.21146632677E+02  0.42703621563E+02  0.47679572549E+02  0.00000000000E+00 0.  1.
         -1    1    1    2    0  501  0.16007092932E+01  0.21146632677E+02  0.13477353594E+03  0.13643184501E+03  0.00000000000E+00 0. -1.
</event>
<event>
 4    1  0.6934088E+001  0.2315378E+02  0.7546771E-02  0.1490576E+00
          2   -1    0    0  502    0  0.00000000000E+00  0.00000000000E+00  0.16329807903E+04  0.16329807903E+04  0.00000000000E+00 0.  1.
         -2   -1    0    0    0  501 -0.00000000000E+00 -0.00000000000E+00 -0.36277692126E+00  0.36277692126E+00  0.00000000000E+00 0. -1.
          1    1    1    2  502    0 -0.18796298758E+02  0.13520232754E+02  0.10680945168E+04  0.10683454471E+04  0.00000000000E+00 0.  1.
         -1    1    1    2    0  501  0.18796298758E+02 -0.13520232754E+02  0.56452349664E+03  0.56499812017E+03  0.00000000000E+00 0. -1.
</event>
<event>
 4    1  0.6934088E+001  0.2342870E+02  0.7546771E-02  0.1487184E+00
          2   -1    0    0  502    0  0.00000000000E+00  0.00000000000E+00  0.31185998725E+03  0.31185998725E+03  0.00000000000E+00 0.  1.
         -2   -1    0    0    0  501 -0.00000000000E+00 -0.00000000000E+00 -0.34007300629E+01  0.34007300629E+01  0.00000000000E+00 0. -1.
          1    1    1    2  502    0  0.22864335167E+02 -0.51113614652E+01  0.44743396868E+02  0.50506191719E+02  0.00000000000E+00 0. -1.
         -1    1    1    2    0  501 -0.22864335167E+02  0.51113614652E+01  0.26371586032E+03  0.26475452560E+03  0.00000000000E+00 0.  1.
</event>
<event>
 4    1  0.6934088E+001  0.2712464E+02  0.7546771E-02  0.1446360E+00
          2   -1    0    0  502    0  0.00000000000E+00  0.00000000000E+00  0.53324404910E+03  0.53324404910E+03  0.00000000000E+00 0.  1.
         -2   -1    0    0    0  501 -0.00000000000E+00 -0.00000000000E+00 -0.14286471734E+01  0.14286471734E+01  0.00000000000E+00 0. -1.
          1    1    1    2  502    0 -0.27605046003E+01  0.26983805713E+02  0.31536325576E+03  0.31652761213E+03  0.00000000000E+00 0.  1.
         -1    1    1    2    0  501  0.27605046003E+01 -0.26983805713E+02  0.21645214617E+03  0.21814508414E+03  0.00000000000E+00 0. -1.
</event>
<event>
 4    1  0.6934088E+001  0.2586733E+02  0.7546771E-02  0.1459330E+00
          2   -1    0    0  502    0  0.00000000000E+00  0.00000000000E+00  0.13688891344E+04  0.13688891344E+04  0.00000000000E+00 0. -1.
         -2   -1    0    0    0  501 -0.00000000000E+00 -0.00000000000E+00 -0.49068355343E+00  0.49068355343E+00  0.00000000000E+00 0.  1.
          1    1    1    2  502    0  0.25123931374E+02  0.61568499222E+01  0.64182518230E+03  0.64234623324E+03  0.00000000000E+00 0.  1.
         -1    1    1    2    0  501 -0.25123931374E+02 -0.61568499222E+01  0.72657326851E+03  0.72703358468E+03  0.00000000000E+00 0. -1.
</event>
<event>
 4    1  0.6934088E+001  0.2351508E+02  0.7546771E-02  0.1486130E+00
          2   -1    0    0  502    0  0.00000000000E+00  0.00000000000E+00  0.14154317319E+04  0.14154317319E+04  0.00000000000E+00 0.  1.
         -2   -1    0    0    0  501 -0.00000000000E+00 -0.00000000000E+00 -0.40102833217E+00  0.40102833217E+00  0.00000000000E+00 0. -1.
          1    1    1    2  502    0 -0.23503960624E+02  0.72322312070E+00  0.82131747705E+03  0.82165403749E+03  0.00000000000E+00 0.  1.
         -1    1    1    2    0  501  0.23503960624E+02 -0.72322312070E+00  0.59371322654E+03  0.59417872276E+03  0.00000000000E+00 0. -1.
</event>
<event>
 4    1  0.6934088E+001  0.3952487E+02  0.7546771E-02  0.1351293E+00
          2   -1    0    0  502    0  0.00000000000E+00  0.00000000000E+00  0.88037921121E+03  0.88037921121E+03  0.00000000000E+00 0.  1.
         -2   -1    0    0    0  501 -0.00000000000E+00 -0.00000000000E+00 -0.20248429170E+01  0.20248429170E+01  0.00000000000E+00 0. -1.
          1    1    1    2  502    0  0.26073616923E+02  0.29704919489E+02  0.59431811748E+03  0.59563096000E+03  0.00000000000E+00 0.  1.
         -1    1    1    2    0  501 -0.26073616923E+02 -0.29704919489E+02  0.28403625081E+03  0.28677309413E+03  0.00000000000E+00 0. -1.
</event>
<event>
 4    1  0.6934088E+001  0.2310387E+02  0.7546771E-02  0.1491198E+00
          2   -1    0    0  502    0  0.00000000000E+00  0.00000000000E+00  0.10084719480E+02  0.10084719480E+02  0.00000000000E+00 0. -1.
         -2   -1    0    0    0  501 -0.00000000000E+00 -0.00000000000E+00 -0.54152549581E+02  0.54152549581E+02  0.00000000000E+00 0.  1.
          1    1    1    2  502    0  0.15691748913E+02 -0.16957526931E+02 -0.17208867897E+02  0.28808572299E+02  0.00000000000E+00 0.  1.
         -1    1    1    2    0  501 -0.15691748913E+02  0.16957526931E+02 -0.26858962205E+02  0.35428696763E+02  0.00000000000E+00 0. -1.
</event>
<event>
 4    1  0.6934088E+001  0.4549071E+02  0.7546771E-02  0.1319004E+00
          2   -1    0    0  502    0  0.00000000000E+00  0.00000000000E+00  0.34906259989E+04  0.34906259989E+04  0.00000000000E+00 0.  1.
         -2   -1    0    0    0  501 -0.00000000000E+00 -0.00000000000E+00 -0.68755913387E+00  0.68755913387E+00  0.00000000000E+00 0. -1.
          1    1    1    2  502    0  0.42252267137E+02 -0.16856769868E+02  0.23928695590E+04  0.23933019307E+04  0.00000000000E+00 0.  1.
         -1    1    1    2    0  501 -0.42252267137E+02  0.16856769868E+02  0.10970688807E+04  0.10980116274E+04  0.00000000000E+00 0. -1.
</event>
<event>
 4    1  0.6934088E+001  0.4287841E+02  0.7546771E-02  0.1332397E+00
          2   -1    0    0  502    0  0.00000000000E+00  0.00000000000E+00  0.76423376212E+01  0.76423376212E+01  0.00000000000E+00 0. -1.
         -2   -1    0    0    0  501 -0.00000000000E+00 -0.00000000000E+00 -0.26673912863E+03  0.26673912863E+03  0.00000000000E+00 0.  1.
          1    1    1    2  502    0 -0.29086819719E+02  0.31504209889E+02 -0.86581759951E+02  0.96617594041E+02  0.00000000000E+00 0.  1.
         -1    1    1    2    0  501  0.29086819719E+02 -0.31504209889E+02 -0.17251503106E+03  0.17776387221E+03  0.00000000000E+00 0. -1.
</event>
<event>
 4    1  0.6934088E+001  0.2054072E+02  0.7546771E-02  0.1525924E+00
          2   -1    0    0  502    0  0.00000000000E+00  0.00000000000E+00  0.65489110805E+01  0.65489110805E+01  0.00000000000E+00 0.  1.
         -2   -1    0    0    0  501 -0.00000000000E+00 -0.00000000000E+00 -0.66451645405E+02  0.66451645405E+02  0.00000000000E+00 0. -1.
          1    1    1    2  502    0  0.17771161877E+02  0.10300826897E+02 -0.23578904885E+02  0.31271168587E+02  0.00000000000E+00 0. -1.
         -1    1    1    2    0  501 -0.17771161877E+02 -0.10300826897E+02 -0.36323829439E+02  0.41729387898E+02  0.00000000000E+00 0.  1.
</event>
<event>
 4    1  0.6934088E+001  0.2072912E+02  0.7546771E-02  0.1523168E+00
          2   -1    0    0  502    0  0.00000000000E+00  0.00000000000E+00  0.92340490897E+00  0.92340490897E+00  0.00000000000E+00 0.  1.
         -2   -1    0    0    0  501 -0.00000000000E+00 -0.00000000000E+00 -0.50356243107E+03  0.50356243107E+03  0.00000000000E+00 0. -1.
          1    1    1    2  502    0  0.20699190012E+02 -0.11134989403E+01 -0.32081505886E+03  0.32148405612E+03  0.00000000000E+00 0.  1.
         -1    1    1    2    0  501 -0.20699190012E+02  0.11134989403E+01 -0.18182396730E+03  0.18300177986E+03  0.00000000000E+00 0. -1.
</event>
<event>
 4    1  0.6934088E+001  0.2458740E+02  0.7546771E-02  0.1473472E+00
          2   -1    0    0  502    0  0.00000000000E+00  0.00000000000E+00  0.18369874367E+03  0.18369874367E+03  0.00000000000E+00 0. -1.
         -2   -1    0    0    0  501 -0.00000000000E+00 -0.00000000000E+00 -0.33063011984E+01  0.33063011984E+01  0.00000000000E+00 0.  1.
          1    1    1    2  502    0 -0.24587250185E+02  0.84389627940E-01  0.96571276148E+02  0.99652151859E+02  0.00000000000E+00 0. -1.
         -1    1    1    2    0  501  0.24587250185E+02 -0.84389627940E-01  0.83821166327E+02  0.87352893012E+02  0.00000000000E+00 0.  1.
</event>
<event>
 4    1  0.6934088E+001  0.2761239E+02  0.7546771E-02  0.1441552E+00
          2   -1    0    0  502    0  0.00000000000E+00  0.00000000000E+00  0.97472890652E+01  0.97472890652E+01  0.00000000000E+00 0. -1.
         -2   -1    0    0    0  501 -0.00000000000E+00 -0.00000000000E+00 -0.78421405808E+02  0.78421405808E+02  0.00000000000E+00 0.  1.
          1    1    1    2  502    0  0.92845438674E+01  0.26004637128E+02 -0.36564917979E+02  0.45819615164E+02  0.00000000000E+00 0.  1.
         -1    1    1    2    0  501 -0.92845438674E+01 -0.26004637128E+02 -0.32109198764E+02  0.42349079709E+02  0.00000000000E+00 0. -1.
</event>
<event>
 4    1  0.6934088E+001  0.2293052E+02  0.7546771E-02  0.1493373E+00
          2   -1    0    0  502    0  0.00000000000E+00  0.00000000000E+00  0.56699912741E+01  0.56699912741E+01  0.00000000000E+00 0. -1.
         -2   -1    0    0    0  501 -0.00000000000E+00 -0.00000000000E+00 -0.94460958652E+02  0.94460958652E+02  0.00000000000E+00 0.  1.
          1    1    1    2  502    0 -0.12729001844E+02  0.19073046186E+02 -0.51162299484E+02  0.56065938566E+02  0.00000000000E+00 0. -1.
         -1    1    1    2    0  501  0.12729001844E+02 -0.19073046186E+02 -0.37628667894E+02  0.44065011361E+02  0.00000000000E+00 0.  1.
</event>
<event>
 4    1  0.6934088E+001  0.2029435E+02  0.7546771E-02  0.1529583E+00
          2   -1    0    0  502    0  0.00000000000E+00  0.00000000000E+00  0.18127455528E+04  0.18127455528E+04  0.00000000000E+00 0.  1.
         -2   -1    0    0    0  501 -0.00000000000E+00 -0.00000000000E+00 -0.24696131234E+00  0.24696131234E+00  0.00000000000E+00 0. -1.
          1    1    1    2  502    0 -0.20080785778E+02 -0.29364611053E+01  0.11626559578E+04  0.11628330649E+04  0.00000000000E+00 0.  1.
         -1    1    1    2    0  501  0.20080785778E+02  0.29364611053E+01  0.64984263372E+03  0.65015944919E+03  0.00000000000E+00 0. -1.
</event>
<event>
 4    1  0.6934088E+001  0.2494353E+02  0.7546771E-02  0.1469436E+00
          2   -1    0    0  502    0  0.00000000000E+00  0.00000000000E+00  0.54950586237E+03  0.54950586237E+03  0.00000000000E+00 0.  1.
         -2   -1    0    0    0  501 -0.00000000000E+00 -0.00000000000E+00 -0.11338470490E+01  0.11338470490E+01  0.00000000000E+00 0. -1.
          1    1    1    2  502    0  0.21838992527E+02  0.12051477237E+02  0.26386310204E+03  0.26503946181E+03  0.00000000000E+00 0.  1.
         -1    1    1    2    0  501 -0.21838992527E+02 -0.12051477237E+02  0.28450891328E+03  0.28560024761E+03  0.00000000000E+00 0. -1.
</event>
<event>
 4    1  0.6934088E+001  0.4024572E+02  0.7546771E-02  0.1347052E+00
          2   -1    0    0  502    0  0.00000000000E+00  0.00000000000E+00  0.20836401513E+02  0.20836401513E+02  0.00000000000E+00 0.  1.
         -2   -1    0    0    0  501 -0.00000000000E+00 -0.00000000000E+00 -0.77880088781E+02  0.77880088781E+02  0.00000000000E+00 0. -1.
          1    1    1    2  502    0 -0.44320642356E+01 -0.40000937569E+02 -0.30652068582E+02  0.50589203474E+02  0.00000000000E+00 0.  1.
         -1    1    1    2    0  501  0.44320642356E+01  0.40000937569E+02 -0.26391618686E+02  0.48127286820E+02  0.00000000000E+00 0. -1.
</event>
<event>
 4    1  0.6934088E+001  0.2861998E+02  0.7546771E-02  0.1431980E+00
          2   -1    0    0  502    0  0.00000000000E+00  0.00000000000E+00  0.22826044116E+03  0.22826044116E+03  0.00000000000E+00 0.  1.
         -2   -1    0    0    0  501 -0.00000000000E+00 -0.00000000000E+00 -0.61469241186E+01  0.61469241186E+01  0.00000000000E+00 0. -1.
          1    1    1    2  502    0 -0.28581691587E+02 -0.14800028017E+01  0.35442798666E+02  0.45555411090E+02  0.00000000000E+00 0. -1.
         -1    1    1    2    0  501  0.28581691587E+02  0.14800028017E+01  0.18667071837E+03  0.18885195418E+03  0.00000000000E+00 0.  1.
</event>
<event>
 4    1  0.6934088E+001  0.2571908E+02  0.7546771E-02  0.1460918E+00
          2   -1    0    0  502    0  0.00000000000E+00  0.00000000000E+00  0.17268821120E+04  0.17268821120E+04  0.00000000000E+00 0. -1.
         -2   -1    0    0    0  501 -0.00000000000E+00 -0.00000000000E+00 -0.50102802010E+00  0.50102802010E+00  0.00000000000E+00 0.  1.
          1    1    1    2  502    0 -0.25699909490E+02 -0.99279888795E+00  0.12823122522E+04  0.12825701475E+04  0.00000000000E+00 0. -1.
         -1    1    1    2    0  501  0.25699909490E+02  0.99279888795E+00  0.44406883179E+03  0.44481299257E+03  0.00000000000E+00 0.  1.
</event>
<event>
 4    1  0.6934088E+001  0.2628731E+02  0.7546771E-02  0.1454902E+00
          2   -1    0    0  502    0  0.00000000000E+00  0.00000000000E+00  0.19083801524E+02  0.19083801524E+02  0.00000000000E+00 0.  1.
         -2   -1    0    0    0  501 -0.00000000000E+00 -0.00000000000E+00 -0.36558474630E+02  0.36558474630E+02  0.00000000000E+00 0. -1.
          1    1    1    2  502    0 -0.25728225337E+02  0.53926643068E+01 -0.11453983704E+02  0.28674311674E+02  0.00000000000E+00 0. -1.
         -1    1    1    2    0  501  0.25728225337E+02 -0.53926643068E+01 -0.60206894031E+01  0.26967964480E+02  0.00000000000E+00 0.  1.
</event>
<event>
 4    1  0.6934088E+001  0.2042627E+02  0.7546771E-02  0.1527616E+00
          2   -1    0    0  502    0  0.00000000000E+00  0.00000000000E+00  0.17114417856E+02  0.17114417856E+02  0.00000000000E+00 0. -1.
         -2   -1    0    0    0  501 -0.00000000000E+00 -0.00000000000E+00 -0.11723042707E+03  0.11723042707E+03  0.00000000000E+00 0.  1.
          1    1    1    2  502    0 -0.19999970987E+02  0.41513642687E+01 -0.10983926834E+03  0.11172241286E+03  0.00000000000E+00 0.  1.
         -1    1    1    2    0  501  0.19999970987E+02 -0.41513642687E+01  0.97232591260E+01  0.22622432071E+02  0.00000000000E+00 0. -1.
</event>
<event>
 4    1  0.6934088E+001  0.6016469E+02  0.7546771E-02  0.1259274E+00
          2   -1    0    0  502    0  0.00000000000E+00  0.00000000000E+00  0.15572475088E+04  0.15572475088E+04  0.00000000000E+00 0. -1.
         -2   -1    0    0    0  501 -0.00000000000E+00 -0.00000000000E+00 -0.23303874213E+01  0.23303874213E+01  0.00000000000E+00 0.  1.
          1    1    1    2  502    0 -0.41015893587E+02 -0.44016883557E+02  0.73819510448E+03  0.74064283015E+03  0.00000000000E+00 0.  1.
         -1    1    1    2    0  501  0.41015893587E+02  0.44016883557E+02  0.81672201690E+03  0.81893506608E+03  0.00000000000E+00 0. -1.
</event>
<event>
 4    1  0.6934088E+001  0.2041476E+02  0.7546771E-02  0.1527787E+00
          2   -1    0    0  502    0  0.00000000000E+00  0.00000000000E+00  0.36030189029E+03  0.36030189029E+03  0.00000000000E+00 0.  1.
         -2   -1    0    0    0  501 -0.00000000000E+00 -0.00000000000E+00 -0.11600750842E+01  0.11600750842E+01  0.00000000000E+00 0. -1.
          1    1    1    2  502    0 -0.17689276647E+02  0.10190766343E+02  0.16982667189E+03  0.17104929322E+03  0.00000000000E+00 0. -1.
         -1    1    1    2    0  501  0.17689276647E+02 -0.10190766343E+02  0.18931514331E+03  0.19041267215E+03  0.00000000000E+00 0.  1.
</event>
<event>
 4    1  0.6934088E+001  0.3785377E+02  0.7546771E-02  0.1361543E+00
          2   -1    0    0  502    0  0.00000000000E+00  0.00000000000E+00  0.49835214918E+02  0.49835214918E+02  0.00000000000E+00 0.  1.
         -2   -1    0    0    0  501 -0.00000000000E+00 -0.00000000000E+00 -0.41705759846E+02  0.41705759846E+02  0.00000000000E+00 0. -1.
          1    1    1    2  502    0 -0.10578942134E+02  0.36345475270E+02  0.29572359162E+02  0.48035736860E+02  0.00000000000E+00 0.  1.
         -1    1    1    2    0  501  0.10578942134E+02 -0.36345475270E+02 -0.21442904090E+02  0.43505237904E+02  0.00000000000E+00 0. -1.
</event>
<event>
 4    1  0.6934088E+001  0.3452824E+02  0.7546771E-02  0.1383910E+00
          2   -1    0    0  502    0  0.00000000000E+00  0.00000000000E+00  0.58408131709E+03  0.58408131709E+03  0.00000000000E+00 0.  1.
         -2   -1    0    0    0  501 -0.00000000000E+00 -0.00000000000E+00 -0.28066578645E+01  0.28066578645E+01  0.00000000000E+00 0. -1.
          1    1    1    2  502    0 -0.31339081290E+02 -0.14493504657E+02  0.44388866951E+03  0.44522954822E+03  0.00000000000E+00 0.  1.
         -1    1    1    2    0  501  0.31339081290E+02  0.14493504657E+02  0.13738598972E+03  0.14165842673E+03  0.00000000000E+00 0. -1.
</event>
<event>
 4    1  0.6934088E+001  0.2128988E+02  0.7546771E-02  0.1515166E+00
          2   -1    0    0  502    0  0.00000000000E+00  0.00000000000E+00  0.13557088319E+01  0.13557088319E+01  0.00000000000E+00 0. -1.
         -2   -1    0    0    0  501 -0.00000000000E+00 -0.00000000000E+00 -0.33615031847E+03  0.33615031847E+03  0.00000000000E+00 0.  1.
          1    1    1    2  502    0  0.14514787526E+02 -0.15574975713E+02 -0.15499117186E+03  0.15644654768E+03  0.00000000000E+00 0.  1.
         -1    1    1    2    0  501 -0.14514787526E+02  0.15574975713E+02 -0.17980343778E+03  0.18105947963E+03  0.00000000000E+00 0. -1.
</event>
<event>
 4    1  0.6934088E+001  0.5031655E+02  0.7546771E-02  0.1296806E+00
          2   -1    0    0  502    0  0.00000000000E+00  0.00000000000E+00  0.20116843057E+03  0.20116843057E+03  0.00000000000E+00 0.  1.
         -2   -1    0    0    0  501 -0.00000000000E+00 -0.00000000000E+00 -0.13513990215E+02  0.13513990215E+02  0.00000000000E+00 0. -1.
          1    1    1    2  502    0  0.33979204620E+02  0.37110232137E+02  0.65687419464E+02  0.82744140286E+02  0.00000000000E+00 0.  1.
         -1    1    1    2    0  501 -0.33979204620E+02 -0.37110232137E+02  0.12196702089E+03  0.13193828049E+03  0.00000000000E+00 0. -1.
</event>
<event>
 4    1  0.6934088E+001  0.2543078E+02  0.7546771E-02  0.1464042E+00
          2   -1    0    0  502    0  0.00000000000E+00  0.00000000000E+00  0.11427415784E+04  0.11427415784E+04  0.00000000000E+00 0. -1.
         -2   -1    0    0    0  501 -0.00000000000E+00 -0.00000000000E+00 -0.73323491937E+00  0.73323491937E+00  0.00000000000E+00 0.  1.
          1    1    1    2  502    0  0.76828659894E+01 -0.24242483179E+02  0.84409995343E+03  0.84448295175E+03  0.00000000000E+00 0. -1.
         -1    1    1    2    0  501 -0.76828659894E+01  0.24242483179E+02  0.29790839004E+03  0.29899186155E+03  0.00000000000E+00 0.  1.
</event>
<event>
 4    1  0.6934088E+001  0.2063899E+02  0.7546771E-02  0.1524482E+00
          2   -1    0    0  502    0  0.00000000000E+00  0.00000000000E+00  0.10962828836E+04  0.10962828836E+04  0.00000000000E+00 0.  1.
         -2   -1    0    0    0  501 -0.00000000000E+00 -0.00000000000E+00 -0.59279678836E+00  0.59279678836E+00  0.00000000000E+00 0. -1.
          1    1    1    2  502    0  0.18258959673E+02  0.96217612382E+01  0.22592713104E+03  0.22686788322E+03  0.00000000000E+00 0. -1.
         -1    1    1    2    0  501 -0.18258959673E+02 -0.96217612382E+01  0.86976295576E+03  0.87000779715E+03  0.00000000000E+00 0.  1.
</event>
<event>
 4    1  0.6934088E+001  0.2007670E+02  0.7546771E-02  0.1532867E+00
          2   -1    0    0  502    0  0.00000000000E+00  0.00000000000E+00  0.15367112928E+01  0.15367112928E+01  0.00000000000E+00 0. -1.
         -2   -1    0    0    0  501 -0.00000000000E+00 -0.00000000000E+00 -0.28351810481E+03  0.28351810481E+03  0.00000000000E+00 0.  1.
          1    1    1    2  502    0 -0.18520764121E+02  0.77495147894E+01 -0.10199657282E+03  0.10395371350E+03  0.00000000000E+00 0. -1.
         -1    1    1    2    0  501  0.18520764121E+02 -0.77495147894E+01 -0.17998482070E+03  0.18110110260E+03  0.00000000000E+00 0.  1.
</event>
<event>
 4    1  0.6934088E+001  0.3045463E+02  0.7546771E-02  0.1415686E+00
          2   -1    0    0  502    0  0.00000000000E+00  0.00000000000E+00  0.12470998569E+04  0.12470998569E+04  0.00000000000E+00 0. -1.
         -2   -1    0    0    0  501 -0.00000000000E+00 -0.00000000000E+00 -0.77820344973E+00  0.77820344973E+00  0.00000000000E+00 0.  1.
          1    1    1    2  502    0 -0.28294558041E+02 -0.11265092993E+02  0.49180624883E+03  0.49274828333E+03  0.00000000000E+00 0.  1.
         -1    1    1    2    0  501  0.28294558041E+02  0.11265092993E+02  0.75451540460E+03  0.75512977700E+03  0.00000000000E+00 0. -1.
</event>
<event>
 4    1  0.6934088E+001  0.2424883E+02  0.7546771E-02  0.1477385E+00
          2   -1    0    0  502    0  0.00000000000E+00  0.00000000000E+00  0.49201576618E+03  0.49201576618E+03  0.00000000000E+00 0. -1.
         -2   -1    0    0    0  501 -0.00000000000E+00 -0.00000000000E+00 -0.13355795811E+01  0.13355795811E+01  0.00000000000E+00 0.  1.
          1    1    1    2  502    0  0.22970374666E+02  0.77696560419E+01  0.16533723584E+03  0.16710597603E+03  0.00000000000E+00 0. -1.
         -1    1    1    2    0  501 -0.22970374666E+02 -0.77696560419E+01  0.32534295076E+03  0.32624536973E+03  0.00000000000E+00 0.  1.
</event>
<event>
 4    1  0.6934088E+001  0.3271114E+02  0.7546771E-02  0.1397410E+00
          2   -1    0    0  502    0  0.00000000000E+00  0.00000000000E+00  0.10528358881E+04  0.10528358881E+04  0.00000000000E+00 0. -1.
         -2   -1    0    0    0  501 -0.00000000000E+00 -0.00000000000E+00 -0.11007477518E+01  0.11007477518E+01  0.00000000000E+00 0.  1.
          1    1    1    2  502    0  0.10837446716E+01  0.32693182434E+02  0.67181013270E+03  0.67260603110E+03  0.00000000000E+00 0. -1.
         -1    1    1    2    0  501 -0.10837446716E+01 -0.32693182434E+02  0.37992500762E+03  0.38133060472E+03  0.00000000000E+00 0.  1.
</event>
<event>
 4    1  0.6934088E+001  0.2761499E+02  0.7546771E-02  0.1441526E+00
          2   -1    0    0  502    0  0.00000000000E+00  0.00000000000E+00  0.11446172469E+04  0.11446172469E+04  0.00000000000E+00 0.  1.
         -2   -1    0    0    0  501 -0.00000000000E+00 -0.00000000000E+00 -0.88001503406E+00  0.88001503406E+00  0.00000000000E+00 0. -1.
          1    1    1    2  502    0 -0.78821332923E+01 -0.26466197599E+02  0.28957606542E+03  0.29088981643E+03  0.00000000000E+00 0. -1.
         -1    1    1    2    0  501  0.78821332923E+01  0.26466197599E+02  0.85416116641E+03  0.85460744546E+03  0.00000000000E+00 0.  1.
</event>
<event>
 4    1  0.6934088E+001  0.2404506E+02  0.7546771E-02  0.1479776E+00
          2   -1    0    0  502    0  0.00000000000E+00  0.00000000000E+00  0.17017099477E+04  0.17017099477E+04  0.00000000000E+00 0. -1.
         -2   -1    0    0    0  501 -0.00000000000E+00 -0.00000000000E+00 -0.42221261364E+00  0.42221261364E+00  0.00000000000E+00 0.  1.
          1    1    1    2  502    0  0.23073719666E+02 -0.67652209575E+01  0.47453583287E+03  0.47514463211E+03  0.00000000000E+00 0.  1.
         -1    1    1    2    0  501 -0.23073719666E+02  0.67652209575E+01  0.12267519022E+04  0.12269875282E+04  0.00000000000E+00 0. -1.
</event>
<event>
 4    1  0.6934088E+001  0.3176407E+02  0.7546771E-02  0.1404862E+00
          2   -1    0    0  502    0  0.00000000000E+00  0.00000000000E+00  0.55471838445E+03  0.55471838445E+03  0.00000000000E+00 0.  1.
         -2   -1    0    0    0  501 -0.00000000000E+00 -0.00000000000E+00 -0.20869604868E+01  0.20869604868E+01  0.00000000000E+00 0. -1.
          1    1    1    2  502    0 -0.28695916869E+02 -0.13619863035E+02  0.17653116566E+03  0.17936613048E+03  0.00000000000E+00 0. -1.
         -1    1    1    2    0  501  0.28695916869E+02  0.13619863035E+02  0.37610025830E+03  0.37743921446E+03  0.00000000000E+00 0.  1.
</event>
<event>
 4    1  0.6934088E+001  0.3207678E+02  0.7546771E-02  0.1402368E+00
          2   -1    0    0  502    0  0.00000000000E+00  0.00000000000E+00  0.45082937983E+03  0.45082937983E+03  0.00000000000E+00 0.  1.
         -2   -1    0    0    0  501 -0.00000000000E+00 -0.00000000000E+00 -0.22834558271E+01  0.22834558271E+01  0.00000000000E+00 0. -1.
          1    1    1    2  502    0 -0.32011638539E+02 -0.20432442423E+01  0.22940929634E+03  0.23164098320E+03  0.00000000000E+00 0.  1.
         -1    1    1    2    0  501  0.32011638539E+02  0.20432442423E+01  0.21913662767E+03  0.22147185246E+03  0.00000000000E+00 0. -1.
</event>
<event>
 4    1  0.6934088E+001  0.3109725E+02  0.7546771E-02  0.1410295E+00
          2   -1    0    0  502    0  0.00000000000E+00  0.00000000000E+00  0.26478526814E+04  0.26478526814E+04  0.00000000000E+00 0. -1.
         -2   -1    0    0    0  501 -0.00000000000E+00 -0.00000000000E+00 -0.41221001320E+00  0.41221001320E+00  0.00000000000E+00 0.  1.
          1    1    1    2  502    0 -0.23669375800E+02 -0.20169274759E+02  0.17708071691E+04  0.17710801984E+04  0.00000000000E+00 0. -1.
         -1    1    1    2    0  501  0.23669375800E+02  0.20169274759E+02  0.87663330230E+03  0.87718469303E+03  0.00000000000E+00 0.  1.
</event>
<event>
 4    1  0.6934088E+001  0.2688718E+02  0.7546771E-02  0.1448745E+00
          2   -1    0    0  502    0  0.00000000000E+00  0.00000000000E+00  0.51595616931E+02  0.51595616931E+02  0.00000000000E+00 0. -1.
         -2   -1    0    0    0  501 -0.00000000000E+00 -0.00000000000E+00 -0.16410132513E+02  0.16410132513E+02  0.00000000000E+00 0.  1.
          1    1    1    2  502    0 -0.66462148020E+00  0.26878965928E+02  0.30593286895E+02  0.40729224571E+02  0.00000000000E+00 0. -1.
         -1    1    1    2    0  501  0.66462148020E+00 -0.26878965928E+02  0.45921975228E+01  0.27276524873E+02  0.00000000000E+00 0.  1.
</event>
<event>
 4    1  0.6934088E+001  0.5352672E+02  0.7546771E-02  0.1283566E+00
          2   -1    0    0  502    0  0.00000000000E+00  0.00000000000E+00  0.25827009878E+04  0.25827009878E+04  0.00000000000E+00 0.  1.
         -2   -1    0    0    0  501 -0.00000000000E+00 -0.00000000000E+00 -0.11858461710E+01  0.11858461710E+01  0.00000000000E+00 0. -1.
          1    1    1    2  502    0  0.45884329757E+02  0.27563352471E+02  0.16188976678E+04  0.16197823215E+04  0.00000000000E+00 0. -1.
         -1    1    1    2    0  501 -0.45884329757E+02 -0.27563352471E+02  0.96261747380E+03  0.96410451248E+03  0.00000000000E+00 0.  1.
</event>
<event>
 4    1  0.6934088E+001  0.3563951E+02  0.7546771E-02  0.1376122E+00
          2   -1    0    0  502    0  0.00000000000E+00  0.00000000000E+00  0.44178736936E+03  0.44178736936E+03  0.00000000000E+00 0. -1.
         -2   -1    0    0    0  501 -0.00000000000E+00 -0.00000000000E+00 -0.32795440714E+01  0.32795440714E+01  0.00000000000E+00 0.  1.
          1    1    1    2  502    0 -0.25804887395E+01  0.35545970295E+02  0.14110418594E+03  0.14553544660E+03  0.00000000000E+00 0.  1.
         -1    1    1    2    0  501  0.25804887395E+01 -0.35545970295E+02  0.29740363935E+03  0.29953146684E+03  0.00000000000E+00 0. -1.
</event>
<event>
 4    1  0.6934088E+001  0.2121766E+02  0.7546771E-02  0.1516180E+00
          2   -1    0    0  502    0  0.00000000000E+00  0.00000000000E+00  0.21354387428E+02  0.21354387428E+02  0.00000000000E+00 0. -1.
         -2   -1    0    0    0  501 -0.00000000000E+00 -0.00000000000E+00 -0.24482389019E+02  0.24482389019E+02  0.00000000000E+00 0.  1.
          1    1    1    2  502    0  0.10510929371E+02 -0.18431213123E+02  0.69774819151E+01  0.22335498815E+02  0.00000000000E+00 0. -1.
         -1    1    1    2    0  501 -0.10510929371E+02  0.18431213123E+02 -0.10105483506E+02  0.23501277632E+02  0.00000000000E+00 0.  1.
</event>
<event>
 4    1  0.6934088E+001  0.2132273E+02  0.7546771E-02  0.1514707E+00
          2   -1    0    0  502    0  0.00000000000E+00  0.00000000000E+00  0.32405080577E+02  0.32405080577E+02  0.00000000000E+00 0.  1.
         -2   -1    0    0    0  501 -0.00000000000E+00 -0.00000000000E+00 -0.14278256364E+02  0.14278256364E+02  0.00000000000E+00 0. -1.
          1    1    1    2  502    0 -0.19286222385E+02  0.90939815839E+01  0.12138256655E+02  0.24535609826E+02  0.00000000000E+00 0. -1.
         -1    1    1    2    0  501  0.19286222385E+02 -0.90939815839E+01  0.59885675590E+01  0.22147727115E+02  0.00000000000E+00 0.  1.
</event>
<event>
 4    1  0.6934088E+001  0.3289223E+02  0.7546771E-02  0.1396019E+00
          2   -1    0    0  502    0  0.00000000000E+00  0.00000000000E+00  0.11524783800E+03  0.11524783800E+03  0.00000000000E+00 0.  1.
         -2   -1    0    0    0  501 -0.00000000000E+00 -0.00000000000E+00 -0.10061655920E+02  0.10061655920E+02  0.00000000000E+00 0. -1.
          1    1    1    2  502    0  0.14475710773E+02 -0.29535612876E+02  0.68810173683E+02  0.76267546391E+02  0.00000000000E+00 0. -1.
         -1    1    1    2    0  501 -0.14475710773E+02  0.29535612876E+02  0.36376008395E+02  0.49041947525E+02  0.00000000000E+00 0.  1.
</event>
<event>
 4    1  0.6934088E+001  0.2960967E+02  0.7546771E-02  0.1423019E+00
          2   -1    0    0  502    0  0.00000000000E+00  0.00000000000E+00  0.12856048255E+03  0.12856048255E+03  0.00000000000E+00 0. -1.
         -2   -1    0    0    0  501 -0.00000000000E+00 -0.00000000000E+00 -0.69707115861E+01  0.69707115861E+01  0.00000000000E+00 0.  1.
          1    1    1    2  502    0 -0.28993784538E+02  0.60077503782E+01  0.50817830076E+02  0.58814831973E+02  0.00000000000E+00 0.  1.
         -1    1    1    2    0  501  0.28993784538E+02 -0.60077503782E+01  0.70771940886E+02  0.76716362161E+02  0.00000000000E+00 0. -1.
</event>
<event>
 4    1  0.6934088E+001  0.5284321E+02  0.7546771E-02  0.1286294E+00
          2   -1    0    0  502    0  0.00000000000E+00  0.00000000000E+00  0.74711496789E+02  0.74711496789E+02  0.00000000000E+00 0. -1.
         -2   -1    0    0    0  501 -0.00000000000E+00 -0.00000000000E+00 -0.37392157496E+02  0.37392157496E+02  0.00000000000E+00 0.  1.
          1    1    1    2  502    0 -0.44725754583E+02  0.28142698725E+02  0.17488591059E+02  0.55661974738E+02  0.00000000000E+00 0. -1.
         -1    1    1    2    0  501  0.44725754583E+02 -0.28142698725E+02  0.19830748234E+02  0.56441679546E+02  0.00000000000E+00 0.  1.
</event>
<event>
 4    1  0.6934088E+001  0.2084723E+02  0.7546771E-02  0.1521457E+00
          2   -1    0    0  502    0  0.00000000000E+00  0.00000000000E+00  0.17048106518E+02  0.17048106518E+02  0.00000000000E+00 0.  1.
         -2   -1    0    0    0  501 -0.00000000000E+00 -0.00000000000E+00 -0.30732947727E+02  0.30732947727E+02  0.00000000000E+00 0. -1.
          1    1    1    2  502    0 -0.87599079934E+01  0.18917484070E+02 -0.16707204085E+02  0.26715872809E+02  0.00000000000E+00 0. -1.
         -1    1    1    2    0  501  0.87599079934E+01 -0.18917484070E+02  0.30223628756E+01  0.21065181436E+02  0.00000000000E+00 0.  1.
</event>
<event>
 4    1  0.6934088E+001  0.2100993E+02  0.7546771E-02  0.1519123E+00
          2   -1    0    0  502    0  0.00000000000E+00  0.00000000000E+00  0.19332149248E+03  0.19332149248E+03  0.00000000000E+00 0.  1.
         -2   -1    0    0    0  501 -0.00000000000E+00 -0.00000000000E+00 -0.22874847515E+01  0.22874847515E+01  0.00000000000E+00 0. -1.
          1    1    1    2  502    0 -0.15348800977E+02 -0.14346821522E+02  0.91349328673E+02  0.93734288434E+02  0.00000000000E+00 0.  1.
         -1    1    1    2    0  501  0.15348800977E+02  0.14346821522E+02  0.99684679056E+02  0.10187468880E+03  0.00000000000E+00 0. -1.
</event>
<event>
 4    1  0.6934088E+001  0.2029377E+02  0.7546771E-02  0.1529591E+00
          2   -1    0    0  502    0  0.00000000000E+00  0.00000000000E+00  0.36464062762E+03  0.36464062762E+03  0.00000000000E+00 0.  1.
         -2   -1    0    0    0  501 -0.00000000000E+00 -0.00000000000E+00 -0.14104744356E+01  0.14104744356E+01  0.00000000000E+00 0. -1.
          1    1    1    2  502    0 -0.13269429630E+02  0.15354457231E+02  0.26331363107E+03  0.26409450094E+03  0.00000000000E+00 0.  1.
         -1    1    1    2    0  501  0.13269429630E+02 -0.15354457231E+02  0.99916522114E+02  0.10195660111E+03  0.00000000000E+00 0. -1.
</event>
<event>
 4    1  0.6934088E+001  0.4384531E+02  0.7546771E-02  0.1327315E+00
          2   -1    0    0  502    0  0.00000000000E+00  0.00000000000E+00  0.97862037624E+03  0.97862037624E+03  0.00000000000E+00 0. -1.
         -2   -1    0    0    0  501 -0.00000000000E+00 -0.00000000000E+00 -0.23328345532E+01  0.23328345532E+01  0.00000000000E+00 0.  1.
          1    1    1    2  502    0 -0.84184907165E+01 -0.43029525386E+02  0.29322620496E+03  0.29648611825E+03  0.00000000000E+00 0.  1.
         -1    1    1    2    0  501  0.84184907165E+01  0.43029525386E+02  0.68306133673E+03  0.68446709254E+03  0.00000000000E+00 0. -1.
</event>
<event>
 4    1  0.6934088E+001  0.2362076E+02  0.7546771E-02  0.1484847E+00
          2   -1    0    0  502    0  0.00000000000E+00  0.00000000000E+00  0.41838472937E+02  0.41838472937E+02  0.00000000000E+00 0. -1.
         -2   -1    0    0    0  501 -0.00000000000E+00 -0.00000000000E+00 -0.82362397310E+02  0.82362397310E+02  0.00000000000E+00 0.  1.
          1    1    1    2  502    0 -0.15363005153E+02  0.17942081522E+02  0.36589165651E+02  0.43551202736E+02  0.00000000000E+00 0. -1.
         -1    1    1    2    0  501  0.15363005153E+02 -0.17942081522E+02 -0.77113090024E+02  0.80649667512E+02  0.00000000000E+00 0.  1.
</event>
<event>
 4    1  0.6934088E+001  0.2275352E+02  0.7546771E-02  0.1495617E+00
          2   -1    0    0  502    0  0.00000000000E+00  0.00000000000E+00  0.52314557894E+02  0.52314557894E+02  0.00000000000E+00 0.  1.
         -2   -1    0    0    0  501 -0.00000000000E+00 -0.00000000000E+00 -0.11451086174E+02  0.11451086174E+02  0.00000000000E+00 0. -1.
          1    1    1    2  502    0 -0.21469859992E+02  0.75344401911E+01  0.86837586722E+01  0.24354267424E+02  0.00000000000E+00 0. -1.
         -1    1    1    2    0  501  0.21469859992E+02 -0.75344401911E+01  0.32179713048E+02  0.39411376643E+02  0.00000000000E+00 0.  1.
</event>
<event>
 4    1  0.6934088E+001  0.3932446E+02  0.7546771E-02  0.1352491E+00
          2   -1    0    0  502    0  0.00000000000E+00  0.00000000000E+00  0.14927245205E+04  0.14927245205E+04  0.00000000000E+00 0. -1.
         -2   -1    0    0    0  501 -0.00000000000E+00 -0.00000000000E+00 -0.11096938373E+01  0.11096938373E+01  0.00000000000E+00 0.  1.
          1    1    1    2  502    0  0.39244125174E+02  0.25123858073E+01  0.55328405691E+03  0.55467978247E+03  0.00000000000E+00 0. -1.
         -1    1    1    2    0  501 -0.39244125174E+02 -0.25123858073E+01  0.93833076978E+03  0.93915443190E+03  0.00000000000E+00 0.  1.
</event>
<event>
 4    1  0.6934088E+001  0.2636251E+02  0.7546771E-02  0.1454119E+00
          2   -1    0    0  502    0  0.00000000000E+00  0.00000000000E+00  0.23037544372E+02  0.23037544372E+02  0.00000000000E+00 0. -1.
         -2   -1    0    0    0  501 -0.00000000000E+00 -0.00000000000E+00 -0.48506966807E+02  0.48506966807E+02  0.00000000000E+00 0.  1.
          1    1    1    2  502    0 -0.57760371039E+01  0.25721957735E+02  0.92610688516E+01  0.27941888100E+02  0.00000000000E+00 0. -1.
         -1    1    1    2    0  501  0.57760371039E+01 -0.25721957735E+02 -0.34730491287E+02  0.43602623079E+02  0.00000000000E+00 0.  1.
</event>
<event>
 4    1  0.6934088E+001  0.3532073E+02  0.7546771E-02  0.1378322E+00
          2   -1    0    0  502    0  0.00000000000E+00  0.00000000000E+00  0.31578756073E+03  0.31578756073E+03  0.00000000000E+00 0.  1.
         -2   -1    0    0    0  501 -0.00000000000E+00 -0.00000000000E+00 -0.49070795240E+01  0.49070795240E+01  0.00000000000E+00 0. -1.
          1    1    1    2  502    0  0.22472306670E+02  0.27249762322E+02  0.84648061372E+02  0.91721580926E+02  0.00000000000E+00 0. -1.
         -1    1    1    2    0  501 -0.22472306670E+02 -0.27249762322E+02  0.22623241983E+03  0.22897305933E+03  0.00000000000E+00 0.  1.
</event>
<event>
 4    1  0.6934088E+001  0.2707937E+02  0.7546771E-02  0.1446812E+00
          2   -1    0    0  502    0  0.00000000000E+00  0.00000000000E+00  0.49976395638E+03  0.49976395638E+03  0.00000000000E+00 0. -1.
         -2   -1    0    0    0  501 -0.00000000000E+00 -0.00000000000E+00 -0.36222447341E+01  0.36222447341E+01  0.00000000000E+00 0.  1.
          1    1    1    2  502    0 -0.24321950711E+02  0.11905240670E+02  0.53936309370E+02  0.60352444112E+02  0.00000000000E+00 0.  1.
         -1    1    1    2    0  501  0.24321950711E+02 -0.11905240670E+02  0.44220540228E+03  0.44303375700E+03  0.00000000000E+00 0. -1.
</event>
<event>
 4    1  0.6934088E+001  0.3632597E+02  0.7546771E-02  0.1371473E+00
          2   -1    0    0  502    0  0.00000000000E+00  0.00000000000E+00  0.38563205504E+03  0.38563205504E+03  0.00000000000E+00 0. -1.
         -2   -1    0    0    0  501 -0.00000000000E+00 -0.00000000000E+00 -0.34895013835E+01  0.34895013835E+01  0.00000000000E+00 0.  1.
          1    1    1    2  502    0  0.27078784008E+02  0.24213950638E+02  0.16398156118E+03  0.16795692410E+03  0.00000000000E+00 0.  1.
         -1    1    1    2    0  501 -0.27078784008E+02 -0.24213950638E+02  0.21816099248E+03  0.22116463232E+03  0.00000000000E+00 0. -1.
</event>
<event>
 4    1  0.6934088E+001  0.3238797E+02  0.7546771E-02  0.1399919E+00
          2   -1    0    0  502    0  0.00000000000E+00  0.00000000000E+00  0.23225734529E+04  0.23225734529E+04  0.00000000000E+00 0.  1.
         -2   -1    0    0    0  501 -0.00000000000E+00 -0.00000000000E+00 -0.50724876051E+00  0.50724876051E+00  0.00000000000E+00 0. -1.
          1    1    1    2  502    0  0.26464242525E+02  0.18671493186E+02  0.15456003992E+04  0.15459397061E+04  0.00000000000E+00 0.  1.
         -1    1    1    2    0  501 -0.26464242525E+02 -0.18671493186E+02  0.77646580491E+03  0.77714099556E+03  0.00000000000E+00 0. -1.
</event>
<event>
 4    1  0.6934088E+001  0.2837407E+02  0.7546771E-02  0.1434273E+00
          2   -1    0    0  502    0  0.00000000000E+00  0.00000000000E+00  0.14159047106E+04  0.14159047106E+04  0.00000000000E+00 0. -1.
         -2   -1    0    0    0  501 -0.00000000000E+00 -0.00000000000E+00 -0.56861480477E+00  0.56861480477E+00  0.00000000000E+00 0.  1.
          1    1    1    2  502    0 -0.26200604767E+02 -0.10891100873E+02  0.70445093883E+03  0.70502213652E+03  0.00000000000E+00 0.  1.
         -1    1    1    2    0  501  0.26200604767E+02  0.10891100873E+02  0.71088515692E+03  0.71145118884E+03  0.00000000000E+00 0. -1.
</event>
<event>
 4    1  0.6934088E+001  0.2021142E+02  0.7546771E-02  0.1530828E+00
          2   -1    0    0  502    0  0.00000000000E+00  0.00000000000E+00  0.12367121333E+02  0.12367121333E+02  0.00000000000E+00 0. -1.
         -2   -1    0    0    0  501 -0.00000000000E+00 -0.00000000000E+00 -0.69409745120E+02  0.69409745120E+02  0.00000000000E+00 0.  1.
          1    1    1    2  502    0  0.15242407887E+02 -0.13272928905E+02  0.10801071257E+01  0.20240263617E+02  0.00000000000E+00 0. -1.
         -1    1    1    2    0  501 -0.15242407887E+02  0.13272928905E+02 -0.58122730912E+02  0.61536602836E+02  0.00000000000E+00 0.  1.
</event>
<event>
 4    1  0.6934088E+001  0.2218146E+02  0.7546771E-02  0.1503041E+00
          2   -1    0    0  502    0  0.00000000000E+00  0.00000000000E+00  0.41514151594E+02  0.41514151594E+02  0.00000000000E+00 0.  1.
         -2   -1    0    0    0  501 -0.00000000000E+00 -0.00000000000E+00 -0.19818492860E+02  0.19818492860E+02  0.00000000000E+00 0. -1.
          1    1    1    2  502    0 -0.21300609660E+02  0.61887996206E+01 -0.85952727396E+01  0.23788567130E+02  0.00000000000E+00 0. -1.
         -1    1    1    2    0  501  0.21300609660E+02 -0.61887996206E+01  0.30290931473E+02  0.37544077324E+02  0.00000000000E+00 0.  1.
</event>
<event>
 4    1  0.6934088E+001  0.2033206E+02  0.7546771E-02  0.1529019E+00
          2   -1    0    0  502    0  0.00000000000E+00  0.00000000000E+00  0.15025073356E+04  0.15025073356E+04  0.00000000000E+00 0. -1.
         -2   -1    0    0    0  501 -0.00000000000E+00 -0.00000000000E+00 -0.29208054823E+00  0.29208054823E+00  0.00000000000E+00 0.  1.
          1    1    1    2  502    0 -0.15619792068E+02 -0.13015943982E+02  0.57012180170E+03  0.57048423421E+03  0.00000000000E+00 0.  1.
         -1    1    1    2    0  501  0.15619792068E+02  0.13015943982E+02  0.93209345335E+03  0.93231518194E+03  0.00000000000E+00 0. -1.
</event>
<event>
 4    1  0.6934088E+001  0.3732707E+02  0.7546771E-02  0.1364903E+00
          2   -1    0    0  502    0  0.00000000000E+00  0.00000000000E+00  0.17388171849E+02  0.17388171849E+02  0.00000000000E+00 0.  1.
         -2   -1    0    0    0  501 -0.00000000000E+00 -0.00000000000E+00 -0.80379483870E+02  0.80379483870E+02  0.00000000000E+00 0. -1.
          1    1    1    2  502    0  0.27524110938E+02 -0.25213760684E+02 -0.28771048546E+02  0.47128374099E+02  0.00000000000E+00 0.  1.
         -1    1    1    2    0  501 -0.27524110938E+02  0.25213760684E+02 -0.34220263475E+02  0.50639281620E+02  0.00000000000E+00 0. -1.
</event>
<event>
 4    1  0.6934088E+001  0.2246744E+02  0.7546771E-02  0.1499296E+00
          2   -1    0    0  502    0  0.00000000000E+00  0.00000000000E+00  0.13851357603E+04  0.13851357603E+04  0.00000000000E+00 0.  1.
         -2   -1    0    0    0  501 -0.00000000000E+00 -0.00000000000E+00 -0.36923945125E+00  0.36923945125E+00  0.00000000000E+00 0. -1.
          1    1    1    2  502    0 -0.11655269604E+02  0.19207824636E+02  0.61332534531E+03  0.61373672290E+03  0.00000000000E+00 0. -1.
         -1    1    1    2    0  501  0.11655269604E+02 -0.19207824636E+02  0.77144117550E+03  0.77176827682E+03  0.00000000000E+00 0.  1.
</event>
<event>
 4    1  0.6934088E+001  0.3701509E+02  0.7546771E-02  0.1366925E+00
          2   -1    0    0  502    0  0.00000000000E+00  0.00000000000E+00  0.12196277740E+03  0.12196277740E+03  0.00000000000E+00 0.  1.
         -2   -1    0    0    0  501 -0.00000000000E+00 -0.00000000000E+00 -0.15731017490E+02  0.15731017490E+02  0.00000000000E+00 0. -1.
          1    1    1    2  502    0  0.17595895627E+02  0.32565343685E+02  0.16305247532E+02  0.40447227956E+02  0.00000000000E+00 0. -1.
         -1    1    1    2    0  501 -0.17595895627E+02 -0.32565343685E+02  0.89926512382E+02  0.97246566939E+02  0.00000000000E+00 0.  1.
</event>
<event>
 4    1  0.6934088E+001  0.4317357E+02  0.7546771E-02  0.1330829E+00
          2   -1    0    0  502    0  0.00000000000E+00  0.00000000000E+00  0.34203509831E+02  0.34203509831E+02  0.00000000000E+00 0. -1.
         -2   -1    0    0    0  501 -0.00000000000E+00 -0.00000000000E+00 -0.78705006788E+02  0.78705006788E+02  0.00000000000E+00 0.  1.
          1    1    1    2  502    0  0.63937941444E+01 -0.42697503050E+02 -0.53560761748E+02  0.68794713237E+02  0.00000000000E+00 0.  1.
         -1    1    1    2    0  501 -0.63937941444E+01  0.42697503050E+02  0.90592647917E+01  0.44113803382E+02  0.00000000000E+00 0. -1.
</event>
<event>
 4    1  0.6934088E+001  0.2649311E+02  0.7546771E-02  0.1452767E+00
          2   -1    0    0  502    0  0.00000000000E+00  0.00000000000E+00  0.32187025080E+03  0.32187025080E+03  0.00000000000E+00 0.  1.
         -2   -1    0    0    0  501 -0.00000000000E+00 -0.00000000000E+00 -0.22940933194E+01  0.22940933194E+01  0.00000000000E+00 0. -1.
          1    1    1    2  502    0  0.16700534300E+02  0.20566402077E+02  0.12374442431E+03  0.12654867557E+03  0.00000000000E+00 0. -1.
         -1    1    1    2    0  501 -0.16700534300E+02 -0.20566402077E+02  0.19583173317E+03  0.19761566855E+03  0.00000000000E+00 0.  1.
</event>
<event>
 4    1  0.6934088E+001  0.2623651E+02  0.7546771E-02  0.1455432E+00
          2   -1    0    0  502    0  0.00000000000E+00  0.00000000000E+00  0.86973784609E+02  0.86973784609E+02  0.00000000000E+00 0. -1.
         -2   -1    0    0    0  501 -0.00000000000E+00 -0.00000000000E+00 -0.81746723059E+01  0.81746723059E+01  0.00000000000E+00 0.  1.
          1    1    1    2  502    0  0.25094913356E+02 -0.76550602061E+01  0.30912417318E+02  0.40545433375E+02  0.00000000000E+00 0.  1.
         -1    1    1    2    0  501 -0.25094913356E+02  0.76550602061E+01  0.47886694984E+02  0.54603023539E+02  0.00000000000E+00 0. -1.
</event>
<event>
 4    1  0.6934088E+001  0.2039928E+02  0.7546771E-02  0.1528017E+00
          2   -1    0    0  502    0  0.00000000000E+00  0.00000000000E+00  0.22068133916E+03  0.22068133916E+03  0.00000000000E+00 0.  1.
         -2   -1    0    0    0  501 -0.00000000000E+00 -0.00000000000E+00 -0.20474814766E+01  0.20474814766E+01  0.00000000000E+00 0. -1.
          1    1    1    2  502    0  0.19495692589E+02 -0.60040367526E+01  0.78009212345E+02  0.80632299344E+02  0.00000000000E+00 0. -1.
         -1    1    1    2    0  501 -0.19495692589E+02  0.60040367526E+01  0.14062464534E+03  0.14209652129E+03  0.00000000000E+00 0.  1.
</event>
<event>
 4    1  0.6934088E+001  0.2477034E+02  0.7546771E-02  0.1471389E+00
          2   -1    0    0  502    0  0.00000000000E+00  0.00000000000E+00  0.10419268433E+01  0.10419268433E+01  0.00000000000E+00 0. -1.
         -2   -1    0    0    0  501 -0.00000000000E+00 -0.00000000000E+00 -0.97721279301E+03  0.97721279301E+03  0.00000000000E+00 0.  1.
          1    1    1    2  502    0  0.10813759612E+02  0.22285248517E+02 -0.17974568394E+03  0.18144442839E+03  0.00000000000E+00 0. -1.
         -1    1    1    2    0  501 -0.10813759612E+02 -0.22285248517E+02 -0.79642518223E+03  0.79681029147E+03  0.00000000000E+00 0.  1.
</event>
<event>
 4    1  0.6934088E+001  0.2359171E+02  0.7546771E-02  0.1485199E+00
          2   -1    0    0  502    0  0.00000000000E+00  0.00000000000E+00  0.11989698794E+04  0.11989698794E+04  0.00000000000E+00 0. -1.
         -2   -1    0    0    0  501 -0.00000000000E+00 -0.00000000000E+00 -0.49689339839E+00  0.49689339839E+00  0.00000000000E+00 0.  1.
          1    1    1    2  502    0 -0.16357417414E+02 -0.17000109533E+02  0.75305826358E+03  0.75342771198E+03  0.00000000000E+00 0.  1.
         -1    1    1    2    0  501  0.16357417414E+02  0.17000109533E+02  0.44541472239E+03  0.44603906079E+03  0.00000000000E+00 0. -1.
</event>
<event>
 4    1  0.6934088E+001  0.3720893E+02  0.7546771E-02  0.1365666E+00
          2   -1    0    0  502    0  0.00000000000E+00  0.00000000000E+00  0.22054074143E+02  0.22054074143E+02  0.00000000000E+00 0. -1.
         -2   -1    0    0    0  501 -0.00000000000E+00 -0.00000000000E+00 -0.16242899766E+03  0.16242899766E+03  0.00000000000E+00 0.  1.
          1    1    1    2  502    0  0.35359783513E+02  0.11584047043E+02 -0.14243718448E+03  0.14721703691E+03  0.00000000000E+00 0.  1.
         -1    1    1    2    0  501 -0.35359783513E+02 -0.11584047043E+02  0.20622609621E+01  0.37266034888E+02  0.00000000000E+00 0. -1.
</event>
<event>
 4    1  0.6934088E+001  0.3055602E+02  0.7546771E-02  0.1414825E+00
          2   -1    0    0  502    0  0.00000000000E+00  0.00000000000E+00  0.19874466805E+03  0.19874466805E+03  0.00000000000E+00 0.  1.
         -2   -1    0    0    0  501 -0.00000000000E+00 -0.00000000000E+00 -0.11388275865E+02  0.11388275865E+02  0.00000000000E+00 0. -1.
          1    1    1    2  502    0  0.18347408339E+02  0.24434461971E+02  0.13147320854E+02  0.33264431007E+02  0.00000000000E+00 0. -1.
         -1    1    1    2    0  501 -0.18347408339E+02 -0.24434461971E+02  0.17420907133E+03  0.17686851290E+03  0.00000000000E+00 0.  1.
</event>
<event>
 4    1  0.6934088E+001  0.2444398E+02  0.7546771E-02  0.1475121E+00
          2   -1    0    0  502    0  0.00000000000E+00  0.00000000000E+00  0.37093159172E+03  0.37093159172E+03  0.00000000000E+00 0. -1.
         -2   -1    0    0    0  501 -0.00000000000E+00 -0.00000000000E+00 -0.38938164319E+01  0.38938164319E+01  0.00000000000E+00 0.  1.
          1    1    1    2  502    0 -0.24427388494E+02 -0.90034747162E+00  0.40015251828E+02  0.46890599410E+02  0.00000000000E+00 0.  1.
         -1    1    1    2    0  501  0.24427388494E+02  0.90034747162E+00  0.32702252346E+03  0.32793480874E+03  0.00000000000E+00 0. -1.
</event>
<event>
 4    1  0.6934088E+001  0.2716772E+02  0.7546771E-02  0.1445931E+00
          2   -1    0    0  502    0  0.00000000000E+00  0.00000000000E+00  0.47224757154E+01  0.47224757154E+01  0.00000000000E+00 0.  1.
         -2   -1    0    0    0  501 -0.00000000000E+00 -0.00000000000E+00 -0.16650839200E+03  0.16650839200E+03  0.00000000000E+00 0. -1.
          1    1    1    2  502    0 -0.21716148322E+02  0.16324635408E+02 -0.59685707365E+02  0.65577957294E+02  0.00000000000E+00 0.  1.
         -1    1    1    2    0  501  0.21716148322E+02 -0.16324635408E+02 -0.10210020892E+03  0.10565291042E+03  0.00000000000E+00 0. -1.
</event>
<event>
 4    1  0.6934088E+001  0.2410445E+02  0.7546771E-02  0.1479076E+00
          2   -1    0    0  502    0  0.00000000000E+00  0.00000000000E+00  0.48428854623E+03  0.48428854623E+03  0.00000000000E+00 0. -1.
         -2   -1    0    0    0  501 -0.00000000000E+00 -0.00000000000E+00 -0.14512235688E+01  0.14512235688E+01  0.00000000000E+00 0.  1.
          1    1    1    2  502    0  0.18640443252E+02 -0.15282614962E+02  0.14031800031E+03  0.14237333197E+03  0.00000000000E+00 0.  1.
         -1    1    1    2    0  501 -0.18640443252E+02  0.15282614962E+02  0.34251932234E+03  0.34336643782E+03  0.00000000000E+00 0. -1.
</event>
<event>
 4    1  0.6934088E+001  0.2787664E+02  0.7546771E-02  0.1438995E+00
          2   -1    0    0  502    0  0.00000000000E+00  0.00000000000E+00  0.23398169022E+04  0.23398169022E+04  0.00000000000E+00 0.  1.
         -2   -1    0    0    0  501 -0.00000000000E+00 -0.00000000000E+00 -0.37164205961E+00  0.37164205961E+00  0.00000000000E+00 0. -1.
          1    1    1    2  502    0  0.21486278089E+02 -0.17760824751E+02  0.15512815825E+04  0.15515320349E+04  0.00000000000E+00 0.  1.
         -1    1    1    2    0  501 -0.21486278089E+02  0.17760824751E+02  0.78816367767E+03  0.78865650941E+03  0.00000000000E+00 0. -1.
</event>
<event>
 4    1  0.6934088E+001  0.2181161E+02  0.7546771E-02  0.1507985E+00
          2   -1    0    0  502    0  0.00000000000E+00  0.00000000000E+00  0.40855865674E+03  0.40855865674E+03  0.00000000000E+00 0. -1.
         -2   -1    0    0    0  501 -0.00000000000E+00 -0.00000000000E+00 -0.11675247601E+01  0.11675247601E+01  0.00000000000E+00 0.  1.
          1    1    1    2  502    0 -0.44704947325E+01 -0.21348559445E+02  0.21420802195E+03  0.21531563571E+03  0.00000000000E+00 0.  1.
         -1    1    1    2    0  501  0.44704947325E+01  0.21348559445E+02  0.19318311003E+03  0.19441054579E+03  0.00000000000E+00 0. -1.
</event>
<event>
 4    1  0.6934088E+001  0.2516264E+02  0.7546771E-02  0.1466992E+00
          2   -1    0    0  502    0  0.00000000000E+00  0.00000000000E+00  0.87980671683E+02  0.87980671683E+02  0.00000000000E+00 0.  1.
         -2   -1    0    0    0  501 -0.00000000000E+00 -0.00000000000E+00 -0.28163625262E+02  0.28163625262E+02  0.00000000000E+00 0. -1.
          1    1    1    2  502    0  0.24555220349E+02 -0.54954216816E+01  0.80014830864E+02  0.83878076183E+02  0.00000000000E+00 0.  1.
         -1    1    1    2    0  501 -0.24555220349E+02  0.54954216816E+01 -0.20197784443E+02  0.32266220762E+02  0.00000000000E+00 0. -1.
</event>
<event>
 4    1  0.6934088E+001  0.3945087E+02  0.7546771E-02  0.1351734E+00
          2   -1    0    0  502    0  0.00000000000E+00  0.00000000000E+00  0.37344792364E+03  0.37344792364E+03  0.00000000000E+00 0. -1.
         -2   -1    0    0    0  501 -0.00000000000E+00 -0.00000000000E+00 -0.11769807405E+02  0.11769807405E+02  0.00000000000E+00 0.  1.
          1    1    1    2  502    0 -0.28190654051E+02 -0.27598159937E+02  0.26042168845E+02  0.47271195943E+02  0.00000000000E+00 0.  1.
         -1    1    1    2    0  501  0.28190654051E+02  0.27598159937E+02  0.33563594739E+03  0.33794653510E+03  0.00000000000E+00 0. -1.
</event>
<event>
 4    1  0.6934088E+001  0.2267368E+02  0.7546771E-02  0.1496637E+00
          2   -1    0    0  502    0  0.00000000000E+00  0.00000000000E+00  0.10501980600E+01  0.10501980600E+01  0.00000000000E+00 0.  1.
         -2   -1    0    0    0  501 -0.00000000000E+00 -0.00000000000E+00 -0.57089888937E+03  0.57089888937E+03  0.00000000000E+00 0. -1.
          1    1    1    2  502    0 -0.17919404532E+02  0.13892103258E+02 -0.39289281754E+03  0.39354651779E+03  0.00000000000E+00 0. -1.
         -1    1    1    2    0  501  0.17919404532E+02 -0.13892103258E+02 -0.17695587377E+03  0.17840256964E+03  0.00000000000E+00 0.  1.
</event>
<event>
 4    1  0.6934088E+001  0.3092526E+02  0.7546771E-02  0.1411723E+00
          2   -1    0    0  502    0  0.00000000000E+00  0.00000000000E+00  0.24964747897E+03  0.24964747897E+03  0.00000000000E+00 0.  1.
         -2   -1    0    0    0  501 -0.00000000000E+00 -0.00000000000E+00 -0.38711087393E+01  0.38711087393E+01  0.00000000000E+00 0. -1.
          1    1    1    2  502    0 -0.76340719913E+01  0.29968191577E+02  0.10996747157E+03  0.11423316666E+03  0.00000000000E+00 0. -1.
         -1    1    1    2    0  501  0.76340719913E+01 -0.29968191577E+02  0.13580889866E+03  0.13928542105E+03  0.00000000000E+00 0.  1.
</event>
<event>
 4    1  0.6934088E+001  0.2095006E+02  0.7546771E-02  0.1519979E+00
          2   -1    0    0  502    0  0.00000000000E+00  0.00000000000E+00  0.26958774637E+02  0.26958774637E+02  0.00000000000E+00 0. -1.
         -2   -1    0    0    0  501 -0.00000000000E+00 -0.00000000000E+00 -0.16735329743E+02  0.16735329743E+02  0.00000000000E+00 0.  1.
          1    1    1    2  502    0 -0.63262957945E+01  0.19972051241E+02  0.87129911530E+01  0.22689668664E+02  0.00000000000E+00 0. -1.
         -1    1    1    2    0  501  0.63262957945E+01 -0.19972051241E+02  0.15104537414E+01  0.21004435716E+02  0.00000000000E+00 0.  1.
</event>
<event>
 4    1  0.6934088E+001  0.3129348E+02  0.7546771E-02  0.1408679E+00
          2   -1    0    0  502    0  0.00000000000E+00  0.00000000000E+00  0.37051352948E+03  0.37051352948E+03  0.00000000000E+00 0. -1.
         -2   -1    0    0    0  501 -0.00000000000E+00 -0.00000000000E+00 -0.27298328923E+01  0.27298328923E+01  0.00000000000E+00 0.  1.
          1    1    1    2  502    0  0.29995876228E+02 -0.89179290786E+01  0.15061544767E+03  0.15383203544E+03  0.00000000000E+00 0. -1.
         -1    1    1    2    0  501 -0.29995876228E+02  0.89179290786E+01  0.21716824891E+03  0.21941132693E+03  0.00000000000E+00 0.  1.
</event>
<event>
 4    1  0.6934088E+001  0.3198622E+02  0.7546771E-02  0.1403087E+00
          2   -1    0    0  502    0  0.00000000000E+00  0.00000000000E+00  0.30967309614E+01  0.30967309614E+01  0.00000000000E+00 0. -1.
         -2   -1    0    0    0  501 -0.00000000000E+00 -0.00000000000E+00 -0.35109161251E+03  0.35109161251E+03  0.00000000000E+00 0.  1.
          1    1    1    2  502    0 -0.31776457172E+02  0.36571877709E+01 -0.13099111564E+03  0.13483987032E+03  0.00000000000E+00 0. -1.
         -1    1    1    2    0  501  0.31776457172E+02 -0.36571877709E+01 -0.21700376592E+03  0.21934847315E+03  0.00000000000E+00 0.  1.
</event>
<event>
 4    1  0.6934088E+001  0.3920214E+02  0.7546771E-02  0.1353226E+00
          2   -1    0    0  502    0  0.00000000000E+00  0.00000000000E+00  0.27196499535E+03  0.27196499535E+03  0.00000000000E+00 0.  1.
         -2   -1    0    0    0  501 -0.00000000000E+00 -0.00000000000E+00 -0.57252294848E+01  0.57252294848E+01  0.00000000000E+00 0. -1.
          1    1    1    2  502    0 -0.35809990974E+02  0.15951558568E+02  0.11728420551E+03  0.12366241359E+03  0.00000000000E+00 0. -1.
         -1    1    1    2    0  501  0.35809990974E+02 -0.15951558568E+02  0.14895556036E+03  0.15402781124E+03  0.00000000000E+00 0.  1.
</event>
<event>
 4    1  0.6934088E+001  0.2795912E+02  0.7546771E-02  0.1438204E+00
          2   -1    0    0  502    0  0.00000000000E+00  0.00000000000E+00  0.54270993471E+01  0.54270993471E+01  0.00000000000E+00 0. -1.
         -2   -1    0    0    0  501 -0.00000000000E+00 -0.00000000000E+00 -0.14540785934E+03  0.14540785934E+03  0.00000000000E+00 0.  1.
          1    1    1    2  502    0 -0.25508205850E+02 -0.11447449638E+02 -0.62672331160E+02  0.68626042884E+02  0.00000000000E+00 0.  1.
         -1    1    1    2    0  501  0.25508205850E+02  0.11447449638E+02 -0.77308428832E+02  0.82208915803E+02  0.00000000000E+00 0. -1.
</event>
<event>
 4    1  0.6934088E+001  0.2263249E+02  0.7546771E-02  0.1497165E+00
          2   -1    0    0  502    0  0.00000000000E+00  0.00000000000E+00  0.20326945455E+02  0.20326945455E+02  0.00000000000E+00 0.  1.
         -2   -1    0    0    0  501 -0.00000000000E+00 -0.00000000000E+00 -0.31978852599E+02  0.31978852599E+02  0.00000000000E+00 0. -1.
          1    1    1    2  502    0  0.17122451785E+02 -0.14800383334E+02  0.62155629547E+01  0.23470469207E+02  0.00000000000E+00 0.  1.
         -1    1    1    2    0  501 -0.17122451785E+02  0.14800383334E+02 -0.17867470098E+02  0.28835328846E+02  0.00000000000E+00 0. -1.
</event>
<event>
 4    1  0.6934088E+001  0.2049553E+02  0.7546771E-02  0.1526591E+00
          2   -1    0    0  502    0  0.00000000000E+00  0.00000000000E+00  0.74943354518E+03  0.74943354518E+03  0.00000000000E+00 0. -1.
         -2   -1    0    0    0  501 -0.00000000000E+00 -0.00000000000E+00 -0.67988994708E+00  0.67988994708E+00  0.00000000000E+00 0.  1.
          1    1    1    2  502    0  0.19789989712E+02  0.53313405909E+01  0.53153564242E+03  0.53193064026E+03  0.00000000000E+00 0. -1.
         -1    1    1    2    0  501 -0.19789989712E+02 -0.53313405909E+01  0.21721801281E+03  0.21818279486E+03  0.00000000000E+00 0.  1.
</event>
<event>
 4    1  0.6934088E+001  0.2082381E+02  0.7546771E-02  0.1521795E+00
          2   -1    0    0  502    0  0.00000000000E+00  0.00000000000E+00  0.17413979797E+04  0.17413979797E+04  0.00000000000E+00 0. -1.
         -2   -1    0    0    0  501 -0.00000000000E+00 -0.00000000000E+00 -0.24911490434E+00  0.24911490434E+00  0.00000000000E+00 0.  1.
          1    1    1    2  502    0  0.16628248132E+02  0.12535248688E+02  0.88816926253E+03  0.88841334412E+03  0.00000000000E+00 0. -1.
         -1    1    1    2    0  501 -0.16628248132E+02 -0.12535248688E+02  0.85297960228E+03  0.85323375051E+03  0.00000000000E+00 0.  1.
</event>
<event>
 4    1  0.6934088E+001  0.2190611E+02  0.7546771E-02  0.1506711E+00
          2   -1    0    0  502    0  0.00000000000E+00  0.00000000000E+00  0.85781519395E+02  0.85781519395E+02  0.00000000000E+00 0. -1.
         -2   -1    0    0    0  501 -0.00000000000E+00 -0.00000000000E+00 -0.60602755646E+01  0.60602755646E+01  0.00000000000E+00 0.  1.
          1    1    1    2  502    0 -0.16035821120E+02  0.14924139989E+02  0.27125582573E+02  0.34866527549E+02  0.00000000000E+00 0.  1.
         -1    1    1    2    0  501  0.16035821120E+02 -0.14924139989E+02  0.52595661257E+02  0.56975267411E+02  0.00000000000E+00 0. -1.
</event>
<event>
 4    1  0.6934088E+001  0.4402992E+02  0.7546771E-02  0.1326362E+00
          2   -1    0    0  502    0  0.00000000000E+00  0.00000000000E+00  0.53899319572E+02  0.53899319572E+02  0.00000000000E+00 0.  1.
         -2   -1    0    0    0  501 -0.00000000000E+00 -0.00000000000E+00 -0.39572088720E+02  0.39572088720E+02  0.00000000000E+00 0. -1.
          1    1    1    2  502    0  0.22166800800E+02 -0.38042960761E+02  0.21268541832E+02  0.48897697214E+02  0.00000000000E+00 0.  1.
         -1    1    1    2    0  501 -0.22166800800E+02  0.38042960761E+02 -0.69413109800E+01  0.44573711078E+02  0.00000000000E+00 0. -1.
</event>
<event>
 4    1  0.6934088E+001  0.2224781E+02  0.7546771E-02  0.1502166E+00
          2   -1    0    0  502    0  0.00000000000E+00  0.00000000000E+00  0.16111322629E+03  0.16111322629E+03  0.00000000000E+00 0. -1.
         -2   -1    0    0    0  501 -0.00000000000E+00 -0.00000000000E+00 -0.30738230968E+01  0.30738230968E+01  0.00000000000E+00 0.  1.
          1    1    1    2  502    0 -0.21429823881E+02  0.59772567975E+01  0.77107817534E+02  0.80253227195E+02  0.00000000000E+00 0. -1.
         -1    1    1    2    0  501  0.21429823881E+02 -0.59772567975E+01  0.80931585662E+02  0.83933822195E+02  0.00000000000E+00 0.  1.
</event>
<event>
 4    1  0.6934088E+001  0.2315011E+02  0.7546771E-02  0.1490622E+00
          2   -1    0    0  502    0  0.00000000000E+00  0.00000000000E+00  0.75259522921E+03  0.75259522921E+03  0.00000000000E+00 0. -1.
         -2   -1    0    0    0  501 -0.00000000000E+00 -0.00000000000E+00 -0.71734913975E+00  0.71734913975E+00  0.00000000000E+00 0.  1.
          1    1    1    2  502    0  0.18404272028E+02 -0.14043168356E+02  0.40813947594E+03  0.40879549854E+03  0.00000000000E+00 0. -1.
         -1    1    1    2    0  501 -0.18404272028E+02  0.14043168356E+02  0.34373840414E+03  0.34451707982E+03  0.00000000000E+00 0.  1.
</event>
<event>
 4    1  0.6934088E+001  0.3310217E+02  0.7546771E-02  0.1394420E+00
          2   -1    0    0  502    0  0.00000000000E+00  0.00000000000E+00  0.81711246663E+03  0.81711246663E+03  0.00000000000E+00 0. -1.
         -2   -1    0    0    0  501 -0.00000000000E+00 -0.00000000000E+00 -0.15247275618E+01  0.15247275618E+01  0.00000000000E+00 0.  1.
          1    1    1    2  502    0  0.35281235538E+01 -0.32913614413E+02  0.26571023992E+03  0.26776423448E+03  0.00000000000E+00 0.  1.
         -1    1    1    2    0  501 -0.35281235538E+01  0.32913614413E+02  0.54987749915E+03  0.55087295971E+03  0.00000000000E+00 0. -1.
</event>
<event>
 4    1  0.6934088E+001  0.4251348E+02  0.7546771E-02  0.1334355E+00
          2   -1    0    0  502    0  0.00000000000E+00  0.00000000000E+00  0.28250637647E+03  0.28250637647E+03  0.00000000000E+00 0. -1.
         -2   -1    0    0    0  501 -0.00000000000E+00 -0.00000000000E+00 -0.79384333319E+01  0.79384333319E+01  0.00000000000E+00 0.  1.
          1    1    1    2  502    0 -0.41876065200E+02 -0.73342327265E+01  0.73306424196E+02  0.84742124323E+02  0.00000000000E+00 0.  1.
         -1    1    1    2    0  501  0.41876065200E+02  0.73342327265E+01  0.20126151894E+03  0.20570268548E+03  0.00000000000E+00 0. -1.
</event>
<event>
 4    1  0.6934088E+001  0.3670282E+02  0.7546771E-02  0.1368971E+00
          2   -1    0    0  502    0  0.00000000000E+00  0.00000000000E+00  0.54702211449E+03  0.54702211449E+03  0.00000000000E+00 0. -1.
         -2   -1    0    0    0  501 -0.00000000000E+00 -0.00000000000E+00 -0.41152829436E+01  0.41152829436E+01  0.00000000000E+00 0.  1.
          1    1    1    2  502    0  0.79711961788E+01 -0.35826766678E+02  0.96821071949E+02  0.10354427629E+03  0.00000000000E+00 0.  1.
         -1    1    1    2    0  501 -0.79711961788E+01  0.35826766678E+02  0.44608575960E+03  0.44759312114E+03  0.00000000000E+00 0. -1.
</event>
<event>
 4    1  0.6934088E+001  0.4671167E+02  0.7546771E-02  0.1313096E+00
          2   -1    0    0  502    0  0.00000000000E+00  0.00000000000E+00  0.57607297383E+02  0.57607297383E+02  0.00000000000E+00 0.  1.
         -2   -1    0    0    0  501 -0.00000000000E+00 -0.00000000000E+00 -0.41995120554E+02  0.41995120554E+02  0.00000000000E+00 0. -1.
          1    1    1    2  502    0 -0.18623837186E+01  0.46674528222E+02 -0.77894569019E+01  0.47356685871E+02  0.00000000000E+00 0. -1.
         -1    1    1    2    0  501  0.18623837186E+01 -0.46674528222E+02  0.23401633731E+02  0.52245732066E+02  0.00000000000E+00 0.  1.
</event>
<event>
 4    1  0.6934088E+001  0.2675151E+02  0.7546771E-02  0.1450120E+00
          2   -1    0    0  502    0  0.00000000000E+00  0.00000000000E+00  0.77044120771E+02  0.77044120771E+02  0.00000000000E+00 0. -1.
         -2   -1    0    0    0  501 -0.00000000000E+00 -0.00000000000E+00 -0.17606955450E+02  0.17606955450E+02  0.00000000000E+00 0.  1.
          1    1    1    2  502    0 -0.72248809053E+01 -0.25757418658E+02 -0.28102342963E+01  0.26898716268E+02  0.00000000000E+00 0.  1.
         -1    1    1    2    0  501  0.72248809053E+01  0.25757418658E+02  0.62247399618E+02  0.67752359953E+02  0.00000000000E+00 0. -1.
</event>
<event>
 4    1  0.6934088E+001  0.1037563E+03  0.7546771E-02  0.1157454E+00
          2   -1    0    0  502    0  0.00000000000E+00  0.00000000000E+00  0.29499857391E+02  0.29499857391E+02  0.00000000000E+00 0.  1.
         -2   -1    0    0    0  501 -0.00000000000E+00 -0.00000000000E+00 -0.41625730157E+03  0.41625730157E+03  0.00000000000E+00 0. -1.
          1    1    1    2  502    0  0.54047849926E+02 -0.88567463971E+02 -0.11511435417E+03  0.15497315991E+03  0.00000000000E+00 0.  1.
         -1    1    1    2    0  501 -0.54047849926E+02  0.88567463971E+02 -0.27164309000E+03  0.29078399905E+03  0.00000000000E+00 0. -1.
</event>
<event>
 4    1  0.6934088E+001  0.4177958E+02  0.7546771E-02  0.1338362E+00
          2   -1    0    0  502    0  0.00000000000E+00  0.00000000000E+00  0.73346454515E+02  0.73346454515E+02  0.00000000000E+00 0. -1.
         -2   -1    0    0    0  501 -0.00000000000E+00 -0.00000000000E+00 -0.33086041608E+02  0.33086041608E+02  0.00000000000E+00 0.  1.
          1    1    1    2  502    0  0.30311834603E+02 -0.28752843649E+02 -0.80648490413E+01  0.42550853398E+02  0.00000000000E+00 0.  1.
         -1    1    1    2    0  501 -0.30311834603E+02  0.28752843649E+02  0.48325261948E+02  0.63881642724E+02  0.00000000000E+00 0. -1.
</event>
<event>
 4    1  0.6934088E+001  0.2211392E+02  0.7546771E-02  0.1503935E+00
          2   -1    0    0  502    0  0.00000000000E+00  0.00000000000E+00  0.19841078782E+04  0.19841078782E+04  0.00000000000E+00 0.  1.
         -2   -1    0    0    0  501 -0.00000000000E+00 -0.00000000000E+00 -0.24683200405E+00  0.24683200405E+00  0.00000000000E+00 0. -1.
          1    1    1    2  502    0 -0.13396287614E+02 -0.17594459752E+02  0.95399918648E+03  0.95425545497E+03  0.00000000000E+00 0. -1.
         -1    1    1    2    0  501  0.13396287614E+02  0.17594459752E+02  0.10298618597E+04  0.10300992552E+04  0.00000000000E+00 0.  1.
</event>
<event>
 4    1  0.6934088E+001  0.3387600E+02  0.7546771E-02  0.1388642E+00
          2   -1    0    0  502    0  0.00000000000E+00  0.00000000000E+00  0.10663058665E+04  0.10663058665E+04  0.00000000000E+00 0.  1.
         -2   -1    0    0    0  501 -0.00000000000E+00 -0.00000000000E+00 -0.14313577857E+01  0.14313577857E+01  0.00000000000E+00 0. -1.
          1    1    1    2  502    0 -0.22124320167E+02 -0.25653412293E+02  0.26651372005E+03  0.26865804675E+03  0.00000000000E+00 0. -1.
         -1    1    1    2    0  501  0.22124320167E+02  0.25653412293E+02  0.79836078869E+03  0.79907917757E+03  0.00000000000E+00 0.  1.
</event>
<event>
 4    1  0.6934088E+001  0.4287760E+02  0.7546771E-02  0.1332401E+00
          2   -1    0    0  502    0  0.00000000000E+00  0.00000000000E+00  0.12886279248E+04  0.12886279248E+04  0.00000000000E+00 0.  1.
         -2   -1    0    0    0  501 -0.00000000000E+00 -0.00000000000E+00 -0.17012548073E+01  0.17012548073E+01  0.00000000000E+00 0. -1.
          1    1    1    2  502    0  0.38480484266E+02  0.18914046622E+02  0.38428523677E+03  0.38666992646E+03  0.00000000000E+00 0. -1.
         -1    1    1    2    0  501 -0.38480484266E+02 -0.18914046622E+02  0.90264143327E+03  0.90365925320E+03  0.00000000000E+00 0.  1.
</event>
<event>
 4    1  0.6934088E+001  0.6549014E+02  0.7546771E-02  0.1242239E+00
          2   -1    0    0  502    0  0.00000000000E+00  0.00000000000E+00  0.13822916400E+04  0.13822916400E+04  0.00000000000E+00 0.  1.
         -2   -1    0    0    0  501 -0.00000000000E+00 -0.00000000000E+00 -0.47297460869E+01  0.47297460869E+01  0.00000000000E+00 0. -1.
          1    1    1    2  502    0  0.63016928961E+02 -0.17827662884E+02  0.28203584143E+03  0.28953959099E+03  0.00000000000E+00 0. -1.
         -1    1    1    2    0  501 -0.63016928961E+02  0.17827662884E+02  0.10955260525E+04  0.10974817951E+04  0.00000000000E+00 0.  1.
</event>
<event>
 4    1  0.6934088E+001  0.3688500E+02  0.7546771E-02  0.1367774E+00
          2   -1    0    0  502    0  0.00000000000E+00  0.00000000000E+00  0.38931476997E+02  0.38931476997E+02  0.00000000000E+00 0.  1.
         -2   -1    0    0    0  501 -0.00000000000E+00 -0.00000000000E+00 -0.54352748702E+02  0.54352748702E+02  0.00000000000E+00 0. -1.
          1    1    1    2  502    0 -0.23105160802E+02  0.28751603065E+02  0.20159736809E+02  0.42034725200E+02  0.00000000000E+00 0.  1.
         -1    1    1    2    0  501  0.23105160802E+02 -0.28751603065E+02 -0.35581008515E+02  0.51249500499E+02  0.00000000000E+00 0. -1.
</event>
<event>
 4    1  0.6934088E+001  0.2910198E+02  0.7546771E-02  0.1427564E+00
          2   -1    0    0  502    0  0.00000000000E+00  0.00000000000E+00  0.13725619713E+03  0.13725619713E+03  0.00000000000E+00 0.  1.
         -2   -1    0    0    0  501 -0.00000000000E+00 -0.00000000000E+00 -0.95422604727E+01  0.95422604727E+01  0.00000000000E+00 0. -1.
          1    1    1    2  502    0  0.26203013441E+02 -0.12662043650E+02  0.20225398656E+02  0.35439977619E+02  0.00000000000E+00 0. -1.
         -1    1    1    2    0  501 -0.26203013441E+02  0.12662043650E+02  0.10748853800E+03  0.11135847999E+03  0.00000000000E+00 0.  1.
</event>
<event>
 4    1  0.6934088E+001  0.2087463E+02  0.7546771E-02  0.1521062E+00
          2   -1    0    0  502    0  0.00000000000E+00  0.00000000000E+00  0.64968221209E+03  0.64968221209E+03  0.00000000000E+00 0.  1.
         -2   -1    0    0    0  501 -0.00000000000E+00 -0.00000000000E+00 -0.11157966908E+01  0.11157966908E+01  0.00000000000E+00 0. -1.
          1    1    1    2  502    0  0.20762210914E+02  0.21634628217E+01  0.52979879905E+03  0.53020988057E+03  0.00000000000E+00 0.  1.
         -1    1    1    2    0  501 -0.20762210914E+02 -0.21634628217E+01  0.11876761634E+03  0.12058812821E+03  0.00000000000E+00 0. -1.
</event>
<event>
 4    1  0.6934088E+001  0.2041926E+02  0.7546771E-02  0.1527720E+00
          2   -1    0    0  502    0  0.00000000000E+00  0.00000000000E+00  0.25163421050E+04  0.25163421050E+04  0.00000000000E+00 0.  1.
         -2   -1    0    0    0  501 -0.00000000000E+00 -0.00000000000E+00 -0.17192281025E+00  0.17192281025E+00  0.00000000000E+00 0. -1.
          1    1    1    2  502    0  0.17002947801E+02  0.11306905569E+02  0.10186124789E+04  0.10188171222E+04  0.00000000000E+00 0.  1.
         -1    1    1    2    0  501 -0.17002947801E+02 -0.11306905569E+02  0.14975577032E+04  0.14976969056E+04  0.00000000000E+00 0. -1.
</event>
<event>
 4    1  0.6934088E+001  0.2707717E+02  0.7546771E-02  0.1446834E+00
          2   -1    0    0  502    0  0.00000000000E+00  0.00000000000E+00  0.10851472667E+04  0.10851472667E+04  0.00000000000E+00 0. -1.
         -2   -1    0    0    0  501 -0.00000000000E+00 -0.00000000000E+00 -0.68280116608E+00  0.68280116608E+00  0.00000000000E+00 0.  1.
          1    1    1    2  502    0  0.89798552521E+01 -0.25544768642E+02  0.48664669064E+03  0.48739939939E+03  0.00000000000E+00 0. -1.
         -1    1    1    2    0  501 -0.89798552521E+01  0.25544768642E+02  0.59781777490E+03  0.59843066850E+03  0.00000000000E+00 0.  1.
</event>
<event>
 4    1  0.6934088E+001  0.3146832E+02  0.7546771E-02  0.1407252E+00
          2   -1    0    0  502    0  0.00000000000E+00  0.00000000000E+00  0.64395746729E+03  0.64395746729E+03  0.00000000000E+00 0.  1.
         -2   -1    0    0    0  501 -0.00000000000E+00 -0.00000000000E+00 -0.16627908810E+01  0.16627908810E+01  0.00000000000E+00 0. -1.
          1    1    1    2  502    0  0.61581482292E+01  0.30859878447E+02  0.40966486861E+03  0.41087170682E+03  0.00000000000E+00 0.  1.
         -1    1    1    2    0  501 -0.61581482292E+01 -0.30859878447E+02  0.23262980780E+03  0.23474855135E+03  0.00000000000E+00 0. -1.
</event>
<event>
 4    1  0.6934088E+001  0.2197747E+02  0.7546771E-02  0.1505753E+00
          2   -1    0    0  502    0  0.00000000000E+00  0.00000000000E+00  0.32069094685E+03  0.32069094685E+03  0.00000000000E+00 0.  1.
         -2   -1    0    0    0  501 -0.00000000000E+00 -0.00000000000E+00 -0.22242766701E+01  0.22242766701E+01  0.00000000000E+00 0. -1.
          1    1    1    2  502    0  0.63900953041E+01  0.21027974460E+02  0.25097451281E+03  0.25193494222E+03  0.00000000000E+00 0.  1.
         -1    1    1    2    0  501 -0.63900953041E+01 -0.21027974460E+02  0.67492157364E+02  0.70980281301E+02  0.00000000000E+00 0. -1.
</event>
<event>
 4    1  0.6934088E+001  0.2022793E+02  0.7546771E-02  0.1530580E+00
          2   -1    0    0  502    0  0.00000000000E+00  0.00000000000E+00  0.13077380877E+03  0.13077380877E+03  0.00000000000E+00 0. -1.
         -2   -1    0    0    0  501 -0.00000000000E+00 -0.00000000000E+00 -0.31478023378E+01  0.31478023378E+01  0.00000000000E+00 0.  1.
          1    1    1    2  502    0  0.20036173824E+02  0.27786374881E+01  0.58614586500E+02  0.62006764457E+02  0.00000000000E+00 0.  1.
         -1    1    1    2    0  501 -0.20036173824E+02 -0.27786374881E+01  0.69011419934E+02  0.71914846653E+02  0.00000000000E+00 0. -1.
</event>
<event>
 4    1  0.6934088E+001  0.3038447E+02  0.7546771E-02  0.1416284E+00
          2   -1    0    0  502    0  0.00000000000E+00  0.00000000000E+00  0.53626849880E+02  0.53626849880E+02  0.00000000000E+00 0.  1.
         -2   -1    0    0    0  501 -0.00000000000E+00 -0.00000000000E+00 -0.36211411361E+02  0.36211411361E+02  0.00000000000E+00 0. -1.
          1    1    1    2  502    0  0.29013395069E+02 -0.90243476054E+01  0.41241764278E+02  0.51225960839E+02  0.00000000000E+00 0.  1.
         -1    1    1    2    0  501 -0.29013395069E+02  0.90243476054E+01 -0.23826325759E+02  0.38612300401E+02  0.00000000000E+00 0. -1.
</event>
<event>
 4    1  0.6934088E+001  0.2329833E+02  0.7546771E-02  0.1488786E+00
          2   -1    0    0  502    0  0.00000000000E+00  0.00000000000E+00  0.35608264773E+03  0.35608264773E+03  0.00000000000E+00 0. -1.
         -2   -1    0    0    0  501 -0.00000000000E+00 -0.00000000000E+00 -0.15574342390E+01  0.15574342390E+01  0.00000000000E+00 0.  1.
          1    1    1    2  502    0 -0.76273588498E+01 -0.22014435328E+02  0.20330622257E+03  0.20463682978E+03  0.00000000000E+00 0.  1.
         -1    1    1    2    0  501  0.76273588498E+01  0.22014435328E+02  0.15121899092E+03  0.15300325219E+03  0.00000000000E+00 0. -1.
</event>
<event>
 4    1  0.6934088E+001  0.3725903E+02  0.7546771E-02  0.1365342E+00
          2   -1    0    0  502    0  0.00000000000E+00  0.00000000000E+00  0.21969370888E+02  0.21969370888E+02  0.00000000000E+00 0. -1.
         -2   -1    0    0    0  501 -0.00000000000E+00 -0.00000000000E+00 -0.72496872233E+02  0.72496872233E+02  0.00000000000E+00 0.  1.
          1    1    1    2  502    0 -0.37123400103E+02 -0.31762063729E+01 -0.83399111799E+01  0.38181006281E+02  0.00000000000E+00 0.  1.
         -1    1    1    2    0  501  0.37123400103E+02  0.31762063729E+01 -0.42187590165E+02  0.56285236840E+02  0.00000000000E+00 0. -1.
</event>
<event>
 4    1  0.6934088E+001  0.2888780E+02  0.7546771E-02  0.1429514E+00
          2   -1    0    0  502    0  0.00000000000E+00  0.00000000000E+00  0.10144534273E+04  0.10144534273E+04  0.00000000000E+00 0. -1.
         -2   -1    0    0    0  501 -0.00000000000E+00 -0.00000000000E+00 -0.11202774292E+01  0.11202774292E+01  0.00000000000E+00 0.  1.
          1    1    1    2  502    0 -0.24657116444E+02  0.15050973166E+02  0.76841269556E+03  0.76895550969E+03  0.00000000000E+00 0. -1.
         -1    1    1    2    0  501  0.24657116444E+02 -0.15050973166E+02  0.24492045429E+03  0.24661819501E+03  0.00000000000E+00 0.  1.
</event>
<event>
 4    1  0.6934088E+001  0.2444613E+02  0.7546771E-02  0.1475096E+00
          2   -1    0    0  502    0  0.00000000000E+00  0.00000000000E+00  0.44179862138E+03  0.44179862138E+03  0.00000000000E+00 0. -1.
         -2   -1    0    0    0  501 -0.00000000000E+00 -0.00000000000E+00 -0.27033095407E+01  0.27033095407E+01  0.00000000000E+00 0.  1.
          1    1    1    2  502    0  0.18867340102E+02 -0.15544672308E+02  0.37664305032E+03  0.37743555836E+03  0.00000000000E+00 0. -1.
         -1    1    1    2    0  501 -0.18867340102E+02  0.15544672308E+02  0.62452261523E+02  0.67066372565E+02  0.00000000000E+00 0.  1.
</event>
<event>
 4    1  0.6934088E+001  0.2267178E+02  0.7546771E-02  0.1496661E+00
          2   -1    0    0  502    0  0.00000000000E+00  0.00000000000E+00  0.35866302624E+02  0.35866302624E+02  0.00000000000E+00 0.  1.
         -2   -1    0    0    0  501 -0.00000000000E+00 -0.00000000000E+00 -0.18517310930E+02  0.18517310930E+02  0.00000000000E+00 0. -1.
          1    1    1    2  502    0  0.55158882297E+01 -0.21990559644E+02 -0.42540815754E+01  0.23067443432E+02  0.00000000000E+00 0. -1.
         -1    1    1    2    0  501 -0.55158882297E+01  0.21990559644E+02  0.21603073269E+02  0.31316170122E+02  0.00000000000E+00 0.  1.
</event>
<event>
 4    1  0.6934088E+001  0.2055601E+02  0.7546771E-02  0.1525699E+00
          2   -1    0    0  502    0  0.00000000000E+00  0.00000000000E+00  0.80589761145E+02  0.80589761145E+02  0.00000000000E+00 0.  1.
         -2   -1    0    0    0  501 -0.00000000000E+00 -0.00000000000E+00 -0.74820960338E+01  0.74820960338E+01  0.00000000000E+00 0. -1.
          1    1    1    2  502    0  0.19164987487E+02  0.74332151371E+01  0.60642403855E+02  0.64031637321E+02  0.00000000000E+00 0.  1.
         -1    1    1    2    0  501 -0.19164987487E+02 -0.74332151371E+01  0.12465261256E+02  0.24040219858E+02  0.00000000000E+00 0. -1.
</event>
<event>
 4    1  0.6934088E+001  0.2004060E+02  0.7546771E-02  0.1533416E+00
          2   -1    0    0  502    0  0.00000000000E+00  0.00000000000E+00  0.27785731890E+03  0.27785731890E+03  0.00000000000E+00 0. -1.
         -2   -1    0    0    0  501 -0.00000000000E+00 -0.00000000000E+00 -0.24963450635E+01  0.24963450635E+01  0.00000000000E+00 0.  1.
          1    1    1    2  502    0 -0.35070323786E+01  0.19731354484E+02  0.46729793487E+02  0.50845837836E+02  0.00000000000E+00 0.  1.
         -1    1    1    2    0  501  0.35070323786E+01 -0.19731354484E+02  0.22863118035E+03  0.22950782612E+03  0.00000000000E+00 0. -1.
</event>
<event>
 4    1  0.6934088E+001  0.3228263E+02  0.7546771E-02  0.1400745E+00
          2   -1    0    0  502    0  0.00000000000E+00  0.00000000000E+00  0.45585439328E+03  0.45585439328E+03  0.00000000000E+00 0.  1.
         -2   -1    0    0    0  501 -0.00000000000E+00 -0.00000000000E+00 -0.24192709854E+01  0.24192709854E+01  0.00000000000E+00 0. -1.
          1    1    1    2  502    0  0.11441376465E+02 -0.30187132358E+02  0.28045992127E+03  0.28231177002E+03  0.00000000000E+00 0.  1.
         -1    1    1    2    0  501 -0.11441376465E+02  0.30187132358E+02  0.17297520103E+03  0.17596189424E+03  0.00000000000E+00 0. -1.
</event>
<event>
 4    1  0.6934088E+001  0.2312624E+02  0.7546771E-02  0.1490919E+00
          2   -1    0    0  502    0  0.00000000000E+00  0.00000000000E+00  0.31232712495E+02  0.31232712495E+02  0.00000000000E+00 0.  1.
         -2   -1    0    0    0  501 -0.00000000000E+00 -0.00000000000E+00 -0.11574255200E+03  0.11574255200E+03  0.00000000000E+00 0. -1.
          1    1    1    2  502    0  0.23074972827E+02  0.15390424462E+01 -0.11008892456E+03  0.11249175229E+03  0.00000000000E+00 0. -1.
         -1    1    1    2    0  501 -0.23074972827E+02 -0.15390424462E+01  0.25579085048E+02  0.34483512212E+02  0.00000000000E+00 0.  1.
</event>
<event>
 4    1  0.6934088E+001  0.2318697E+02  0.7546771E-02  0.1490164E+00
          2   -1    0    0  502    0  0.00000000000E+00  0.00000000000E+00  0.36799372633E+03  0.36799372633E+03  0.00000000000E+00 0.  1.
         -2   -1    0    0    0  501 -0.00000000000E+00 -0.00000000000E+00 -0.19523134214E+01  0.19523134214E+01  0.00000000000E+00 0. -1.
          1    1    1    2  502    0  0.22861163776E+02  0.38733136442E+01  0.90227305079E+02  0.93159014323E+02  0.00000000000E+00 0. -1.
         -1    1    1    2    0  501 -0.22861163776E+02 -0.38733136442E+01  0.27581410783E+03  0.27678702543E+03  0.00000000000E+00 0.  1.
</event>
<event>
 4    1  0.6934088E+001  0.2491677E+02  0.7546771E-02  0.1469737E+00
          2   -1    0    0  502    0  0.00000000000E+00  0.00000000000E+00  0.68853244840E+01  0.68853244840E+01  0.00000000000E+00 0.  1.
         -2   -1    0    0    0  501 -0.00000000000E+00 -0.00000000000E+00 -0.96201722921E+02  0.96201722921E+02  0.00000000000E+00 0. -1.
          1    1    1    2  502    0 -0.15724837352E+02  0.19328087098E+02 -0.31751191123E+02  0.40360668953E+02  0.00000000000E+00 0.  1.
         -1    1    1    2    0  501  0.15724837352E+02 -0.19328087098E+02 -0.57565207314E+02  0.62726378452E+02  0.00000000000E+00 0. -1.
</event>
<event>
 4    1  0.6934088E+001  0.4281348E+02  0.7546771E-02  0.1332743E+00
          2   -1    0    0  502    0  0.00000000000E+00  0.00000000000E+00  0.56634332147E+03  0.56634332147E+03  0.00000000000E+00 0.  1.
         -2   -1    0    0    0  501 -0.00000000000E+00 -0.00000000000E+00 -0.37648722252E+01  0.37648722252E+01  0.00000000000E+00 0. -1.
          1    1    1    2  502    0 -0.30043841280E+02  0.30501834880E+02  0.38807283899E+03  0.39042735905E+03  0.00000000000E+00 0. -1.
         -1    1    1    2    0  501  0.30043841280E+02 -0.30501834880E+02  0.17450561026E+03  0.17968083465E+03  0.00000000000E+00 0.  1.
</event>
<event>
 4    1  0.6934088E+001  0.2205383E+02  0.7546771E-02  0.1504734E+00
          2   -1    0    0  502    0  0.00000000000E+00  0.00000000000E+00  0.39725070701E+03  0.39725070701E+03  0.00000000000E+00 0. -1.
         -2   -1    0    0    0  501 -0.00000000000E+00 -0.00000000000E+00 -0.14361194319E+01  0.14361194319E+01  0.00000000000E+00 0.  1.
          1    1    1    2  502    0  0.20796244004E+02 -0.73408125235E+01  0.12135733110E+03  0.12334493546E+03  0.00000000000E+00 0.  1.
         -1    1    1    2    0  501 -0.20796244004E+02  0.73408125235E+01  0.27445725648E+03  0.27534189098E+03  0.00000000000E+00 0. -1.
</event>
<event>
 4    1  0.6934088E+001  0.3904642E+02  0.7546771E-02  0.1354166E+00
          2   -1    0    0  502    0  0.00000000000E+00  0.00000000000E+00  0.50066688526E+03  0.50066688526E+03  0.00000000000E+00 0. -1.
         -2   -1    0    0    0  501 -0.00000000000E+00 -0.00000000000E+00 -0.33464861146E+01  0.33464861146E+01  0.00000000000E+00 0.  1.
          1    1    1    2  502    0  0.28235002231E+02  0.26970497941E+02  0.17304342031E+03  0.17739404844E+03  0.00000000000E+00 0. -1.
         -1    1    1    2    0  501 -0.28235002231E+02 -0.26970497941E+02  0.32427697884E+03  0.32661932293E+03  0.00000000000E+00 0.  1.
</event>
<event>
 4    1  0.6934088E+001  0.2140440E+02  0.7546771E-02  0.1513569E+00
          2   -1    0    0  502    0  0.00000000000E+00  0.00000000000E+00  0.17189450523E+04  0.17189450523E+04  0.00000000000E+00 0.  1.
         -2   -1    0    0    0  501 -0.00000000000E+00 -0.00000000000E+00 -0.26678387874E+00  0.26678387874E+00  0.00000000000E+00 0. -1.
          1    1    1    2  502    0 -0.11005285441E+02 -0.18358433509E+02  0.88591843948E+03  0.88617697431E+03  0.00000000000E+00 0.  1.
         -1    1    1    2    0  501  0.11005285441E+02  0.18358433509E+02  0.83275982895E+03  0.83303486187E+03  0.00000000000E+00 0. -1.
</event>
<event>
 4    1  0.6934088E+001  0.2424059E+02  0.7546771E-02  0.1477481E+00
          2   -1    0    0  502    0  0.00000000000E+00  0.00000000000E+00  0.10250121930E+03  0.10250121930E+03  0.00000000000E+00 0. -1.
         -2   -1    0    0    0  501 -0.00000000000E+00 -0.00000000000E+00 -0.85012101068E+01  0.85012101068E+01  0.00000000000E+00 0.  1.
          1    1    1    2  502    0  0.71091538155E+01  0.23174684493E+02  0.78672859660E+02  0.82322687738E+02  0.00000000000E+00 0. -1.
         -1    1    1    2    0  501 -0.71091538155E+01 -0.23174684493E+02  0.15327149530E+02  0.28679741666E+02  0.00000000000E+00 0.  1.
</event>
<event>
 4    1  0.6934088E+001  0.2803212E+02  0.7546771E-02  0.1437507E+00
          2   -1    0    0  502    0  0.00000000000E+00  0.00000000000E+00  0.18956781338E+02  0.18956781338E+02  0.00000000000E+00 0. -1.
         -2   -1    0    0    0  501 -0.00000000000E+00 -0.00000000000E+00 -0.52698564706E+02  0.52698564706E+02  0.00000000000E+00 0.  1.
          1    1    1    2  502    0  0.51744313719E+01  0.27550406006E+02 -0.33421958157E+02  0.43621404129E+02  0.00000000000E+00 0.  1.
         -1    1    1    2    0  501 -0.51744313719E+01 -0.27550406006E+02 -0.31982521012E+00  0.28033941915E+02  0.00000000000E+00 0. -1.
</event>
<event>
 4    1  0.6934088E+001  0.2647519E+02  0.7546771E-02  0.1452952E+00
          2   -1    0    0  502    0  0.00000000000E+00  0.00000000000E+00  0.13005419927E+03  0.13005419927E+03  0.00000000000E+00 0. -1.
         -2   -1    0    0    0  501 -0.00000000000E+00 -0.00000000000E+00 -0.95000066341E+01  0.95000066341E+01  0.00000000000E+00 0.  1.
          1    1    1    2  502    0 -0.26395746444E+02  0.20494942165E+01  0.14378954614E+02  0.30127897250E+02  0.00000000000E+00 0.  1.
         -1    1    1    2    0  501  0.26395746444E+02 -0.20494942165E+01  0.10617523802E+03  0.10942630866E+03  0.00000000000E+00 0. -1.
</event>
<event>
 4    1  0.6934088E+001  0.4120641E+02  0.7546771E-02  0.1341558E+00
          2   -1    0    0  502    0  0.00000000000E+00  0.00000000000E+00  0.43494882231E+01  0.43494882231E+01  0.00000000000E+00 0. -1.
         -2   -1    0    0    0  501 -0.00000000000E+00 -0.00000000000E+00 -0.41468699585E+03  0.41468699585E+03  0.00000000000E+00 0.  1.
          1    1    1    2  502    0  0.29026951050E+02 -0.29247302878E+02 -0.25589066895E+03  0.25918719696E+03  0.00000000000E+00 0. -1.
         -1    1    1    2    0  501 -0.29026951050E+02  0.29247302878E+02 -0.15444683868E+03  0.15984928712E+03  0.00000000000E+00 0.  1.
</event>
<event>
 4    1  0.6934088E+001  0.2130453E+02  0.7546771E-02  0.1514961E+00
          2   -1    0    0  502    0  0.00000000000E+00  0.00000000000E+00  0.25089782895E+03  0.25089782895E+03  0.00000000000E+00 0. -1.
         -2   -1    0    0    0  501 -0.00000000000E+00 -0.00000000000E+00 -0.18506608990E+01  0.18506608990E+01  0.00000000000E+00 0.  1.
          1    1    1    2  502    0  0.20941689113E+02  0.39151787214E+01  0.10557063976E+03  0.10769885305E+03  0.00000000000E+00 0. -1.
         -1    1    1    2    0  501 -0.20941689113E+02 -0.39151787214E+01  0.14347652829E+03  0.14504963681E+03  0.00000000000E+00 0.  1.
</event>
<event>
 4    1  0.6934088E+001  0.3108932E+02  0.7546771E-02  0.1410360E+00
          2   -1    0    0  502    0  0.00000000000E+00  0.00000000000E+00  0.20759578282E+02  0.20759578282E+02  0.00000000000E+00 0.  1.
         -2   -1    0    0    0  501 -0.00000000000E+00 -0.00000000000E+00 -0.51849955543E+02  0.51849955543E+02  0.00000000000E+00 0. -1.
          1    1    1    2  502    0  0.61024207651E+01  0.30484529642E+02 -0.27142432034E+02  0.41270542805E+02  0.00000000000E+00 0. -1.
         -1    1    1    2    0  501 -0.61024207651E+01 -0.30484529642E+02 -0.39479452264E+01  0.31338991021E+02  0.00000000000E+00 0.  1.
</event>
<event>
 4    1  0.6934088E+001  0.2261935E+02  0.7546771E-02  0.1497334E+00
          2   -1    0    0  502    0  0.00000000000E+00  0.00000000000E+00  0.78196089994E+02  0.78196089994E+02  0.00000000000E+00 0. -1.
         -2   -1    0    0    0  501 -0.00000000000E+00 -0.00000000000E+00 -0.84234259305E+01  0.84234259305E+01  0.00000000000E+00 0.  1.
          1    1    1    2  502    0  0.22443791014E+02  0.28126711008E+01  0.14423174084E+02  0.26826532099E+02  0.00000000000E+00 0.  1.
         -1    1    1    2    0  501 -0.22443791014E+02 -0.28126711008E+01  0.55349489979E+02  0.59792983825E+02  0.00000000000E+00 0. -1.
</event>
<event>
 4    1  0.6934088E+001  0.2263562E+02  0.7546771E-02  0.1497125E+00
          2   -1    0    0  502    0  0.00000000000E+00  0.00000000000E+00  0.35782507781E+02  0.35782507781E+02  0.00000000000E+00 0. -1.
         -2   -1    0    0    0  501 -0.00000000000E+00 -0.00000000000E+00 -0.16803651893E+02  0.16803651893E+02  0.00000000000E+00 0.  1.
          1    1    1    2  502    0 -0.20899739690E+02 -0.86932380642E+01 -0.62096545648E+00  0.22644140639E+02  0.00000000000E+00 0. -1.
         -1    1    1    2    0  501  0.20899739690E+02  0.86932380642E+01  0.19599821344E+02  0.29942019035E+02  0.00000000000E+00 0.  1.
</event>
<event>
 4    1  0.6934088E+001  0.2211918E+02  0.7546771E-02  0.1503865E+00
          2   -1    0    0  502    0  0.00000000000E+00  0.00000000000E+00  0.22537127763E+04  0.22537127763E+04  0.00000000000E+00 0.  1.
         -2   -1    0    0    0  501 -0.00000000000E+00 -0.00000000000E+00 -0.26843206373E+00  0.26843206373E+00  0.00000000000E+00 0. -1.
          1    1    1    2  502    0  0.21416790962E+02 -0.55298344873E+01  0.16196016128E+04  0.16197526485E+04  0.00000000000E+00 0.  1.
         -1    1    1    2    0  501 -0.21416790962E+02  0.55298344873E+01  0.63384273138E+03  0.63422855985E+03  0.00000000000E+00 0. -1.
</event>
<event>
 4    1  0.6934088E+001  0.2091679E+02  0.7546771E-02  0.1520456E+00
          2   -1    0    0  502    0  0.00000000000E+00  0.00000000000E+00  0.16168335250E+03  0.16168335250E+03  0.00000000000E+00 0.  1.
         -2   -1    0    0    0  501 -0.00000000000E+00 -0.00000000000E+00 -0.28898767046E+01  0.28898767046E+01  0.00000000000E+00 0. -1.
          1    1    1    2  502    0  0.15802020581E+01 -0.20857017350E+02  0.10015420560E+03  0.10231508740E+03  0.00000000000E+00 0.  1.
         -1    1    1    2    0  501 -0.15802020581E+01  0.20857017350E+02  0.58639270194E+02  0.62258141798E+02  0.00000000000E+00 0. -1.
</event>
<event>
 4    1  0.6934088E+001  0.3359265E+02  0.7546771E-02  0.1390737E+00
          2   -1    0    0  502    0  0.00000000000E+00  0.00000000000E+00  0.29084570660E+04  0.29084570660E+04  0.00000000000E+00 0.  1.
         -2   -1    0    0    0  501 -0.00000000000E+00 -0.00000000000E+00 -0.60134590103E+00  0.60134590103E+00  0.00000000000E+00 0. -1.
          1    1    1    2  502    0 -0.24181485470E+01 -0.33505498828E+02  0.23203066785E+04  0.23205498375E+04  0.00000000000E+00 0.  1.
         -1    1    1    2    0  501  0.24181485470E+01  0.33505498828E+02  0.58754904166E+03  0.58850857449E+03  0.00000000000E+00 0. -1.
</event>
<event>
 4    1  0.6934088E+001  0.2627633E+02  0.7546771E-02  0.1455016E+00
          2   -1    0    0  502    0  0.00000000000E+00  0.00000000000E+00  0.78532287468E+03  0.78532287468E+03  0.00000000000E+00 0.  1.
         -2   -1    0    0    0  501 -0.00000000000E+00 -0.00000000000E+00 -0.95806858491E+00  0.95806858491E+00  0.00000000000E+00 0. -1.
          1    1    1    2  502    0  0.57190054816E+01  0.25646410080E+02  0.27937482381E+03  0.28060780023E+03  0.00000000000E+00 0. -1.
         -1    1    1    2    0  501 -0.57190054816E+01 -0.25646410080E+02  0.50498998229E+03  0.50567314303E+03  0.00000000000E+00 0.  1.
</event>
<event>
 4    1  0.6934088E+001  0.2144443E+02  0.7546771E-02  0.1513013E+00
          2   -1    0    0  502    0  0.00000000000E+00  0.00000000000E+00  0.10859678736E+02  0.10859678736E+02  0.00000000000E+00 0. -1.
         -2   -1    0    0    0  501 -0.00000000000E+00 -0.00000000000E+00 -0.46627193994E+02  0.46627193994E+02  0.00000000000E+00 0.  1.
          1    1    1    2  502    0 -0.13455742302E+02 -0.16697506887E+02 -0.26593444121E+02  0.34162479526E+02  0.00000000000E+00 0.  1.
         -1    1    1    2    0  501  0.13455742302E+02  0.16697506887E+02 -0.91740711370E+01  0.23324393205E+02  0.00000000000E+00 0. -1.
</event>
<event>
 4    1  0.6934088E+001  0.2523686E+02  0.7546771E-02  0.1466171E+00
          2   -1    0    0  502    0  0.00000000000E+00  0.00000000000E+00  0.16975564136E+03  0.16975564136E+03  0.00000000000E+00 0. -1.
         -2   -1    0    0    0  501 -0.00000000000E+00 -0.00000000000E+00 -0.39816405274E+01  0.39816405274E+01  0.00000000000E+00 0.  1.
          1    1    1    2  502    0  0.11272424614E+01  0.25211674746E+02  0.62018577750E+02  0.66956726363E+02  0.00000000000E+00 0. -1.
         -1    1    1    2    0  501 -0.11272424614E+01 -0.25211674746E+02  0.10375542308E+03  0.10678055552E+03  0.00000000000E+00 0.  1.
</event>
<event>
 4    1  0.6934088E+001  0.2238535E+02  0.7546771E-02  0.1500364E+00
          2   -1    0    0  502    0  0.00000000000E+00  0.00000000000E+00  0.18575487944E+03  0.18575487944E+03  0.00000000000E+00 0. -1.
         -2   -1    0    0    0  501 -0.00000000000E+00 -0.00000000000E+00 -0.26977442398E+01  0.26977442398E+01  0.00000000000E+00 0.  1.
          1    1    1    2  502    0 -0.88509455986E+01  0.20561245223E+02  0.92046026706E+02  0.94728955845E+02  0.00000000000E+00 0. -1.
         -1    1    1    2    0  501  0.88509455986E+01 -0.20561245223E+02  0.91011108497E+02  0.93723667837E+02  0.00000000000E+00 0.  1.
</event>
<event>
 4    1  0.6934088E+001  0.2732808E+02  0.7546771E-02  0.1444340E+00
          2   -1    0    0  502    0  0.00000000000E+00  0.00000000000E+00  0.33348128384E+03  0.33348128384E+03  0.00000000000E+00 0. -1.
         -2   -1    0    0    0  501 -0.00000000000E+00 -0.00000000000E+00 -0.26264615499E+01  0.26264615499E+01  0.00000000000E+00 0.  1.
          1    1    1    2  502    0 -0.25694246185E+02  0.93074970096E+01  0.22993482163E+03  0.23155311698E+03  0.00000000000E+00 0. -1.
         -1    1    1    2    0  501  0.25694246185E+02 -0.93074970096E+01  0.10092000066E+03  0.10455462841E+03  0.00000000000E+00 0.  1.
</event>
<event>
 4    1  0.6934088E+001  0.2324531E+02  0.7546771E-02  0.1489440E+00
          2   -1    0    0  502    0  0.00000000000E+00  0.00000000000E+00  0.16125461951E+01  0.16125461951E+01  0.00000000000E+00 0. -1.
         -2   -1    0    0    0  501 -0.00000000000E+00 -0.00000000000E+00 -0.53237313631E+03  0.53237313631E+03  0.00000000000E+00 0.  1.
          1    1    1    2  502    0 -0.21410493345E+02  0.90518161076E+01 -0.10284827826E+03  0.10544246270E+03  0.00000000000E+00 0. -1.
         -1    1    1    2    0  501  0.21410493345E+02 -0.90518161076E+01 -0.42791231186E+03  0.42854321980E+03  0.00000000000E+00 0.  1.
</event>
<event>
 4    1  0.6934088E+001  0.4847975E+02  0.7546771E-02  0.1304902E+00
          2   -1    0    0  502    0  0.00000000000E+00  0.00000000000E+00  0.14053347601E+04  0.14053347601E+04  0.00000000000E+00 0.  1.
         -2   -1    0    0    0  501 -0.00000000000E+00 -0.00000000000E+00 -0.20456589861E+01  0.20456589861E+01  0.00000000000E+00 0. -1.
          1    1    1    2  502    0 -0.38999218288E+02  0.28798380094E+02  0.40105877593E+03  0.40397825123E+03  0.00000000000E+00 0. -1.
         -1    1    1    2    0  501  0.38999218288E+02 -0.28798380094E+02  0.10022303252E+04  0.10034021679E+04  0.00000000000E+00 0.  1.
</event>
<event>
 4    1  0.6934088E+001  0.2169906E+02  0.7546771E-02  0.1509514E+00
          2   -1    0    0  502    0  0.00000000000E+00  0.00000000000E+00  0.47666664171E+03  0.47666664171E+03  0.00000000000E+00 0.  1.
         -2   -1    0    0    0  501 -0.00000000000E+00 -0.00000000000E+00 -0.12004020030E+01  0.12004020030E+01  0.00000000000E+00 0. -1.
          1    1    1    2  502    0  0.18902326386E+02 -0.10656042659E+02  0.13717851842E+03  0.13888410674E+03  0.00000000000E+00 0. -1.
         -1    1    1    2    0  501 -0.18902326386E+02  0.10656042659E+02  0.33828772129E+03  0.33898293698E+03  0.00000000000E+00 0.  1.
</event>
<event>
 4    1  0.6934088E+001  0.2564575E+02  0.7546771E-02  0.1461707E+00
          2   -1    0    0  502    0  0.00000000000E+00  0.00000000000E+00  0.18320330129E+02  0.18320330129E+02  0.00000000000E+00 0. -1.
         -2   -1    0    0    0  501 -0.00000000000E+00 -0.00000000000E+00 -0.58784395355E+02  0.58784395355E+02  0.00000000000E+00 0.  1.
          1    1    1    2  502    0  0.99536129277E+00  0.25626425773E+02 -0.44286033097E+02  0.51175747864E+02  0.00000000000E+00 0.  1.
         -1    1    1    2    0  501 -0.99536129277E+00 -0.25626425773E+02  0.38219678706E+01  0.25928977620E+02  0.00000000000E+00 0. -1.
</event>
<event>
 4    1  0.6934088E+001  0.3635831E+02  0.7546771E-02  0.1371257E+00
          2   -1    0    0  502    0  0.00000000000E+00  0.00000000000E+00  0.41372607361E+01  0.41372607361E+01  0.00000000000E+00 0. -1.
         -2   -1    0    0    0  501 -0.00000000000E+00 -0.00000000000E+00 -0.32304612779E+03  0.32304612779E+03  0.00000000000E+00 0.  1.
          1    1    1    2  502    0  0.39537759460E+01 -0.36142689603E+02 -0.14235646288E+03  0.14692613409E+03  0.00000000000E+00 0. -1.
         -1    1    1    2    0  501 -0.39537759460E+01  0.36142689603E+02 -0.17655240417E+03  0.18025725443E+03  0.00000000000E+00 0.  1.
</event>
<event>
 4    1  0.6934088E+001  0.7419537E+02  0.7546771E-02  0.1218005E+00
          2   -1    0    0  502    0  0.00000000000E+00  0.00000000000E+00  0.17670564775E+02  0.17670564775E+02  0.00000000000E+00 0.  1.
         -2   -1    0    0    0  501 -0.00000000000E+00 -0.00000000000E+00 -0.38377855484E+03  0.38377855484E+03  0.00000000000E+00 0. -1.
          1    1    1    2  502    0 -0.27599604633E+02  0.68871004991E+02 -0.95964148993E+02  0.12130157211E+03  0.00000000000E+00 0.  1.
         -1    1    1    2    0  501  0.27599604633E+02 -0.68871004991E+02 -0.27014384107E+03  0.28014754751E+03  0.00000000000E+00 0. -1.
</event>
<event>
 4    1  0.6934088E+001  0.2067612E+02  0.7546771E-02  0.1523940E+00
          2   -1    0    0  502    0  0.00000000000E+00  0.00000000000E+00  0.22888499599E+02  0.22888499599E+02  0.00000000000E+00 0. -1.
         -2   -1    0    0    0  501 -0.00000000000E+00 -0.00000000000E+00 -0.20607889629E+02  0.20607889629E+02  0.00000000000E+00 0.  1.
          1    1    1    2  502    0  0.22562788650E+00 -0.20674892412E+02  0.77963837983E+01  0.22097187254E+02  0.00000000000E+00 0. -1.
         -1    1    1    2    0  501 -0.22562788650E+00  0.20674892412E+02 -0.55157738277E+01  0.21399201974E+02  0.00000000000E+00 0.  1.
</event>
<event>
 4    1  0.6934088E+001  0.3997460E+02  0.7546771E-02  0.1348635E+00
          2   -1    0    0  502    0  0.00000000000E+00  0.00000000000E+00  0.79868904706E+02  0.79868904706E+02  0.00000000000E+00 0.  1.
         -2   -1    0    0    0  501 -0.00000000000E+00 -0.00000000000E+00 -0.89650331361E+02  0.89650331361E+02  0.00000000000E+00 0. -1.
          1    1    1    2  502    0 -0.16132982946E+01  0.39942036371E+02 -0.79596039725E+02  0.89070188844E+02  0.00000000000E+00 0. -1.
         -1    1    1    2    0  501  0.16132982946E+01 -0.39942036371E+02  0.69814613070E+02  0.80449047222E+02  0.00000000000E+00 0.  1.
</event>
<event>
 4    1  0.6934088E+001  0.2365514E+02  0.7546771E-02  0.1484431E+00
          2   -1    0    0  502    0  0.00000000000E+00  0.00000000000E+00  0.17366768711E+04  0.17366768711E+04  0.00000000000E+00 0. -1.
         -2   -1    0    0    0  501 -0.00000000000E+00 -0.00000000000E+00 -0.55111904227E+00  0.55111904227E+00  0.00000000000E+00 0.  1.
          1    1    1    2  502    0  0.12872900134E+02 -0.19845755254E+02  0.14278727522E+04  0.14280686825E+04  0.00000000000E+00 0. -1.
         -1    1    1    2    0  501 -0.12872900134E+02  0.19845755254E+02  0.30825299984E+03  0.30915930759E+03  0.00000000000E+00 0.  1.
</event>
<event>
 4    1  0.6934088E+001  0.2577988E+02  0.7546771E-02  0.1460265E+00
          2   -1    0    0  502    0  0.00000000000E+00  0.00000000000E+00  0.23995067455E+02  0.23995067455E+02  0.00000000000E+00 0. -1.
         -2   -1    0    0    0  501 -0.00000000000E+00 -0.00000000000E+00 -0.36411758401E+02  0.36411758401E+02  0.00000000000E+00 0.  1.
          1    1    1    2  502    0 -0.15802048801E+02  0.20369031635E+02  0.85674762057E+01  0.27166226175E+02  0.00000000000E+00 0. -1.
         -1    1    1    2    0  501  0.15802048801E+02 -0.20369031635E+02 -0.20984167152E+02  0.33240599681E+02  0.00000000000E+00 0.  1.
</event>
<event>
 4    1  0.6934088E+001  0.2033333E+02  0.7546771E-02  0.1529000E+00
          2   -1    0    0  502    0  0.00000000000E+00  0.00000000000E+00  0.48696702724E+01  0.48696702724E+01  0.00000000000E+00 0.  1.
         -2   -1    0    0    0  501 -0.00000000000E+00 -0.00000000000E+00 -0.89699644321E+02  0.89699644321E+02  0.00000000000E+00 0. -1.
          1    1    1    2  502    0 -0.20015997411E+02 -0.35782874110E+01 -0.31479374507E+02  0.37475262674E+02  0.00000000000E+00 0.  1.
         -1    1    1    2    0  501  0.20015997411E+02  0.35782874110E+01 -0.53350599541E+02  0.57094051919E+02  0.00000000000E+00 0. -1.
</event>
<event>
 4    1  0.6934088E+001  0.3772275E+02  0.7546771E-02  0.1362373E+00
          2   -1    0    0  502    0  0.00000000000E+00  0.00000000000E+00  0.43548539610E+02  0.43548539610E+02  0.00000000000E+00 0. -1.
         -2   -1    0    0    0  501 -0.00000000000E+00 -0.00000000000E+00 -0.33273127398E+02  0.33273127398E+02  0.00000000000E+00 0.  1.
          1    1    1    2  502    0 -0.11343752394E+02 -0.35976725686E+02  0.10282029346E+02  0.39098921174E+02  0.00000000000E+00 0.  1.
         -1    1    1    2    0  501  0.11343752394E+02  0.35976725686E+02 -0.66171350732E-02  0.37722745834E+02  0.00000000000E+00 0. -1.
</event>
<event>
 4    1  0.6934088E+001  0.4020290E+02  0.7546771E-02  0.1347301E+00
          2   -1    0    0  502    0  0.00000000000E+00  0.00000000000E+00  0.31265644669E+01  0.31265644669E+01  0.00000000000E+00 0. -1.
         -2   -1    0    0    0  501 -0.00000000000E+00 -0.00000000000E+00 -0.52976439598E+03  0.52976439598E+03  0.00000000000E+00 0.  1.
          1    1    1    2  502    0  0.11139176696E+02 -0.38628903182E+02 -0.22187715777E+03  0.22549001432E+03  0.00000000000E+00 0. -1.
         -1    1    1    2    0  501 -0.11139176696E+02  0.38628903182E+02 -0.30476067374E+03  0.30740094613E+03  0.00000000000E+00 0.  1.
</event>
<event>
 4    1  0.6934088E+001  0.2518523E+02  0.7546771E-02  0.1466742E+00
          2   -1    0    0  502    0  0.00000000000E+00  0.00000000000E+00  0.18511622210E+04  0.18511622210E+04  0.00000000000E+00 0.  1.
         -2   -1    0    0    0  501 -0.00000000000E+00 -0.00000000000E+00 -0.40146109419E+00  0.40146109419E+00  0.00000000000E+00 0. -1.
          1    1    1    2  502    0  0.23144087941E+02 -0.99321113633E+01  0.12797257091E+04  0.12799735100E+04  0.00000000000E+00 0.  1.
         -1    1    1    2    0  501 -0.23144087941E+02  0.99321113633E+01  0.57103505076E+03  0.57159017209E+03  0.00000000000E+00 0. -1.
</event>
<event>
 4    1  0.6934088E+001  0.2031593E+02  0.7546771E-02  0.1529260E+00
          2   -1    0    0  502    0  0.00000000000E+00  0.00000000000E+00  0.83115318012E+01  0.83115318012E+01  0.00000000000E+00 0.  1.
         -2   -1    0    0    0  501 -0.00000000000E+00 -0.00000000000E+00 -0.58342712572E+02  0.58342712572E+02  0.00000000000E+00 0. -1.
          1    1    1    2  502    0  0.25198169910E+01  0.20159059716E+02 -0.37873573276E+02  0.42978421551E+02  0.00000000000E+00 0. -1.
         -1    1    1    2    0  501 -0.25198169910E+01 -0.20159059716E+02 -0.12157607495E+02  0.23675822822E+02  0.00000000000E+00 0.  1.
</event>
<event>
 4    1  0.6934088E+001  0.2745342E+02  0.7546771E-02  0.1443106E+00
          2   -1    0    0  502    0  0.00000000000E+00  0.00000000000E+00  0.60883896630E+01  0.60883896630E+01  0.00000000000E+00 0. -1.
         -2   -1    0    0    0  501 -0.00000000000E+00 -0.00000000000E+00 -0.13934306286E+03  0.13934306286E+03  0.00000000000E+00 0.  1.
          1    1    1    2  502    0  0.22646472147E+02 -0.15518616216E+02 -0.90919958168E+02  0.94974359399E+02  0.00000000000E+00 0. -1.
         -1    1    1    2    0  501 -0.22646472147E+02  0.15518616216E+02 -0.42334715030E+02  0.50457093125E+02  0.00000000000E+00 0.  1.
</event>
<event>
 4    1  0.6934088E+001  0.2672509E+02  0.7546771E-02  0.1450389E+00
          2   -1    0    0  502    0  0.00000000000E+00  0.00000000000E+00  0.33520518385E+02  0.33520518385E+02  0.00000000000E+00 0.  1.
         -2   -1    0    0    0  501 -0.00000000000E+00 -0.00000000000E+00 -0.21610482561E+02  0.21610482561E+02  0.00000000000E+00 0. -1.
          1    1    1    2  502    0  0.26473685341E+02  0.36571113526E+01  0.92202400296E+01  0.28270891482E+02  0.00000000000E+00 0. -1.
         -1    1    1    2    0  501 -0.26473685341E+02 -0.36571113526E+01  0.26897957936E+01  0.26860109464E+02  0.00000000000E+00 0.  1.
</event>
<event>
 4    1  0.6934088E+001  0.8174356E+02  0.7546771E-02  0.1199857E+00
          2   -1    0    0  502    0  0.00000000000E+00  0.00000000000E+00  0.65884883111E+02  0.65884883111E+02  0.00000000000E+00 0.  1.
         -2   -1    0    0    0  501 -0.00000000000E+00 -0.00000000000E+00 -0.13741511132E+03  0.13741511132E+03  0.00000000000E+00 0. -1.
          1    1    1    2  502    0 -0.32086345040E+02 -0.75182950765E+02  0.16260247748E+02  0.83345097520E+02  0.00000000000E+00 0.  1.
         -1    1    1    2    0  501  0.32086345040E+02  0.75182950765E+02 -0.87790475957E+02  0.11995489691E+03  0.00000000000E+00 0. -1.
</event>
<event>
 4    1  0.6934088E+001  0.2246978E+02  0.7546771E-02  0.1499266E+00
          2   -1    0    0  502    0  0.00000000000E+00  0.00000000000E+00  0.11770562455E+04  0.11770562455E+04  0.00000000000E+00 0.  1.
         -2   -1    0    0    0  501 -0.00000000000E+00 -0.00000000000E+00 -0.18050410794E+01  0.18050410794E+01  0.00000000000E+00 0. -1.
          1    1    1    2  502    0 -0.16382162138E+02  0.15379076210E+02  0.11022776447E+04  0.11025066427E+04  0.00000000000E+00 0.  1.
         -1    1    1    2    0  501  0.16382162138E+02 -0.15379076210E+02  0.72973559688E+02  0.76354643834E+02  0.00000000000E+00 0. -1.
</event>
<event>
 4    1  0.6934088E+001  0.2034713E+02  0.7546771E-02  0.1528794E+00
          2   -1    0    0  502    0  0.00000000000E+00  0.00000000000E+00  0.34336773787E+03  0.34336773787E+03  0.00000000000E+00 0.  1.
         -2   -1    0    0    0  501 -0.00000000000E+00 -0.00000000000E+00 -0.28729176207E+01  0.28729176207E+01  0.00000000000E+00 0. -1.
          1    1    1    2  502    0 -0.10382171705E+02 -0.17499030931E+02  0.30212771276E+03  0.30281208759E+03  0.00000000000E+00 0.  1.
         -1    1    1    2    0  501  0.10382171705E+02  0.17499030931E+02  0.38367107488E+02  0.43428567900E+02  0.00000000000E+00 0. -1.
</event>
<event>
 4    1  0.6934088E+001  0.4008055E+02  0.7546771E-02  0.1348014E+00
          2   -1    0    0  502    0  0.00000000000E+00  0.00000000000E+00  0.24168789288E+02  0.24168789288E+02  0.00000000000E+00 0.  1.
         -2   -1    0    0    0  501 -0.00000000000E+00 -0.00000000000E+00 -0.67447552634E+02  0.67447552634E+02  0.00000000000E+00 0. -1.
          1    1    1    2  502    0 -0.20921337547E+02 -0.34186953226E+02 -0.27159933128E+02  0.48416031468E+02  0.00000000000E+00 0. -1.
         -1    1    1    2    0  501  0.20921337547E+02  0.34186953226E+02 -0.16118830218E+02  0.43200310453E+02  0.00000000000E+00 0.  1.
</event>
<event>
 4    1  0.6934088E+001  0.2662412E+02  0.7546771E-02  0.1451421E+00
          2   -1    0    0  502    0  0.00000000000E+00  0.00000000000E+00  0.37055690442E+02  0.37055690442E+02  0.00000000000E+00 0.  1.
         -2   -1    0    0    0  501 -0.00000000000E+00 -0.00000000000E+00 -0.19242350193E+02  0.19242350193E+02  0.00000000000E+00 0. -1.
          1    1    1    2  502    0 -0.21456125768E+02 -0.15763192941E+02  0.67475733682E+01  0.27465857552E+02  0.00000000000E+00 0.  1.
         -1    1    1    2    0  501  0.21456125768E+02  0.15763192941E+02  0.11065766881E+02  0.28832183083E+02  0.00000000000E+00 0. -1.
</event>
<event>
 4    1  0.6934088E+001  0.9448933E+02  0.7546771E-02  0.1173715E+00
          2   -1    0    0  502    0  0.00000000000E+00  0.00000000000E+00  0.11651744506E+04  0.11651744506E+04  0.00000000000E+00 0. -1.
         -2   -1    0    0    0  501 -0.00000000000E+00 -0.00000000000E+00 -0.98920623042E+01  0.98920623042E+01  0.00000000000E+00 0.  1.
          1    1    1    2  502    0  0.43712477124E+02  0.83770237139E+02  0.85656900141E+03  0.86176486785E+03  0.00000000000E+00 0. -1.
         -1    1    1    2    0  501 -0.43712477124E+02 -0.83770237139E+02  0.29871338685E+03  0.31330164501E+03  0.00000000000E+00 0.  1.
</event>
<event>
 4    1  0.6934088E+001  0.2401746E+02  0.7546771E-02  0.1480102E+00
          2   -1    0    0  502    0  0.00000000000E+00  0.00000000000E+00  0.45740904965E+01  0.45740904965E+01  0.00000000000E+00 0. -1.
         -2   -1    0    0    0  501 -0.00000000000E+00 -0.00000000000E+00 -0.13534626232E+03  0.13534626232E+03  0.00000000000E+00 0.  1.
          1    1    1    2  502    0 -0.22140064660E+02 -0.93089282028E+01 -0.47110319033E+02  0.52879303766E+02  0.00000000000E+00 0. -1.
         -1    1    1    2    0  501  0.22140064660E+02  0.93089282028E+01 -0.83661852793E+02  0.87041049053E+02  0.00000000000E+00 0.  1.
</event>
<event>
 4    1  0.6934088E+001  0.2062929E+02  0.7546771E-02  0.1524624E+00
          2   -1    0    0  502    0  0.00000000000E+00  0.00000000000E+00  0.60068706997E+01  0.60068706997E+01  0.00000000000E+00 0.  1.
         -2   -1    0    0    0  501 -0.00000000000E+00 -0.00000000000E+00 -0.82611280674E+02  0.82611280674E+02  0.00000000000E+00 0. -1.
          1    1    1    2  502    0  0.28921319501E+01  0.20425550123E+02 -0.21581309873E+02  0.29854990552E+02  0.00000000000E+00 0.  1.
         -1    1    1    2    0  501 -0.28921319501E+01 -0.20425550123E+02 -0.55023100101E+02  0.58763160822E+02  0.00000000000E+00 0. -1.
</event>
<event>
 4    1  0.6934088E+001  0.2689978E+02  0.7546771E-02  0.1448617E+00
          2   -1    0    0  502    0  0.00000000000E+00  0.00000000000E+00  0.17680281075E+03  0.17680281075E+03  0.00000000000E+00 0. -1.
         -2   -1    0    0    0  501 -0.00000000000E+00 -0.00000000000E+00 -0.40927672112E+01  0.40927672112E+01  0.00000000000E+00 0.  1.
          1    1    1    2  502    0  0.25491430020E+02 -0.85898372493E+01  0.85951002898E+02  0.90062051984E+02  0.00000000000E+00 0.  1.
         -1    1    1    2    0  501 -0.25491430020E+02  0.85898372493E+01  0.86759040640E+02  0.90833525976E+02  0.00000000000E+00 0. -1.
</event>
<event>
 4    1  0.6934088E+001  0.2192693E+02  0.7546771E-02  0.1506431E+00
          2   -1    0    0  502    0  0.00000000000E+00  0.00000000000E+00  0.71401974621E+01  0.71401974621E+01  0.00000000000E+00 0.  1.
         -2   -1    0    0    0  501 -0.00000000000E+00 -0.00000000000E+00 -0.14071840114E+03  0.14071840114E+03  0.00000000000E+00 0. -1.
          1    1    1    2  502    0 -0.72668434094E+01 -0.20687757582E+02 -0.12017639918E+03  0.12216037510E+03  0.00000000000E+00 0. -1.
         -1    1    1    2    0  501  0.72668434094E+01  0.20687757582E+02 -0.13401804498E+02  0.25698223493E+02  0.00000000000E+00 0.  1.
</event>
<event>
 4    1  0.6934088E+001  0.2388346E+02  0.7546771E-02  0.1481693E+00
          2   -1    0    0  502    0  0.00000000000E+00  0.00000000000E+00  0.21855463936E+04  0.21855463936E+04  0.00000000000E+00 0. -1.
         -2   -1    0    0    0  501 -0.00000000000E+00 -0.00000000000E+00 -0.26580133813E+00  0.26580133813E+00  0.00000000000E+00 0.  1.
          1    1    1    2  502    0  0.20635285627E+02 -0.12025173908E+02  0.12395824903E+04  0.12398125544E+04  0.00000000000E+00 0.  1.
         -1    1    1    2    0  501 -0.20635285627E+02  0.12025173908E+02  0.94569810200E+03  0.94599964057E+03  0.00000000000E+00 0. -1.
</event>
<event>
 4    1  0.6934088E+001  0.2663364E+02  0.7546771E-02  0.1451323E+00
          2   -1    0    0  502    0  0.00000000000E+00  0.00000000000E+00  0.39468682157E+01  0.39468682157E+01  0.00000000000E+00 0. -1.
         -2   -1    0    0    0  501 -0.00000000000E+00 -0.00000000000E+00 -0.18809564496E+03  0.18809564496E+03  0.00000000000E+00 0.  1.
          1    1    1    2  502    0  0.19585866914E+02 -0.18048391467E+02 -0.11233064863E+03  0.11544490132E+03  0.00000000000E+00 0.  1.
         -1    1    1    2    0  501 -0.19585866914E+02  0.18048391467E+02 -0.71818128109E+02  0.76597611858E+02  0.00000000000E+00 0. -1.
</event>
<event>
 4    1  0.6934088E+001  0.4303925E+02  0.7546771E-02  0.1331541E+00
          2   -1    0    0  502    0  0.00000000000E+00  0.00000000000E+00  0.72090731199E+02  0.72090731199E+02  0.00000000000E+00 0.  1.
         -2   -1    0    0    0  501 -0.00000000000E+00 -0.00000000000E+00 -0.25914635050E+02  0.25914635050E+02  0.00000000000E+00 0. -1.
          1    1    1    2  502    0 -0.25958923050E+01  0.42960896441E+02  0.18577631717E+02  0.46877560517E+02  0.00000000000E+00 0. -1.
         -1    1    1    2    0  501  0.25958923050E+01 -0.42960896441E+02  0.27598464433E+02  0.51127805731E+02  0.00000000000E+00 0.  1.
</event>
<event>
 4    1  0.6934088E+001  0.3922565E+02  0.7546771E-02  0.1353084E+00
          2   -1    0    0  502    0  0.00000000000E+00  0.00000000000E+00  0.14558326126E+04  0.14558326126E+04  0.00000000000E+00 0.  1.
         -2   -1    0    0    0  501 -0.00000000000E+00 -0.00000000000E+00 -0.11322846521E+01  0.11322846521E+01  0.00000000000E+00 0. -1.
          1    1    1    2  502    0  0.16647752587E+02 -0.35517660774E+02  0.91533272465E+03  0.91617282688E+03  0.00000000000E+00 0.  1.
         -1    1    1    2    0  501 -0.16647752587E+02  0.35517660774E+02  0.53936760332E+03  0.54079207040E+03  0.00000000000E+00 0. -1.
</event>
<event>
 4    1  0.6934088E+001  0.2150090E+02  0.7546771E-02  0.1512232E+00
          2   -1    0    0  502    0  0.00000000000E+00  0.00000000000E+00  0.20844815506E+02  0.20844815506E+02  0.00000000000E+00 0. -1.
         -2   -1    0    0    0  501 -0.00000000000E+00 -0.00000000000E+00 -0.24498249264E+02  0.24498249264E+02  0.00000000000E+00 0.  1.
          1    1    1    2  502    0 -0.21443723904E+02  0.15670360315E+01 -0.88044441461E+01  0.23233749881E+02  0.00000000000E+00 0.  1.
         -1    1    1    2    0  501  0.21443723904E+02 -0.15670360315E+01  0.51510103883E+01  0.22109314888E+02  0.00000000000E+00 0. -1.
</event>
<event>
 4    1  0.6934088E+001  0.2736676E+02  0.7546771E-02  0.1443958E+00
          2   -1    0    0  502    0  0.00000000000E+00  0.00000000000E+00  0.93908512488E+03  0.93908512488E+03  0.00000000000E+00 0. -1.
         -2   -1    0    0    0  501 -0.00000000000E+00 -0.00000000000E+00 -0.81267070038E+00  0.81267070038E+00  0.00000000000E+00 0.  1.
          1    1    1    2  502    0 -0.26211085590E+02 -0.78688433634E+01  0.40497073556E+03  0.40589436602E+03  0.00000000000E+00 0.  1.
         -1    1    1    2    0  501  0.26211085590E+02  0.78688433634E+01  0.53330171862E+03  0.53400342957E+03  0.00000000000E+00 0. -1.
</event>
<event>
 4    1  0.6934088E+001  0.2487346E+02  0.7546771E-02  0.1470224E+00
          2   -1    0    0  502    0  0.00000000000E+00  0.00000000000E+00  0.70471351091E+00  0.70471351091E+00  0.00000000000E+00 0. -1.
         -2   -1    0    0    0  501 -0.00000000000E+00 -0.00000000000E+00 -0.91674954443E+03  0.91674954443E+03  0.00000000000E+00 0.  1.
          1    1    1    2  502    0  0.24584450022E+02 -0.37807046633E+01 -0.36362588051E+03  0.36447560945E+03  0.00000000000E+00 0. -1.
         -1    1    1    2    0  501 -0.24584450022E+02  0.37807046633E+01 -0.55241895042E+03  0.55297864849E+03  0.00000000000E+00 0.  1.
</event>
<event>
 4    1  0.6934088E+001  0.2285595E+02  0.7546771E-02  0.1494315E+00
          2   -1    0    0  502    0  0.00000000000E+00  0.00000000000E+00  0.18655512291E+04  0.18655512291E+04  0.00000000000E+00 0. -1.
         -2   -1    0    0    0  501 -0.00000000000E+00 -0.00000000000E+00 -0.36776785643E+00  0.36776785643E+00  0.00000000000E+00 0.  1.
          1    1    1    2  502    0  0.19728687337E+02  0.11540084127E+02  0.13883034501E+04  0.13884915787E+04  0.00000000000E+00 0. -1.
         -1    1    1    2    0  501 -0.19728687337E+02 -0.11540084127E+02  0.47688001119E+03  0.47742741828E+03  0.00000000000E+00 0.  1.
</event>
<event>
 4    1  0.6934088E+001  0.2030667E+02  0.7546771E-02  0.1529398E+00
          2   -1    0    0  502    0  0.00000000000E+00  0.00000000000E+00  0.31301651847E+03  0.31301651847E+03  0.00000000000E+00 0. -1.
         -2   -1    0    0    0  501 -0.00000000000E+00 -0.00000000000E+00 -0.25842477853E+01  0.25842477853E+01  0.00000000000E+00 0.  1.
          1    1    1    2  502    0  0.14796331000E+02  0.13907896286E+02  0.44730195935E+02  0.49123837580E+02  0.00000000000E+00 0.  1.
         -1    1    1    2    0  501 -0.14796331000E+02 -0.13907896286E+02  0.26570207475E+03  0.26647692868E+03  0.00000000000E+00 0. -1.
</event>
<event>
 4    1  0.6934088E+001  0.2381719E+02  0.7546771E-02  0.1482484E+00
          2   -1    0    0  502    0  0.00000000000E+00  0.00000000000E+00  0.56770895379E+03  0.56770895379E+03  0.00000000000E+00 0. -1.
         -2   -1    0    0    0  501 -0.00000000000E+00 -0.00000000000E+00 -0.13226460798E+01  0.13226460798E+01  0.00000000000E+00 0.  1.
          1    1    1    2  502    0  0.21981929597E+02 -0.91680715744E+01  0.42388884762E+03  0.42455743299E+03  0.00000000000E+00 0. -1.
         -1    1    1    2    0  501 -0.21981929597E+02  0.91680715744E+01  0.14249746009E+03  0.14447416688E+03  0.00000000000E+00 0.  1.
</event>
<event>
 4    1  0.6934088E+001  0.2038275E+02  0.7546771E-02  0.1528263E+00
          2   -1    0    0  502    0  0.00000000000E+00  0.00000000000E+00  0.14997778327E+04  0.14997778327E+04  0.00000000000E+00 0. -1.
         -2   -1    0    0    0  501 -0.00000000000E+00 -0.00000000000E+00 -0.11403999590E+01  0.11403999590E+01  0.00000000000E+00 0.  1.
          1    1    1    2  502    0 -0.18390337021E+02 -0.87893171834E+01  0.96336411923E+02  0.98469085781E+02  0.00000000000E+00 0.  1.
         -1    1    1    2    0  501  0.18390337021E+02  0.87893171834E+01  0.14023010208E+04  0.14024491469E+04  0.00000000000E+00 0. -1.
</event>
<event>
 4    1  0.6934088E+001  0.2648170E+02  0.7546771E-02  0.1452885E+00
          2   -1    0    0  502    0  0.00000000000E+00  0.00000000000E+00  0.19404931908E+04  0.19404931908E+04  0.00000000000E+00 0. -1.
         -2   -1    0    0    0  501 -0.00000000000E+00 -0.00000000000E+00 -0.62726965937E+00  0.62726965937E+00  0.00000000000E+00 0.  1.
          1    1    1    2  502    0  0.20178114464E+02 -0.17150044244E+02  0.16018143996E+04  0.16020332865E+04  0.00000000000E+00 0. -1.
         -1    1    1    2    0  501 -0.20178114464E+02  0.17150044244E+02  0.33805152156E+03  0.33908717397E+03  0.00000000000E+00 0.  1.
</event>
<event>
 4    1  0.6934088E+001  0.2731114E+02  0.7546771E-02  0.1444507E+00
          2   -1    0    0  502    0  0.00000000000E+00  0.00000000000E+00  0.87724919969E+01  0.87724919969E+01  0.00000000000E+00 0. -1.
         -2   -1    0    0    0  501 -0.00000000000E+00 -0.00000000000E+00 -0.97776986146E+02  0.97776986146E+02  0.00000000000E+00 0.  1.
          1    1    1    2  502    0  0.29448010362E+01 -0.27151920139E+02 -0.63740160875E+02  0.69344839237E+02  0.00000000000E+00 0.  1.
         -1    1    1    2    0  501 -0.29448010362E+01  0.27151920139E+02 -0.25264333273E+02  0.37204638906E+02  0.00000000000E+00 0. -1.
</event>
<event>
 4    1  0.6934088E+001  0.2103666E+02  0.7546771E-02  0.1518742E+00
          2   -1    0    0  502    0  0.00000000000E+00  0.00000000000E+00  0.29719485965E+01  0.29719485965E+01  0.00000000000E+00 0. -1.
         -2   -1    0    0    0  501 -0.00000000000E+00 -0.00000000000E+00 -0.14962749258E+03  0.14962749258E+03  0.00000000000E+00 0.  1.
          1    1    1    2  502    0 -0.21005116249E+02  0.11515296946E+01 -0.78626090792E+02  0.81391664699E+02  0.00000000000E+00 0. -1.
         -1    1    1    2    0  501  0.21005116249E+02 -0.11515296946E+01 -0.68029453187E+02  0.71207776473E+02  0.00000000000E+00 0.  1.
</event>
<event>
 4    1  0.6934088E+001  0.2385474E+02  0.7546771E-02  0.1482035E+00
          2   -1    0    0  502    0  0.00000000000E+00  0.00000000000E+00  0.56563168540E+03  0.56563168540E+03  0.00000000000E+00 0. -1.
         -2   -1    0    0    0  501 -0.00000000000E+00 -0.00000000000E+00 -0.15916258650E+01  0.15916258650E+01  0.00000000000E+00 0.  1.
          1    1    1    2  502    0  0.23731009925E+02  0.24264715909E+01  0.10999226409E+03  0.11254930811E+03  0.00000000000E+00 0.  1.
         -1    1    1    2    0  501 -0.23731009925E+02 -0.24264715909E+01  0.45404779545E+03  0.45467400316E+03  0.00000000000E+00 0. -1.
</event>
<event>
 4    1  0.6934088E+001  0.2021543E+02  0.7546771E-02  0.1530768E+00
          2   -1    0    0  502    0  0.00000000000E+00  0.00000000000E+00  0.55315726271E+03  0.55315726271E+03  0.00000000000E+00 0. -1.
         -2   -1    0    0    0  501 -0.00000000000E+00 -0.00000000000E+00 -0.74964152742E+00  0.74964152742E+00  0.00000000000E+00 0.  1.
          1    1    1    2  502    0 -0.89539969679E+01  0.18124278892E+02  0.30953510906E+03  0.31019453136E+03  0.00000000000E+00 0.  1.
         -1    1    1    2    0  501  0.89539969679E+01 -0.18124278892E+02  0.24287251212E+03  0.24371237287E+03  0.00000000000E+00 0. -1.
</event>
<event>
 4    1  0.6934088E+001  0.2175517E+02  0.7546771E-02  0.1508750E+00
          2   -1    0    0  502    0  0.00000000000E+00  0.00000000000E+00  0.24831534750E+03  0.24831534750E+03  0.00000000000E+00 0.  1.
         -2   -1    0    0    0  501 -0.00000000000E+00 -0.00000000000E+00 -0.22313184526E+01  0.22313184526E+01  0.00000000000E+00 0. -1.
          1    1    1    2  502    0 -0.60240575085E+01 -0.20904502028E+02  0.75208042460E+02  0.78291360472E+02  0.00000000000E+00 0. -1.
         -1    1    1    2    0  501  0.60240575085E+01  0.20904502028E+02  0.17087598659E+03  0.17225530548E+03  0.00000000000E+00 0.  1.
</event>
<event>
 4    1  0.6934088E+001  0.2029945E+02  0.7546771E-02  0.1529506E+00
          2   -1    0    0  502    0  0.00000000000E+00  0.00000000000E+00  0.99869973240E+03  0.99869973240E+03  0.00000000000E+00 0. -1.
         -2   -1    0    0    0  501 -0.00000000000E+00 -0.00000000000E+00 -0.44227695150E+00  0.44227695150E+00  0.00000000000E+00 0.  1.
          1    1    1    2  502    0  0.13105210850E+01  0.20257105280E+02  0.62852698428E+03  0.62885470321E+03  0.00000000000E+00 0. -1.
         -1    1    1    2    0  501 -0.13105210850E+01 -0.20257105280E+02  0.36973047116E+03  0.37028730614E+03  0.00000000000E+00 0.  1.
</event>
<event>
 4    1  0.6934088E+001  0.6534577E+02  0.7546771E-02  0.1242677E+00
          2   -1    0    0  502    0  0.00000000000E+00  0.00000000000E+00  0.12399546804E+03  0.12399546804E+03  0.00000000000E+00 0. -1.
         -2   -1    0    0    0  501 -0.00000000000E+00 -0.00000000000E+00 -0.45294301644E+02  0.45294301644E+02  0.00000000000E+00 0.  1.
          1    1    1    2  502    0  0.15601987104E+02 -0.63455868401E+02  0.80791930791E+02  0.10391056403E+03  0.00000000000E+00 0. -1.
         -1    1    1    2    0  501 -0.15601987104E+02  0.63455868401E+02 -0.20907643945E+01  0.65379205654E+02  0.00000000000E+00 0.  1.
</event>
<event>
 4    1  0.6934088E+001  0.3988281E+02  0.7546771E-02  0.1349174E+00
          2   -1    0    0  502    0  0.00000000000E+00  0.00000000000E+00  0.12792193757E+03  0.12792193757E+03  0.00000000000E+00 0.  1.
         -2   -1    0    0    0  501 -0.00000000000E+00 -0.00000000000E+00 -0.13888899295E+02  0.13888899295E+02  0.00000000000E+00 0. -1.
          1    1    1    2  502    0 -0.35180415860E+02 -0.18787679039E+02  0.34071138791E+02  0.52454561692E+02  0.00000000000E+00 0.  1.
         -1    1    1    2    0  501  0.35180415860E+02  0.18787679039E+02  0.79961899486E+02  0.89356275175E+02  0.00000000000E+00 0. -1.
</event>
<event>
 4    1  0.6934088E+001  0.2006602E+02  0.7546771E-02  0.1533029E+00
          2   -1    0    0  502    0  0.00000000000E+00  0.00000000000E+00  0.61967776020E+03  0.61967776020E+03  0.00000000000E+00 0.  1.
         -2   -1    0    0    0  501 -0.00000000000E+00 -0.00000000000E+00 -0.79871281036E+00  0.79871281036E+00  0.00000000000E+00 0. -1.
          1    1    1    2  502    0  0.19735530760E+02  0.36268182200E+01  0.17546663955E+03  0.17661026748E+03  0.00000000000E+00 0.  1.
         -1    1    1    2    0  501 -0.19735530760E+02 -0.36268182200E+01  0.44341240784E+03  0.44386620553E+03  0.00000000000E+00 0. -1.
</event>
<event>
 4    1  0.6934088E+001  0.2005084E+02  0.7546771E-02  0.1533260E+00
          2   -1    0    0  502    0  0.00000000000E+00  0.00000000000E+00  0.58367377168E+01  0.58367377168E+01  0.00000000000E+00 0. -1.
         -2   -1    0    0    0  501 -0.00000000000E+00 -0.00000000000E+00 -0.93539063123E+02  0.93539063123E+02  0.00000000000E+00 0.  1.
          1    1    1    2  502    0 -0.18673419281E+02  0.73033985041E+01 -0.69362887655E+02  0.72202814357E+02  0.00000000000E+00 0.  1.
         -1    1    1    2    0  501  0.18673419281E+02 -0.73033985041E+01 -0.18339437752E+02  0.27172986483E+02  0.00000000000E+00 0. -1.
</event>
<event>
 4    1  0.6934088E+001  0.4021386E+02  0.7546771E-02  0.1347237E+00
          2   -1    0    0  502    0  0.00000000000E+00  0.00000000000E+00  0.47958203159E+03  0.47958203159E+03  0.00000000000E+00 0. -1.
         -2   -1    0    0    0  501 -0.00000000000E+00 -0.00000000000E+00 -0.33787621569E+01  0.33787621569E+01  0.00000000000E+00 0.  1.
          1    1    1    2  502    0  0.36539279272E+02 -0.16793908550E+02  0.24889853036E+03  0.25212622376E+03  0.00000000000E+00 0. -1.
         -1    1    1    2    0  501 -0.36539279272E+02  0.16793908550E+02  0.22730473907E+03  0.23083456998E+03  0.00000000000E+00 0.  1.
</event>
<event>
 4    1  0.6934088E+001  0.2039510E+02  0.7546771E-02  0.1528079E+00
          2   -1    0    0  502    0  0.00000000000E+00  0.00000000000E+00  0.13275379752E+04  0.13275379752E+04  0.00000000000E+00 0.  1.
         -2   -1    0    0    0  501 -0.00000000000E+00 -0.00000000000E+00 -0.51385721868E+00  0.51385721868E+00  0.00000000000E+00 0. -1.
          1    1    1    2  502    0  0.16072331201E+02  0.12555492442E+02  0.10783211092E+04  0.10785139659E+04  0.00000000000E+00 0.  1.
         -1    1    1    2    0  501 -0.16072331201E+02 -0.12555492442E+02  0.24870300876E+03  0.24953786643E+03  0.00000000000E+00 0. -1.
</event>
<event>
 4    1  0.6934088E+001  0.2784214E+02  0.7546771E-02  0.1439327E+00
          2   -1    0    0  502    0  0.00000000000E+00  0.00000000000E+00  0.24247811981E+04  0.24247811981E+04  0.00000000000E+00 0.  1.
         -2   -1    0    0    0  501 -0.00000000000E+00 -0.00000000000E+00 -0.47644973691E+00  0.47644973691E+00  0.00000000000E+00 0. -1.
          1    1    1    2  502    0  0.18622249539E+02  0.20697736783E+02  0.51659482081E+03  0.51734455962E+03  0.00000000000E+00 0.  1.
         -1    1    1    2    0  501 -0.18622249539E+02 -0.20697736783E+02  0.19077099276E+04  0.19079130882E+04  0.00000000000E+00 0. -1.
</event>
<event>
 4    1  0.6934088E+001  0.3135608E+02  0.7546771E-02  0.1408167E+00
          2   -1    0    0  502    0  0.00000000000E+00  0.00000000000E+00  0.92645499555E+03  0.92645499555E+03  0.00000000000E+00 0.  1.
         -2   -1    0    0    0  501 -0.00000000000E+00 -0.00000000000E+00 -0.19932800528E+01  0.19932800528E+01  0.00000000000E+00 0. -1.
          1    1    1    2  502    0  0.30436904583E+02  0.75364655719E+01  0.14479372045E+03  0.14815000829E+03  0.00000000000E+00 0. -1.
         -1    1    1    2    0  501 -0.30436904583E+02 -0.75364655719E+01  0.77966799505E+03  0.78029826732E+03  0.00000000000E+00 0.  1.
</event>
<event>
 4    1  0.6934088E+001  0.2458459E+02  0.7546771E-02  0.1473505E+00
          2   -1    0    0  502    0  0.00000000000E+00  0.00000000000E+00  0.74042846787E+03  0.74042846787E+03  0.00000000000E+00 0.  1.
         -2   -1    0    0    0  501 -0.00000000000E+00 -0.00000000000E+00 -0.99934667084E+00  0.99934667084E+00  0.00000000000E+00 0. -1.
          1    1    1    2  502    0 -0.16571010959E+02 -0.18160501947E+02  0.52837803795E+03  0.52894966984E+03  0.00000000000E+00 0.  1.
         -1    1    1    2    0  501  0.16571010959E+02  0.18160501947E+02  0.21105108324E+03  0.21247814470E+03  0.00000000000E+00 0. -1.
</event>
<event>
 4    1  0.6934088E+001  0.4045495E+02  0.7546771E-02  0.1345840E+00
          2   -1    0    0  502    0  0.00000000000E+00  0.00000000000E+00  0.72156560432E+03  0.72156560432E+03  0.00000000000E+00 0.  1.
         -2   -1    0    0    0  501 -0.00000000000E+00 -0.00000000000E+00 -0.41954572299E+01  0.41954572299E+01  0.00000000000E+00 0. -1.
          1    1    1    2  502    0  0.38355594907E+02 -0.12862802003E+02  0.60463797158E+03  0.60598983490E+03  0.00000000000E+00 0.  1.
         -1    1    1    2    0  501 -0.38355594907E+02  0.12862802003E+02  0.11273217552E+03  0.11977122665E+03  0.00000000000E+00 0. -1.
</event>
<event>
 4    1  0.6934088E+001  0.2052415E+02  0.7546771E-02  0.1526168E+00
          2   -1    0    0  502    0  0.00000000000E+00  0.00000000000E+00  0.24071140622E+03  0.24071140622E+03  0.00000000000E+00 0.  1.
         -2   -1    0    0    0  501 -0.00000000000E+00 -0.00000000000E+00 -0.23499978507E+01  0.23499978507E+01  0.00000000000E+00 0. -1.
          1    1    1    2  502    0 -0.12957897891E+02  0.15916463465E+02  0.18058986838E+03  0.18175241810E+03  0.00000000000E+00 0.  1.
         -1    1    1    2    0  501  0.12957897891E+02 -0.15916463465E+02  0.57771539999E+02  0.61308985971E+02  0.00000000000E+00 0. -1.
</event>
<event>
 4    1  0.6934088E+001  0.2182857E+02  0.7546771E-02  0.1507756E+00
          2   -1    0    0  502    0  0.00000000000E+00  0.00000000000E+00  0.16816218795E+04  0.16816218795E+04  0.00000000000E+00 0. -1.
         -2   -1    0    0    0  501 -0.00000000000E+00 -0.00000000000E+00 -0.30211631652E+00  0.30211631652E+00  0.00000000000E+00 0.  1.
          1    1    1    2  502    0  0.11079929180E+01  0.21800426848E+02  0.63106158577E+03  0.63143900046E+03  0.00000000000E+00 0.  1.
         -1    1    1    2    0  501 -0.11079929180E+01 -0.21800426848E+02  0.10502581774E+04  0.10504849953E+04  0.00000000000E+00 0. -1.
</event>
<event>
 4    1  0.6934088E+001  0.2083685E+02  0.7546771E-02  0.1521607E+00
          2   -1    0    0  502    0  0.00000000000E+00  0.00000000000E+00  0.51089283651E+03  0.51089283651E+03  0.00000000000E+00 0. -1.
         -2   -1    0    0    0  501 -0.00000000000E+00 -0.00000000000E+00 -0.62657637813E+01  0.62657637813E+01  0.00000000000E+00 0.  1.
          1    1    1    2  502    0  0.10008847982E+02  0.18275593535E+02  0.49271839424E+03  0.49315878820E+03  0.00000000000E+00 0. -1.
         -1    1    1    2    0  501 -0.10008847982E+02 -0.18275593535E+02  0.11908678487E+02  0.23999812089E+02  0.00000000000E+00 0.  1.
</event>
<event>
 4    1  0.6934088E+001  0.2059487E+02  0.7546771E-02  0.1525128E+00
          2   -1    0    0  502    0  0.00000000000E+00  0.00000000000E+00  0.17322701432E+01  0.17322701432E+01  0.00000000000E+00 0. -1.
         -2   -1    0    0    0  501 -0.00000000000E+00 -0.00000000000E+00 -0.41005990936E+03  0.41005990936E+03  0.00000000000E+00 0.  1.
          1    1    1    2  502    0  0.98083673844E+01 -0.18109241034E+02 -0.33485332562E+03  0.33548606284E+03  0.00000000000E+00 0.  1.
         -1    1    1    2    0  501 -0.98083673844E+01  0.18109241034E+02 -0.73474313598E+02  0.76306116664E+02  0.00000000000E+00 0. -1.
</event>
<event>
 4    1  0.6934088E+001  0.2708647E+02  0.7546771E-02  0.1446741E+00
          2   -1    0    0  502    0  0.00000000000E+00  0.00000000000E+00  0.13558543229E+04  0.13558543229E+04  0.00000000000E+00 0. -1.
         -2   -1    0    0    0  501 -0.00000000000E+00 -0.00000000000E+00 -0.62216487546E+00  0.62216487546E+00  0.00000000000E+00 0.  1.
          1    1    1    2  502    0 -0.27013967737E+02 -0.19805600957E+01  0.92240845207E+03  0.92280606279E+03  0.00000000000E+00 0. -1.
         -1    1    1    2    0  501  0.27013967737E+02  0.19805600957E+01  0.43282370597E+03  0.43367042500E+03  0.00000000000E+00 0.  1.
</event>
<event>
 4    1  0.6934088E+001  0.2891354E+02  0.7546771E-02  0.1429279E+00
          2   -1    0    0  502    0  0.00000000000E+00  0.00000000000E+00  0.19689493894E+03  0.19689493894E+03  0.00000000000E+00 0.  1.
         -2   -1    0    0    0  501 -0.00000000000E+00 -0.00000000000E+00 -0.67422123882E+01  0.67422123882E+01  0.00000000000E+00 0. -1.
          1    1    1    2  502    0  0.77062752753E+01 -0.27867650832E+02  0.15703143303E+03  0.15967111073E+03  0.00000000000E+00 0.  1.
         -1    1    1    2    0  501 -0.77062752753E+01  0.27867650832E+02  0.33121293520E+02  0.43966040599E+02  0.00000000000E+00 0. -1.
</event>
<event>
 4    1  0.6934088E+001  0.2042516E+02  0.7546771E-02  0.1527632E+00
          2   -1    0    0  502    0  0.00000000000E+00  0.00000000000E+00  0.58274596456E+01  0.58274596456E+01  0.00000000000E+00 0. -1.
         -2   -1    0    0    0  501 -0.00000000000E+00 -0.00000000000E+00 -0.73825661064E+02  0.73825661064E+02  0.00000000000E+00 0.  1.
          1    1    1    2  502    0 -0.10757882327E+02  0.17362468618E+02 -0.40929850681E+02  0.45743196493E+02  0.00000000000E+00 0.  1.
         -1    1    1    2    0  501  0.10757882327E+02 -0.17362468618E+02 -0.27068350737E+02  0.33909924216E+02  0.00000000000E+00 0. -1.
</event>
<event>
 4    1  0.6934088E+001  0.2096979E+02  0.7546771E-02  0.1519697E+00
          2   -1    0    0  502    0  0.00000000000E+00  0.00000000000E+00  0.29307412858E+03  0.29307412858E+03  0.00000000000E+00 0.  1.
         -2   -1    0    0    0  501 -0.00000000000E+00 -0.00000000000E+00 -0.15004328410E+01  0.15004328410E+01  0.00000000000E+00 0. -1.
          1    1    1    2  502    0  0.14573950976E+02 -0.15077528670E+02  0.14633674568E+03  0.14783157665E+03  0.00000000000E+00 0.  1.
         -1    1    1    2    0  501 -0.14573950976E+02  0.15077528670E+02  0.14523695006E+03  0.14674298477E+03  0.00000000000E+00 0. -1.
</event>
<event>
 4    1  0.6934088E+001  0.2752280E+02  0.7546771E-02  0.1442426E+00
          2   -1    0    0  502    0  0.00000000000E+00  0.00000000000E+00  0.23415951859E+04  0.23415951859E+04  0.00000000000E+00 0. -1.
         -2   -1    0    0    0  501 -0.00000000000E+00 -0.00000000000E+00 -0.34706273815E+00  0.34706273815E+00  0.00000000000E+00 0.  1.
          1    1    1    2  502    0 -0.84236872513E+01  0.26202019484E+02  0.86551029566E+03  0.86594779071E+03  0.00000000000E+00 0.  1.
         -1    1    1    2    0  501  0.84236872513E+01 -0.26202019484E+02  0.14757378275E+04  0.14759944579E+04  0.00000000000E+00 0. -1.
</event>
<event>
 4    1  0.6934088E+001  0.5242974E+02  0.7546771E-02  0.1287968E+00
          2   -1    0    0  502    0  0.00000000000E+00  0.00000000000E+00  0.16352852054E+02  0.16352852054E+02  0.00000000000E+00 0.  1.
         -2   -1    0    0    0  501 -0.00000000000E+00 -0.00000000000E+00 -0.16900641928E+03  0.16900641928E+03  0.00000000000E+00 0. -1.
          1    1    1    2  502    0  0.19059182979E+02  0.48842860833E+02 -0.83122535066E+02  0.98276311214E+02  0.00000000000E+00 0.  1.
         -1    1    1    2    0  501 -0.19059182979E+02 -0.48842860833E+02 -0.69531032161E+02  0.87082960122E+02  0.00000000000E+00 0. -1.
</event>
<event>
 4    1  0.6934088E+001  0.2128417E+02  0.7546771E-02  0.1515246E+00
          2   -1    0    0  502    0  0.00000000000E+00  0.00000000000E+00  0.74220639137E+03  0.74220639137E+03  0.00000000000E+00 0.  1.
         -2   -1    0    0    0  501 -0.00000000000E+00 -0.00000000000E+00 -0.82800410536E+00  0.82800410536E+00  0.00000000000E+00 0. -1.
          1    1    1    2  502    0 -0.18410001767E+02 -0.10681181993E+02  0.18021660927E+03  0.18146912153E+03  0.00000000000E+00 0.  1.
         -1    1    1    2    0  501  0.18410001767E+02  0.10681181993E+02  0.56116177800E+03  0.56156527394E+03  0.00000000000E+00 0. -1.
</event>
<event>
 4    1  0.6934088E+001  0.2566104E+02  0.7546771E-02  0.1461542E+00
          2   -1    0    0  502    0  0.00000000000E+00  0.00000000000E+00  0.11742009226E+01  0.11742009226E+01  0.00000000000E+00 0. -1.
         -2   -1    0    0    0  501 -0.00000000000E+00 -0.00000000000E+00 -0.56599623511E+03  0.56599623511E+03  0.00000000000E+00 0.  1.
          1    1    1    2  502    0  0.12374923788E+01  0.25631183572E+02 -0.25523254326E+03  0.25651927822E+03  0.00000000000E+00 0. -1.
         -1    1    1    2    0  501 -0.12374923788E+01 -0.25631183572E+02 -0.30958949092E+03  0.31065115781E+03  0.00000000000E+00 0.  1.
</event>
<event>
 4    1  0.6934088E+001  0.4195209E+02  0.7546771E-02  0.1337411E+00
          2   -1    0    0  502    0  0.00000000000E+00  0.00000000000E+00  0.41633547213E+03  0.41633547213E+03  0.00000000000E+00 0. -1.
         -2   -1    0    0    0  501 -0.00000000000E+00 -0.00000000000E+00 -0.42398198516E+01  0.42398198516E+01  0.00000000000E+00 0.  1.
          1    1    1    2  502    0 -0.41883502163E+02 -0.23979281622E+01  0.21747187329E+03  0.22148136149E+03  0.00000000000E+00 0.  1.
         -1    1    1    2    0  501  0.41883502163E+02  0.23979281622E+01  0.19462377898E+03  0.19909393049E+03  0.00000000000E+00 0. -1.
</event>
<event>
 4    1  0.6934088E+001  0.2038504E+02  0.7546771E-02  0.1528229E+00
          2   -1    0    0  502    0  0.00000000000E+00  0.00000000000E+00  0.79873320465E+02  0.79873320465E+02  0.00000000000E+00 0.  1.
         -2   -1    0    0    0  501 -0.00000000000E+00 -0.00000000000E+00 -0.19578485254E+02  0.19578485254E+02  0.00000000000E+00 0. -1.
          1    1    1    2  502    0  0.56904201200E+00  0.20377095740E+02 -0.12462457498E+02  0.23892732922E+02  0.00000000000E+00 0. -1.
         -1    1    1    2    0  501 -0.56904201200E+00 -0.20377095740E+02  0.72757292710E+02  0.75559072797E+02  0.00000000000E+00 0.  1.
</event>
<event>
 4    1  0.6934088E+001  0.2872586E+02  0.7546771E-02  0.1431001E+00
          2   -1    0    0  502    0  0.00000000000E+00  0.00000000000E+00  0.58162175936E+01  0.58162175936E+01  0.00000000000E+00 0. -1.
         -2   -1    0    0    0  501 -0.00000000000E+00 -0.00000000000E+00 -0.19938471083E+03  0.19938471083E+03  0.00000000000E+00 0.  1.
          1    1    1    2  502    0 -0.21789776269E+02  0.18718461051E+02 -0.41681344848E+02  0.50621237068E+02  0.00000000000E+00 0. -1.
         -1    1    1    2    0  501  0.21789776269E+02 -0.18718461051E+02 -0.15188714839E+03  0.15457969136E+03  0.00000000000E+00 0.  1.
</event>
<event>
 4    1  0.6934088E+001  0.2104169E+02  0.7546771E-02  0.1518670E+00
          2   -1    0    0  502    0  0.00000000000E+00  0.00000000000E+00  0.74948044426E+03  0.74948044426E+03  0.00000000000E+00 0.  1.
         -2   -1    0    0    0  501 -0.00000000000E+00 -0.00000000000E+00 -0.97385238188E+00  0.97385238188E+00  0.00000000000E+00 0. -1.
          1    1    1    2  502    0  0.20922571261E+02 -0.22357852842E+01  0.13890705408E+03  0.14049171647E+03  0.00000000000E+00 0. -1.
         -1    1    1    2    0  501 -0.20922571261E+02  0.22357852842E+01  0.60959953780E+03  0.60996258018E+03  0.00000000000E+00 0.  1.
</event>
<event>
 4    1  0.6934088E+001  0.2734930E+02  0.7546771E-02  0.1444131E+00
          2   -1    0    0  502    0  0.00000000000E+00  0.00000000000E+00  0.19385956230E+02  0.19385956230E+02  0.00000000000E+00 0. -1.
         -2   -1    0    0    0  501 -0.00000000000E+00 -0.00000000000E+00 -0.38717560707E+02  0.38717560707E+02  0.00000000000E+00 0.  1.
          1    1    1    2  502    0  0.18438244880E+02  0.20199387770E+02 -0.11373295683E+02  0.29619858123E+02  0.00000000000E+00 0.  1.
         -1    1    1    2    0  501 -0.18438244880E+02 -0.20199387770E+02 -0.79583087941E+01  0.28483658814E+02  0.00000000000E+00 0. -1.
</event>
<event>
 4    1  0.6934088E+001  0.3794048E+02  0.7546771E-02  0.1360996E+00
          2   -1    0    0  502    0  0.00000000000E+00  0.00000000000E+00  0.52207252483E+03  0.52207252483E+03  0.00000000000E+00 0.  1.
         -2   -1    0    0    0  501 -0.00000000000E+00 -0.00000000000E+00 -0.31089142832E+01  0.31089142832E+01  0.00000000000E+00 0. -1.
          1    1    1    2  502    0  0.15583247185E+02  0.34592521726E+02  0.17116482004E+03  0.17531935367E+03  0.00000000000E+00 0. -1.
         -1    1    1    2    0  501 -0.15583247185E+02 -0.34592521726E+02  0.34779879051E+03  0.34986208544E+03  0.00000000000E+00 0.  1.
</event>
<event>
 4    1  0.6934088E+001  0.2789400E+02  0.7546771E-02  0.1438829E+00
          2   -1    0    0  502    0  0.00000000000E+00  0.00000000000E+00  0.11095295426E+04  0.11095295426E+04  0.00000000000E+00 0. -1.
         -2   -1    0    0    0  501 -0.00000000000E+00 -0.00000000000E+00 -0.91088534537E+00  0.91088534537E+00  0.00000000000E+00 0.  1.
          1    1    1    2  502    0 -0.14959885365E+02  0.23543091427E+02  0.82065712660E+03  0.82113104604E+03  0.00000000000E+00 0. -1.
         -1    1    1    2    0  501  0.14959885365E+02 -0.23543091427E+02  0.28796153065E+03  0.28930938190E+03  0.00000000000E+00 0.  1.
</event>
<event>
 4    1  0.6934088E+001  0.2524249E+02  0.7546771E-02  0.1466109E+00
          2   -1    0    0  502    0  0.00000000000E+00  0.00000000000E+00  0.80071295323E+03  0.80071295323E+03  0.00000000000E+00 0.  1.
         -2   -1    0    0    0  501 -0.00000000000E+00 -0.00000000000E+00 -0.11207231195E+01  0.11207231195E+01  0.00000000000E+00 0. -1.
          1    1    1    2  502    0  0.23629589807E+02 -0.88783866647E+01  0.61567767879E+03  0.61619492649E+03  0.00000000000E+00 0.  1.
         -1    1    1    2    0  501 -0.23629589807E+02  0.88783866647E+01  0.18391455132E+03  0.18563874987E+03  0.00000000000E+00 0. -1.
</event>
<event>
 4    1  0.6934088E+001  0.3703087E+02  0.7546771E-02  0.1366822E+00
          2   -1    0    0  502    0  0.00000000000E+00  0.00000000000E+00  0.10115096582E+02  0.10115096582E+02  0.00000000000E+00 0.  1.
         -2   -1    0    0    0  501 -0.00000000000E+00 -0.00000000000E+00 -0.14973248717E+03  0.14973248717E+03  0.00000000000E+00 0. -1.
          1    1    1    2  502    0  0.33665617398E+02 -0.15424388428E+02 -0.45226806733E+02  0.58452969133E+02  0.00000000000E+00 0. -1.
         -1    1    1    2    0  501 -0.33665617398E+02  0.15424388428E+02 -0.94390583857E+02  0.10139461462E+03  0.00000000000E+00 0.  1.
</event>
<event>
 4    1  0.6934088E+001  0.2295002E+02  0.7546771E-02  0.1493127E+00
          2   -1    0    0  502    0  0.00000000000E+00  0.00000000000E+00  0.80379537708E+02  0.80379537708E+02  0.00000000000E+00 0.  1.
         -2   -1    0    0    0  501 -0.00000000000E+00 -0.00000000000E+00 -0.66070489540E+01  0.66070489540E+01  0.00000000000E+00 0. -1.
          1    1    1    2  502    0  0.20526255750E+02 -0.10265290645E+02  0.32941710279E+02  0.40147971844E+02  0.00000000000E+00 0. -1.
         -1    1    1    2    0  501 -0.20526255750E+02  0.10265290645E+02  0.40830778475E+02  0.46838614818E+02  0.00000000000E+00 0.  1.
</event>
<event>
 4    1  0.6934088E+001  0.2159314E+02  0.7546771E-02  0.1510962E+00
          2   -1    0    0  502    0  0.00000000000E+00  0.00000000000E+00  0.17372420944E+03  0.17372420944E+03  0.00000000000E+00 0.  1.
         -2   -1    0    0    0  501 -0.00000000000E+00 -0.00000000000E+00 -0.28532503612E+01  0.28532503612E+01  0.00000000000E+00 0. -1.
          1    1    1    2  502    0  0.21208180267E+02 -0.40591852593E+01  0.10694287751E+03  0.10910106757E+03  0.00000000000E+00 0.  1.
         -1    1    1    2    0  501 -0.21208180267E+02  0.40591852593E+01  0.63928081563E+02  0.67476392224E+02  0.00000000000E+00 0. -1.
</event>
<event>
 4    1  0.6934088E+001  0.3065273E+02  0.7546771E-02  0.1414007E+00
          2   -1    0    0  502    0  0.00000000000E+00  0.00000000000E+00  0.14396567466E+04  0.14396567466E+04  0.00000000000E+00 0.  1.
         -2   -1    0    0    0  501 -0.00000000000E+00 -0.00000000000E+00 -0.12486431812E+01  0.12486431812E+01  0.00000000000E+00 0. -1.
          1    1    1    2  502    0  0.29124321822E+02 -0.95584494283E+01  0.22145846128E+03  0.22356976573E+03  0.00000000000E+00 0. -1.
         -1    1    1    2    0  501 -0.29124321822E+02  0.95584494283E+01  0.12169496421E+04  0.12173356240E+04  0.00000000000E+00 0.  1.
</event>
<event>
 4    1  0.6934088E+001  0.4375580E+02  0.7546771E-02  0.1327779E+00
          2   -1    0    0  502    0  0.00000000000E+00  0.00000000000E+00  0.84601996528E+03  0.84601996528E+03  0.00000000000E+00 0. -1.
         -2   -1    0    0    0  501 -0.00000000000E+00 -0.00000000000E+00 -0.28878851247E+01  0.28878851247E+01  0.00000000000E+00 0.  1.
          1    1    1    2  502    0  0.37598559837E+02 -0.22381202101E+02  0.22412850887E+03  0.22835971273E+03  0.00000000000E+00 0.  1.
         -1    1    1    2    0  501 -0.37598559837E+02  0.22381202101E+02  0.61900357129E+03  0.62054813768E+03  0.00000000000E+00 0. -1.
</event>
<event>
 4    1  0.6934088E+001  0.3298003E+02  0.7546771E-02  0.1395349E+00
          2   -1    0    0  502    0  0.00000000000E+00  0.00000000000E+00  0.39898919461E+03  0.39898919461E+03  0.00000000000E+00 0.  1.
         -2   -1    0    0    0  501 -0.00000000000E+00 -0.00000000000E+00 -0.51446068362E+02  0.51446068362E+02  0.00000000000E+00 0. -1.
          1    1    1    2  502    0 -0.32923981111E+02  0.19219537814E+01  0.39294090970E+03  0.39432250881E+03  0.00000000000E+00 0.  1.
         -1    1    1    2    0  501  0.32923981111E+02 -0.19219537814E+01 -0.45397783445E+02  0.56112754168E+02  0.00000000000E+00 0. -1.
</event>
<event>
 4    1  0.6934088E+001  0.2069990E+02  0.7546771E-02  0.1523593E+00
          2   -1    0    0  502    0  0.00000000000E+00  0.00000000000E+00  0.92486438096E+03  0.92486438096E+03  0.00000000000E+00 0. -1.
         -2   -1    0    0    0  501 -0.00000000000E+00 -0.00000000000E+00 -0.46750365548E+00  0.46750365548E+00  0.00000000000E+00 0.  1.
          1    1    1    2  502    0 -0.20698577423E+02 -0.23424339911E+00  0.41830550520E+03  0.41881736074E+03  0.00000000000E+00 0.  1.
         -1    1    1    2    0  501  0.20698577423E+02  0.23424339911E+00  0.50609137211E+03  0.50651452388E+03  0.00000000000E+00 0. -1.
</event>
<event>
 4    1  0.6934088E+001  0.4845248E+02  0.7546771E-02  0.1305025E+00
          2   -1    0    0  502    0  0.00000000000E+00  0.00000000000E+00  0.57909370105E+03  0.57909370105E+03  0.00000000000E+00 0. -1.
         -2   -1    0    0    0  501 -0.00000000000E+00 -0.00000000000E+00 -0.76361769769E+01  0.76361769769E+01  0.00000000000E+00 0.  1.
          1    1    1    2  502    0 -0.27306428307E+01  0.48375470741E+02  0.48665843579E+03  0.48906449033E+03  0.00000000000E+00 0. -1.
         -1    1    1    2    0  501  0.27306428307E+01 -0.48375470741E+02  0.84799088287E+02  0.97665387697E+02  0.00000000000E+00 0.  1.
</event>
<event>
 4    1  0.6934088E+001  0.2769974E+02  0.7546771E-02  0.1440703E+00
          2   -1    0    0  502    0  0.00000000000E+00  0.00000000000E+00  0.15630947507E+03  0.15630947507E+03  0.00000000000E+00 0.  1.
         -2   -1    0    0    0  501 -0.00000000000E+00 -0.00000000000E+00 -0.49086981309E+01  0.49086981309E+01  0.00000000000E+00 0. -1.
          1    1    1    2  502    0  0.12401437753E+01  0.27671967137E+02  0.75649455629E+02  0.80561255321E+02  0.00000000000E+00 0. -1.
         -1    1    1    2    0  501 -0.12401437753E+01 -0.27671967137E+02  0.75751321313E+02  0.80656917884E+02  0.00000000000E+00 0.  1.
</event>
<event>
 4    1  0.6934088E+001  0.3742865E+02  0.7546771E-02  0.1364250E+00
          2   -1    0    0  502    0  0.00000000000E+00  0.00000000000E+00  0.18814597799E+04  0.18814597799E+04  0.00000000000E+00 0.  1.
         -2   -1    0    0    0  501 -0.00000000000E+00 -0.00000000000E+00 -0.18849818238E+01  0.18849818238E+01  0.00000000000E+00 0. -1.
          1    1    1    2  502    0 -0.18275205373E+02  0.32663746747E+02  0.20734314296E+03  0.21069428663E+03  0.00000000000E+00 0. -1.
         -1    1    1    2    0  501  0.18275205373E+02 -0.32663746747E+02  0.16722316551E+04  0.16726504751E+04  0.00000000000E+00 0.  1.
</event>
<event>
 4    1  0.6934088E+001  0.6036333E+02  0.7546771E-02  0.1258603E+00
          2   -1    0    0  502    0  0.00000000000E+00  0.00000000000E+00  0.21779750270E+03  0.21779750270E+03  0.00000000000E+00 0.  1.
         -2   -1    0    0    0  501 -0.00000000000E+00 -0.00000000000E+00 -0.16875779357E+02  0.16875779357E+02  0.00000000000E+00 0. -1.
          1    1    1    2  502    0  0.52874944349E+02  0.29119955582E+02  0.89551708274E+02  0.10799648146E+03  0.00000000000E+00 0. -1.
         -1    1    1    2    0  501 -0.52874944349E+02 -0.29119955582E+02  0.11137001507E+03  0.12667680060E+03  0.00000000000E+00 0.  1.
</event>
<event>
 4    1  0.6934088E+001  0.2798636E+02  0.7546771E-02  0.1437944E+00
          2   -1    0    0  502    0  0.00000000000E+00  0.00000000000E+00  0.26741215272E+03  0.26741215272E+03  0.00000000000E+00 0.  1.
         -2   -1    0    0    0  501 -0.00000000000E+00 -0.00000000000E+00 -0.29613044744E+01  0.29613044744E+01  0.00000000000E+00 0. -1.
          1    1    1    2  502    0  0.26679521248E+02  0.84521879966E+01  0.14635639388E+03  0.14900815537E+03  0.00000000000E+00 0.  1.
         -1    1    1    2    0  501 -0.26679521248E+02 -0.84521879966E+01  0.11809445436E+03  0.12136530182E+03  0.00000000000E+00 0. -1.
</event>
<event>
 4    1  0.6934088E+001  0.2669098E+02  0.7546771E-02  0.1450737E+00
          2   -1    0    0  502    0  0.00000000000E+00  0.00000000000E+00  0.10198588030E+03  0.10198588030E+03  0.00000000000E+00 0. -1.
         -2   -1    0    0    0  501 -0.00000000000E+00 -0.00000000000E+00 -0.10180843455E+02  0.10180843455E+02  0.00000000000E+00 0.  1.
          1    1    1    2  502    0 -0.25627136169E+02 -0.74604321194E+01  0.77322823792E+02  0.81799921973E+02  0.00000000000E+00 0. -1.
         -1    1    1    2    0  501  0.25627136169E+02  0.74604321194E+01  0.14482213055E+02  0.30366801784E+02  0.00000000000E+00 0.  1.
</event>
<event>
 4    1  0.6934088E+001  0.2384296E+02  0.7546771E-02  0.1482176E+00
          2   -1    0    0  502    0  0.00000000000E+00  0.00000000000E+00  0.87158099186E+01  0.87158099186E+01  0.00000000000E+00 0.  1.
         -2   -1    0    0    0  501 -0.00000000000E+00 -0.00000000000E+00 -0.77620219219E+02  0.77620219219E+02  0.00000000000E+00 0. -1.
          1    1    1    2  502    0 -0.72158420497E+01  0.22724838966E+02 -0.51702868283E+02  0.56935694175E+02  0.00000000000E+00 0. -1.
         -1    1    1    2    0  501  0.72158420497E+01 -0.22724838966E+02 -0.17201541018E+02  0.29400334963E+02  0.00000000000E+00 0.  1.
</event>
<event>
 4    1  0.6934088E+001  0.2052390E+02  0.7546771E-02  0.1526172E+00
          2   -1    0    0  502    0  0.00000000000E+00  0.00000000000E+00  0.63852856406E+03  0.63852856406E+03  0.00000000000E+00 0.  1.
         -2   -1    0    0    0  501 -0.00000000000E+00 -0.00000000000E+00 -0.66442109896E+00  0.66442109896E+00  0.00000000000E+00 0. -1.
          1    1    1    2  502    0 -0.20263476624E+02  0.32591667177E+01  0.34590199430E+03  0.34651034662E+03  0.00000000000E+00 0.  1.
         -1    1    1    2    0  501  0.20263476624E+02 -0.32591667177E+01  0.29196214866E+03  0.29268263854E+03  0.00000000000E+00 0. -1.
</event>
<event>
 4    1  0.6934088E+001  0.2096045E+02  0.7546771E-02  0.1519830E+00
          2   -1    0    0  502    0  0.00000000000E+00  0.00000000000E+00  0.12264048676E+04  0.12264048676E+04  0.00000000000E+00 0.  1.
         -2   -1    0    0    0  501 -0.00000000000E+00 -0.00000000000E+00 -0.16633656391E+01  0.16633656391E+01  0.00000000000E+00 0. -1.
          1    1    1    2  502    0  0.20955920326E+02  0.43596417001E+00  0.11562790652E+04  0.11564690300E+04  0.00000000000E+00 0.  1.
         -1    1    1    2    0  501 -0.20955920326E+02 -0.43596417001E+00  0.68462436765E+02  0.71599203273E+02  0.00000000000E+00 0. -1.
</event>
<event>
 4    1  0.6934088E+001  0.3368007E+02  0.7546771E-02  0.1390088E+00
          2   -1    0    0  502    0  0.00000000000E+00  0.00000000000E+00  0.58859066267E+03  0.58859066267E+03  0.00000000000E+00 0. -1.
         -2   -1    0    0    0  501 -0.00000000000E+00 -0.00000000000E+00 -0.22380997759E+01  0.22380997759E+01  0.00000000000E+00 0.  1.
          1    1    1    2  502    0 -0.28980648887E+02 -0.17160092738E+02  0.18307700295E+03  0.18614922992E+03  0.00000000000E+00 0.  1.
         -1    1    1    2    0  501  0.28980648887E+02  0.17160092738E+02  0.40327555994E+03  0.40467953252E+03  0.00000000000E+00 0. -1.
</event>
<event>
 4    1  0.6934088E+001  0.4877621E+02  0.7546771E-02  0.1303567E+00
          2   -1    0    0  502    0  0.00000000000E+00  0.00000000000E+00  0.79831837209E+02  0.79831837209E+02  0.00000000000E+00 0. -1.
         -2   -1    0    0    0  501 -0.00000000000E+00 -0.00000000000E+00 -0.33201790684E+02  0.33201790684E+02  0.00000000000E+00 0.  1.
          1    1    1    2  502    0 -0.37756145166E+02 -0.30880293264E+02  0.52288565345E+01  0.49055682143E+02  0.00000000000E+00 0.  1.
         -1    1    1    2    0  501  0.37756145166E+02  0.30880293264E+02  0.41401189991E+02  0.63977945751E+02  0.00000000000E+00 0. -1.
</event>
<event>
 4    1  0.6934088E+001  0.2314169E+02  0.7546771E-02  0.1490727E+00
          2   -1    0    0  502    0  0.00000000000E+00  0.00000000000E+00  0.97842440037E+02  0.97842440037E+02  0.00000000000E+00 0. -1.
         -2   -1    0    0    0  501 -0.00000000000E+00 -0.00000000000E+00 -0.61553354121E+01  0.61553354121E+01  0.00000000000E+00 0.  1.
          1    1    1    2  502    0 -0.22952622492E+02 -0.29521178652E+01  0.28536750891E+02  0.36740767964E+02  0.00000000000E+00 0. -1.
         -1    1    1    2    0  501  0.22952622492E+02  0.29521178652E+01  0.63150353734E+02  0.67257007485E+02  0.00000000000E+00 0.  1.
</event>
<event>
 4    1  0.6934088E+001  0.2022747E+02  0.7546771E-02  0.1530586E+00
          2   -1    0    0  502    0  0.00000000000E+00  0.00000000000E+00  0.12744377012E+04  0.12744377012E+04  0.00000000000E+00 0. -1.
         -2   -1    0    0    0  501 -0.00000000000E+00 -0.00000000000E+00 -0.46023858299E+00  0.46023858299E+00  0.00000000000E+00 0.  1.
          1    1    1    2  502    0  0.86133890035E+01  0.18301916846E+02  0.28642658923E+03  0.28713993391E+03  0.00000000000E+00 0.  1.
         -1    1    1    2    0  501 -0.86133890035E+01 -0.18301916846E+02  0.98755087342E+03  0.98775800590E+03  0.00000000000E+00 0. -1.
</event>
<event>
 4    1  0.6934088E+001  0.2538503E+02  0.7546771E-02  0.1464542E+00
          2   -1    0    0  502    0  0.00000000000E+00  0.00000000000E+00  0.59876901139E+01  0.59876901139E+01  0.00000000000E+00 0. -1.
         -2   -1    0    0    0  501 -0.00000000000E+00 -0.00000000000E+00 -0.15612633004E+03  0.15612633004E+03  0.00000000000E+00 0.  1.
          1    1    1    2  502    0  0.22437895041E+02  0.11871845618E+02 -0.29889110256E+02  0.39214267354E+02  0.00000000000E+00 0. -1.
         -1    1    1    2    0  501 -0.22437895041E+02 -0.11871845618E+02 -0.12024952967E+03  0.12289975280E+03  0.00000000000E+00 0.  1.
</event>
<event>
 4    1  0.6934088E+001  0.4145181E+02  0.7546771E-02  0.1340182E+00
          2   -1    0    0  502    0  0.00000000000E+00  0.00000000000E+00  0.41020807491E+03  0.41020807491E+03  0.00000000000E+00 0.  1.
         -2   -1    0    0    0  501 -0.00000000000E+00 -0.00000000000E+00 -0.12862017307E+02  0.12862017307E+02  0.00000000000E+00 0. -1.
          1    1    1    2  502    0  0.19149652062E+02 -0.36763346638E+02  0.37238091337E+03  0.37468092756E+03  0.00000000000E+00 0.  1.
         -1    1    1    2    0  501 -0.19149652062E+02  0.36763346638E+02  0.24965144231E+02  0.48389164661E+02  0.00000000000E+00 0. -1.
</event>
<event>
 4    1  0.6934088E+001  0.2484712E+02  0.7546771E-02  0.1470521E+00
          2   -1    0    0  502    0  0.00000000000E+00  0.00000000000E+00  0.17701226083E+03  0.17701226083E+03  0.00000000000E+00 0.  1.
         -2   -1    0    0    0  501 -0.00000000000E+00 -0.00000000000E+00 -0.35102346005E+01  0.35102346005E+01  0.00000000000E+00 0. -1.
          1    1    1    2  502    0 -0.64110106474E+01  0.24005795979E+02  0.79531388685E+02  0.83322392454E+02  0.00000000000E+00 0.  1.
         -1    1    1    2    0  501  0.64110106474E+01 -0.24005795979E+02  0.93970637541E+02  0.97200102973E+02  0.00000000000E+00 0. -1.
</event>
<event>
 4    1  0.6934088E+001  0.4443490E+02  0.7546771E-02  0.1324289E+00
          2   -1    0    0  502    0  0.00000000000E+00  0.00000000000E+00  0.12081236434E+03  0.12081236434E+03  0.00000000000E+00 0.  1.
         -2   -1    0    0    0  501 -0.00000000000E+00 -0.00000000000E+00 -0.16344208934E+02  0.16344208934E+02  0.00000000000E+00 0. -1.
          1    1    1    2  502    0  0.21361379508E+02 -0.38963472346E+02  0.51695441665E+02  0.68168023301E+02  0.00000000000E+00 0. -1.
         -1    1    1    2    0  501 -0.21361379508E+02  0.38963472346E+02  0.52772713737E+02  0.68988549969E+02  0.00000000000E+00 0.  1.
</event>
<event>
 4    1  0.6934088E+001  0.4876794E+02  0.7546771E-02  0.1303604E+00
          2   -1    0    0  502    0  0.00000000000E+00  0.00000000000E+00  0.44035930573E+02  0.44035930573E+02  0.00000000000E+00 0. -1.
         -2   -1    0    0    0  501 -0.00000000000E+00 -0.00000000000E+00 -0.59459475036E+02  0.59459475036E+02  0.00000000000E+00 0.  1.
          1    1    1    2  502    0  0.32159851335E+02  0.36661368424E+02 -0.23380003522E+02  0.54082682416E+02  0.00000000000E+00 0.  1.
         -1    1    1    2    0  501 -0.32159851335E+02 -0.36661368424E+02  0.79564590594E+01  0.49412723193E+02  0.00000000000E+00 0. -1.
</event>
<event>
 4    1  0.6934088E+001  0.2832880E+02  0.7546771E-02  0.1434698E+00
          2   -1    0    0  502    0  0.00000000000E+00  0.00000000000E+00  0.18664640133E+04  0.18664640133E+04  0.00000000000E+00 0. -1.
         -2   -1    0    0    0  501 -0.00000000000E+00 -0.00000000000E+00 -0.15533875499E+01  0.15533875499E+01  0.00000000000E+00 0.  1.
          1    1    1    2  502    0 -0.25396112940E+02 -0.12552235173E+02  0.13816025680E+03  0.14103466850E+03  0.00000000000E+00 0.  1.
         -1    1    1    2    0  501  0.25396112940E+02  0.12552235173E+02  0.17267503690E+04  0.17269827324E+04  0.00000000000E+00 0. -1.
</event>
<event>
 4    1  0.6934088E+001  0.2351086E+02  0.7546771E-02  0.1486181E+00
          2   -1    0    0  502    0  0.00000000000E+00  0.00000000000E+00  0.14392437077E+01  0.14392437077E+01  0.00000000000E+00 0.  1.
         -2   -1    0    0    0  501 -0.00000000000E+00 -0.00000000000E+00 -0.39928124744E+03  0.39928124744E+03  0.00000000000E+00 0. -1.
          1    1    1    2  502    0  0.15555871972E+02 -0.17628825351E+02 -0.23803666092E+03  0.23919492590E+03  0.00000000000E+00 0. -1.
         -1    1    1    2    0  501 -0.15555871972E+02  0.17628825351E+02 -0.15980534281E+03  0.16152556525E+03  0.00000000000E+00 0.  1.
</event>
<event>
 4    1  0.6934088E+001  0.2073426E+02  0.7546771E-02  0.1523093E+00
          2   -1    0    0  502    0  0.00000000000E+00  0.00000000000E+00  0.73955419681E+02  0.73955419681E+02  0.00000000000E+00 0. -1.
         -2   -1    0    0    0  501 -0.00000000000E+00 -0.00000000000E+00 -0.42275579256E+02  0.42275579256E+02  0.00000000000E+00 0.  1.
          1    1    1    2  502    0 -0.10662669736E+02 -0.17782493988E+02 -0.38132306949E+02  0.43404866681E+02  0.00000000000E+00 0.  1.
         -1    1    1    2    0  501  0.10662669736E+02  0.17782493988E+02  0.69812147375E+02  0.72826132256E+02  0.00000000000E+00 0. -1.
</event>
<event>
 4    1  0.6934088E+001  0.3400593E+02  0.7546771E-02  0.1387690E+00
          2   -1    0    0  502    0  0.00000000000E+00  0.00000000000E+00  0.93191106199E+02  0.93191106199E+02  0.00000000000E+00 0. -1.
         -2   -1    0    0    0  501 -0.00000000000E+00 -0.00000000000E+00 -0.14290489023E+02  0.14290489023E+02  0.00000000000E+00 0.  1.
          1    1    1    2  502    0 -0.28909785777E+02 -0.17906077952E+02  0.19950169122E+02  0.39426039482E+02  0.00000000000E+00 0. -1.
         -1    1    1    2    0  501  0.28909785777E+02  0.17906077952E+02  0.58950448054E+02  0.68055555740E+02  0.00000000000E+00 0.  1.
</event>
<event>
 4    1  0.6934088E+001  0.2509736E+02  0.7546771E-02  0.1467717E+00
          2   -1    0    0  502    0  0.00000000000E+00  0.00000000000E+00  0.20427872539E+04  0.20427872539E+04  0.00000000000E+00 0.  1.
         -2   -1    0    0    0  501 -0.00000000000E+00 -0.00000000000E+00 -0.31697590487E+00  0.31697590487E+00  0.00000000000E+00 0. -1.
          1    1    1    2  502    0  0.18134595839E+02 -0.17349745840E+02  0.85263834422E+03  0.85300763378E+03  0.00000000000E+00 0. -1.
         -1    1    1    2    0  501 -0.18134595839E+02  0.17349745840E+02  0.11898319338E+04  0.11900965960E+04  0.00000000000E+00 0.  1.
</event>
<event>
 4    1  0.6934088E+001  0.2546904E+02  0.7546771E-02  0.1463624E+00
          2   -1    0    0  502    0  0.00000000000E+00  0.00000000000E+00  0.24138981697E+03  0.24138981697E+03  0.00000000000E+00 0.  1.
         -2   -1    0    0    0  501 -0.00000000000E+00 -0.00000000000E+00 -0.61788733550E+01  0.61788733550E+01  0.00000000000E+00 0. -1.
          1    1    1    2  502    0  0.11178459999E+02  0.22884797264E+02  0.21065742883E+03  0.21219148012E+03  0.00000000000E+00 0.  1.
         -1    1    1    2    0  501 -0.11178459999E+02 -0.22884797264E+02  0.24553514790E+02  0.35377210211E+02  0.00000000000E+00 0. -1.
</event>
<event>
 4    1  0.6934088E+001  0.2573001E+02  0.7546771E-02  0.1460800E+00
          2   -1    0    0  502    0  0.00000000000E+00  0.00000000000E+00  0.14240566127E+04  0.14240566127E+04  0.00000000000E+00 0. -1.
         -2   -1    0    0    0  501 -0.00000000000E+00 -0.00000000000E+00 -0.70522314080E+00  0.70522314080E+00  0.00000000000E+00 0.  1.
          1    1    1    2  502    0 -0.13794754887E+02 -0.21719537527E+02  0.29580974679E+03  0.29692665739E+03  0.00000000000E+00 0.  1.
         -1    1    1    2    0  501  0.13794754887E+02  0.21719537527E+02  0.11275416428E+04  0.11278351785E+04  0.00000000000E+00 0. -1.
</event>
<event>
 4    1  0.6934088E+001  0.2090040E+02  0.7546771E-02  0.1520692E+00
          2   -1    0    0  502    0  0.00000000000E+00  0.00000000000E+00  0.30427860675E+03  0.30427860675E+03  0.00000000000E+00 0.  1.
         -2   -1    0    0    0  501 -0.00000000000E+00 -0.00000000000E+00 -0.17034535502E+01  0.17034535502E+01  0.00000000000E+00 0. -1.
          1    1    1    2  502    0  0.79319921847E+01 -0.19336758310E+02  0.90622615489E+02  0.93001533106E+02  0.00000000000E+00 0.  1.
         -1    1    1    2    0  501 -0.79319921847E+01  0.19336758310E+02  0.21195253771E+03  0.21298052719E+03  0.00000000000E+00 0. -1.
</event>
<event>
 4    1  0.6934088E+001  0.2101356E+02  0.7546771E-02  0.1519071E+00
          2   -1    0    0  502    0  0.00000000000E+00  0.00000000000E+00  0.75993177938E+02  0.75993177938E+02  0.00000000000E+00 0. -1.
         -2   -1    0    0    0  501 -0.00000000000E+00 -0.00000000000E+00 -0.69427782038E+01  0.69427782038E+01  0.00000000000E+00 0.  1.
          1    1    1    2  502    0 -0.66816306843E+00  0.21002933518E+02  0.17779848117E+02  0.27526217635E+02  0.00000000000E+00 0.  1.
         -1    1    1    2    0  501  0.66816306843E+00 -0.21002933518E+02  0.51270551618E+02  0.55409738507E+02  0.00000000000E+00 0. -1.
</event>
<event>
 4    1  0.6934088E+001  0.2248562E+02  0.7546771E-02  0.1499060E+00
          2   -1    0    0  502    0  0.00000000000E+00  0.00000000000E+00  0.14847314182E+04  0.14847314182E+04  0.00000000000E+00 0. -1.
         -2   -1    0    0    0  501 -0.00000000000E+00 -0.00000000000E+00 -0.31712623823E+01  0.31712623823E+01  0.00000000000E+00 0.  1.
          1    1    1    2  502    0 -0.21445273383E+02 -0.67604116044E+01  0.14436540649E+04  0.14438291665E+04  0.00000000000E+00 0. -1.
         -1    1    1    2    0  501  0.21445273383E+02  0.67604116044E+01  0.37906090923E+02  0.44073514094E+02  0.00000000000E+00 0.  1.
</event>
<event>
 4    1  0.6934088E+001  0.3916343E+02  0.7546771E-02  0.1353459E+00
          2   -1    0    0  502    0  0.00000000000E+00  0.00000000000E+00  0.23809330645E+04  0.23809330645E+04  0.00000000000E+00 0.  1.
         -2   -1    0    0    0  501 -0.00000000000E+00 -0.00000000000E+00 -0.12163317630E+01  0.12163317630E+01  0.00000000000E+00 0. -1.
          1    1    1    2  502    0  0.86604609008E+01 -0.38193858288E+02  0.20067503251E+04  0.20071324425E+04  0.00000000000E+00 0.  1.
         -1    1    1    2    0  501 -0.86604609008E+01  0.38193858288E+02  0.37296640763E+03  0.37501695377E+03  0.00000000000E+00 0. -1.
</event>
<event>
 4    1  0.6934088E+001  0.2915009E+02  0.7546771E-02  0.1427129E+00
          2   -1    0    0  502    0  0.00000000000E+00  0.00000000000E+00  0.16740501944E+03  0.16740501944E+03  0.00000000000E+00 0.  1.
         -2   -1    0    0    0  501 -0.00000000000E+00 -0.00000000000E+00 -0.77365319465E+01  0.77365319465E+01  0.00000000000E+00 0. -1.
          1    1    1    2  502    0 -0.28121595671E+02  0.76748776400E+01  0.13118892280E+03  0.13438847181E+03  0.00000000000E+00 0.  1.
         -1    1    1    2    0  501  0.28121595671E+02 -0.76748776400E+01  0.28479564694E+02  0.40753079577E+02  0.00000000000E+00 0. -1.
</event>
<event>
 4    1  0.6934088E+001  0.3724530E+02  0.7546771E-02  0.1365431E+00
          2   -1    0    0  502    0  0.00000000000E+00  0.00000000000E+00  0.20287583596E+03  0.20287583596E+03  0.00000000000E+00 0.  1.
         -2   -1    0    0    0  501 -0.00000000000E+00 -0.00000000000E+00 -0.15552942273E+02  0.15552942273E+02  0.00000000000E+00 0. -1.
          1    1    1    2  502    0 -0.20118463766E+02 -0.31344209690E+02  0.17541607269E+03  0.17932654746E+03  0.00000000000E+00 0.  1.
         -1    1    1    2    0  501  0.20118463766E+02  0.31344209690E+02  0.11906820997E+02  0.39102230776E+02  0.00000000000E+00 0. -1.
</event>
<event>
 4    1  0.6934088E+001  0.3096403E+02  0.7546771E-02  0.1411400E+00
          2   -1    0    0  502    0  0.00000000000E+00  0.00000000000E+00  0.11007234287E+02  0.11007234287E+02  0.00000000000E+00 0.  1.
         -2   -1    0    0    0  501 -0.00000000000E+00 -0.00000000000E+00 -0.88194493900E+02  0.88194493900E+02  0.00000000000E+00 0. -1.
          1    1    1    2  502    0  0.21321644555E+02  0.22453482737E+02 -0.33077565014E+02  0.45308903328E+02  0.00000000000E+00 0. -1.
         -1    1    1    2    0  501 -0.21321644555E+02 -0.22453482737E+02 -0.44109694600E+02  0.53892824859E+02  0.00000000000E+00 0.  1.
</event>
<event>
 4    1  0.6934088E+001  0.2680978E+02  0.7546771E-02  0.1449528E+00
          2   -1    0    0  502    0  0.00000000000E+00  0.00000000000E+00  0.58351187345E+00  0.58351187345E+00  0.00000000000E+00 0.  1.
         -2   -1    0    0    0  501 -0.00000000000E+00 -0.00000000000E+00 -0.12793321653E+04  0.12793321653E+04  0.00000000000E+00 0. -1.
          1    1    1    2  502    0 -0.10326649712E+02 -0.24741147491E+02 -0.76274141556E+03  0.76321244165E+03  0.00000000000E+00 0. -1.
         -1    1    1    2    0  501  0.10326649712E+02  0.24741147491E+02 -0.51600723787E+03  0.51670323553E+03  0.00000000000E+00 0.  1.
</event>
<event>
 4    1  0.6934088E+001  0.2222601E+02  0.7546771E-02  0.1502453E+00
          2   -1    0    0  502    0  0.00000000000E+00  0.00000000000E+00  0.10994606188E+04  0.10994606188E+04  0.00000000000E+00 0.  1.
         -2   -1    0    0    0  501 -0.00000000000E+00 -0.00000000000E+00 -0.57276087663E+00  0.57276087663E+00  0.00000000000E+00 0. -1.
          1    1    1    2  502    0 -0.16873617370E+01  0.22161870097E+02  0.80479697557E+03  0.80510382409E+03  0.00000000000E+00 0.  1.
         -1    1    1    2    0  501  0.16873617370E+01 -0.22161870097E+02  0.29409088235E+03  0.29492955559E+03  0.00000000000E+00 0. -1.
</event>
<event>
 4    1  0.6934088E+001  0.2957126E+02  0.7546771E-02  0.1423359E+00
          2   -1    0    0  502    0  0.00000000000E+00  0.00000000000E+00  0.33951933009E+01  0.33951933009E+01  0.00000000000E+00 0.  1.
         -2   -1    0    0    0  501 -0.00000000000E+00 -0.00000000000E+00 -0.25768312803E+03  0.25768312803E+03  0.00000000000E+00 0. -1.
          1    1    1    2  502    0 -0.28888337924E+02 -0.63184802750E+01 -0.12426761569E+03  0.12773762003E+03  0.00000000000E+00 0. -1.
         -1    1    1    2    0  501  0.28888337924E+02  0.63184802750E+01 -0.13002031904E+03  0.13334070130E+03  0.00000000000E+00 0.  1.
</event>
<event>
 4    1  0.6934088E+001  0.3259988E+02  0.7546771E-02  0.1398270E+00
          2   -1    0    0  502    0  0.00000000000E+00  0.00000000000E+00  0.16095524127E+04  0.16095524127E+04  0.00000000000E+00 0. -1.
         -2   -1    0    0    0  501 -0.00000000000E+00 -0.00000000000E+00 -0.84209568119E+00  0.84209568119E+00  0.00000000000E+00 0.  1.
          1    1    1    2  502    0 -0.32583988192E+02 -0.10177451484E+01  0.43021046489E+03  0.43144385057E+03  0.00000000000E+00 0.  1.
         -1    1    1    2    0  501  0.32583988192E+02  0.10177451484E+01  0.11784998522E+04  0.11789506578E+04  0.00000000000E+00 0. -1.
</event>
<event>
 4    1  0.6934088E+001  0.2509475E+02  0.7546771E-02  0.1467746E+00
          2   -1    0    0  502    0  0.00000000000E+00  0.00000000000E+00  0.55716070966E+03  0.55716070966E+03  0.00000000000E+00 0. -1.
         -2   -1    0    0    0  501 -0.00000000000E+00 -0.00000000000E+00 -0.12940165205E+01  0.12940165205E+01  0.00000000000E+00 0.  1.
          1    1    1    2  502    0 -0.23036946161E+02 -0.99521703416E+01  0.37725942303E+03  0.37809313515E+03  0.00000000000E+00 0. -1.
         -1    1    1    2    0  501  0.23036946161E+02  0.99521703416E+01  0.17860727011E+03  0.18036159103E+03  0.00000000000E+00 0.  1.
</event>
<event>
 4    1  0.6934088E+001  0.2498843E+02  0.7546771E-02  0.1468933E+00
          2   -1    0    0  502    0  0.00000000000E+00  0.00000000000E+00  0.17508194445E+04  0.17508194445E+04  0.00000000000E+00 0. -1.
         -2   -1    0    0    0  501 -0.00000000000E+00 -0.00000000000E+00 -0.46146357732E+00  0.46146357732E+00  0.00000000000E+00 0.  1.
          1    1    1    2  502    0  0.23932895366E+01 -0.24873558639E+02  0.45785308700E+03  0.45853448183E+03  0.00000000000E+00 0.  1.
         -1    1    1    2    0  501 -0.23932895366E+01  0.24873558639E+02  0.12925048939E+04  0.12927464262E+04  0.00000000000E+00 0. -1.
</event>
<event>
 4    1  0.6934088E+001  0.2143383E+02  0.7546771E-02  0.1513160E+00
          2   -1    0    0  502    0  0.00000000000E+00  0.00000000000E+00  0.19062329988E+03  0.19062329988E+03  0.00000000000E+00 0. -1.
         -2   -1    0    0    0  501 -0.00000000000E+00 -0.00000000000E+00 -0.26268217670E+01  0.26268217670E+01  0.00000000000E+00 0.  1.
          1    1    1    2  502    0 -0.10453043299E+02 -0.18712110195E+02  0.12175629088E+03  0.12362849005E+03  0.00000000000E+00 0. -1.
         -1    1    1    2    0  501  0.10453043299E+02  0.18712110195E+02  0.66240187228E+02  0.69621631597E+02  0.00000000000E+00 0.  1.
</event>
<event>
 4    1  0.6934088E+001  0.2629845E+02  0.7546771E-02  0.1454785E+00
          2   -1    0    0  502    0  0.00000000000E+00  0.00000000000E+00  0.12125427827E+04  0.12125427827E+04  0.00000000000E+00 0.  1.
         -2   -1    0    0    0  501 -0.00000000000E+00 -0.00000000000E+00 -0.90863903255E+00  0.90863903255E+00  0.00000000000E+00 0. -1.
          1    1    1    2  502    0  0.24377328193E+02  0.98668400731E+01  0.97600495078E+03  0.97635919242E+03  0.00000000000E+00 0.  1.
         -1    1    1    2    0  501 -0.24377328193E+02 -0.98668400731E+01  0.23562919291E+03  0.23709222935E+03  0.00000000000E+00 0. -1.
</event>
<event>
 4    1  0.6934088E+001  0.2780036E+02  0.7546771E-02  0.1439730E+00
          2   -1    0    0  502    0  0.00000000000E+00  0.00000000000E+00  0.14753289436E+03  0.14753289436E+03  0.00000000000E+00 0.  1.
         -2   -1    0    0    0  501 -0.00000000000E+00 -0.00000000000E+00 -0.67614464184E+01  0.67614464184E+01  0.00000000000E+00 0. -1.
          1    1    1    2  502    0 -0.23081935906E+01  0.27704369156E+02  0.10699861651E+03  0.11055118165E+03  0.00000000000E+00 0.  1.
         -1    1    1    2    0  501  0.23081935906E+01 -0.27704369156E+02  0.33772831427E+02  0.43743159129E+02  0.00000000000E+00 0. -1.
</event>
<event>
 4    1  0.6934088E+001  0.2860612E+02  0.7546771E-02  0.1432109E+00
          2   -1    0    0  502    0  0.00000000000E+00  0.00000000000E+00  0.10544713533E+04  0.10544713533E+04  0.00000000000E+00 0. -1.
         -2   -1    0    0    0  501 -0.00000000000E+00 -0.00000000000E+00 -0.14731060148E+01  0.14731060148E+01  0.00000000000E+00 0.  1.
          1    1    1    2  502    0  0.16027376534E+02  0.23694585976E+02  0.88968717248E+03  0.89014694017E+03  0.00000000000E+00 0. -1.
         -1    1    1    2    0  501 -0.16027376534E+02 -0.23694585976E+02  0.16331107476E+03  0.16579751910E+03  0.00000000000E+00 0.  1.
</event>
<event>
 4    1  0.6934088E+001  0.2128696E+02  0.7546771E-02  0.1515207E+00
          2   -1    0    0  502    0  0.00000000000E+00  0.00000000000E+00  0.64593817667E+02  0.64593817667E+02  0.00000000000E+00 0. -1.
         -2   -1    0    0    0  501 -0.00000000000E+00 -0.00000000000E+00 -0.70152030710E+01  0.70152030710E+01  0.00000000000E+00 0.  1.
          1    1    1    2  502    0  0.16277308421E+02 -0.13718006464E+02  0.28679303905E+02  0.35716060019E+02  0.00000000000E+00 0. -1.
         -1    1    1    2    0  501 -0.16277308421E+02  0.13718006464E+02  0.28899310691E+02  0.35892960719E+02  0.00000000000E+00 0.  1.
</event>
<event>
 4    1  0.6934088E+001  0.2850795E+02  0.7546771E-02  0.1433021E+00
          2   -1    0    0  502    0  0.00000000000E+00  0.00000000000E+00  0.27148246891E+04  0.27148246891E+04  0.00000000000E+00 0. -1.
         -2   -1    0    0    0  501 -0.00000000000E+00 -0.00000000000E+00 -0.32933927273E+00  0.32933927273E+00  0.00000000000E+00 0.  1.
          1    1    1    2  502    0 -0.24592396440E+02 -0.14419326458E+02  0.17668589339E+04  0.17670889042E+04  0.00000000000E+00 0.  1.
         -1    1    1    2    0  501  0.24592396440E+02  0.14419326458E+02  0.94763641586E+03  0.94806512413E+03  0.00000000000E+00 0. -1.
</event>
<event>
 4    1  0.6934088E+001  0.2727507E+02  0.7546771E-02  0.1444864E+00
          2   -1    0    0  502    0  0.00000000000E+00  0.00000000000E+00  0.12886803791E+04  0.12886803791E+04  0.00000000000E+00 0.  1.
         -2   -1    0    0    0  501 -0.00000000000E+00 -0.00000000000E+00 -0.86671887680E+00  0.86671887680E+00  0.00000000000E+00 0. -1.
          1    1    1    2  502    0  0.32360731323E+01  0.27082419877E+02  0.27130379748E+03  0.27267137761E+03  0.00000000000E+00 0. -1.
         -1    1    1    2    0  501 -0.32360731323E+01 -0.27082419877E+02  0.10165098628E+04  0.10168757204E+04  0.00000000000E+00 0.  1.
</event>
<event>
 4    1  0.6934088E+001  0.4003558E+02  0.7546771E-02  0.1348277E+00
          2   -1    0    0  502    0  0.00000000000E+00  0.00000000000E+00  0.53093545040E+02  0.53093545040E+02  0.00000000000E+00 0. -1.
         -2   -1    0    0    0  501 -0.00000000000E+00 -0.00000000000E+00 -0.30963652922E+02  0.30963652922E+02  0.00000000000E+00 0.  1.
          1    1    1    2  502    0 -0.39258692866E+02 -0.78487400435E+01  0.44177687667E+01  0.40278584468E+02  0.00000000000E+00 0.  1.
         -1    1    1    2    0  501  0.39258692866E+02  0.78487400435E+01  0.17712123351E+02  0.43778613494E+02  0.00000000000E+00 0. -1.
</event>
<event>
 4    1  0.6934088E+001  0.2071120E+02  0.7546771E-02  0.1523428E+00
          2   -1    0    0  502    0  0.00000000000E+00  0.00000000000E+00  0.63904401498E+03  0.63904401498E+03  0.00000000000E+00 0.  1.
         -2   -1    0    0    0  501 -0.00000000000E+00 -0.00000000000E+00 -0.12107262791E+01  0.12107262791E+01  0.00000000000E+00 0. -1.
          1    1    1    2  502    0 -0.20607276417E+02 -0.20722039569E+01  0.10522438708E+03  0.10724330052E+03  0.00000000000E+00 0. -1.
         -1    1    1    2    0  501  0.20607276417E+02  0.20722039569E+01  0.53260890162E+03  0.53301144073E+03  0.00000000000E+00 0.  1.
</event>
<event>
 4    1  0.6934088E+001  0.4346378E+02  0.7546771E-02  0.1329302E+00
          2   -1    0    0  502    0  0.00000000000E+00  0.00000000000E+00  0.38100537833E+03  0.38100537833E+03  0.00000000000E+00 0.  1.
         -2   -1    0    0    0  501 -0.00000000000E+00 -0.00000000000E+00 -0.52762514111E+01  0.52762514111E+01  0.00000000000E+00 0. -1.
          1    1    1    2  502    0  0.41805628431E+02 -0.11890727120E+02  0.23528456974E+03  0.23926539390E+03  0.00000000000E+00 0.  1.
         -1    1    1    2    0  501 -0.41805628431E+02  0.11890727120E+02  0.14044455718E+03  0.14701623584E+03  0.00000000000E+00 0. -1.
</event>
<event>
 4    1  0.6934088E+001  0.3673678E+02  0.7546771E-02  0.1368748E+00
          2   -1    0    0  502    0  0.00000000000E+00  0.00000000000E+00  0.89243184478E+03  0.89243184478E+03  0.00000000000E+00 0. -1.
         -2   -1    0    0    0  501 -0.00000000000E+00 -0.00000000000E+00 -0.17442208741E+01  0.17442208741E+01  0.00000000000E+00 0.  1.
          1    1    1    2  502    0 -0.31304044616E+02  0.19226222321E+02  0.28230247400E+03  0.28468276671E+03  0.00000000000E+00 0.  1.
         -1    1    1    2    0  501  0.31304044616E+02 -0.19226222321E+02  0.60838514990E+03  0.60949329894E+03  0.00000000000E+00 0. -1.
</event>
<event>
 4    1  0.6934088E+001  0.5292632E+02  0.7546771E-02  0.1285960E+00
          2   -1    0    0  502    0  0.00000000000E+00  0.00000000000E+00  0.12776295141E+02  0.12776295141E+02  0.00000000000E+00 0.  1.
         -2   -1    0    0    0  501 -0.00000000000E+00 -0.00000000000E+00 -0.42450492990E+03  0.42450492990E+03  0.00000000000E+00 0. -1.
          1    1    1    2  502    0 -0.52917083633E+02  0.98867630887E+00 -0.53831660615E+02  0.75492005574E+02  0.00000000000E+00 0.  1.
         -1    1    1    2    0  501  0.52917083633E+02 -0.98867630887E+00 -0.35789697414E+03  0.36178921947E+03  0.00000000000E+00 0. -1.
</event>
<event>
 4    1  0.6934088E+001  0.2557614E+02  0.7546771E-02  0.1462460E+00
          2   -1    0    0  502    0  0.00000000000E+00  0.00000000000E+00  0.10809907448E+04  0.10809907448E+04  0.00000000000E+00 0. -1.
         -2   -1    0    0    0  501 -0.00000000000E+00 -0.00000000000E+00 -0.16033482239E+01  0.16033482239E+01  0.00000000000E+00 0.  1.
          1    1    1    2  502    0  0.14322486156E+01  0.25536009500E+02  0.11258871317E+03  0.11545716717E+03  0.00000000000E+00 0.  1.
         -1    1    1    2    0  501 -0.14322486156E+01 -0.25536009500E+02  0.96679868340E+03  0.96713692584E+03  0.00000000000E+00 0. -1.
</event>
<event>
 4    1  0.6934088E+001  0.2068664E+02  0.7546771E-02  0.1523786E+00
          2   -1    0    0  502    0  0.00000000000E+00  0.00000000000E+00  0.13788940779E+03  0.13788940779E+03  0.00000000000E+00 0. -1.
         -2   -1    0    0    0  501 -0.00000000000E+00 -0.00000000000E+00 -0.37470104594E+01  0.37470104594E+01  0.00000000000E+00 0.  1.
          1    1    1    2  502    0  0.11082014068E+02 -0.17467858075E+02  0.96419761552E+02  0.98613931669E+02  0.00000000000E+00 0. -1.
         -1    1    1    2    0  501 -0.11082014068E+02  0.17467858075E+02  0.37722635784E+02  0.43022486585E+02  0.00000000000E+00 0.  1.
</event>
<event>
 4    1  0.6934088E+001  0.2501848E+02  0.7546771E-02  0.1468597E+00
          2   -1    0    0  502    0  0.00000000000E+00  0.00000000000E+00  0.13271344334E+03  0.13271344334E+03  0.00000000000E+00 0. -1.
         -2   -1    0    0    0  501 -0.00000000000E+00 -0.00000000000E+00 -0.58112557852E+01  0.58112557852E+01  0.00000000000E+00 0.  1.
          1    1    1    2  502    0 -0.23286000298E+02 -0.91480233933E+01  0.33386941299E+02  0.41720642268E+02  0.00000000000E+00 0.  1.
         -1    1    1    2    0  501  0.23286000298E+02  0.91480233933E+01  0.93515246256E+02  0.96804056858E+02  0.00000000000E+00 0. -1.
</event>
<event>
 4    1  0.6934088E+001  0.5266342E+02  0.7546771E-02  0.1287020E+00
          2   -1    0    0  502    0  0.00000000000E+00  0.00000000000E+00  0.20065539489E+04  0.20065539489E+04  0.00000000000E+00 0.  1.
         -2   -1    0    0    0  501 -0.00000000000E+00 -0.00000000000E+00 -0.20300853655E+01  0.20300853655E+01  0.00000000000E+00 0. -1.
          1    1    1    2  502    0 -0.23932625345E+02  0.46911253976E+02  0.15696180129E+04  0.15705012393E+04  0.00000000000E+00 0.  1.
         -1    1    1    2    0  501  0.23932625345E+02 -0.46911253976E+02  0.43490585061E+03  0.43808279492E+03  0.00000000000E+00 0. -1.
</event>
<event>
 4    1  0.6934088E+001  0.2221999E+02  0.7546771E-02  0.1502532E+00
          2   -1    0    0  502    0  0.00000000000E+00  0.00000000000E+00  0.15404127792E+04  0.15404127792E+04  0.00000000000E+00 0.  1.
         -2   -1    0    0    0  501 -0.00000000000E+00 -0.00000000000E+00 -0.11464501665E+01  0.11464501665E+01  0.00000000000E+00 0. -1.
          1    1    1    2  502    0 -0.19037729460E+02 -0.11458315641E+02  0.14238551590E+04  0.14240285257E+04  0.00000000000E+00 0.  1.
         -1    1    1    2    0  501  0.19037729460E+02  0.11458315641E+02  0.11541117001E+03  0.11753070366E+03  0.00000000000E+00 0. -1.
</event>
<event>
 4    1  0.6934088E+001  0.3193174E+02  0.7546771E-02  0.1403520E+00
          2   -1    0    0  502    0  0.00000000000E+00  0.00000000000E+00  0.12859984021E+04  0.12859984021E+04  0.00000000000E+00 0.  1.
         -2   -1    0    0    0  501 -0.00000000000E+00 -0.00000000000E+00 -0.29057198251E+01  0.29057198251E+01  0.00000000000E+00 0. -1.
          1    1    1    2  502    0 -0.34003220640E+01  0.31750178826E+02  0.11910841081E+04  0.11915120598E+04  0.00000000000E+00 0.  1.
         -1    1    1    2    0  501  0.34003220640E+01 -0.31750178826E+02  0.92008574130E+02  0.97392062095E+02  0.00000000000E+00 0. -1.
</event>
<event>
 4    1  0.6934088E+001  0.2359205E+02  0.7546771E-02  0.1485195E+00
          2   -1    0    0  502    0  0.00000000000E+00  0.00000000000E+00  0.73549719221E+02  0.73549719221E+02  0.00000000000E+00 0.  1.
         -2   -1    0    0    0  501 -0.00000000000E+00 -0.00000000000E+00 -0.10327152695E+02  0.10327152695E+02  0.00000000000E+00 0. -1.
          1    1    1    2  502    0 -0.92198286700E+01 -0.21715884800E+02  0.99316498557E+01  0.25597315527E+02  0.00000000000E+00 0.  1.
         -1    1    1    2    0  501  0.92198286700E+01  0.21715884800E+02  0.53290916670E+02  0.58279556389E+02  0.00000000000E+00 0. -1.
</event>
<event>
 4    1  0.6934088E+001  0.2450754E+02  0.7546771E-02  0.1474388E+00
          2   -1    0    0  502    0  0.00000000000E+00  0.00000000000E+00  0.59810104000E+01  0.59810104000E+01  0.00000000000E+00 0. -1.
         -2   -1    0    0    0  501 -0.00000000000E+00 -0.00000000000E+00 -0.17674261460E+03  0.17674261460E+03  0.00000000000E+00 0.  1.
          1    1    1    2  502    0  0.21177922243E+02 -0.12333504374E+02 -0.14541760024E+03  0.14746829551E+03  0.00000000000E+00 0.  1.
         -1    1    1    2    0  501 -0.21177922243E+02  0.12333504374E+02 -0.25344003954E+02  0.35255329485E+02  0.00000000000E+00 0. -1.
</event>
<event>
 4    1  0.6934088E+001  0.2870305E+02  0.7546771E-02  0.1431212E+00
          2   -1    0    0  502    0  0.00000000000E+00  0.00000000000E+00  0.20352247470E+03  0.20352247470E+03  0.00000000000E+00 0.  1.
         -2   -1    0    0    0  501 -0.00000000000E+00 -0.00000000000E+00 -0.48207255436E+01  0.48207255436E+01  0.00000000000E+00 0. -1.
          1    1    1    2  502    0  0.21282283707E+02 -0.19259524020E+02  0.14105678793E+03  0.14394749837E+03  0.00000000000E+00 0. -1.
         -1    1    1    2    0  501 -0.21282283707E+02  0.19259524020E+02  0.57644961227E+02  0.64395701876E+02  0.00000000000E+00 0.  1.
</event>
<event>
 4    1  0.6934088E+001  0.2178957E+02  0.7546771E-02  0.1508284E+00
          2   -1    0    0  502    0  0.00000000000E+00  0.00000000000E+00  0.16562617557E+04  0.16562617557E+04  0.00000000000E+00 0.  1.
         -2   -1    0    0    0  501 -0.00000000000E+00 -0.00000000000E+00 -0.31287259229E+00  0.31287259229E+00  0.00000000000E+00 0. -1.
          1    1    1    2  502    0 -0.30943769207E+01  0.21568732230E+02  0.10677170991E+04  0.10679394127E+04  0.00000000000E+00 0.  1.
         -1    1    1    2    0  501  0.30943769207E+01 -0.21568732230E+02  0.58823178395E+03  0.58863521559E+03  0.00000000000E+00 0. -1.
</event>
<event>
 4    1  0.6934088E+001  0.2251363E+02  0.7546771E-02  0.1498698E+00
          2   -1    0    0  502    0  0.00000000000E+00  0.00000000000E+00  0.47994437658E+03  0.47994437658E+03  0.00000000000E+00 0.  1.
         -2   -1    0    0    0  501 -0.00000000000E+00 -0.00000000000E+00 -0.12943935563E+01  0.12943935563E+01  0.00000000000E+00 0. -1.
          1    1    1    2  502    0  0.41358276075E+01  0.22130485689E+02  0.34256893454E+03  0.34330793521E+03  0.00000000000E+00 0.  1.
         -1    1    1    2    0  501 -0.41358276075E+01 -0.22130485689E+02  0.13608104849E+03  0.13793083493E+03  0.00000000000E+00 0. -1.
</event>
<event>
 4    1  0.6934088E+001  0.2477759E+02  0.7546771E-02  0.1471307E+00
          2   -1    0    0  502    0  0.00000000000E+00  0.00000000000E+00  0.20170708119E+02  0.20170708119E+02  0.00000000000E+00 0.  1.
         -2   -1    0    0    0  501 -0.00000000000E+00 -0.00000000000E+00 -0.14019678325E+03  0.14019678325E+03  0.00000000000E+00 0. -1.
          1    1    1    2  502    0  0.82200821248E+01 -0.23374324432E+02  0.10934875836E+02  0.27083210709E+02  0.00000000000E+00 0.  1.
         -1    1    1    2    0  501 -0.82200821248E+01  0.23374324432E+02 -0.13096095097E+03  0.13328428066E+03  0.00000000000E+00 0. -1.
</event>
<event>
 4    1  0.6934088E+001  0.2015059E+02  0.7546771E-02  0.1531746E+00
          2   -1    0    0  502    0  0.00000000000E+00  0.00000000000E+00  0.12293424070E+03  0.12293424070E+03  0.00000000000E+00 0.  1.
         -2   -1    0    0    0  501 -0.00000000000E+00 -0.00000000000E+00 -0.33436674078E+01  0.33436674078E+01  0.00000000000E+00 0. -1.
          1    1    1    2  502    0 -0.20351868505E+01  0.20047549315E+02  0.52828199629E+02  0.56540825030E+02  0.00000000000E+00 0. -1.
         -1    1    1    2    0  501  0.20351868505E+01 -0.20047549315E+02  0.66762373661E+02  0.69737083076E+02  0.00000000000E+00 0.  1.
</event>
<event>
 4    1  0.6934088E+001  0.2054926E+02  0.7546771E-02  0.1525799E+00
          2   -1    0    0  502    0  0.00000000000E+00  0.00000000000E+00  0.24069468055E+04  0.24069468055E+04  0.00000000000E+00 0.  1.
         -2   -1    0    0    0  501 -0.00000000000E+00 -0.00000000000E+00 -0.18630405370E+00  0.18630405370E+00  0.00000000000E+00 0. -1.
          1    1    1    2  502    0  0.44204545345E+01 -0.20068177695E+02  0.14940342333E+04  0.14941755460E+04  0.00000000000E+00 0.  1.
         -1    1    1    2    0  501 -0.44204545345E+01  0.20068177695E+02  0.91272626817E+03  0.91295756352E+03  0.00000000000E+00 0. -1.
</event>
<event>
 4    1  0.6934088E+001  0.2145436E+02  0.7546771E-02  0.1512876E+00
          2   -1    0    0  502    0  0.00000000000E+00  0.00000000000E+00  0.53885603706E+03  0.53885603706E+03  0.00000000000E+00 0.  1.
         -2   -1    0    0    0  501 -0.00000000000E+00 -0.00000000000E+00 -0.11798336393E+01  0.11798336393E+01  0.00000000000E+00 0. -1.
          1    1    1    2  502    0  0.17992738391E+02  0.11685498061E+02  0.41069435945E+03  0.41125435728E+03  0.00000000000E+00 0.  1.
         -1    1    1    2    0  501 -0.17992738391E+02 -0.11685498061E+02  0.12698184397E+03  0.12878151342E+03  0.00000000000E+00 0. -1.
</event>
<event>
 4    1  0.6934088E+001  0.4730323E+02  0.7546771E-02  0.1310308E+00
          2   -1    0    0  502    0  0.00000000000E+00  0.00000000000E+00  0.15560177031E+04  0.15560177031E+04  0.00000000000E+00 0.  1.
         -2   -1    0    0    0  501 -0.00000000000E+00 -0.00000000000E+00 -0.24446902960E+01  0.24446902960E+01  0.00000000000E+00 0. -1.
          1    1    1    2  502    0  0.34924650128E+02  0.31903981144E+02  0.12768170824E+04  0.12776930215E+04  0.00000000000E+00 0.  1.
         -1    1    1    2    0  501 -0.34924650128E+02 -0.31903981144E+02  0.27675593043E+03  0.28076937196E+03  0.00000000000E+00 0. -1.
</event>
<event>
 4    1  0.6934088E+001  0.2084688E+02  0.7546771E-02  0.1521462E+00
          2   -1    0    0  502    0  0.00000000000E+00  0.00000000000E+00  0.31952587247E+03  0.31952587247E+03  0.00000000000E+00 0. -1.
         -2   -1    0    0    0  501 -0.00000000000E+00 -0.00000000000E+00 -0.15207586198E+01  0.15207586198E+01  0.00000000000E+00 0.  1.
          1    1    1    2  502    0 -0.18044124934E+01 -0.20768645366E+02  0.21117451885E+03  0.21220101307E+03  0.00000000000E+00 0. -1.
         -1    1    1    2    0  501  0.18044124934E+01  0.20768645366E+02  0.10683059500E+03  0.10884561802E+03  0.00000000000E+00 0.  1.
</event>
<event>
 4    1  0.6934088E+001  0.2190999E+02  0.7546771E-02  0.1506659E+00
          2   -1    0    0  502    0  0.00000000000E+00  0.00000000000E+00  0.18731356944E+01  0.18731356944E+01  0.00000000000E+00 0.  1.
         -2   -1    0    0    0  501 -0.00000000000E+00 -0.00000000000E+00 -0.25659713983E+03  0.25659713983E+03  0.00000000000E+00 0. -1.
          1    1    1    2  502    0 -0.27693594537E+01 -0.21734266062E+02 -0.12282036029E+03  0.12475932260E+03  0.00000000000E+00 0. -1.
         -1    1    1    2    0  501  0.27693594537E+01  0.21734266062E+02 -0.13190364384E+03  0.13371095292E+03  0.00000000000E+00 0.  1.
</event>
<event>
 4    1  0.6934088E+001  0.2724562E+02  0.7546771E-02  0.1445156E+00
          2   -1    0    0  502    0  0.00000000000E+00  0.00000000000E+00  0.32497019122E+02  0.32497019122E+02  0.00000000000E+00 0.  1.
         -2   -1    0    0    0  501 -0.00000000000E+00 -0.00000000000E+00 -0.26835817123E+02  0.26835817123E+02  0.00000000000E+00 0. -1.
          1    1    1    2  502    0  0.15320088720E+02 -0.22530395064E+02  0.14274045353E+02  0.30758286540E+02  0.00000000000E+00 0.  1.
         -1    1    1    2    0  501 -0.15320088720E+02  0.22530395064E+02 -0.86128433546E+01  0.28574549704E+02  0.00000000000E+00 0. -1.
</event>
<event>
 4    1  0.6934088E+001  0.2503676E+02  0.7546771E-02  0.1468393E+00
          2   -1    0    0  502    0  0.00000000000E+00  0.00000000000E+00  0.35154967632E+02  0.35154967632E+02  0.00000000000E+00 0.  1.
         -2   -1    0    0    0  501 -0.00000000000E+00 -0.00000000000E+00 -0.19819518536E+02  0.19819518536E+02  0.00000000000E+00 0. -1.
          1    1    1    2  502    0  0.23752368768E+02  0.79160850946E+01 -0.10394408858E+01  0.25058329208E+02  0.00000000000E+00 0. -1.
         -1    1    1    2    0  501 -0.23752368768E+02 -0.79160850946E+01  0.16374889982E+02  0.29916156960E+02  0.00000000000E+00 0.  1.
</event>
<event>
 4    1  0.6934088E+001  0.2276308E+02  0.7546771E-02  0.1495495E+00
          2   -1    0    0  502    0  0.00000000000E+00  0.00000000000E+00  0.62630905176E+03  0.62630905176E+03  0.00000000000E+00 0.  1.
         -2   -1    0    0    0  501 -0.00000000000E+00 -0.00000000000E+00 -0.10287403373E+01  0.10287403373E+01  0.00000000000E+00 0. -1.
          1    1    1    2  502    0 -0.21171294267E+02 -0.83626609355E+01  0.45143412134E+03  0.45200765891E+03  0.00000000000E+00 0.  1.
         -1    1    1    2    0  501  0.21171294267E+02  0.83626609355E+01  0.17384619008E+03  0.17533013319E+03  0.00000000000E+00 0. -1.
</event>
<event>
 4    1  0.6934088E+001  0.3889194E+02  0.7546771E-02  0.1355104E+00
          2   -1    0    0  502    0  0.00000000000E+00  0.00000000000E+00  0.65164967259E+03  0.65164967259E+03  0.00000000000E+00 0. -1.
         -2   -1    0    0    0  501 -0.00000000000E+00 -0.00000000000E+00 -0.70630712492E+01  0.70630712492E+01  0.00000000000E+00 0.  1.
          1    1    1    2  502    0  0.38843685060E+02  0.19368277270E+01  0.59215794228E+03  0.59343374675E+03  0.00000000000E+00 0. -1.
         -1    1    1    2    0  501 -0.38843685060E+02 -0.19368277270E+01  0.52428659061E+02  0.65278997094E+02  0.00000000000E+00 0.  1.
</event>
<event>
 4    1  0.6934088E+001  0.2037198E+02  0.7546771E-02  0.1528423E+00
          2   -1    0    0  502    0  0.00000000000E+00  0.00000000000E+00  0.66772624317E+03  0.66772624317E+03  0.00000000000E+00 0. -1.
         -2   -1    0    0    0  501 -0.00000000000E+00 -0.00000000000E+00 -0.62457645685E+00  0.62457645685E+00  0.00000000000E+00 0.  1.
          1    1    1    2  502    0  0.20090599340E+02 -0.33742531147E+01  0.31024571831E+03  0.31091385220E+03  0.00000000000E+00 0. -1.
         -1    1    1    2    0  501 -0.20090599340E+02  0.33742531147E+01  0.35685594841E+03  0.35743696742E+03  0.00000000000E+00 0.  1.
</event>
<event>
 4    1  0.6934088E+001  0.2728600E+02  0.7546771E-02  0.1444756E+00
          2   -1    0    0  502    0  0.00000000000E+00  0.00000000000E+00  0.17248808761E+03  0.17248808761E+03  0.00000000000E+00 0. -1.
         -2   -1    0    0    0  501 -0.00000000000E+00 -0.00000000000E+00 -0.72325740960E+01  0.72325740960E+01  0.00000000000E+00 0.  1.
          1    1    1    2  502    0 -0.24661071917E+02 -0.11677224516E+02  0.25568126044E+02  0.37393249523E+02  0.00000000000E+00 0. -1.
         -1    1    1    2    0  501  0.24661071917E+02  0.11677224516E+02  0.13968738747E+03  0.14232741218E+03  0.00000000000E+00 0.  1.
</event>
<event>
 4    1  0.6934088E+001  0.3333684E+02  0.7546771E-02  0.1392648E+00
          2   -1    0    0  502    0  0.00000000000E+00  0.00000000000E+00  0.46628590506E+02  0.46628590506E+02  0.00000000000E+00 0. -1.
         -2   -1    0    0    0  501 -0.00000000000E+00 -0.00000000000E+00 -0.24698722576E+02  0.24698722576E+02  0.00000000000E+00 0.  1.
          1    1    1    2  502    0 -0.33051691741E+02  0.43509098144E+01  0.17638114185E+02  0.37715352512E+02  0.00000000000E+00 0. -1.
         -1    1    1    2    0  501  0.33051691741E+02 -0.43509098144E+01  0.42917537450E+01  0.33611960570E+02  0.00000000000E+00 0.  1.
</event>
<event>
 4    1  0.6934088E+001  0.2392112E+02  0.7546771E-02  0.1481245E+00
          2   -1    0    0  502    0  0.00000000000E+00  0.00000000000E+00  0.10446723732E+03  0.10446723732E+03  0.00000000000E+00 0.  1.
         -2   -1    0    0    0  501 -0.00000000000E+00 -0.00000000000E+00 -0.56331033093E+01  0.56331033093E+01  0.00000000000E+00 0. -1.
          1    1    1    2  502    0 -0.12562998370E+02 -0.20356597908E+02  0.40267834061E+02  0.46837148359E+02  0.00000000000E+00 0. -1.
         -1    1    1    2    0  501  0.12562998370E+02  0.20356597908E+02  0.58566299945E+02  0.63263192266E+02  0.00000000000E+00 0.  1.
</event>
<event>
 4    1  0.6934088E+001  0.2778869E+02  0.7546771E-02  0.1439842E+00
          2   -1    0    0  502    0  0.00000000000E+00  0.00000000000E+00  0.63666587085E+03  0.63666587085E+03  0.00000000000E+00 0.  1.
         -2   -1    0    0    0  501 -0.00000000000E+00 -0.00000000000E+00 -0.12142394005E+01  0.12142394005E+01  0.00000000000E+00 0. -1.
          1    1    1    2  502    0 -0.27721986258E+02 -0.19242798086E+01  0.30712888489E+03  0.30838346796E+03  0.00000000000E+00 0.  1.
         -1    1    1    2    0  501  0.27721986258E+02  0.19242798086E+01  0.32832274655E+03  0.32949664229E+03  0.00000000000E+00 0. -1.
</event>
<event>
 4    1  0.6934088E+001  0.2499383E+02  0.7546771E-02  0.1468872E+00
          2   -1    0    0  502    0  0.00000000000E+00  0.00000000000E+00  0.30550184807E+03  0.30550184807E+03  0.00000000000E+00 0. -1.
         -2   -1    0    0    0  501 -0.00000000000E+00 -0.00000000000E+00 -0.20448181837E+01  0.20448181837E+01  0.00000000000E+00 0.  1.
          1    1    1    2  502    0 -0.23897452215E+02 -0.73214260617E+01  0.15132826901E+03  0.15337840951E+03  0.00000000000E+00 0.  1.
         -1    1    1    2    0  501  0.23897452215E+02  0.73214260617E+01  0.15212876087E+03  0.15416825674E+03  0.00000000000E+00 0. -1.
</event>
<event>
 4    1  0.6934088E+001  0.2003692E+02  0.7546771E-02  0.1533472E+00
          2   -1    0    0  502    0  0.00000000000E+00  0.00000000000E+00  0.10780330249E+04  0.10780330249E+04  0.00000000000E+00 0. -1.
         -2   -1    0    0    0  501 -0.00000000000E+00 -0.00000000000E+00 -0.40380234159E+00  0.40380234159E+00  0.00000000000E+00 0.  1.
          1    1    1    2  502    0  0.18628010250E+02  0.73807402611E+01  0.38848587381E+03  0.38900225223E+03  0.00000000000E+00 0. -1.
         -1    1    1    2    0  501 -0.18628010250E+02 -0.73807402611E+01  0.68914334872E+03  0.68943457498E+03  0.00000000000E+00 0.  1.
</event>
<event>
 4    1  0.6934088E+001  0.3051066E+02  0.7546771E-02  0.1415210E+00
          2   -1    0    0  502    0  0.00000000000E+00  0.00000000000E+00  0.34409634885E+04  0.34409634885E+04  0.00000000000E+00 0. -1.
         -2   -1    0    0    0  501 -0.00000000000E+00 -0.00000000000E+00 -0.27086696614E+00  0.27086696614E+00  0.00000000000E+00 0.  1.
          1    1    1    2  502    0 -0.19065969258E+01  0.30451029653E+02  0.16600912568E+04  0.16603716094E+04  0.00000000000E+00 0.  1.
         -1    1    1    2    0  501  0.19065969258E+01 -0.30451029653E+02  0.17806013647E+04  0.17808627461E+04  0.00000000000E+00 0. -1.
</event>
<event>
 4    1  0.6934088E+001  0.2633587E+02  0.7546771E-02  0.1454396E+00
          2   -1    0    0  502    0  0.00000000000E+00  0.00000000000E+00  0.52281624472E+02  0.52281624472E+02  0.00000000000E+00 0. -1.
         -2   -1    0    0    0  501 -0.00000000000E+00 -0.00000000000E+00 -0.22826629290E+02  0.22826629290E+02  0.00000000000E+00 0.  1.
          1    1    1    2  502    0  0.26301548611E+02 -0.13441763358E+01  0.39031375094E+02  0.47085310991E+02  0.00000000000E+00 0. -1.
         -1    1    1    2    0  501 -0.26301548611E+02  0.13441763358E+01 -0.95763799116E+01  0.28022942771E+02  0.00000000000E+00 0.  1.
</event>
<event>
 4    1  0.6934088E+001  0.2148927E+02  0.7546771E-02  0.1512393E+00
          2   -1    0    0  502    0  0.00000000000E+00  0.00000000000E+00  0.16957091952E+04  0.16957091952E+04  0.00000000000E+00 0.  1.
         -2   -1    0    0    0  501 -0.00000000000E+00 -0.00000000000E+00 -0.27233150343E+00  0.27233150343E+00  0.00000000000E+00 0. -1.
          1    1    1    2  502    0  0.20517386639E+02 -0.63894730380E+01  0.84453349639E+03  0.84480685073E+03  0.00000000000E+00 0. -1.
         -1    1    1    2    0  501 -0.20517386639E+02  0.63894730380E+01  0.85090336729E+03  0.85117467595E+03  0.00000000000E+00 0.  1.
</event>
<event>
 4    1  0.6934088E+001  0.2046925E+02  0.7546771E-02  0.1526979E+00
          2   -1    0    0  502    0  0.00000000000E+00  0.00000000000E+00  0.21017934340E+01  0.21017934340E+01  0.00000000000E+00 0. -1.
         -2   -1    0    0    0  501 -0.00000000000E+00 -0.00000000000E+00 -0.22747564294E+03  0.22747564294E+03  0.00000000000E+00 0.  1.
          1    1    1    2  502    0 -0.19862004588E+02  0.49488479208E+01 -0.72323216080E+02  0.75164073241E+02  0.00000000000E+00 0. -1.
         -1    1    1    2    0  501  0.19862004588E+02 -0.49488479208E+01 -0.15305063342E+03  0.15441336313E+03  0.00000000000E+00 0.  1.
</event>
<event>
 4    1  0.6934088E+001  0.2278312E+02  0.7546771E-02  0.1495240E+00
          2   -1    0    0  502    0  0.00000000000E+00  0.00000000000E+00  0.16856251389E+03  0.16856251389E+03  0.00000000000E+00 0.  1.
         -2   -1    0    0    0  501 -0.00000000000E+00 -0.00000000000E+00 -0.41004931920E+01  0.41004931920E+01  0.00000000000E+00 0. -1.
          1    1    1    2  502    0  0.19282982257E+02 -0.12134139037E+02  0.12531191289E+03  0.12736618957E+03  0.00000000000E+00 0.  1.
         -1    1    1    2    0  501 -0.19282982257E+02  0.12134139037E+02  0.39150107815E+02  0.45296817514E+02  0.00000000000E+00 0. -1.
</event>
<event>
 4    1  0.6934088E+001  0.3234461E+02  0.7546771E-02  0.1400259E+00
          2   -1    0    0  502    0  0.00000000000E+00  0.00000000000E+00  0.76730690083E+01  0.76730690083E+01  0.00000000000E+00 0. -1.
         -2   -1    0    0    0  501 -0.00000000000E+00 -0.00000000000E+00 -0.16748591983E+03  0.16748591983E+03  0.00000000000E+00 0.  1.
          1    1    1    2  502    0  0.88172372612E+01 -0.31119607563E+02 -0.42141472463E+02  0.53123227962E+02  0.00000000000E+00 0. -1.
         -1    1    1    2    0  501 -0.88172372612E+01  0.31119607563E+02 -0.11767137836E+03  0.12203576088E+03  0.00000000000E+00 0.  1.
</event>
<event>
 4    1  0.6934088E+001  0.2635660E+02  0.7546771E-02  0.1454180E+00
          2   -1    0    0  502    0  0.00000000000E+00  0.00000000000E+00  0.62378419632E+03  0.62378419632E+03  0.00000000000E+00 0.  1.
         -2   -1    0    0    0  501 -0.00000000000E+00 -0.00000000000E+00 -0.13214556683E+01  0.13214556683E+01  0.00000000000E+00 0. -1.
          1    1    1    2  502    0 -0.25870322169E+02  0.50394979458E+01  0.43517888480E+03  0.43597629739E+03  0.00000000000E+00 0.  1.
         -1    1    1    2    0  501  0.25870322169E+02 -0.50394979458E+01  0.18728385585E+03  0.18912935460E+03  0.00000000000E+00 0. -1.
</event>
<event>
 4    1  0.6934088E+001  0.2489498E+02  0.7546771E-02  0.1469982E+00
          2   -1    0    0  502    0  0.00000000000E+00  0.00000000000E+00  0.48072066540E+03  0.48072066540E+03  0.00000000000E+00 0. -1.
         -2   -1    0    0    0  501 -0.00000000000E+00 -0.00000000000E+00 -0.14952810037E+01  0.14952810037E+01  0.00000000000E+00 0.  1.
          1    1    1    2  502    0  0.20702070100E+02 -0.13826950365E+02  0.32911533655E+03  0.33005554838E+03  0.00000000000E+00 0. -1.
         -1    1    1    2    0  501 -0.20702070100E+02  0.13826950365E+02  0.15011004785E+03  0.15216039803E+03  0.00000000000E+00 0.  1.
</event>
<event>
 4    1  0.6934088E+001  0.2202211E+02  0.7546771E-02  0.1505157E+00
          2   -1    0    0  502    0  0.00000000000E+00  0.00000000000E+00  0.13128827461E+03  0.13128827461E+03  0.00000000000E+00 0. -1.
         -2   -1    0    0    0  501 -0.00000000000E+00 -0.00000000000E+00 -0.56444284535E+01  0.56444284535E+01  0.00000000000E+00 0.  1.
          1    1    1    2  502    0  0.19288871115E+02  0.10626035932E+02  0.22574596000E+02  0.31537050798E+02  0.00000000000E+00 0. -1.
         -1    1    1    2    0  501 -0.19288871115E+02 -0.10626035932E+02  0.10306925015E+03  0.10539565226E+03  0.00000000000E+00 0.  1.
</event>
<event>
 4    1  0.6934088E+001  0.2118034E+02  0.7546771E-02  0.1516706E+00
          2   -1    0    0  502    0  0.00000000000E+00  0.00000000000E+00  0.13744445740E+03  0.13744445740E+03  0.00000000000E+00 0. -1.
         -2   -1    0    0    0  501 -0.00000000000E+00 -0.00000000000E+00 -0.38242507016E+01  0.38242507016E+01  0.00000000000E+00 0.  1.
          1    1    1    2  502    0 -0.18275900367E+02  0.10705051232E+02  0.39772512544E+02  0.45060619283E+02  0.00000000000E+00 0.  1.
         -1    1    1    2    0  501  0.18275900367E+02 -0.10705051232E+02  0.93847694157E+02  0.96208088822E+02  0.00000000000E+00 0. -1.
</event>
<event>
 4    1  0.6934088E+001  0.3574067E+02  0.7546771E-02  0.1375430E+00
          2   -1    0    0  502    0  0.00000000000E+00  0.00000000000E+00  0.62528055384E+03  0.62528055384E+03  0.00000000000E+00 0. -1.
         -2   -1    0    0    0  501 -0.00000000000E+00 -0.00000000000E+00 -0.28018344949E+01  0.28018344949E+01  0.00000000000E+00 0.  1.
          1    1    1    2  502    0 -0.29343856072E+02  0.20404249906E+02  0.14779757071E+03  0.15205761149E+03  0.00000000000E+00 0.  1.
         -1    1    1    2    0  501  0.29343856072E+02 -0.20404249906E+02  0.47468114863E+03  0.47602477684E+03  0.00000000000E+00 0. -1.
</event>
<event>
 4    1  0.6934088E+001  0.2871155E+02  0.7546771E-02  0.1431134E+00
          2   -1    0    0  502    0  0.00000000000E+00  0.00000000000E+00  0.43838720508E+01  0.43838720508E+01  0.00000000000E+00 0.  1.
         -2   -1    0    0    0  501 -0.00000000000E+00 -0.00000000000E+00 -0.20315084890E+03  0.20315084890E+03  0.00000000000E+00 0. -1.
          1    1    1    2  502    0  0.14646218817E+02  0.24694963475E+02 -0.12768204330E+03  0.13087038293E+03  0.00000000000E+00 0. -1.
         -1    1    1    2    0  501 -0.14646218817E+02 -0.24694963475E+02 -0.71084933551E+02  0.76664338024E+02  0.00000000000E+00 0.  1.
</event>
<event>
 4    1  0.6934088E+001  0.2590892E+02  0.7546771E-02  0.1458887E+00
          2   -1    0    0  502    0  0.00000000000E+00  0.00000000000E+00  0.99289518051E+03  0.99289518051E+03  0.00000000000E+00 0. -1.
         -2   -1    0    0    0  501 -0.00000000000E+00 -0.00000000000E+00 -0.68000453878E+00  0.68000453878E+00  0.00000000000E+00 0.  1.
          1    1    1    2  502    0 -0.97297668395E+01  0.24012574149E+02  0.53386997305E+03  0.53449828831E+03  0.00000000000E+00 0. -1.
         -1    1    1    2    0  501  0.97297668395E+01 -0.24012574149E+02  0.45834520292E+03  0.45907689673E+03  0.00000000000E+00 0.  1.
</event>
<event>
 4    1  0.6934088E+001  0.2001306E+02  0.7546771E-02  0.1533836E+00
          2   -1    0    0  502    0  0.00000000000E+00  0.00000000000E+00  0.12661724095E+01  0.12661724095E+01  0.00000000000E+00 0. -1.
         -2   -1    0    0    0  501 -0.00000000000E+00 -0.00000000000E+00 -0.33420889569E+03  0.33420889569E+03  0.00000000000E+00 0.  1.
          1    1    1    2  502    0  0.21931709708E+01 -0.19892524855E+02 -0.12766999897E+03  0.12922906476E+03  0.00000000000E+00 0. -1.
         -1    1    1    2    0  501 -0.21931709708E+01  0.19892524855E+02 -0.20527272431E+03  0.20624600333E+03  0.00000000000E+00 0.  1.
</event>
<event>
 4    1  0.6934088E+001  0.2179567E+02  0.7546771E-02  0.1508201E+00
          2   -1    0    0  502    0  0.00000000000E+00  0.00000000000E+00  0.26084231052E+04  0.26084231052E+04  0.00000000000E+00 0.  1.
         -2   -1    0    0    0  501 -0.00000000000E+00 -0.00000000000E+00 -0.18225466400E+00  0.18225466400E+00  0.00000000000E+00 0. -1.
          1    1    1    2  502    0 -0.83582189747E+01 -0.20129366508E+02  0.12689300967E+04  0.12691172686E+04  0.00000000000E+00 0.  1.
         -1    1    1    2    0  501  0.83582189747E+01  0.20129366508E+02  0.13393107538E+04  0.13394880912E+04  0.00000000000E+00 0. -1.
</event>
<event>
 4    1  0.6934088E+001  0.2250133E+02  0.7546771E-02  0.1498857E+00
          2   -1    0    0  502    0  0.00000000000E+00  0.00000000000E+00  0.28616657806E+03  0.28616657806E+03  0.00000000000E+00 0. -1.
         -2   -1    0    0    0  501 -0.00000000000E+00 -0.00000000000E+00 -0.19214049245E+01  0.19214049245E+01  0.00000000000E+00 0.  1.
          1    1    1    2  502    0 -0.19922104724E+02 -0.10460372535E+02  0.18265305848E+03  0.18403382684E+03  0.00000000000E+00 0. -1.
         -1    1    1    2    0  501  0.19922104724E+02  0.10460372535E+02  0.10159211465E+03  0.10405415614E+03  0.00000000000E+00 0.  1.
</event>
<event>
 4    1  0.6934088E+001  0.2461413E+02  0.7546771E-02  0.1473167E+00
          2   -1    0    0  502    0  0.00000000000E+00  0.00000000000E+00  0.89443762230E+02  0.89443762230E+02  0.00000000000E+00 0. -1.
         -2   -1    0    0    0  501 -0.00000000000E+00 -0.00000000000E+00 -0.13638934090E+02  0.13638934090E+02  0.00000000000E+00 0.  1.
          1    1    1    2  502    0 -0.23642251903E+02 -0.68483103871E+01  0.74470033896E+02  0.78432400057E+02  0.00000000000E+00 0. -1.
         -1    1    1    2    0  501  0.23642251903E+02  0.68483103871E+01  0.13347942444E+01  0.24650296263E+02  0.00000000000E+00 0.  1.
</event>
<event>
 4    1  0.6934088E+001  0.2474665E+02  0.7546771E-02  0.1471658E+00
          2   -1    0    0  502    0  0.00000000000E+00  0.00000000000E+00  0.11837166779E+04  0.11837166779E+04  0.00000000000E+00 0.  1.
         -2   -1    0    0    0  501 -0.00000000000E+00 -0.00000000000E+00 -0.52994056806E+00  0.52994056806E+00  0.00000000000E+00 0. -1.
          1    1    1    2  502    0  0.21495826886E+02  0.12260748229E+02  0.68285980160E+03  0.68330806022E+03  0.00000000000E+00 0.  1.
         -1    1    1    2    0  501 -0.21495826886E+02 -0.12260748229E+02  0.50032693576E+03  0.50093855827E+03  0.00000000000E+00 0. -1.
</event>
<event>
 4    1  0.6934088E+001  0.2216548E+02  0.7546771E-02  0.1503252E+00
          2   -1    0    0  502    0  0.00000000000E+00  0.00000000000E+00  0.95768111940E+02  0.95768111940E+02  0.00000000000E+00 0.  1.
         -2   -1    0    0    0  501 -0.00000000000E+00 -0.00000000000E+00 -0.52660190215E+01  0.52660190215E+01  0.00000000000E+00 0. -1.
          1    1    1    2  502    0 -0.21600695997E+02  0.49717581128E+01  0.53364316384E+02  0.57784588857E+02  0.00000000000E+00 0. -1.
         -1    1    1    2    0  501  0.21600695997E+02 -0.49717581128E+01  0.37137776535E+02  0.43249542104E+02  0.00000000000E+00 0.  1.
</event>
<event>
 4    1  0.6934088E+001  0.2826265E+02  0.7546771E-02  0.1435321E+00
          2   -1    0    0  502    0  0.00000000000E+00  0.00000000000E+00  0.19236906447E+02  0.19236906447E+02  0.00000000000E+00 0.  1.
         -2   -1    0    0    0  501 -0.00000000000E+00 -0.00000000000E+00 -0.44116811184E+02  0.44116811184E+02  0.00000000000E+00 0. -1.
          1    1    1    2  502    0  0.17602414776E+02 -0.22111820348E+02 -0.47593756603E+01  0.28660587254E+02  0.00000000000E+00 0.  1.
         -1    1    1    2    0  501 -0.17602414776E+02  0.22111820348E+02 -0.20120529076E+02  0.34693130377E+02  0.00000000000E+00 0. -1.
</event>
<event>
 4    1  0.6934088E+001  0.2265847E+02  0.7546771E-02  0.1496832E+00
          2   -1    0    0  502    0  0.00000000000E+00  0.00000000000E+00  0.11221857668E+02  0.11221857668E+02  0.00000000000E+00 0.  1.
         -2   -1    0    0    0  501 -0.00000000000E+00 -0.00000000000E+00 -0.17978477520E+03  0.17978477520E+03  0.00000000000E+00 0. -1.
          1    1    1    2  502    0  0.36857016266E+01  0.22356696035E+02 -0.18202231691E+01  0.22731464239E+02  0.00000000000E+00 0.  1.
         -1    1    1    2    0  501 -0.36857016266E+01 -0.22356696035E+02 -0.16674269436E+03  0.16827516863E+03  0.00000000000E+00 0. -1.
</event>
<event>
 4    1  0.6934088E+001  0.2289923E+02  0.7546771E-02  0.1493767E+00
          2   -1    0    0  502    0  0.00000000000E+00  0.00000000000E+00  0.44160783234E+03  0.44160783234E+03  0.00000000000E+00 0.  1.
         -2   -1    0    0    0  501 -0.00000000000E+00 -0.00000000000E+00 -0.12036311027E+01  0.12036311027E+01  0.00000000000E+00 0. -1.
          1    1    1    2  502    0  0.54016831479E+01 -0.22253009496E+02  0.24589594075E+03  0.24695989207E+03  0.00000000000E+00 0.  1.
         -1    1    1    2    0  501 -0.54016831479E+01  0.22253009496E+02  0.19450826048E+03  0.19585157137E+03  0.00000000000E+00 0. -1.
</event>
<event>
 4    1  0.6934088E+001  0.3469992E+02  0.7546771E-02  0.1382685E+00
          2   -1    0    0  502    0  0.00000000000E+00  0.00000000000E+00  0.12078774305E+03  0.12078774305E+03  0.00000000000E+00 0.  1.
         -2   -1    0    0    0  501 -0.00000000000E+00 -0.00000000000E+00 -0.12312128728E+02  0.12312128728E+02  0.00000000000E+00 0. -1.
          1    1    1    2  502    0  0.12268839399E+01  0.34678226951E+02  0.83272432675E+02  0.90212985275E+02  0.00000000000E+00 0.  1.
         -1    1    1    2    0  501 -0.12268839399E+01 -0.34678226951E+02  0.25203181644E+02  0.42886886500E+02  0.00000000000E+00 0. -1.
</event>
<event>
 4    1  0.6934088E+001  0.2424525E+02  0.7546771E-02  0.1477427E+00
          2   -1    0    0  502    0  0.00000000000E+00  0.00000000000E+00  0.99934348423E+01  0.99934348423E+01  0.00000000000E+00 0.  1.
         -2   -1    0    0    0  501 -0.00000000000E+00 -0.00000000000E+00 -0.59353943075E+02  0.59353943075E+02  0.00000000000E+00 0. -1.
          1    1    1    2  502    0 -0.82962784940E+01  0.22781658495E+02 -0.27963278848E+02  0.37010500734E+02  0.00000000000E+00 0. -1.
         -1    1    1    2    0  501  0.82962784940E+01 -0.22781658495E+02 -0.21397229384E+02  0.32336877183E+02  0.00000000000E+00 0.  1.
</event>
<event>
 4    1  0.6934088E+001  0.2093862E+02  0.7546771E-02  0.1520143E+00
          2   -1    0    0  502    0  0.00000000000E+00  0.00000000000E+00  0.80413429200E+01  0.80413429200E+01  0.00000000000E+00 0.  1.
         -2   -1    0    0    0  501 -0.00000000000E+00 -0.00000000000E+00 -0.13567788048E+03  0.13567788048E+03  0.00000000000E+00 0. -1.
          1    1    1    2  502    0  0.20826618265E+02  0.21628168543E+01 -0.11939484216E+03  0.12121697133E+03  0.00000000000E+00 0. -1.
         -1    1    1    2    0  501 -0.20826618265E+02 -0.21628168543E+01 -0.82416954049E+01  0.22502252070E+02  0.00000000000E+00 0.  1.
</event>
<event>
 4    1  0.6934088E+001  0.2215274E+02  0.7546771E-02  0.1503420E+00
          2   -1    0    0  502    0  0.00000000000E+00  0.00000000000E+00  0.89362830490E+02  0.89362830490E+02  0.00000000000E+00 0. -1.
         -2   -1    0    0    0  501 -0.00000000000E+00 -0.00000000000E+00 -0.25898950519E+02  0.25898950519E+02  0.00000000000E+00 0.  1.
          1    1    1    2  502    0 -0.14068481667E+02 -0.17112033757E+02 -0.19425368102E+02  0.29463346748E+02  0.00000000000E+00 0.  1.
         -1    1    1    2    0  501  0.14068481667E+02  0.17112033757E+02  0.82889248072E+02  0.85798434261E+02  0.00000000000E+00 0. -1.
</event>
<event>
 4    1  0.6934088E+001  0.2448894E+02  0.7546771E-02  0.1474603E+00
          2   -1    0    0  502    0  0.00000000000E+00  0.00000000000E+00  0.50639653986E+03  0.50639653986E+03  0.00000000000E+00 0.  1.
         -2   -1    0    0    0  501 -0.00000000000E+00 -0.00000000000E+00 -0.11843301480E+01  0.11843301480E+01  0.00000000000E+00 0. -1.
          1    1    1    2  502    0 -0.18314226937E+02 -0.16257215545E+02  0.25448076486E+03  0.25565634678E+03  0.00000000000E+00 0.  1.
         -1    1    1    2    0  501  0.18314226937E+02  0.16257215545E+02  0.25073144485E+03  0.25192452323E+03  0.00000000000E+00 0. -1.
</event>
<event>
 4    1  0.6934088E+001  0.2673997E+02  0.7546771E-02  0.1450238E+00
          2   -1    0    0  502    0  0.00000000000E+00  0.00000000000E+00  0.62234403997E+02  0.62234403997E+02  0.00000000000E+00 0.  1.
         -2   -1    0    0    0  501 -0.00000000000E+00 -0.00000000000E+00 -0.70444757959E+02  0.70444757959E+02  0.00000000000E+00 0. -1.
          1    1    1    2  502    0 -0.25269881008E+02  0.87441002524E+01  0.56583909854E+02  0.62584063704E+02  0.00000000000E+00 0.  1.
         -1    1    1    2    0  501  0.25269881008E+02 -0.87441002524E+01 -0.64794263816E+02  0.70095098251E+02  0.00000000000E+00 0. -1.
</event>
<event>
 4    1  0.6934088E+001  0.2111646E+02  0.7546771E-02  0.1517608E+00
          2   -1    0    0  502    0  0.00000000000E+00  0.00000000000E+00  0.47814883606E+03  0.47814883606E+03  0.00000000000E+00 0. -1.
         -2   -1    0    0    0  501 -0.00000000000E+00 -0.00000000000E+00 -0.11372840229E+01  0.11372840229E+01  0.00000000000E+00 0.  1.
          1    1    1    2  502    0 -0.19880680756E+02 -0.71178264240E+01  0.13683190135E+03  0.13845170330E+03  0.00000000000E+00 0.  1.
         -1    1    1    2    0  501  0.19880680756E+02  0.71178264240E+01  0.34017965068E+03  0.34083441678E+03  0.00000000000E+00 0. -1.
</event>
<event>
 4    1  0.6934088E+001  0.2280481E+02  0.7546771E-02  0.1494964E+00
          2   -1    0    0  502    0  0.00000000000E+00  0.00000000000E+00  0.90308369994E+03  0.90308369994E+03  0.00000000000E+00 0.  1.
         -2   -1    0    0    0  501 -0.00000000000E+00 -0.00000000000E+00 -0.57890542309E+00  0.57890542309E+00  0.00000000000E+00 0. -1.
          1    1    1    2  502    0 -0.77599890157E+01 -0.21443925989E+02  0.41853821337E+03  0.41915903359E+03  0.00000000000E+00 0. -1.
         -1    1    1    2    0  501  0.77599890157E+01  0.21443925989E+02  0.48396658115E+03  0.48450357177E+03  0.00000000000E+00 0.  1.
</event>
<event>
 4    1  0.6934088E+001  0.2773755E+02  0.7546771E-02  0.1440337E+00
          2   -1    0    0  502    0  0.00000000000E+00  0.00000000000E+00  0.23267257026E+02  0.23267257026E+02  0.00000000000E+00 0.  1.
         -2   -1    0    0    0  501 -0.00000000000E+00 -0.00000000000E+00 -0.37377196057E+02  0.37377196057E+02  0.00000000000E+00 0. -1.
          1    1    1    2  502    0 -0.27042212314E+02  0.61717395959E+01 -0.17352211133E+02  0.32718050793E+02  0.00000000000E+00 0. -1.
         -1    1    1    2    0  501  0.27042212314E+02 -0.61717395959E+01  0.32422721030E+01  0.27926402290E+02  0.00000000000E+00 0.  1.
</event>
<event>
 4    1  0.6934088E+001  0.2581727E+02  0.7546771E-02  0.1459865E+00
          2   -1    0    0  502    0  0.00000000000E+00  0.00000000000E+00  0.47197186225E+03  0.47197186225E+03  0.00000000000E+00 0. -1.
         -2   -1    0    0    0  501 -0.00000000000E+00 -0.00000000000E+00 -0.14439606330E+01  0.14439606330E+01  0.00000000000E+00 0.  1.
          1    1    1    2  502    0 -0.15208282178E+01  0.25772436091E+02  0.27035492132E+03  0.27158482075E+03  0.00000000000E+00 0.  1.
         -1    1    1    2    0  501  0.15208282178E+01 -0.25772436091E+02  0.20017298030E+03  0.20183100213E+03  0.00000000000E+00 0. -1.
</event>
<event>
 4    1  0.6934088E+001  0.2657787E+02  0.7546771E-02  0.1451895E+00
          2   -1    0    0  502    0  0.00000000000E+00  0.00000000000E+00  0.49711570331E+01  0.49711570331E+01  0.00000000000E+00 0. -1.
         -2   -1    0    0    0  501 -0.00000000000E+00 -0.00000000000E+00 -0.19831632106E+03  0.19831632106E+03  0.00000000000E+00 0.  1.
          1    1    1    2  502    0 -0.22521277294E+02 -0.14112950510E+02 -0.42553965372E+02  0.50171937096E+02  0.00000000000E+00 0. -1.
         -1    1    1    2    0  501  0.22521277294E+02  0.14112950510E+02 -0.15079119865E+03  0.15311554100E+03  0.00000000000E+00 0.  1.
</event>
<event>
 4    1  0.6934088E+001  0.4066547E+02  0.7546771E-02  0.1344630E+00
          2   -1    0    0  502    0  0.00000000000E+00  0.00000000000E+00  0.74309493501E+02  0.74309493501E+02  0.00000000000E+00 0. -1.
         -2   -1    0    0    0  501 -0.00000000000E+00 -0.00000000000E+00 -0.22680008721E+02  0.22680008721E+02  0.00000000000E+00 0.  1.
          1    1    1    2  502    0  0.39597935057E+02 -0.92565467149E+01  0.19168053486E+02  0.44956583415E+02  0.00000000000E+00 0.  1.
         -1    1    1    2    0  501 -0.39597935057E+02  0.92565467149E+01  0.32461431294E+02  0.52032918807E+02  0.00000000000E+00 0. -1.
</event>
<event>
 4    1  0.6934088E+001  0.4052935E+02  0.7546771E-02  0.1345411E+00
          2   -1    0    0  502    0  0.00000000000E+00  0.00000000000E+00  0.10485122387E+02  0.10485122387E+02  0.00000000000E+00 0.  1.
         -2   -1    0    0    0  501 -0.00000000000E+00 -0.00000000000E+00 -0.15724999640E+03  0.15724999640E+03  0.00000000000E+00 0. -1.
          1    1    1    2  502    0 -0.34164991928E+02  0.21803245129E+02 -0.78507587137E+02  0.88351963247E+02  0.00000000000E+00 0. -1.
         -1    1    1    2    0  501  0.34164991928E+02 -0.21803245129E+02 -0.68257286876E+02  0.79383155539E+02  0.00000000000E+00 0.  1.
</event>
<event>
 4    1  0.6934088E+001  0.2015464E+02  0.7546771E-02  0.1531685E+00
          2   -1    0    0  502    0  0.00000000000E+00  0.00000000000E+00  0.13312562424E+04  0.13312562424E+04  0.00000000000E+00 0. -1.
         -2   -1    0    0    0  501 -0.00000000000E+00 -0.00000000000E+00 -0.32021160608E+00  0.32021160608E+00  0.00000000000E+00 0.  1.
          1    1    1    2  502    0 -0.17140217253E+02  0.10602937792E+02  0.52098805090E+03  0.52137775031E+03  0.00000000000E+00 0. -1.
         -1    1    1    2    0  501  0.17140217253E+02 -0.10602937792E+02  0.80994797991E+03  0.81019870371E+03  0.00000000000E+00 0.  1.
</event>
<event>
 4    1  0.6934088E+001  0.3519877E+02  0.7546771E-02  0.1379171E+00
          2   -1    0    0  502    0  0.00000000000E+00  0.00000000000E+00  0.38632987869E+03  0.38632987869E+03  0.00000000000E+00 0.  1.
         -2   -1    0    0    0  501 -0.00000000000E+00 -0.00000000000E+00 -0.85787615260E+01  0.85787615260E+01  0.00000000000E+00 0. -1.
          1    1    1    2  502    0  0.85299966883E+01  0.34149559403E+02  0.34512317560E+03  0.34691347565E+03  0.00000000000E+00 0.  1.
         -1    1    1    2    0  501 -0.85299966883E+01 -0.34149559403E+02  0.32627941560E+02  0.47995164563E+02  0.00000000000E+00 0. -1.
</event>
<event>
 4    1  0.6934088E+001  0.8132857E+02  0.7546771E-02  0.1200796E+00
          2   -1    0    0  502    0  0.00000000000E+00  0.00000000000E+00  0.26226266225E+04  0.26226266225E+04  0.00000000000E+00 0.  1.
         -2   -1    0    0    0  501 -0.00000000000E+00 -0.00000000000E+00 -0.27220189306E+01  0.27220189306E+01  0.00000000000E+00 0. -1.
          1    1    1    2  502    0 -0.64081588733E+02  0.50078807337E+02  0.95414331944E+03  0.95760315945E+03  0.00000000000E+00 0. -1.
         -1    1    1    2    0  501  0.64081588733E+02 -0.50078807337E+02  0.16657612842E+04  0.16677454820E+04  0.00000000000E+00 0.  1.
</event>
<event>
 4    1  0.6934088E+001  0.2005345E+02  0.7546771E-02  0.1533220E+00
          2   -1    0    0  502    0  0.00000000000E+00  0.00000000000E+00  0.46736546473E+02  0.46736546473E+02  0.00000000000E+00 0.  1.
         -2   -1    0    0    0  501 -0.00000000000E+00 -0.00000000000E+00 -0.93040452118E+01  0.93040452118E+01  0.00000000000E+00 0. -1.
          1    1    1    2  502    0  0.70365237466E+01 -0.18778399591E+02  0.26399925658E+02  0.33152632360E+02  0.00000000000E+00 0.  1.
         -1    1    1    2    0  501 -0.70365237466E+01  0.18778399591E+02  0.11032575603E+02  0.22887959325E+02  0.00000000000E+00 0. -1.
</event>
<event>
 4    1  0.6934088E+001  0.2987866E+02  0.7546771E-02  0.1420654E+00
          2   -1    0    0  502    0  0.00000000000E+00  0.00000000000E+00  0.49450719156E+01  0.49450719156E+01  0.00000000000E+00 0. -1.
         -2   -1    0    0    0  501 -0.00000000000E+00 -0.00000000000E+00 -0.18301974264E+03  0.18301974264E+03  0.00000000000E+00 0.  1.
          1    1    1    2  502    0  0.19002208868E+02 -0.23057549185E+02 -0.99998653186E+02  0.10436697349E+03  0.00000000000E+00 0.  1.
         -1    1    1    2    0  501 -0.19002208868E+02  0.23057549185E+02 -0.78076017536E+02  0.83597841064E+02  0.00000000000E+00 0. -1.
</event>
<event>
 4    1  0.6934088E+001  0.2877832E+02  0.7546771E-02  0.1430518E+00
          2   -1    0    0  502    0  0.00000000000E+00  0.00000000000E+00  0.49343116669E+03  0.49343116669E+03  0.00000000000E+00 0.  1.
         -2   -1    0    0    0  501 -0.00000000000E+00 -0.00000000000E+00 -0.20606919862E+01  0.20606919862E+01  0.00000000000E+00 0. -1.
          1    1    1    2  502    0 -0.22174175539E+02 -0.18343867684E+02  0.35238866984E+03  0.35356182794E+03  0.00000000000E+00 0.  1.
         -1    1    1    2    0  501  0.22174175539E+02  0.18343867684E+02  0.13898180486E+03  0.14193003074E+03  0.00000000000E+00 0. -1.
</event>
<event>
 4    1  0.6934088E+001  0.2894138E+02  0.7546771E-02  0.1429024E+00
          2   -1    0    0  502    0  0.00000000000E+00  0.00000000000E+00  0.27080380588E+01  0.27080380588E+01  0.00000000000E+00 0. -1.
         -2   -1    0    0    0  501 -0.00000000000E+00 -0.00000000000E+00 -0.34356028492E+03  0.34356028492E+03  0.00000000000E+00 0.  1.
          1    1    1    2  502    0 -0.24850930653E+02  0.14833560444E+02 -0.22509751926E+03  0.22695042729E+03  0.00000000000E+00 0.  1.
         -1    1    1    2    0  501  0.24850930653E+02 -0.14833560444E+02 -0.11575472760E+03  0.11931789569E+03  0.00000000000E+00 0. -1.
</event>
<event>
 4    1  0.6934088E+001  0.2259306E+02  0.7546771E-02  0.1497672E+00
          2   -1    0    0  502    0  0.00000000000E+00  0.00000000000E+00  0.17094662217E+03  0.17094662217E+03  0.00000000000E+00 0. -1.
         -2   -1    0    0    0  501 -0.00000000000E+00 -0.00000000000E+00 -0.30857545401E+01  0.30857545401E+01  0.00000000000E+00 0.  1.
          1    1    1    2  502    0 -0.21884468943E+02  0.56139636348E+01  0.99575819647E+02  0.10210675995E+03  0.00000000000E+00 0. -1.
         -1    1    1    2    0  501  0.21884468943E+02 -0.56139636348E+01  0.68285047984E+02  0.71925616763E+02  0.00000000000E+00 0.  1.
</event>
<event>
 4    1  0.6934088E+001  0.3323719E+02  0.7546771E-02  0.1393399E+00
          2   -1    0    0  502    0  0.00000000000E+00  0.00000000000E+00  0.62647625356E+02  0.62647625356E+02  0.00000000000E+00 0. -1.
         -2   -1    0    0    0  501 -0.00000000000E+00 -0.00000000000E+00 -0.17959957356E+02  0.17959957356E+02  0.00000000000E+00 0.  1.
          1    1    1    2  502    0  0.83012466769E+01 -0.32183845227E+02  0.16911817293E+02  0.37292360533E+02  0.00000000000E+00 0. -1.
         -1    1    1    2    0  501 -0.83012466769E+01  0.32183845227E+02  0.27775850707E+02  0.43315222180E+02  0.00000000000E+00 0.  1.
</event>
<event>
 4    1  0.6934088E+001  0.4589623E+02  0.7546771E-02  0.1317018E+00
          2   -1    0    0  502    0  0.00000000000E+00  0.00000000000E+00  0.44094076267E+03  0.44094076267E+03  0.00000000000E+00 0. -1.
         -2   -1    0    0    0  501 -0.00000000000E+00 -0.00000000000E+00 -0.89561025559E+01  0.89561025559E+01  0.00000000000E+00 0.  1.
          1    1    1    2  502    0  0.39215458740E+02 -0.23845574808E+02  0.36965005404E+03  0.37248842411E+03  0.00000000000E+00 0. -1.
         -1    1    1    2    0  501 -0.39215458740E+02  0.23845574808E+02  0.62334606079E+02  0.77408441123E+02  0.00000000000E+00 0.  1.
</event>
<event>
 4    1  0.6934088E+001  0.3683767E+02  0.7546771E-02  0.1368085E+00
          2   -1    0    0  502    0  0.00000000000E+00  0.00000000000E+00  0.13105619908E+02  0.13105619908E+02  0.00000000000E+00 0.  1.
         -2   -1    0    0    0  501 -0.00000000000E+00 -0.00000000000E+00 -0.11388983293E+03  0.11388983293E+03  0.00000000000E+00 0. -1.
          1    1    1    2  502    0 -0.45244429963E+01  0.36558770680E+02 -0.31254446535E+02  0.48309985782E+02  0.00000000000E+00 0.  1.
         -1    1    1    2    0  501  0.45244429963E+01 -0.36558770680E+02 -0.69529766487E+02  0.78685467056E+02  0.00000000000E+00 0. -1.
</event>
<event>
 4    1  0.6934088E+001  0.2120287E+02  0.7546771E-02  0.1516388E+00
          2   -1    0    0  502    0  0.00000000000E+00  0.00000000000E+00  0.33326122545E+03  0.33326122545E+03  0.00000000000E+00 0.  1.
         -2   -1    0    0    0  501 -0.00000000000E+00 -0.00000000000E+00 -0.19142906934E+01  0.19142906934E+01  0.00000000000E+00 0. -1.
          1    1    1    2  502    0  0.19559588876E+02  0.81843824982E+01  0.25674511811E+03  0.25761913226E+03  0.00000000000E+00 0.  1.
         -1    1    1    2    0  501 -0.19559588876E+02 -0.81843824982E+01  0.74601816650E+02  0.77556383886E+02  0.00000000000E+00 0. -1.
</event>
<event>
 4    1  0.6934088E+001  0.2303463E+02  0.7546771E-02  0.1492064E+00
          2   -1    0    0  502    0  0.00000000000E+00  0.00000000000E+00  0.19797639833E+03  0.19797639833E+03  0.00000000000E+00 0. -1.
         -2   -1    0    0    0  501 -0.00000000000E+00 -0.00000000000E+00 -0.27427529921E+01  0.27427529921E+01  0.00000000000E+00 0.  1.
          1    1    1    2  502    0  0.21654157814E+02  0.78543907618E+01  0.82446988160E+02  0.85604321512E+02  0.00000000000E+00 0.  1.
         -1    1    1    2    0  501 -0.21654157814E+02 -0.78543907618E+01  0.11278665718E+03  0.11511482981E+03  0.00000000000E+00 0. -1.
</event>
<event>
 4    1  0.6934088E+001  0.2034947E+02  0.7546771E-02  0.1528759E+00
          2   -1    0    0  502    0  0.00000000000E+00  0.00000000000E+00  0.47985803619E+03  0.47985803619E+03  0.00000000000E+00 0. -1.
         -2   -1    0    0    0  501 -0.00000000000E+00 -0.00000000000E+00 -0.30022125653E+01  0.30022125653E+01  0.00000000000E+00 0.  1.
          1    1    1    2  502    0 -0.19002653913E+02  0.72801193630E+01  0.34629311023E+02  0.40165783643E+02  0.00000000000E+00 0.  1.
         -1    1    1    2    0  501  0.19002653913E+02 -0.72801193630E+01  0.44222651260E+03  0.44269446511E+03  0.00000000000E+00 0. -1.
</event>
<event>
 4    1  0.6934088E+001  0.2379616E+02  0.7546771E-02  0.1482736E+00
          2   -1    0    0  502    0  0.00000000000E+00  0.00000000000E+00  0.50563354868E+02  0.50563354868E+02  0.00000000000E+00 0. -1.
         -2   -1    0    0    0  501 -0.00000000000E+00 -0.00000000000E+00 -0.16012896179E+02  0.16012896179E+02  0.00000000000E+00 0.  1.
          1    1    1    2  502    0  0.14360601893E+02 -0.18974461497E+02  0.35526978142E+02  0.42760066087E+02  0.00000000000E+00 0. -1.
         -1    1    1    2    0  501 -0.14360601893E+02  0.18974461497E+02 -0.97651945353E+00  0.23816184960E+02  0.00000000000E+00 0.  1.
</event>
<event>
 4    1  0.6934088E+001  0.2004173E+02  0.7546771E-02  0.1533399E+00
          2   -1    0    0  502    0  0.00000000000E+00  0.00000000000E+00  0.11378623686E+02  0.11378623686E+02  0.00000000000E+00 0. -1.
         -2   -1    0    0    0  501 -0.00000000000E+00 -0.00000000000E+00 -0.35870664455E+02  0.35870664455E+02  0.00000000000E+00 0.  1.
          1    1    1    2  502    0  0.20034380201E+02  0.54257344110E+00 -0.92674582815E+01  0.22080682937E+02  0.00000000000E+00 0.  1.
         -1    1    1    2    0  501 -0.20034380201E+02 -0.54257344110E+00 -0.15224582488E+02  0.25168605203E+02  0.00000000000E+00 0. -1.
</event>
<event>
 4    1  0.6934088E+001  0.3484549E+02  0.7546771E-02  0.1381653E+00
          2   -1    0    0  502    0  0.00000000000E+00  0.00000000000E+00  0.26951004789E+02  0.26951004789E+02  0.00000000000E+00 0.  1.
         -2   -1    0    0    0  501 -0.00000000000E+00 -0.00000000000E+00 -0.50834102396E+02  0.50834102396E+02  0.00000000000E+00 0. -1.
          1    1    1    2  502    0 -0.10267260671E+02  0.33298521507E+02 -0.25057981380E+02  0.42919816019E+02  0.00000000000E+00 0. -1.
         -1    1    1    2    0  501  0.10267260671E+02 -0.33298521507E+02  0.11748837730E+01  0.34865291166E+02  0.00000000000E+00 0.  1.
</event>
<event>
 4    1  0.6934088E+001  0.6163866E+02  0.7546771E-02  0.1254364E+00
          2   -1    0    0  502    0  0.00000000000E+00  0.00000000000E+00  0.22366688916E+04  0.22366688916E+04  0.00000000000E+00 0. -1.
         -2   -1    0    0    0  501 -0.00000000000E+00 -0.00000000000E+00 -0.33314159002E+01  0.33314159002E+01  0.00000000000E+00 0.  1.
          1    1    1    2  502    0 -0.25655541417E+02 -0.56045670259E+02  0.19007575165E+04  0.19017566776E+04  0.00000000000E+00 0.  1.
         -1    1    1    2    0  501  0.25655541417E+02  0.56045670259E+02  0.33257995913E+03  0.33824362991E+03  0.00000000000E+00 0. -1.
</event>
<event>
 4    1  0.6934088E+001  0.2024879E+02  0.7546771E-02  0.1530266E+00
          2   -1    0    0  502    0  0.00000000000E+00  0.00000000000E+00  0.24923215573E+01  0.24923215573E+01  0.00000000000E+00 0.  1.
         -2   -1    0    0    0  501 -0.00000000000E+00 -0.00000000000E+00 -0.16926398629E+03  0.16926398629E+03  0.00000000000E+00 0. -1.
          1    1    1    2  502    0  0.41337644559E+01  0.19822350553E+02 -0.68994635057E+02  0.71904612207E+02  0.00000000000E+00 0. -1.
         -1    1    1    2    0  501 -0.41337644559E+01 -0.19822350553E+02 -0.97777029677E+02  0.99851695642E+02  0.00000000000E+00 0.  1.
</event>
<event>
 4    1  0.6934088E+001  0.2534037E+02  0.7546771E-02  0.1465032E+00
          2   -1    0    0  502    0  0.00000000000E+00  0.00000000000E+00  0.43059791355E+03  0.43059791355E+03  0.00000000000E+00 0.  1.
         -2   -1    0    0    0  501 -0.00000000000E+00 -0.00000000000E+00 -0.15079772372E+01  0.15079772372E+01  0.00000000000E+00 0. -1.
          1    1    1    2  502    0 -0.14652549354E+01 -0.25297967413E+02  0.19179795093E+03  0.19346469473E+03  0.00000000000E+00 0.  1.
         -1    1    1    2    0  501  0.14652549354E+01  0.25297967413E+02  0.23729198539E+03  0.23864119606E+03  0.00000000000E+00 0. -1.
</event>
<event>
 4    1  0.6934088E+001  0.2187339E+02  0.7546771E-02  0.1507151E+00
          2   -1    0    0  502    0  0.00000000000E+00  0.00000000000E+00  0.18512502763E+01  0.18512502763E+01  0.00000000000E+00 0.  1.
         -2   -1    0    0    0  501 -0.00000000000E+00 -0.00000000000E+00 -0.27792477925E+03  0.27792477925E+03  0.00000000000E+00 0. -1.
          1    1    1    2  502    0 -0.82661049561E+01  0.20251341806E+02 -0.10100152483E+03  0.10334289213E+03  0.00000000000E+00 0.  1.
         -1    1    1    2    0  501  0.82661049561E+01 -0.20251341806E+02 -0.17507200415E+03  0.17643313740E+03  0.00000000000E+00 0. -1.
</event>
<event>
 4    1  0.6934088E+001  0.4168476E+02  0.7546771E-02  0.1338886E+00
          2   -1    0    0  502    0  0.00000000000E+00  0.00000000000E+00  0.25810480684E+04  0.25810480684E+04  0.00000000000E+00 0. -1.
         -2   -1    0    0    0  501 -0.00000000000E+00 -0.00000000000E+00 -0.67519569651E+00  0.67519569651E+00  0.00000000000E+00 0.  1.
          1    1    1    2  502    0  0.16898923165E+02  0.38105713048E+02  0.12203988370E+04  0.12211105356E+04  0.00000000000E+00 0.  1.
         -1    1    1    2    0  501 -0.16898923165E+02 -0.38105713048E+02  0.13599740357E+04  0.13606127284E+04  0.00000000000E+00 0. -1.
</event>
<event>
 4    1  0.6934088E+001  0.2782741E+02  0.7546771E-02  0.1439469E+00
          2   -1    0    0  502    0  0.00000000000E+00  0.00000000000E+00  0.42751892422E+02  0.42751892422E+02  0.00000000000E+00 0. -1.
         -2   -1    0    0    0  501 -0.00000000000E+00 -0.00000000000E+00 -0.18215870365E+02  0.18215870365E+02  0.00000000000E+00 0.  1.
          1    1    1    2  502    0 -0.82837835022E+01 -0.26565831621E+02  0.14558971128E+02  0.31405861223E+02  0.00000000000E+00 0.  1.
         -1    1    1    2    0  501  0.82837835022E+01  0.26565831621E+02  0.99770509291E+01  0.29561901564E+02  0.00000000000E+00 0. -1.
</event>
<event>
 4    1  0.6934088E+001  0.2292105E+02  0.7546771E-02  0.1493492E+00
          2   -1    0    0  502    0  0.00000000000E+00  0.00000000000E+00  0.43713797861E+03  0.43713797861E+03  0.00000000000E+00 0. -1.
         -2   -1    0    0    0  501 -0.00000000000E+00 -0.00000000000E+00 -0.17153824700E+01  0.17153824700E+01  0.00000000000E+00 0.  1.
          1    1    1    2  502    0  0.24251049609E+01 -0.22792393662E+02  0.33776977857E+03  0.33854659600E+03  0.00000000000E+00 0. -1.
         -1    1    1    2    0  501 -0.24251049609E+01  0.22792393662E+02  0.97652817561E+02  0.10030676508E+03  0.00000000000E+00 0.  1.
</event>
<event>
 4    1  0.6934088E+001  0.2127145E+02  0.7546771E-02  0.1515424E+00
          2   -1    0    0  502    0  0.00000000000E+00  0.00000000000E+00  0.32629277369E+03  0.32629277369E+03  0.00000000000E+00 0.  1.
         -2   -1    0    0    0  501 -0.00000000000E+00 -0.00000000000E+00 -0.16489498189E+01  0.16489498189E+01  0.00000000000E+00 0. -1.
          1    1    1    2  502    0  0.11344295859E+02  0.17993926317E+02  0.96932145076E+02  0.99238677852E+02  0.00000000000E+00 0. -1.
         -1    1    1    2    0  501 -0.11344295859E+02 -0.17993926317E+02  0.22771167879E+03  0.22870304566E+03  0.00000000000E+00 0.  1.
</event>
<event>
 4    1  0.6934088E+001  0.5418811E+02  0.7546771E-02  0.1280969E+00
          2   -1    0    0  502    0  0.00000000000E+00  0.00000000000E+00  0.56248438804E+03  0.56248438804E+03  0.00000000000E+00 0. -1.
         -2   -1    0    0    0  501 -0.00000000000E+00 -0.00000000000E+00 -0.12426773565E+02  0.12426773565E+02  0.00000000000E+00 0.  1.
          1    1    1    2  502    0  0.48243163160E+02 -0.24676874824E+02  0.56125553097E+02  0.78015566736E+02  0.00000000000E+00 0.  1.
         -1    1    1    2    0  501 -0.48243163160E+02  0.24676874824E+02  0.49393206138E+03  0.49689559487E+03  0.00000000000E+00 0. -1.
</event>
<event>
 4    1  0.6934088E+001  0.3644058E+02  0.7546771E-02  0.1370709E+00
          2   -1    0    0  502    0  0.00000000000E+00  0.00000000000E+00  0.15327184558E+01  0.15327184558E+01  0.00000000000E+00 0. -1.
         -2   -1    0    0    0  501 -0.00000000000E+00 -0.00000000000E+00 -0.91656070044E+03  0.91656070044E+03  0.00000000000E+00 0.  1.
          1    1    1    2  502    0 -0.22367596985E+02 -0.28768151353E+02 -0.56492444841E+03  0.56609853236E+03  0.00000000000E+00 0.  1.
         -1    1    1    2    0  501  0.22367596985E+02  0.28768151353E+02 -0.35010353357E+03  0.35199488654E+03  0.00000000000E+00 0. -1.
</event>
<event>
 4    1  0.6934088E+001  0.2457083E+02  0.7546771E-02  0.1473662E+00
          2   -1    0    0  502    0  0.00000000000E+00  0.00000000000E+00  0.31834179373E+03  0.31834179373E+03  0.00000000000E+00 0. -1.
         -2   -1    0    0    0  501 -0.00000000000E+00 -0.00000000000E+00 -0.20606963884E+01  0.20606963884E+01  0.00000000000E+00 0.  1.
          1    1    1    2  502    0  0.12544233912E+02  0.21127414778E+02  0.11291527622E+03  0.11555771313E+03  0.00000000000E+00 0.  1.
         -1    1    1    2    0  501 -0.12544233912E+02 -0.21127414778E+02  0.20336582112E+03  0.20484477699E+03  0.00000000000E+00 0. -1.
</event>
<event>
 4    1  0.6934088E+001  0.3475596E+02  0.7546771E-02  0.1382287E+00
          2   -1    0    0  502    0  0.00000000000E+00  0.00000000000E+00  0.47323410424E+02  0.47323410424E+02  0.00000000000E+00 0.  1.
         -2   -1    0    0    0  501 -0.00000000000E+00 -0.00000000000E+00 -0.61118629676E+02  0.61118629676E+02  0.00000000000E+00 0. -1.
          1    1    1    2  502    0  0.27505514852E+02 -0.21246721432E+02 -0.48274802873E+02  0.59484730068E+02  0.00000000000E+00 0. -1.
         -1    1    1    2    0  501 -0.27505514852E+02  0.21246721432E+02  0.34479583620E+02  0.48957310032E+02  0.00000000000E+00 0.  1.
</event>
<event>
 4    1  0.6934088E+001  0.3094256E+02  0.7546771E-02  0.1411578E+00
          2   -1    0    0  502    0  0.00000000000E+00  0.00000000000E+00  0.11957084191E+03  0.11957084191E+03  0.00000000000E+00 0.  1.
         -2   -1    0    0    0  501 -0.00000000000E+00 -0.00000000000E+00 -0.81918238197E+01  0.81918238197E+01  0.00000000000E+00 0. -1.
          1    1    1    2  502    0 -0.28323670027E+02  0.12458399624E+02  0.46102431532E+02  0.55523654402E+02  0.00000000000E+00 0. -1.
         -1    1    1    2    0  501  0.28323670027E+02 -0.12458399624E+02  0.65276586563E+02  0.72239011333E+02  0.00000000000E+00 0.  1.
</event>
<event>
 4    1  0.6934088E+001  0.2036714E+02  0.7546771E-02  0.1528495E+00
          2   -1    0    0  502    0  0.00000000000E+00  0.00000000000E+00  0.17519571357E+02  0.17519571357E+02  0.00000000000E+00 0. -1.
         -2   -1    0    0    0  501 -0.00000000000E+00 -0.00000000000E+00 -0.25557019907E+02  0.25557019907E+02  0.00000000000E+00 0.  1.
          1    1    1    2  502    0 -0.20347548461E+02 -0.89322159497E+00 -0.98595414191E+01  0.22628104874E+02  0.00000000000E+00 0.  1.
         -1    1    1    2    0  501  0.20347548461E+02  0.89322159497E+00  0.18220928693E+01  0.20448486390E+02  0.00000000000E+00 0. -1.
</event>
<event>
 4    1  0.6934088E+001  0.3459509E+02  0.7546771E-02  0.1383432E+00
          2   -1    0    0  502    0  0.00000000000E+00  0.00000000000E+00  0.10478739900E+04  0.10478739900E+04  0.00000000000E+00 0. -1.
         -2   -1    0    0    0  501 -0.00000000000E+00 -0.00000000000E+00 -0.19591514960E+01  0.19591514960E+01  0.00000000000E+00 0.  1.
          1    1    1    2  502    0 -0.16053832051E+01 -0.34557821105E+02  0.86193422848E+03  0.86262821336E+03  0.00000000000E+00 0. -1.
         -1    1    1    2    0  501  0.16053832051E+01  0.34557821105E+02  0.18398061005E+03  0.18720492817E+03  0.00000000000E+00 0.  1.
</event>
<event>
 4    1  0.6934088E+001  0.2185328E+02  0.7546771E-02  0.1507422E+00
          2   -1    0    0  502    0  0.00000000000E+00  0.00000000000E+00  0.59193490549E+02  0.59193490549E+02  0.00000000000E+00 0.  1.
         -2   -1    0    0    0  501 -0.00000000000E+00 -0.00000000000E+00 -0.70290458787E+02  0.70290458787E+02  0.00000000000E+00 0. -1.
          1    1    1    2  502    0  0.21853233283E+02  0.46945647394E-01 -0.66461731617E+02  0.69962331139E+02  0.00000000000E+00 0. -1.
         -1    1    1    2    0  501 -0.21853233283E+02 -0.46945647394E-01  0.55364763379E+02  0.59521618197E+02  0.00000000000E+00 0.  1.
</event>
<event>
 4    1  0.6934088E+001  0.2020211E+02  0.7546771E-02  0.1530968E+00
          2   -1    0    0  502    0  0.00000000000E+00  0.00000000000E+00  0.67704691418E+03  0.67704691418E+03  0.00000000000E+00 0.  1.
         -2   -1    0    0    0  501 -0.00000000000E+00 -0.00000000000E+00 -0.18638781316E+01  0.18638781316E+01  0.00000000000E+00 0. -1.
          1    1    1    2  502    0  0.19714092657E+02 -0.44135802964E+01  0.58372730342E+02  0.61769740067E+02  0.00000000000E+00 0. -1.
         -1    1    1    2    0  501 -0.19714092657E+02  0.44135802964E+01  0.61681030571E+03  0.61714105225E+03  0.00000000000E+00 0.  1.
</event>
<event>
 4    1  0.6934088E+001  0.3193038E+02  0.7546771E-02  0.1403531E+00
          2   -1    0    0  502    0  0.00000000000E+00  0.00000000000E+00  0.79897079610E+02  0.79897079610E+02  0.00000000000E+00 0. -1.
         -2   -1    0    0    0  501 -0.00000000000E+00 -0.00000000000E+00 -0.13769330857E+02  0.13769330857E+02  0.00000000000E+00 0.  1.
          1    1    1    2  502    0 -0.13945700434E+02 -0.28723970253E+02  0.20388918963E+02  0.37884786448E+02  0.00000000000E+00 0.  1.
         -1    1    1    2    0  501  0.13945700434E+02  0.28723970253E+02  0.45738829790E+02  0.55781624019E+02  0.00000000000E+00 0. -1.
</event>
<event>
 4    1  0.6934088E+001  0.2638679E+02  0.7546771E-02  0.1453867E+00
          2   -1    0    0  502    0  0.00000000000E+00  0.00000000000E+00  0.19818511619E+03  0.19818511619E+03  0.00000000000E+00 0. -1.
         -2   -1    0    0    0  501 -0.00000000000E+00 -0.00000000000E+00 -0.57791372211E+01  0.57791372211E+01  0.00000000000E+00 0.  1.
          1    1    1    2  502    0 -0.14397580678E+02 -0.22112715299E+02  0.16006126635E+03  0.16222167393E+03  0.00000000000E+00 0. -1.
         -1    1    1    2    0  501  0.14397580678E+02  0.22112715299E+02  0.32344712617E+02  0.41742579479E+02  0.00000000000E+00 0.  1.
</event>
<event>
 4    1  0.6934088E+001  0.8883507E+02  0.7546771E-02  0.1184701E+00
          2   -1    0    0  502    0  0.00000000000E+00  0.00000000000E+00  0.85961649861E+03  0.85961649861E+03  0.00000000000E+00 0.  1.
         -2   -1    0    0    0  501 -0.00000000000E+00 -0.00000000000E+00 -0.91980925011E+01  0.91980925011E+01  0.00000000000E+00 0. -1.
          1    1    1    2  502    0  0.86829048308E+02  0.18771925228E+02  0.40618562595E+03  0.41578652159E+03  0.00000000000E+00 0. -1.
         -1    1    1    2    0  501 -0.86829048308E+02 -0.18771925228E+02  0.44423278015E+03  0.45302806952E+03  0.00000000000E+00 0.  1.
</event>
<event>
 4    1  0.6934088E+001  0.3132648E+02  0.7546771E-02  0.1408409E+00
          2   -1    0    0  502    0  0.00000000000E+00  0.00000000000E+00  0.83654877183E+02  0.83654877183E+02  0.00000000000E+00 0.  1.
         -2   -1    0    0    0  501 -0.00000000000E+00 -0.00000000000E+00 -0.16267129154E+02  0.16267129154E+02  0.00000000000E+00 0. -1.
          1    1    1    2  502    0 -0.10720684497E+02  0.29434936387E+02  0.73109884279E+01  0.32168293520E+02  0.00000000000E+00 0. -1.
         -1    1    1    2    0  501  0.10720684497E+02 -0.29434936387E+02  0.60076759602E+02  0.67753712817E+02  0.00000000000E+00 0.  1.
</event>
<event>
 4    1  0.6934088E+001  0.2413100E+02  0.7546771E-02  0.1478764E+00
          2   -1    0    0  502    0  0.00000000000E+00  0.00000000000E+00  0.20181844026E+04  0.20181844026E+04  0.00000000000E+00 0.  1.
         -2   -1    0    0    0  501 -0.00000000000E+00 -0.00000000000E+00 -0.30909904167E+00  0.30909904167E+00  0.00000000000E+00 0. -1.
          1    1    1    2  502    0  0.19879000077E+02  0.13679562277E+02  0.74858360382E+03  0.74897244073E+03  0.00000000000E+00 0. -1.
         -1    1    1    2    0  501 -0.19879000077E+02 -0.13679562277E+02  0.12692916998E+04  0.12695210610E+04  0.00000000000E+00 0.  1.
</event>
<event>
 4    1  0.6934088E+001  0.2273565E+02  0.7546771E-02  0.1495845E+00
          2   -1    0    0  502    0  0.00000000000E+00  0.00000000000E+00  0.17124736881E+01  0.17124736881E+01  0.00000000000E+00 0. -1.
         -2   -1    0    0    0  501 -0.00000000000E+00 -0.00000000000E+00 -0.31675817164E+03  0.31675817164E+03  0.00000000000E+00 0.  1.
          1    1    1    2  502    0  0.16203379288E+02 -0.15948670413E+02 -0.12297724842E+03  0.12506123787E+03  0.00000000000E+00 0. -1.
         -1    1    1    2    0  501 -0.16203379288E+02  0.15948670413E+02 -0.19206844954E+03  0.19340940746E+03  0.00000000000E+00 0.  1.
</event>
<event>
 4    1  0.6934088E+001  0.2654010E+02  0.7546771E-02  0.1452283E+00
          2   -1    0    0  502    0  0.00000000000E+00  0.00000000000E+00  0.13225897361E+03  0.13225897361E+03  0.00000000000E+00 0. -1.
         -2   -1    0    0    0  501 -0.00000000000E+00 -0.00000000000E+00 -0.74557697779E+01  0.74557697779E+01  0.00000000000E+00 0.  1.
          1    1    1    2  502    0 -0.11538013452E+02  0.23900860112E+02  0.99740273566E+02  0.10321094438E+03  0.00000000000E+00 0. -1.
         -1    1    1    2    0  501  0.11538013452E+02 -0.23900860112E+02  0.25062930263E+02  0.36503799006E+02  0.00000000000E+00 0.  1.
</event>
<event>
 4    1  0.6934088E+001  0.2264132E+02  0.7546771E-02  0.1497052E+00
          2   -1    0    0  502    0  0.00000000000E+00  0.00000000000E+00  0.74107412203E+03  0.74107412203E+03  0.00000000000E+00 0. -1.
         -2   -1    0    0    0  501 -0.00000000000E+00 -0.00000000000E+00 -0.15581852344E+01  0.15581852344E+01  0.00000000000E+00 0.  1.
          1    1    1    2  502    0  0.22386996674E+02 -0.33840250309E+01  0.64664672559E+03  0.64704297922E+03  0.00000000000E+00 0. -1.
         -1    1    1    2    0  501 -0.22386996674E+02  0.33840250309E+01  0.92869211210E+02  0.95589328046E+02  0.00000000000E+00 0.  1.
</event>
<event>
 4    1  0.6934088E+001  0.2110188E+02  0.7546771E-02  0.1517815E+00
          2   -1    0    0  502    0  0.00000000000E+00  0.00000000000E+00  0.81261922112E+01  0.81261922112E+01  0.00000000000E+00 0. -1.
         -2   -1    0    0    0  501 -0.00000000000E+00 -0.00000000000E+00 -0.56697132340E+02  0.56697132340E+02  0.00000000000E+00 0.  1.
          1    1    1    2  502    0 -0.14150441405E+02 -0.15654214079E+02 -0.30219290478E+02  0.36857766174E+02  0.00000000000E+00 0. -1.
         -1    1    1    2    0  501  0.14150441405E+02  0.15654214079E+02 -0.18351649651E+02  0.27965558377E+02  0.00000000000E+00 0.  1.
</event>
<event>
 4    1  0.6934088E+001  0.2039848E+02  0.7546771E-02  0.1528029E+00
          2   -1    0    0  502    0  0.00000000000E+00  0.00000000000E+00  0.15340557574E+04  0.15340557574E+04  0.00000000000E+00 0.  1.
         -2   -1    0    0    0  501 -0.00000000000E+00 -0.00000000000E+00 -0.27495173169E+00  0.27495173169E+00  0.00000000000E+00 0. -1.
          1    1    1    2  502    0  0.40035075941E+01 -0.20001750667E+02  0.85601914933E+03  0.85626215736E+03  0.00000000000E+00 0.  1.
         -1    1    1    2    0  501 -0.40035075941E+01  0.20001750667E+02  0.67776165637E+03  0.67806855181E+03  0.00000000000E+00 0. -1.
</event>
<event>
 4    1  0.6934088E+001  0.2012470E+02  0.7546771E-02  0.1532138E+00
          2   -1    0    0  502    0  0.00000000000E+00  0.00000000000E+00  0.17566974669E+04  0.17566974669E+04  0.00000000000E+00 0.  1.
         -2   -1    0    0    0  501 -0.00000000000E+00 -0.00000000000E+00 -0.34440032406E+00  0.34440032406E+00  0.00000000000E+00 0. -1.
          1    1    1    2  502    0  0.10283906179E+02 -0.17298698326E+02  0.13832919626E+04  0.13834383461E+04  0.00000000000E+00 0.  1.
         -1    1    1    2    0  501 -0.10283906179E+02  0.17298698326E+02  0.37306110395E+03  0.37360352109E+03  0.00000000000E+00 0. -1.
</event>
<event>
 4    1  0.6934088E+001  0.2940106E+02  0.7546771E-02  0.1424874E+00
          2   -1    0    0  502    0  0.00000000000E+00  0.00000000000E+00  0.15094977081E+03  0.15094977081E+03  0.00000000000E+00 0.  1.
         -2   -1    0    0    0  501 -0.00000000000E+00 -0.00000000000E+00 -0.58105660539E+01  0.58105660539E+01  0.00000000000E+00 0. -1.
          1    1    1    2  502    0  0.50249715314E+00 -0.29396768695E+02  0.81994122016E+02  0.87106019070E+02  0.00000000000E+00 0. -1.
         -1    1    1    2    0  501 -0.50249715314E+00  0.29396768695E+02  0.63145082743E+02  0.69654317796E+02  0.00000000000E+00 0.  1.
</event>
<event>
 4    1  0.6934088E+001  0.5582202E+02  0.7546771E-02  0.1274729E+00
          2   -1    0    0  502    0  0.00000000000E+00  0.00000000000E+00  0.49024449791E+01  0.49024449791E+01  0.00000000000E+00 0. -1.
         -2   -1    0    0    0  501 -0.00000000000E+00 -0.00000000000E+00 -0.11675158142E+04  0.11675158142E+04  0.00000000000E+00 0.  1.
          1    1    1    2  502    0  0.25422493466E+02 -0.49697034985E+02 -0.97697743503E+03  0.97857090035E+03  0.00000000000E+00 0.  1.
         -1    1    1    2    0  501 -0.25422493466E+02  0.49697034985E+02 -0.18563593416E+03  0.19384735880E+03  0.00000000000E+00 0. -1.
</event>
<event>
 4    1  0.6934088E+001  0.2011162E+02  0.7546771E-02  0.1532336E+00
          2   -1    0    0  502    0  0.00000000000E+00  0.00000000000E+00  0.94819290567E+01  0.94819290567E+01  0.00000000000E+00 0.  1.
         -2   -1    0    0    0  501 -0.00000000000E+00 -0.00000000000E+00 -0.49517614858E+02  0.49517614858E+02  0.00000000000E+00 0. -1.
          1    1    1    2  502    0 -0.12761157764E+01  0.20071092206E+02 -0.30997743303E+02  0.36950470954E+02  0.00000000000E+00 0. -1.
         -1    1    1    2    0  501  0.12761157764E+01 -0.20071092206E+02 -0.90379424979E+01  0.22049072961E+02  0.00000000000E+00 0.  1.
</event>
<event>
 4    1  0.6934088E+001  0.5342954E+02  0.7546771E-02  0.1283951E+00
          2   -1    0    0  502    0  0.00000000000E+00  0.00000000000E+00  0.39652845461E+03  0.39652845461E+03  0.00000000000E+00 0. -1.
         -2   -1    0    0    0  501 -0.00000000000E+00 -0.00000000000E+00 -0.80211396468E+01  0.80211396468E+01  0.00000000000E+00 0.  1.
          1    1    1    2  502    0  0.46623502039E+02  0.26095298237E+02  0.25900147334E+03  0.26445505994E+03  0.00000000000E+00 0.  1.
         -1    1    1    2    0  501 -0.46623502039E+02 -0.26095298237E+02  0.12950584162E+03  0.14009453432E+03  0.00000000000E+00 0. -1.
</event>
<event>
 4    1  0.6934088E+001  0.2871869E+02  0.7546771E-02  0.1431068E+00
          2   -1    0    0  502    0  0.00000000000E+00  0.00000000000E+00  0.42418378624E+02  0.42418378624E+02  0.00000000000E+00 0. -1.
         -2   -1    0    0    0  501 -0.00000000000E+00 -0.00000000000E+00 -0.21462097496E+02  0.21462097496E+02  0.00000000000E+00 0.  1.
          1    1    1    2  502    0  0.25927764723E+02 -0.12349674250E+02  0.68273010564E+00  0.28726809047E+02  0.00000000000E+00 0.  1.
         -1    1    1    2    0  501 -0.25927764723E+02  0.12349674250E+02  0.20273551023E+02  0.35153667073E+02  0.00000000000E+00 0. -1.
</event>
<event>
 4    1  0.6934088E+001  0.2427910E+02  0.7546771E-02  0.1477032E+00
          2   -1    0    0  502    0  0.00000000000E+00  0.00000000000E+00  0.20155354452E+03  0.20155354452E+03  0.00000000000E+00 0.  1.
         -2   -1    0    0    0  501 -0.00000000000E+00 -0.00000000000E+00 -0.76382082007E+01  0.76382082007E+01  0.00000000000E+00 0. -1.
          1    1    1    2  502    0 -0.16455014026E+02  0.17852373814E+02  0.17912382762E+03  0.18076177792E+03  0.00000000000E+00 0.  1.
         -1    1    1    2    0  501  0.16455014026E+02 -0.17852373814E+02  0.14791508703E+02  0.28429974799E+02  0.00000000000E+00 0. -1.
</event>
<event>
 4    1  0.6934088E+001  0.2132384E+02  0.7546771E-02  0.1514691E+00
          2   -1    0    0  502    0  0.00000000000E+00  0.00000000000E+00  0.16737021699E+03  0.16737021699E+03  0.00000000000E+00 0. -1.
         -2   -1    0    0    0  501 -0.00000000000E+00 -0.00000000000E+00 -0.32354898884E+01  0.32354898884E+01  0.00000000000E+00 0.  1.
          1    1    1    2  502    0 -0.64991077434E+01  0.20309304334E+02  0.11622283910E+03  0.11816283076E+03  0.00000000000E+00 0.  1.
         -1    1    1    2    0  501  0.64991077434E+01 -0.20309304334E+02  0.47911887995E+02  0.52442876115E+02  0.00000000000E+00 0. -1.
</event>
<event>
 4    1  0.6934088E+001  0.2154684E+02  0.7546771E-02  0.1511599E+00
          2   -1    0    0  502    0  0.00000000000E+00  0.00000000000E+00  0.27335172864E+03  0.27335172864E+03  0.00000000000E+00 0.  1.
         -2   -1    0    0    0  501 -0.00000000000E+00 -0.00000000000E+00 -0.20947983046E+01  0.20947983046E+01  0.00000000000E+00 0. -1.
          1    1    1    2  502    0 -0.27168880391E+01  0.21374859534E+02  0.75719610017E+02  0.78725633956E+02  0.00000000000E+00 0.  1.
         -1    1    1    2    0  501  0.27168880391E+01 -0.21374859534E+02  0.19553732032E+03  0.19672089299E+03  0.00000000000E+00 0. -1.
</event>
<event>
 4    1  0.6934088E+001  0.4304837E+02  0.7546771E-02  0.1331492E+00
          2   -1    0    0  502    0  0.00000000000E+00  0.00000000000E+00  0.23227715917E+03  0.23227715917E+03  0.00000000000E+00 0.  1.
         -2   -1    0    0    0  501 -0.00000000000E+00 -0.00000000000E+00 -0.10393041916E+02  0.10393041916E+02  0.00000000000E+00 0. -1.
          1    1    1    2  502    0 -0.30513647585E+02 -0.30365758865E+02  0.16942863876E+03  0.17481197223E+03  0.00000000000E+00 0.  1.
         -1    1    1    2    0  501  0.30513647585E+02  0.30365758865E+02  0.52455478488E+02  0.67858228858E+02  0.00000000000E+00 0. -1.
</event>
<event>
 4    1  0.6934088E+001  0.3497483E+02  0.7546771E-02  0.1380740E+00
          2   -1    0    0  502    0  0.00000000000E+00  0.00000000000E+00  0.21129992802E+02  0.21129992802E+02  0.00000000000E+00 0.  1.
         -2   -1    0    0    0  501 -0.00000000000E+00 -0.00000000000E+00 -0.58185425883E+02  0.58185425883E+02  0.00000000000E+00 0. -1.
          1    1    1    2  502    0  0.33459959272E+02 -0.10181827604E+02 -0.21348281378E+02  0.40975451256E+02  0.00000000000E+00 0. -1.
         -1    1    1    2    0  501 -0.33459959272E+02  0.10181827604E+02 -0.15707151703E+02  0.38339967430E+02  0.00000000000E+00 0.  1.
</event>
<event>
 4    1  0.6934088E+001  0.9393244E+02  0.7546771E-02  0.1174759E+00
          2   -1    0    0  502    0  0.00000000000E+00  0.00000000000E+00  0.11087076451E+04  0.11087076451E+04  0.00000000000E+00 0.  1.
         -2   -1    0    0    0  501 -0.00000000000E+00 -0.00000000000E+00 -0.13112623991E+02  0.13112623991E+02  0.00000000000E+00 0. -1.
          1    1    1    2  502    0  0.82356435127E+02 -0.45174338642E+02  0.19612446611E+03  0.21745829367E+03  0.00000000000E+00 0.  1.
         -1    1    1    2    0  501 -0.82356435127E+02  0.45174338642E+02  0.89947055500E+03  0.90436197543E+03  0.00000000000E+00 0. -1.
</event>
<event>
 4    1  0.6934088E+001  0.2385362E+02  0.7546771E-02  0.1482049E+00
          2   -1    0    0  502    0  0.00000000000E+00  0.00000000000E+00  0.78389769086E+01  0.78389769086E+01  0.00000000000E+00 0.  1.
         -2   -1    0    0    0  501 -0.00000000000E+00 -0.00000000000E+00 -0.77497200181E+02  0.77497200181E+02  0.00000000000E+00 0. -1.
          1    1    1    2  502    0 -0.23578156175E+02  0.36146268474E+01 -0.24087184280E+02  0.33899666995E+02  0.00000000000E+00 0.  1.
         -1    1    1    2    0  501  0.23578156175E+02 -0.36146268474E+01 -0.45571038993E+02  0.51436510095E+02  0.00000000000E+00 0. -1.
</event>
<event>
 4    1  0.6934088E+001  0.2772826E+02  0.7546771E-02  0.1440427E+00
          2   -1    0    0  502    0  0.00000000000E+00  0.00000000000E+00  0.70050154315E+01  0.70050154315E+01  0.00000000000E+00 0.  1.
         -2   -1    0    0    0  501 -0.00000000000E+00 -0.00000000000E+00 -0.11052075231E+03  0.11052075231E+03  0.00000000000E+00 0. -1.
          1    1    1    2  502    0  0.17759998318E+02 -0.21294109072E+02 -0.56639526477E+02  0.63062608422E+02  0.00000000000E+00 0. -1.
         -1    1    1    2    0  501 -0.17759998318E+02  0.21294109072E+02 -0.46876210400E+02  0.54463159318E+02  0.00000000000E+00 0.  1.
</event>
<event>
 4    1  0.6934088E+001  0.3651758E+02  0.7546771E-02  0.1370197E+00
          2   -1    0    0  502    0  0.00000000000E+00  0.00000000000E+00  0.99897874785E+03  0.99897874785E+03  0.00000000000E+00 0. -1.
         -2   -1    0    0    0  501 -0.00000000000E+00 -0.00000000000E+00 -0.40251127256E+01  0.40251127256E+01  0.00000000000E+00 0.  1.
          1    1    1    2  502    0  0.34763494063E+02 -0.11181815955E+02  0.90747049112E+03  0.90820494701E+03  0.00000000000E+00 0. -1.
         -1    1    1    2    0  501 -0.34763494063E+02  0.11181815955E+02  0.87483144007E+02  0.94798913564E+02  0.00000000000E+00 0.  1.
</event>
<event>
 4    1  0.6934088E+001  0.2696988E+02  0.7546771E-02  0.1447911E+00
          2   -1    0    0  502    0  0.00000000000E+00  0.00000000000E+00  0.53826221814E+01  0.53826221814E+01  0.00000000000E+00 0. -1.
         -2   -1    0    0    0  501 -0.00000000000E+00 -0.00000000000E+00 -0.24497567849E+03  0.24497567849E+03  0.00000000000E+00 0.  1.
          1    1    1    2  502    0 -0.26655441487E+02 -0.41063155738E+01 -0.35975223263E+02  0.44962107127E+02  0.00000000000E+00 0. -1.
         -1    1    1    2    0  501  0.26655441487E+02  0.41063155738E+01 -0.20361783304E+03  0.20539619354E+03  0.00000000000E+00 0.  1.
</event>
<event>
 4    1  0.6934088E+001  0.2316723E+02  0.7546771E-02  0.1490409E+00
          2   -1    0    0  502    0  0.00000000000E+00  0.00000000000E+00  0.62101204146E+03  0.62101204146E+03  0.00000000000E+00 0. -1.
         -2   -1    0    0    0  501 -0.00000000000E+00 -0.00000000000E+00 -0.89703770190E+00  0.89703770190E+00  0.00000000000E+00 0.  1.
          1    1    1    2  502    0  0.99695930546E+01 -0.20912385145E+02  0.25062419437E+03  0.25169268452E+03  0.00000000000E+00 0.  1.
         -1    1    1    2    0  501 -0.99695930546E+01  0.20912385145E+02  0.36949080939E+03  0.37021639464E+03  0.00000000000E+00 0. -1.
</event>
<event>
 4    1  0.6934088E+001  0.2345279E+02  0.7546771E-02  0.1486889E+00
          2   -1    0    0  502    0  0.00000000000E+00  0.00000000000E+00  0.91632038662E+03  0.91632038662E+03  0.00000000000E+00 0. -1.
         -2   -1    0    0    0  501 -0.00000000000E+00 -0.00000000000E+00 -0.14738956708E+01  0.14738956708E+01  0.00000000000E+00 0.  1.
          1    1    1    2  502    0  0.23379716662E+02 -0.18498614126E+01  0.81072552306E+03  0.81106467490E+03  0.00000000000E+00 0. -1.
         -1    1    1    2    0  501 -0.23379716662E+02  0.18498614126E+01  0.10412096789E+03  0.10672960739E+03  0.00000000000E+00 0.  1.
</event>
<event>
 4    1  0.6934088E+001  0.2482958E+02  0.7546771E-02  0.1470719E+00
          2   -1    0    0  502    0  0.00000000000E+00  0.00000000000E+00  0.10973258387E+02  0.10973258387E+02  0.00000000000E+00 0. -1.
         -2   -1    0    0    0  501 -0.00000000000E+00 -0.00000000000E+00 -0.13870610770E+03  0.13870610770E+03  0.00000000000E+00 0.  1.
          1    1    1    2  502    0 -0.21964492198E+02 -0.11578824520E+02 -0.61402831969E+01  0.25577552122E+02  0.00000000000E+00 0. -1.
         -1    1    1    2    0  501  0.21964492198E+02  0.11578824520E+02 -0.12159256612E+03  0.12410181397E+03  0.00000000000E+00 0.  1.
</event>
<event>
 4    1  0.6934088E+001  0.2176316E+02  0.7546771E-02  0.1508642E+00
          2   -1    0    0  502    0  0.00000000000E+00  0.00000000000E+00  0.59046748106E+03  0.59046748106E+03  0.00000000000E+00 0. -1.
         -2   -1    0    0    0  501 -0.00000000000E+00 -0.00000000000E+00 -0.81496363914E+00  0.81496363914E+00  0.00000000000E+00 0.  1.
          1    1    1    2  502    0 -0.21191393307E+02  0.49557958385E+01  0.25773480565E+03  0.25865201547E+03  0.00000000000E+00 0.  1.
         -1    1    1    2    0  501  0.21191393307E+02 -0.49557958385E+01  0.33191771177E+03  0.33263042923E+03  0.00000000000E+00 0. -1.
</event>
<event>
 4    1  0.6934088E+001  0.2735422E+02  0.7546771E-02  0.1444082E+00
          2   -1    0    0  502    0  0.00000000000E+00  0.00000000000E+00  0.15347892370E+04  0.15347892370E+04  0.00000000000E+00 0.  1.
         -2   -1    0    0    0  501 -0.00000000000E+00 -0.00000000000E+00 -0.64462024911E+00  0.64462024911E+00  0.00000000000E+00 0. -1.
          1    1    1    2  502    0 -0.58474148018E+01 -0.26721919301E+02  0.38808377488E+03  0.38904661617E+03  0.00000000000E+00 0. -1.
         -1    1    1    2    0  501  0.58474148018E+01  0.26721919301E+02  0.11460608418E+04  0.11463872410E+04  0.00000000000E+00 0.  1.
</event>
<event>
 4    1  0.6934088E+001  0.2426572E+02  0.7546771E-02  0.1477188E+00
          2   -1    0    0  502    0  0.00000000000E+00  0.00000000000E+00  0.32141057598E+03  0.32141057598E+03  0.00000000000E+00 0. -1.
         -2   -1    0    0    0  501 -0.00000000000E+00 -0.00000000000E+00 -0.22061192735E+01  0.22061192735E+01  0.00000000000E+00 0.  1.
          1    1    1    2  502    0  0.23393902288E+02 -0.64459675659E+01  0.92969179165E+02  0.96083783423E+02  0.00000000000E+00 0.  1.
         -1    1    1    2    0  501 -0.23393902288E+02  0.64459675659E+01  0.22623527754E+03  0.22753291183E+03  0.00000000000E+00 0. -1.
</event>
<event>
 4    1  0.6934088E+001  0.2354758E+02  0.7546771E-02  0.1485734E+00
          2   -1    0    0  502    0  0.00000000000E+00  0.00000000000E+00  0.11201164975E+04  0.11201164975E+04  0.00000000000E+00 0. -1.
         -2   -1    0    0    0  501 -0.00000000000E+00 -0.00000000000E+00 -0.57734235434E+00  0.57734235434E+00  0.00000000000E+00 0.  1.
          1    1    1    2  502    0  0.15847340939E+02 -0.17416959352E+02  0.34818750247E+03  0.34898284422E+03  0.00000000000E+00 0.  1.
         -1    1    1    2    0  501 -0.15847340939E+02  0.17416959352E+02  0.77135165266E+03  0.77171099562E+03  0.00000000000E+00 0. -1.
</event>
<event>
 4    1  0.6934088E+001  0.2102583E+02  0.7546771E-02  0.1518896E+00
          2   -1    0    0  502    0  0.00000000000E+00  0.00000000000E+00  0.83495901508E+03  0.83495901508E+03  0.00000000000E+00 0. -1.
         -2   -1    0    0    0  501 -0.00000000000E+00 -0.00000000000E+00 -0.69045199121E+00  0.69045199121E+00  0.00000000000E+00 0.  1.
          1    1    1    2  502    0  0.18871286894E+02 -0.92714722028E+01  0.21538305457E+03  0.21640689883E+03  0.00000000000E+00 0.  1.
         -1    1    1    2    0  501 -0.18871286894E+02  0.92714722028E+01  0.61888550851E+03  0.61924256824E+03  0.00000000000E+00 0. -1.
</event>
<event>
 4    1  0.6934088E+001  0.2747607E+02  0.7546771E-02  0.1442884E+00
          2   -1    0    0  502    0  0.00000000000E+00  0.00000000000E+00  0.14306284300E+02  0.14306284300E+02  0.00000000000E+00 0. -1.
         -2   -1    0    0    0  501 -0.00000000000E+00 -0.00000000000E+00 -0.55846390031E+02  0.55846390031E+02  0.00000000000E+00 0.  1.
          1    1    1    2  502    0  0.13257773587E+02 -0.24065860563E+02 -0.12536658700E+02  0.30201026746E+02  0.00000000000E+00 0. -1.
         -1    1    1    2    0  501 -0.13257773587E+02  0.24065860563E+02 -0.29003447031E+02  0.39951647585E+02  0.00000000000E+00 0.  1.
</event>
<event>
 4    1  0.6934088E+001  0.4169466E+02  0.7546771E-02  0.1338831E+00
          2   -1    0    0  502    0  0.00000000000E+00  0.00000000000E+00  0.33806628988E+04  0.33806628988E+04  0.00000000000E+00 0. -1.
         -2   -1    0    0    0  501 -0.00000000000E+00 -0.00000000000E+00 -0.77872183031E+00  0.77872183031E+00  0.00000000000E+00 0.  1.
          1    1    1    2  502    0  0.41344854400E+02 -0.53896021982E+01  0.70460399685E+03  0.70583655132E+03  0.00000000000E+00 0.  1.
         -1    1    1    2    0  501 -0.41344854400E+02  0.53896021982E+01  0.26752801801E+04  0.26756050693E+04  0.00000000000E+00 0. -1.
</event>
<event>
 4    1  0.6934088E+001  0.2661529E+02  0.7546771E-02  0.1451511E+00
          2   -1    0    0  502    0  0.00000000000E+00  0.00000000000E+00  0.15103582122E+04  0.15103582122E+04  0.00000000000E+00 0. -1.
         -2   -1    0    0    0  501 -0.00000000000E+00 -0.00000000000E+00 -0.50064910097E+00  0.50064910097E+00  0.00000000000E+00 0.  1.
          1    1    1    2  502    0  0.27580763389E+01  0.26471997423E+02  0.56502358451E+03  0.56565009033E+03  0.00000000000E+00 0. -1.
         -1    1    1    2    0  501 -0.27580763389E+01 -0.26471997423E+02  0.94483397856E+03  0.94520877094E+03  0.00000000000E+00 0.  1.
</event>
<event>
 4    1  0.6934088E+001  0.2398993E+02  0.7546771E-02  0.1480428E+00
          2   -1    0    0  502    0  0.00000000000E+00  0.00000000000E+00  0.12347998122E+02  0.12347998122E+02  0.00000000000E+00 0.  1.
         -2   -1    0    0    0  501 -0.00000000000E+00 -0.00000000000E+00 -0.12553651483E+03  0.12553651483E+03  0.00000000000E+00 0. -1.
          1    1    1    2  502    0  0.23691770024E+02 -0.37704960310E+01 -0.11126024336E+03  0.11381721469E+03  0.00000000000E+00 0. -1.
         -1    1    1    2    0  501 -0.23691770024E+02  0.37704960310E+01 -0.19282733406E+01  0.24067298254E+02  0.00000000000E+00 0.  1.
</event>
<event>
 4    1  0.6934088E+001  0.2905609E+02  0.7546771E-02  0.1427980E+00
          2   -1    0    0  502    0  0.00000000000E+00  0.00000000000E+00  0.16433934355E+03  0.16433934355E+03  0.00000000000E+00 0. -1.
         -2   -1    0    0    0  501 -0.00000000000E+00 -0.00000000000E+00 -0.51712508683E+01  0.51712508683E+01  0.00000000000E+00 0.  1.
          1    1    1    2  502    0  0.28860231074E+02  0.33679790616E+01  0.86454119320E+02  0.91206200272E+02  0.00000000000E+00 0.  1.
         -1    1    1    2    0  501 -0.28860231074E+02 -0.33679790616E+01  0.72713973359E+02  0.78304394144E+02  0.00000000000E+00 0. -1.
</event>
<event>
 4    1  0.6934088E+001  0.2205539E+02  0.7546771E-02  0.1504713E+00
          2   -1    0    0  502    0  0.00000000000E+00  0.00000000000E+00  0.33649247475E+02  0.33649247475E+02  0.00000000000E+00 0.  1.
         -2   -1    0    0    0  501 -0.00000000000E+00 -0.00000000000E+00 -0.21786956516E+02  0.21786956516E+02  0.00000000000E+00 0. -1.
          1    1    1    2  502    0  0.17101599612E+00 -0.22054723854E+02  0.22009431277E+02  0.31158548680E+02  0.00000000000E+00 0.  1.
         -1    1    1    2    0  501 -0.17101599612E+00  0.22054723854E+02 -0.10147140318E+02  0.24277655311E+02  0.00000000000E+00 0. -1.
</event>
<event>
 4    1  0.6934088E+001  0.2087061E+02  0.7546771E-02  0.1521120E+00
          2   -1    0    0  502    0  0.00000000000E+00  0.00000000000E+00  0.18150544284E+03  0.18150544284E+03  0.00000000000E+00 0. -1.
         -2   -1    0    0    0  501 -0.00000000000E+00 -0.00000000000E+00 -0.24857717493E+01  0.24857717493E+01  0.00000000000E+00 0.  1.
          1    1    1    2  502    0 -0.17732482104E+02 -0.11006422766E+02  0.10661541422E+03  0.10863898385E+03  0.00000000000E+00 0. -1.
         -1    1    1    2    0  501  0.17732482104E+02  0.11006422766E+02  0.72404256875E+02  0.75352230739E+02  0.00000000000E+00 0.  1.
</event>
<event>
 4    1  0.6934088E+001  0.5772676E+02  0.7546771E-02  0.1267758E+00
          2   -1    0    0  502    0  0.00000000000E+00  0.00000000000E+00  0.88168186469E+03  0.88168186469E+03  0.00000000000E+00 0. -1.
         -2   -1    0    0    0  501 -0.00000000000E+00 -0.00000000000E+00 -0.10237596298E+02  0.10237596298E+02  0.00000000000E+00 0.  1.
          1    1    1    2  502    0  0.47708860775E+02 -0.32499900087E+02  0.78992047869E+03  0.79202698284E+03  0.00000000000E+00 0. -1.
         -1    1    1    2    0  501 -0.47708860775E+02  0.32499900087E+02  0.81523789704E+02  0.99892478144E+02  0.00000000000E+00 0.  1.
</event>
<event>
 4    1  0.6934088E+001  0.4672695E+02  0.7546771E-02  0.1313023E+00
          2   -1    0    0  502    0  0.00000000000E+00  0.00000000000E+00  0.38060007516E+03  0.38060007516E+03  0.00000000000E+00 0.  1.
         -2   -1    0    0    0  501 -0.00000000000E+00 -0.00000000000E+00 -0.61781854901E+01  0.61781854901E+01  0.00000000000E+00 0. -1.
          1    1    1    2  502    0 -0.61681685410E+01 -0.46318049476E+02  0.23890427701E+03  0.24343102017E+03  0.00000000000E+00 0.  1.
         -1    1    1    2    0  501  0.61681685410E+01  0.46318049476E+02  0.13551761266E+03  0.14334724047E+03  0.00000000000E+00 0. -1.
</event>
<event>
 4    1  0.6934088E+001  0.2246497E+02  0.7546771E-02  0.1499328E+00
          2   -1    0    0  502    0  0.00000000000E+00  0.00000000000E+00  0.28941043089E+03  0.28941043089E+03  0.00000000000E+00 0.  1.
         -2   -1    0    0    0  501 -0.00000000000E+00 -0.00000000000E+00 -0.17441431006E+01  0.17441431006E+01  0.00000000000E+00 0. -1.
          1    1    1    2  502    0 -0.22440621147E+02  0.10457436046E+01  0.14586310959E+03  0.14758293192E+03  0.00000000000E+00 0.  1.
         -1    1    1    2    0  501  0.22440621147E+02 -0.10457436046E+01  0.14180317820E+03  0.14357164207E+03  0.00000000000E+00 0. -1.
</event>
<event>
 4    1  0.6934088E+001  0.2763845E+02  0.7546771E-02  0.1441298E+00
          2   -1    0    0  502    0  0.00000000000E+00  0.00000000000E+00  0.19486482075E+01  0.19486482075E+01  0.00000000000E+00 0.  1.
         -2   -1    0    0    0  501 -0.00000000000E+00 -0.00000000000E+00 -0.44451098212E+03  0.44451098212E+03  0.00000000000E+00 0. -1.
          1    1    1    2  502    0  0.27466386114E+02  0.30792227177E+01 -0.29800080807E+03  0.29927974470E+03  0.00000000000E+00 0. -1.
         -1    1    1    2    0  501 -0.27466386114E+02 -0.30792227177E+01 -0.14456152584E+03  0.14717988563E+03  0.00000000000E+00 0.  1.
</event>
<event>
 4    1  0.6934088E+001  0.2928520E+02  0.7546771E-02  0.1425911E+00
          2   -1    0    0  502    0  0.00000000000E+00  0.00000000000E+00  0.94948053215E+03  0.94948053215E+03  0.00000000000E+00 0.  1.
         -2   -1    0    0    0  501 -0.00000000000E+00 -0.00000000000E+00 -0.17925079954E+01  0.17925079954E+01  0.00000000000E+00 0. -1.
          1    1    1    2  502    0  0.28151544815E+02  0.80692803077E+01  0.80885371219E+03  0.80938368558E+03  0.00000000000E+00 0.  1.
         -1    1    1    2    0  501 -0.28151544815E+02 -0.80692803077E+01  0.13883431197E+03  0.14188935457E+03  0.00000000000E+00 0. -1.
</event>
<event>
 4    1  0.6934088E+001  0.2075350E+02  0.7546771E-02  0.1522813E+00
          2   -1    0    0  502    0  0.00000000000E+00  0.00000000000E+00  0.60847173727E+03  0.60847173727E+03  0.00000000000E+00 0. -1.
         -2   -1    0    0    0  501 -0.00000000000E+00 -0.00000000000E+00 -0.74374078527E+00  0.74374078527E+00  0.00000000000E+00 0.  1.
          1    1    1    2  502    0 -0.42737078802E+01 -0.20308701547E+02  0.37077684388E+03  0.37135720795E+03  0.00000000000E+00 0. -1.
         -1    1    1    2    0  501  0.42737078802E+01  0.20308701547E+02  0.23695115261E+03  0.23785827011E+03  0.00000000000E+00 0.  1.
</event>
<event>
 4    1  0.6934088E+001  0.4608778E+02  0.7546771E-02  0.1316088E+00
          2   -1    0    0  502    0  0.00000000000E+00  0.00000000000E+00  0.44232897332E+02  0.44232897332E+02  0.00000000000E+00 0.  1.
         -2   -1    0    0    0  501 -0.00000000000E+00 -0.00000000000E+00 -0.76261329788E+02  0.76261329788E+02  0.00000000000E+00 0. -1.
          1    1    1    2  502    0 -0.16978473042E+02  0.42846412176E+02 -0.52676809239E+02  0.69992355403E+02  0.00000000000E+00 0. -1.
         -1    1    1    2    0  501  0.16978473042E+02 -0.42846412176E+02  0.20648376782E+02  0.50501871718E+02  0.00000000000E+00 0.  1.
</event>
<event>
 4    1  0.6934088E+001  0.2020436E+02  0.7546771E-02  0.1530934E+00
          2   -1    0    0  502    0  0.00000000000E+00  0.00000000000E+00  0.40586700291E+02  0.40586700291E+02  0.00000000000E+00 0. -1.
         -2   -1    0    0    0  501 -0.00000000000E+00 -0.00000000000E+00 -0.10141664436E+02  0.10141664436E+02  0.00000000000E+00 0.  1.
          1    1    1    2  502    0  0.10221457897E+02  0.17428075774E+02  0.12917063689E+02  0.23980545470E+02  0.00000000000E+00 0.  1.
         -1    1    1    2    0  501 -0.10221457897E+02 -0.17428075774E+02  0.17527972166E+02  0.26747819256E+02  0.00000000000E+00 0. -1.
</event>
<event>
 4    1  0.6934088E+001  0.2748878E+02  0.7546771E-02  0.1442759E+00
          2   -1    0    0  502    0  0.00000000000E+00  0.00000000000E+00  0.50449248790E+01  0.50449248790E+01  0.00000000000E+00 0. -1.
         -2   -1    0    0    0  501 -0.00000000000E+00 -0.00000000000E+00 -0.21041613191E+03  0.21041613191E+03  0.00000000000E+00 0.  1.
          1    1    1    2  502    0  0.18554549737E+02  0.20282060230E+02 -0.16051675905E+03  0.16285350232E+03  0.00000000000E+00 0.  1.
         -1    1    1    2    0  501 -0.18554549737E+02 -0.20282060230E+02 -0.44854447975E+02  0.52607554460E+02  0.00000000000E+00 0. -1.
</event>
<event>
 4    1  0.6934088E+001  0.2114794E+02  0.7546771E-02  0.1517163E+00
          2   -1    0    0  502    0  0.00000000000E+00  0.00000000000E+00  0.36992440901E+03  0.36992440901E+03  0.00000000000E+00 0. -1.
         -2   -1    0    0    0  501 -0.00000000000E+00 -0.00000000000E+00 -0.13538117287E+01  0.13538117287E+01  0.00000000000E+00 0.  1.
          1    1    1    2  502    0 -0.16758467081E+02 -0.12899192486E+02  0.12356900076E+03  0.12536559869E+03  0.00000000000E+00 0.  1.
         -1    1    1    2    0  501  0.16758467081E+02  0.12899192486E+02  0.24500159652E+03  0.24591262205E+03  0.00000000000E+00 0. -1.
</event>
<event>
 4    1  0.6934088E+001  0.2111790E+02  0.7546771E-02  0.1517588E+00
          2   -1    0    0  502    0  0.00000000000E+00  0.00000000000E+00  0.60777222793E+03  0.60777222793E+03  0.00000000000E+00 0. -1.
         -2   -1    0    0    0  501 -0.00000000000E+00 -0.00000000000E+00 -0.43199319431E+01  0.43199319431E+01  0.00000000000E+00 0.  1.
          1    1    1    2  502    0 -0.22202118241E+01 -0.21000869997E+02  0.58057138609E+03  0.58095533411E+03  0.00000000000E+00 0. -1.
         -1    1    1    2    0  501  0.22202118241E+01  0.21000869997E+02  0.22880909904E+02  0.31136825773E+02  0.00000000000E+00 0.  1.
</event>
<event>
 4    1  0.6934088E+001  0.3049910E+02  0.7546771E-02  0.1415308E+00
          2   -1    0    0  502    0  0.00000000000E+00  0.00000000000E+00  0.18299885496E+02  0.18299885496E+02  0.00000000000E+00 0.  1.
         -2   -1    0    0    0  501 -0.00000000000E+00 -0.00000000000E+00 -0.50873613055E+02  0.50873613055E+02  0.00000000000E+00 0. -1.
          1    1    1    2  502    0  0.30423511742E+02 -0.21459273987E+01 -0.17291970122E+02  0.35060052793E+02  0.00000000000E+00 0.  1.
         -1    1    1    2    0  501 -0.30423511742E+02  0.21459273987E+01 -0.15281757436E+02  0.34113445758E+02  0.00000000000E+00 0. -1.
</event>
<event>
 4    1  0.6934088E+001  0.2442497E+02  0.7546771E-02  0.1475340E+00
          2   -1    0    0  502    0  0.00000000000E+00  0.00000000000E+00  0.96746269275E+00  0.96746269275E+00  0.00000000000E+00 0.  1.
         -2   -1    0    0    0  501 -0.00000000000E+00 -0.00000000000E+00 -0.64275892185E+03  0.64275892185E+03  0.00000000000E+00 0. -1.
          1    1    1    2  502    0 -0.23466300875E+02  0.67758367507E+01 -0.38577391688E+03  0.38654636744E+03  0.00000000000E+00 0. -1.
         -1    1    1    2    0  501  0.23466300875E+02 -0.67758367507E+01 -0.25601754228E+03  0.25718001710E+03  0.00000000000E+00 0.  1.
</event>
<event>
 4    1  0.6934088E+001  0.2415417E+02  0.7546771E-02  0.1478492E+00
          2   -1    0    0  502    0  0.00000000000E+00  0.00000000000E+00  0.40906469428E+03  0.40906469428E+03  0.00000000000E+00 0. -1.
         -2   -1    0    0    0  501 -0.00000000000E+00 -0.00000000000E+00 -0.39316901260E+01  0.39316901260E+01  0.00000000000E+00 0.  1.
          1    1    1    2  502    0  0.10344937520E+02 -0.21826734759E+02  0.37723859678E+02  0.44794125414E+02  0.00000000000E+00 0.  1.
         -1    1    1    2    0  501 -0.10344937520E+02  0.21826734759E+02  0.36740914448E+03  0.36820225899E+03  0.00000000000E+00 0. -1.
</event>
<event>
 4    1  0.6934088E+001  0.2565145E+02  0.7546771E-02  0.1461646E+00
          2   -1    0    0  502    0  0.00000000000E+00  0.00000000000E+00  0.14063155726E+04  0.14063155726E+04  0.00000000000E+00 0.  1.
         -2   -1    0    0    0  501 -0.00000000000E+00 -0.00000000000E+00 -0.52062659512E+00  0.52062659512E+00  0.00000000000E+00 0. -1.
          1    1    1    2  502    0  0.21225568265E+01 -0.25563482791E+02  0.92677906804E+03  0.92713399131E+03  0.00000000000E+00 0.  1.
         -1    1    1    2    0  501 -0.21225568265E+01  0.25563482791E+02  0.47901587801E+03  0.47970220792E+03  0.00000000000E+00 0. -1.
</event>
<event>
 4    1  0.6934088E+001  0.2343079E+02  0.7546771E-02  0.1487158E+00
          2   -1    0    0  502    0  0.00000000000E+00  0.00000000000E+00  0.17683092219E+02  0.17683092219E+02  0.00000000000E+00 0. -1.
         -2   -1    0    0    0  501 -0.00000000000E+00 -0.00000000000E+00 -0.35586260101E+02  0.35586260101E+02  0.00000000000E+00 0.  1.
          1    1    1    2  502    0 -0.21007710557E+02 -0.10376799691E+02 -0.18464475554E+02  0.29831840911E+02  0.00000000000E+00 0.  1.
         -1    1    1    2    0  501  0.21007710557E+02  0.10376799691E+02  0.56130767206E+00  0.23437511408E+02  0.00000000000E+00 0. -1.
</event>
<event>
 4    1  0.6934088E+001  0.2730156E+02  0.7546771E-02  0.1444602E+00
          2   -1    0    0  502    0  0.00000000000E+00  0.00000000000E+00  0.10089074668E+04  0.10089074668E+04  0.00000000000E+00 0. -1.
         -2   -1    0    0    0  501 -0.00000000000E+00 -0.00000000000E+00 -0.77179301093E+00  0.77179301093E+00  0.00000000000E+00 0.  1.
          1    1    1    2  502    0  0.98695001785E+01  0.25455214588E+02  0.39967945322E+03  0.40061083399E+03  0.00000000000E+00 0. -1.
         -1    1    1    2    0  501 -0.98695001785E+01 -0.25455214588E+02  0.60845622061E+03  0.60906842586E+03  0.00000000000E+00 0.  1.
</event>
<event>
 4    1  0.6934088E+001  0.2257601E+02  0.7546771E-02  0.1497892E+00
          2   -1    0    0  502    0  0.00000000000E+00  0.00000000000E+00  0.30968302441E+03  0.30968302441E+03  0.00000000000E+00 0.  1.
         -2   -1    0    0    0  501 -0.00000000000E+00 -0.00000000000E+00 -0.17604881835E+01  0.17604881835E+01  0.00000000000E+00 0. -1.
          1    1    1    2  502    0  0.22143479947E+02  0.43980224391E+01  0.19370715307E+03  0.19501830031E+03  0.00000000000E+00 0.  1.
         -1    1    1    2    0  501 -0.22143479947E+02 -0.43980224391E+01  0.11421538316E+03  0.11642521228E+03  0.00000000000E+00 0. -1.
</event>
<event>
 4    1  0.6934088E+001  0.3147467E+02  0.7546771E-02  0.1407200E+00
          2   -1    0    0  502    0  0.00000000000E+00  0.00000000000E+00  0.27365335473E+03  0.27365335473E+03  0.00000000000E+00 0. -1.
         -2   -1    0    0    0  501 -0.00000000000E+00 -0.00000000000E+00 -0.73726022718E+01  0.73726022718E+01  0.00000000000E+00 0.  1.
          1    1    1    2  502    0  0.15702801999E+02 -0.27277771260E+02  0.32894610997E+02  0.45527027447E+02  0.00000000000E+00 0.  1.
         -1    1    1    2    0  501 -0.15702801999E+02  0.27277771260E+02  0.23338614146E+03  0.23549892956E+03  0.00000000000E+00 0. -1.
</event>
<event>
 4    1  0.6934088E+001  0.3109111E+02  0.7546771E-02  0.1410346E+00
          2   -1    0    0  502    0  0.00000000000E+00  0.00000000000E+00  0.17814896706E+04  0.17814896706E+04  0.00000000000E+00 0.  1.
         -2   -1    0    0    0  501 -0.00000000000E+00 -0.00000000000E+00 -0.58048991612E+00  0.58048991612E+00  0.00000000000E+00 0. -1.
          1    1    1    2  502    0 -0.25194482615E+02 -0.18217992773E+02  0.11180649245E+04  0.11184971313E+04  0.00000000000E+00 0.  1.
         -1    1    1    2    0  501  0.25194482615E+02  0.18217992773E+02  0.66284425618E+03  0.66357302926E+03  0.00000000000E+00 0. -1.
</event>
<event>
 4    1  0.6934088E+001  0.3485700E+02  0.7546771E-02  0.1381571E+00
          2   -1    0    0  502    0  0.00000000000E+00  0.00000000000E+00  0.45776562837E+01  0.45776562837E+01  0.00000000000E+00 0.  1.
         -2   -1    0    0    0  501 -0.00000000000E+00 -0.00000000000E+00 -0.33028566767E+03  0.33028566767E+03  0.00000000000E+00 0. -1.
          1    1    1    2  502    0 -0.33977173474E+02 -0.77821877467E+01 -0.88655797375E+02  0.95262065754E+02  0.00000000000E+00 0.  1.
         -1    1    1    2    0  501  0.33977173474E+02  0.77821877467E+01 -0.23705221401E+03  0.23960125820E+03  0.00000000000E+00 0. -1.
</event>
<event>
 4    1  0.6934088E+001  0.2290404E+02  0.7546771E-02  0.1493707E+00
          2   -1    0    0  502    0  0.00000000000E+00  0.00000000000E+00  0.30612727245E+03  0.30612727245E+03  0.00000000000E+00 0.  1.
         -2   -1    0    0    0  501 -0.00000000000E+00 -0.00000000000E+00 -0.18012679870E+01  0.18012679870E+01  0.00000000000E+00 0. -1.
          1    1    1    2  502    0  0.17084603383E+02 -0.15254886688E+02  0.11820630255E+03  0.12040483879E+03  0.00000000000E+00 0. -1.
         -1    1    1    2    0  501 -0.17084603383E+02  0.15254886688E+02  0.18611970191E+03  0.18752370165E+03  0.00000000000E+00 0.  1.
</event>
<event>
 4    1  0.6934088E+001  0.2455044E+02  0.7546771E-02  0.1473896E+00
          2   -1    0    0  502    0  0.00000000000E+00  0.00000000000E+00  0.11532482784E+04  0.11532482784E+04  0.00000000000E+00 0. -1.
         -2   -1    0    0    0  501 -0.00000000000E+00 -0.00000000000E+00 -0.53208057997E+00  0.53208057997E+00  0.00000000000E+00 0.  1.
          1    1    1    2  502    0 -0.24544790581E+02  0.52682631553E+00  0.65323413350E+03  0.65369530934E+03  0.00000000000E+00 0. -1.
         -1    1    1    2    0  501  0.24544790581E+02 -0.52682631553E+00  0.49948206427E+03  0.50008504959E+03  0.00000000000E+00 0.  1.
</event>
<event>
 4    1  0.6934088E+001  0.2686652E+02  0.7546771E-02  0.1448954E+00
          2   -1    0    0  502    0  0.00000000000E+00  0.00000000000E+00  0.98871731813E+03  0.98871731813E+03  0.00000000000E+00 0.  1.
         -2   -1    0    0    0  501 -0.00000000000E+00 -0.00000000000E+00 -0.84186130143E+00  0.84186130143E+00  0.00000000000E+00 0. -1.
          1    1    1    2  502    0 -0.26294452129E+02  0.55146659886E+01  0.31361898015E+03  0.31476765155E+03  0.00000000000E+00 0. -1.
         -1    1    1    2    0  501  0.26294452129E+02 -0.55146659886E+01  0.67425647668E+03  0.67479152788E+03  0.00000000000E+00 0.  1.
</event>
<event>
 4    1  0.6934088E+001  0.2412630E+02  0.7546771E-02  0.1478820E+00
          2   -1    0    0  502    0  0.00000000000E+00  0.00000000000E+00  0.21154034860E+03  0.21154034860E+03  0.00000000000E+00 0. -1.
         -2   -1    0    0    0  501 -0.00000000000E+00 -0.00000000000E+00 -0.51634877559E+01  0.51634877559E+01  0.00000000000E+00 0.  1.
          1    1    1    2  502    0 -0.15595359024E+02  0.18408228854E+02  0.29135541700E+02  0.37828004214E+02  0.00000000000E+00 0.  1.
         -1    1    1    2    0  501  0.15595359024E+02 -0.18408228854E+02  0.17724131914E+03  0.17887583214E+03  0.00000000000E+00 0. -1.
</event>
<event>
 4    1  0.6934088E+001  0.3787132E+02  0.7546771E-02  0.1361432E+00
          2   -1    0    0  502    0  0.00000000000E+00  0.00000000000E+00  0.52824996025E+03  0.52824996025E+03  0.00000000000E+00 0.  1.
         -2   -1    0    0    0  501 -0.00000000000E+00 -0.00000000000E+00 -0.47407881452E+01  0.47407881452E+01  0.00000000000E+00 0. -1.
          1    1    1    2  502    0 -0.18084794142E+02 -0.33274268316E+02  0.87552364741E+02  0.95392102833E+02  0.00000000000E+00 0. -1.
         -1    1    1    2    0  501  0.18084794142E+02  0.33274268316E+02  0.43595680737E+03  0.43759864557E+03  0.00000000000E+00 0.  1.
</event>
<event>
 4    1  0.6934088E+001  0.5731801E+02  0.7546771E-02  0.1269228E+00
          2   -1    0    0  502    0  0.00000000000E+00  0.00000000000E+00  0.13017731426E+04  0.13017731426E+04  0.00000000000E+00 0.  1.
         -2   -1    0    0    0  501 -0.00000000000E+00 -0.00000000000E+00 -0.29199352177E+01  0.29199352177E+01  0.00000000000E+00 0. -1.
          1    1    1    2  502    0  0.50668433374E+01 -0.57093616668E+02  0.40913466287E+03  0.41313015664E+03  0.00000000000E+00 0. -1.
         -1    1    1    2    0  501 -0.50668433374E+01  0.57093616668E+02  0.88971854453E+03  0.89156292120E+03  0.00000000000E+00 0.  1.
</event>
<event>
 4    1  0.6934088E+001  0.2987715E+02  0.7546771E-02  0.1420667E+00
          2   -1    0    0  502    0  0.00000000000E+00  0.00000000000E+00  0.29861910617E+03  0.29861910617E+03  0.00000000000E+00 0.  1.
         -2   -1    0    0    0  501 -0.00000000000E+00 -0.00000000000E+00 -0.29955536119E+01  0.29955536119E+01  0.00000000000E+00 0. -1.
          1    1    1    2  502    0  0.49200182800E+01  0.29469266495E+02  0.15473510094E+03  0.15759313345E+03  0.00000000000E+00 0.  1.
         -1    1    1    2    0  501 -0.49200182800E+01 -0.29469266495E+02  0.14088845162E+03  0.14402152634E+03  0.00000000000E+00 0. -1.
</event>
<event>
 4    1  0.6934088E+001  0.3303180E+02  0.7546771E-02  0.1394954E+00
          2   -1    0    0  502    0  0.00000000000E+00  0.00000000000E+00  0.34420500970E+03  0.34420500970E+03  0.00000000000E+00 0.  1.
         -2   -1    0    0    0  501 -0.00000000000E+00 -0.00000000000E+00 -0.34400754702E+01  0.34400754702E+01  0.00000000000E+00 0. -1.
          1    1    1    2  502    0  0.26867163420E+02  0.19216022466E+02  0.21909430261E+03  0.22157033517E+03  0.00000000000E+00 0.  1.
         -1    1    1    2    0  501 -0.26867163420E+02 -0.19216022466E+02  0.12167063161E+03  0.12607475000E+03  0.00000000000E+00 0. -1.
</event>
<event>
 4    1  0.6934088E+001  0.3845462E+02  0.7546771E-02  0.1357788E+00
          2   -1    0    0  502    0  0.00000000000E+00  0.00000000000E+00  0.26008063215E+03  0.26008063215E+03  0.00000000000E+00 0.  1.
         -2   -1    0    0    0  501 -0.00000000000E+00 -0.00000000000E+00 -0.56857919209E+01  0.56857919209E+01  0.00000000000E+00 0. -1.
          1    1    1    2  502    0 -0.33324588738E+02 -0.19189311140E+02  0.12747559773E+03  0.13314948702E+03  0.00000000000E+00 0.  1.
         -1    1    1    2    0  501  0.33324588738E+02  0.19189311140E+02  0.12691924250E+03  0.13261693705E+03  0.00000000000E+00 0. -1.
</event>
<event>
 4    1  0.6934088E+001  0.2368042E+02  0.7546771E-02  0.1484126E+00
          2   -1    0    0  502    0  0.00000000000E+00  0.00000000000E+00  0.22900586373E+02  0.22900586373E+02  0.00000000000E+00 0. -1.
         -2   -1    0    0    0  501 -0.00000000000E+00 -0.00000000000E+00 -0.32314410456E+02  0.32314410456E+02  0.00000000000E+00 0.  1.
          1    1    1    2  502    0 -0.70222111689E+01  0.22615273837E+02 -0.18294537324E+02  0.29924106609E+02  0.00000000000E+00 0.  1.
         -1    1    1    2    0  501  0.70222111689E+01 -0.22615273837E+02  0.88807132416E+01  0.25290890220E+02  0.00000000000E+00 0. -1.
</event>
<event>
 4    1  0.6934088E+001  0.3024888E+02  0.7546771E-02  0.1417446E+00
          2   -1    0    0  502    0  0.00000000000E+00  0.00000000000E+00  0.40955189604E+02  0.40955189604E+02  0.00000000000E+00 0.  1.
         -2   -1    0    0    0  501 -0.00000000000E+00 -0.00000000000E+00 -0.18622159029E+03  0.18622159029E+03  0.00000000000E+00 0. -1.
          1    1    1    2  502    0 -0.26750736631E+01  0.30130366975E+02 -0.17919025264E+03  0.18172545687E+03  0.00000000000E+00 0. -1.
         -1    1    1    2    0  501  0.26750736631E+01 -0.30130366975E+02  0.33923851955E+02  0.45451323024E+02  0.00000000000E+00 0.  1.
</event>
<event>
 4    1  0.6934088E+001  0.2363210E+02  0.7546771E-02  0.1484710E+00
          2   -1    0    0  502    0  0.00000000000E+00  0.00000000000E+00  0.24865287627E+01  0.24865287627E+01  0.00000000000E+00 0. -1.
         -2   -1    0    0    0  501 -0.00000000000E+00 -0.00000000000E+00 -0.30929196191E+03  0.30929196191E+03  0.00000000000E+00 0.  1.
          1    1    1    2  502    0 -0.32406420701E+01 -0.23408851236E+02 -0.71828828235E+02  0.75616510386E+02  0.00000000000E+00 0. -1.
         -1    1    1    2    0  501  0.32406420701E+01  0.23408851236E+02 -0.23497660491E+03  0.23616198029E+03  0.00000000000E+00 0.  1.
</event>
<event>
 4    1  0.6934088E+001  0.2342482E+02  0.7546771E-02  0.1487231E+00
          2   -1    0    0  502    0  0.00000000000E+00  0.00000000000E+00  0.31516897243E+02  0.31516897243E+02  0.00000000000E+00 0.  1.
         -2   -1    0    0    0  501 -0.00000000000E+00 -0.00000000000E+00 -0.17554691339E+02  0.17554691339E+02  0.00000000000E+00 0. -1.
          1    1    1    2  502    0  0.19830181257E+02  0.12469413095E+02  0.47567857036E+01  0.23902915341E+02  0.00000000000E+00 0. -1.
         -1    1    1    2    0  501 -0.19830181257E+02 -0.12469413095E+02  0.92054202002E+01  0.25168673240E+02  0.00000000000E+00 0.  1.
</event>
<event>
 4    1  0.6934088E+001  0.3363289E+02  0.7546771E-02  0.1390438E+00
          2   -1    0    0  502    0  0.00000000000E+00  0.00000000000E+00  0.63018089300E+03  0.63018089300E+03  0.00000000000E+00 0. -1.
         -2   -1    0    0    0  501 -0.00000000000E+00 -0.00000000000E+00 -0.19134973488E+01  0.19134973488E+01  0.00000000000E+00 0.  1.
          1    1    1    2  502    0  0.33189402887E+02  0.54437691418E+01  0.23548295278E+03  0.23787263847E+03  0.00000000000E+00 0.  1.
         -1    1    1    2    0  501 -0.33189402887E+02 -0.54437691418E+01  0.39278444287E+03  0.39422175187E+03  0.00000000000E+00 0. -1.
</event>
<event>
 4    1  0.6934088E+001  0.3132664E+02  0.7546771E-02  0.1408408E+00
          2   -1    0    0  502    0  0.00000000000E+00  0.00000000000E+00  0.35544651077E+01  0.35544651077E+01  0.00000000000E+00 0. -1.
         -2   -1    0    0    0  501 -0.00000000000E+00 -0.00000000000E+00 -0.39371801832E+03  0.39371801832E+03  0.00000000000E+00 0.  1.
          1    1    1    2  502    0 -0.25766206677E+02 -0.17817428847E+02 -0.86509694267E+02  0.92006985493E+02  0.00000000000E+00 0. -1.
         -1    1    1    2    0  501  0.25766206677E+02  0.17817428847E+02 -0.30365385894E+03  0.30526549793E+03  0.00000000000E+00 0.  1.
</event>
<event>
 4    1  0.6934088E+001  0.4499502E+02  0.7546771E-02  0.1321464E+00
          2   -1    0    0  502    0  0.00000000000E+00  0.00000000000E+00  0.10917842845E+03  0.10917842845E+03  0.00000000000E+00 0.  1.
         -2   -1    0    0    0  501 -0.00000000000E+00 -0.00000000000E+00 -0.96745927342E+02  0.96745927342E+02  0.00000000000E+00 0. -1.
          1    1    1    2  502    0 -0.25857709188E+02  0.36822969926E+02 -0.86353999957E+02  0.97373330780E+02  0.00000000000E+00 0. -1.
         -1    1    1    2    0  501  0.25857709188E+02 -0.36822969926E+02  0.98786501065E+02  0.10855102501E+03  0.00000000000E+00 0.  1.
</event>
<event>
 4    1  0.6934088E+001  0.2406702E+02  0.7546771E-02  0.1479517E+00
          2   -1    0    0  502    0  0.00000000000E+00  0.00000000000E+00  0.18989212139E+04  0.18989212139E+04  0.00000000000E+00 0.  1.
         -2   -1    0    0    0  501 -0.00000000000E+00 -0.00000000000E+00 -0.38141643987E+00  0.38141643987E+00  0.00000000000E+00 0. -1.
          1    1    1    2  502    0 -0.22694116355E+02 -0.80124065486E+01  0.13742632429E+04  0.13744739657E+04  0.00000000000E+00 0.  1.
         -1    1    1    2    0  501  0.22694116355E+02  0.80124065486E+01  0.52427655455E+03  0.52482866464E+03  0.00000000000E+00 0. -1.
</event>
<event>
 4    1  0.6934088E+001  0.3249200E+02  0.7546771E-02  0.1399108E+00
          2   -1    0    0  502    0  0.00000000000E+00  0.00000000000E+00  0.15775840670E+02  0.15775840670E+02  0.00000000000E+00 0. -1.
         -2   -1    0    0    0  501 -0.00000000000E+00 -0.00000000000E+00 -0.77689114850E+02  0.77689114850E+02  0.00000000000E+00 0.  1.
          1    1    1    2  502    0  0.14463985999E+02  0.29095070295E+02 -0.48355264449E+02  0.58257717140E+02  0.00000000000E+00 0.  1.
         -1    1    1    2    0  501 -0.14463985999E+02 -0.29095070295E+02 -0.13558009731E+02  0.35207238380E+02  0.00000000000E+00 0. -1.
</event>
<event>
 4    1  0.6934088E+001  0.2617906E+02  0.7546771E-02  0.1456033E+00
          2   -1    0    0  502    0  0.00000000000E+00  0.00000000000E+00  0.73008564084E+03  0.73008564084E+03  0.00000000000E+00 0. -1.
         -2   -1    0    0    0  501 -0.00000000000E+00 -0.00000000000E+00 -0.99469883462E+00  0.99469883462E+00  0.00000000000E+00 0.  1.
          1    1    1    2  502    0 -0.29460774772E+01  0.26012767361E+02  0.45126457928E+03  0.45202330023E+03  0.00000000000E+00 0. -1.
         -1    1    1    2    0  501  0.29460774772E+01 -0.26012767361E+02  0.27782636272E+03  0.27905703944E+03  0.00000000000E+00 0.  1.
</event>
<event>
 4    1  0.6934088E+001  0.4606607E+02  0.7546771E-02  0.1316193E+00
          2   -1    0    0  502    0  0.00000000000E+00  0.00000000000E+00  0.11853548329E+03  0.11853548329E+03  0.00000000000E+00 0.  1.
         -2   -1    0    0    0  501 -0.00000000000E+00 -0.00000000000E+00 -0.18692710955E+02  0.18692710955E+02  0.00000000000E+00 0. -1.
          1    1    1    2  502    0 -0.39092271829E+02 -0.24369592939E+02  0.35814026237E+02  0.58350040720E+02  0.00000000000E+00 0. -1.
         -1    1    1    2    0  501  0.39092271829E+02  0.24369592939E+02  0.64028746100E+02  0.78878153527E+02  0.00000000000E+00 0.  1.
</event>
<event>
 4    1  0.6934088E+001  0.2031212E+02  0.7546771E-02  0.1529317E+00
          2   -1    0    0  502    0  0.00000000000E+00  0.00000000000E+00  0.19032168652E+03  0.19032168652E+03  0.00000000000E+00 0. -1.
         -2   -1    0    0    0  501 -0.00000000000E+00 -0.00000000000E+00 -0.21952893415E+01  0.21952893415E+01  0.00000000000E+00 0.  1.
          1    1    1    2  502    0 -0.18242374566E+02 -0.89329735734E+01  0.83294700267E+02  0.85735578025E+02  0.00000000000E+00 0. -1.
         -1    1    1    2    0  501  0.18242374566E+02  0.89329735734E+01  0.10483169691E+03  0.10678139784E+03  0.00000000000E+00 0.  1.
</event>
<event>
 4    1  0.6934088E+001  0.3103498E+02  0.7546771E-02  0.1410811E+00
          2   -1    0    0  502    0  0.00000000000E+00  0.00000000000E+00  0.20391242005E+01  0.20391242005E+01  0.00000000000E+00 0. -1.
         -2   -1    0    0    0  501 -0.00000000000E+00 -0.00000000000E+00 -0.60172496639E+03  0.60172496639E+03  0.00000000000E+00 0.  1.
          1    1    1    2  502    0  0.12209958872E+02  0.28532209839E+02 -0.43982479625E+03  0.44091838416E+03  0.00000000000E+00 0.  1.
         -1    1    1    2    0  501 -0.12209958872E+02 -0.28532209839E+02 -0.15986104594E+03  0.16284570643E+03  0.00000000000E+00 0. -1.
</event>
<event>
 4    1  0.6934088E+001  0.4102484E+02  0.7546771E-02  0.1342583E+00
          2   -1    0    0  502    0  0.00000000000E+00  0.00000000000E+00  0.55620493553E+03  0.55620493553E+03  0.00000000000E+00 0.  1.
         -2   -1    0    0    0  501 -0.00000000000E+00 -0.00000000000E+00 -0.30426842235E+01  0.30426842235E+01  0.00000000000E+00 0. -1.
          1    1    1    2  502    0 -0.60720202043E+01 -0.40573000748E+02  0.29732994772E+03  0.30014685677E+03  0.00000000000E+00 0. -1.
         -1    1    1    2    0  501  0.60720202043E+01  0.40573000748E+02  0.25583230359E+03  0.25910076298E+03  0.00000000000E+00 0.  1.
</event>
<event>
 4    1  0.6934088E+001  0.3505738E+02  0.7546771E-02  0.1380160E+00
          2   -1    0    0  502    0  0.00000000000E+00  0.00000000000E+00  0.51353051433E+02  0.51353051433E+02  0.00000000000E+00 0. -1.
         -2   -1    0    0    0  501 -0.00000000000E+00 -0.00000000000E+00 -0.25068538249E+02  0.25068538249E+02  0.00000000000E+00 0.  1.
          1    1    1    2  502    0  0.31985255093E+02  0.14351416706E+02  0.50088892213E+01  0.35413396845E+02  0.00000000000E+00 0.  1.
         -1    1    1    2    0  501 -0.31985255093E+02 -0.14351416706E+02  0.21275623963E+02  0.41008192838E+02  0.00000000000E+00 0. -1.
</event>
<event>
 4    1  0.6934088E+001  0.6480101E+02  0.7546771E-02  0.1244338E+00
          2   -1    0    0  502    0  0.00000000000E+00  0.00000000000E+00  0.88443876239E+02  0.88443876239E+02  0.00000000000E+00 0. -1.
         -2   -1    0    0    0  501 -0.00000000000E+00 -0.00000000000E+00 -0.11053150871E+03  0.11053150871E+03  0.00000000000E+00 0.  1.
          1    1    1    2  502    0 -0.57282373677E+02 -0.30296881875E+02 -0.86185280208E+02  0.10782891036E+03  0.00000000000E+00 0.  1.
         -1    1    1    2    0  501  0.57282373677E+02  0.30296881875E+02  0.64097647733E+02  0.91146474591E+02  0.00000000000E+00 0. -1.
</event>
<event>
 4    1  0.6934088E+001  0.2394053E+02  0.7546771E-02  0.1481014E+00
          2   -1    0    0  502    0  0.00000000000E+00  0.00000000000E+00  0.32172400084E+04  0.32172400084E+04  0.00000000000E+00 0.  1.
         -2   -1    0    0    0  501 -0.00000000000E+00 -0.00000000000E+00 -0.17816058643E+00  0.17816058643E+00  0.00000000000E+00 0. -1.
          1    1    1    2  502    0  0.76031680454E+01 -0.22701119306E+02  0.16213479776E+04  0.16215247187E+04  0.00000000000E+00 0.  1.
         -1    1    1    2    0  501 -0.76031680454E+01  0.22701119306E+02  0.15957138703E+04  0.15958934503E+04  0.00000000000E+00 0. -1.
</event>
<event>
 4    1  0.6934088E+001  0.2464688E+02  0.7546771E-02  0.1472793E+00
          2   -1    0    0  502    0  0.00000000000E+00  0.00000000000E+00  0.61054004061E+02  0.61054004061E+02  0.00000000000E+00 0. -1.
         -2   -1    0    0    0  501 -0.00000000000E+00 -0.00000000000E+00 -0.99526501079E+01  0.99526501079E+01  0.00000000000E+00 0.  1.
          1    1    1    2  502    0  0.13052545244E+02  0.20906930694E+02  0.26162496183E+02  0.35943634971E+02  0.00000000000E+00 0.  1.
         -1    1    1    2    0  501 -0.13052545244E+02 -0.20906930694E+02  0.24938857770E+02  0.35063019198E+02  0.00000000000E+00 0. -1.
</event>
<event>
 4    1  0.6934088E+001  0.3115290E+02  0.7546771E-02  0.1409835E+00
          2   -1    0    0  502    0  0.00000000000E+00  0.00000000000E+00  0.31633043826E+03  0.31633043826E+03  0.00000000000E+00 0. -1.
         -2   -1    0    0    0  501 -0.00000000000E+00 -0.00000000000E+00 -0.42289811127E+01  0.42289811127E+01  0.00000000000E+00 0.  1.
          1    1    1    2  502    0 -0.26273049148E+02 -0.16740081250E+02  0.24003003387E+03  0.24204322050E+03  0.00000000000E+00 0. -1.
         -1    1    1    2    0  501  0.26273049148E+02  0.16740081250E+02  0.72071423282E+02  0.78516198875E+02  0.00000000000E+00 0.  1.
</event>
<event>
 4    1  0.6934088E+001  0.2205599E+02  0.7546771E-02  0.1504705E+00
          2   -1    0    0  502    0  0.00000000000E+00  0.00000000000E+00  0.27485111015E+02  0.27485111015E+02  0.00000000000E+00 0. -1.
         -2   -1    0    0    0  501 -0.00000000000E+00 -0.00000000000E+00 -0.24345598960E+02  0.24345598960E+02  0.00000000000E+00 0.  1.
          1    1    1    2  502    0  0.21725349012E+02  0.38047104389E+01  0.15110346294E+02  0.26735541444E+02  0.00000000000E+00 0. -1.
         -1    1    1    2    0  501 -0.21725349012E+02 -0.38047104389E+01 -0.11970834238E+02  0.25095168530E+02  0.00000000000E+00 0.  1.
</event>
<event>
 4    1  0.6934088E+001  0.3344651E+02  0.7546771E-02  0.1391826E+00
          2   -1    0    0  502    0  0.00000000000E+00  0.00000000000E+00  0.19035045991E+04  0.19035045991E+04  0.00000000000E+00 0. -1.
         -2   -1    0    0    0  501 -0.00000000000E+00 -0.00000000000E+00 -0.64735817789E+00  0.64735817789E+00  0.00000000000E+00 0.  1.
          1    1    1    2  502    0 -0.27870223592E+02  0.18491066955E+02  0.66237798929E+03  0.66322188566E+03  0.00000000000E+00 0.  1.
         -1    1    1    2    0  501  0.27870223592E+02 -0.18491066955E+02  0.12404792516E+04  0.12409300716E+04  0.00000000000E+00 0. -1.
</event>
<event>
 4    1  0.6934088E+001  0.2173205E+02  0.7546771E-02  0.1509065E+00
          2   -1    0    0  502    0  0.00000000000E+00  0.00000000000E+00  0.98087768041E+02  0.98087768041E+02  0.00000000000E+00 0. -1.
         -2   -1    0    0    0  501 -0.00000000000E+00 -0.00000000000E+00 -0.49050190572E+01  0.49050190572E+01  0.00000000000E+00 0.  1.
          1    1    1    2  502    0 -0.15893271473E+02  0.14821811136E+02  0.53571774060E+02  0.57811911743E+02  0.00000000000E+00 0.  1.
         -1    1    1    2    0  501  0.15893271473E+02 -0.14821811136E+02  0.39610974924E+02  0.45180875355E+02  0.00000000000E+00 0. -1.
</event>
<event>
 4    1  0.6934088E+001  0.2405398E+02  0.7546771E-02  0.1479671E+00
          2   -1    0    0  502    0  0.00000000000E+00  0.00000000000E+00  0.16071092236E+02  0.16071092236E+02  0.00000000000E+00 0. -1.
         -2   -1    0    0    0  501 -0.00000000000E+00 -0.00000000000E+00 -0.38052016414E+02  0.38052016414E+02  0.00000000000E+00 0.  1.
          1    1    1    2  502    0 -0.53440686424E+01  0.23452821123E+02 -0.47094940823E+01  0.24510675690E+02  0.00000000000E+00 0. -1.
         -1    1    1    2    0  501  0.53440686424E+01 -0.23452821123E+02 -0.17271430096E+02  0.29612432960E+02  0.00000000000E+00 0.  1.
</event>
<event>
 4    1  0.6934088E+001  0.2242000E+02  0.7546771E-02  0.1499912E+00
          2   -1    0    0  502    0  0.00000000000E+00  0.00000000000E+00  0.10594211781E+04  0.10594211781E+04  0.00000000000E+00 0. -1.
         -2   -1    0    0    0  501 -0.00000000000E+00 -0.00000000000E+00 -0.47621469294E+00  0.47621469294E+00  0.00000000000E+00 0.  1.
          1    1    1    2  502    0  0.13035581871E+01 -0.22382074799E+02  0.49733467250E+03  0.49783976639E+03  0.00000000000E+00 0. -1.
         -1    1    1    2    0  501 -0.13035581871E+01  0.22382074799E+02  0.56161029086E+03  0.56205762635E+03  0.00000000000E+00 0.  1.
</event>
<event>
 4    1  0.6934088E+001  0.2139038E+02  0.7546771E-02  0.1513764E+00
          2   -1    0    0  502    0  0.00000000000E+00  0.00000000000E+00  0.12849492175E+03  0.12849492175E+03  0.00000000000E+00 0. -1.
         -2   -1    0    0    0  501 -0.00000000000E+00 -0.00000000000E+00 -0.35777987557E+01  0.35777987557E+01  0.00000000000E+00 0.  1.
          1    1    1    2  502    0 -0.45007349434E+01  0.20911524083E+02  0.67006471839E+02  0.70337868342E+02  0.00000000000E+00 0. -1.
         -1    1    1    2    0  501  0.45007349434E+01 -0.20911524083E+02  0.57910651154E+02  0.61734852163E+02  0.00000000000E+00 0.  1.
</event>
<event>
 4    1  0.6934088E+001  0.4160238E+02  0.7546771E-02  0.1339343E+00
          2   -1    0    0  502    0  0.00000000000E+00  0.00000000000E+00  0.34414435627E+04  0.34414435627E+04  0.00000000000E+00 0.  1.
         -2   -1    0    0    0  501 -0.00000000000E+00 -0.00000000000E+00 -0.51053532397E+00  0.51053532397E+00  0.00000000000E+00 0. -1.
          1    1    1    2  502    0  0.81608978913E+01  0.40794091316E+02  0.15102285173E+04  0.15108014206E+04  0.00000000000E+00 0.  1.
         -1    1    1    2    0  501 -0.81608978913E+01 -0.40794091316E+02  0.19307045101E+04  0.19311526774E+04  0.00000000000E+00 0. -1.
</event>
<event>
 4    1  0.6934088E+001  0.6517142E+02  0.7546771E-02  0.1243207E+00
          2   -1    0    0  502    0  0.00000000000E+00  0.00000000000E+00  0.24238708450E+03  0.24238708450E+03  0.00000000000E+00 0.  1.
         -2   -1    0    0    0  501 -0.00000000000E+00 -0.00000000000E+00 -0.22240636772E+02  0.22240636772E+02  0.00000000000E+00 0. -1.
          1    1    1    2  502    0  0.47429376127E-01  0.65171403478E+02  0.49133484674E+02  0.81617482178E+02  0.00000000000E+00 0. -1.
         -1    1    1    2    0  501 -0.47429376127E-01 -0.65171403478E+02  0.17101296305E+03  0.18301023909E+03  0.00000000000E+00 0.  1.
</event>
<event>
 4    1  0.6934088E+001  0.2198935E+02  0.7546771E-02  0.1505594E+00
          2   -1    0    0  502    0  0.00000000000E+00  0.00000000000E+00  0.76981575473E+03  0.76981575473E+03  0.00000000000E+00 0.  1.
         -2   -1    0    0    0  501 -0.00000000000E+00 -0.00000000000E+00 -0.81624826472E+00  0.81624826472E+00  0.00000000000E+00 0. -1.
          1    1    1    2  502    0  0.12093354805E+02  0.18365252209E+02  0.19951311497E+03  0.20072123645E+03  0.00000000000E+00 0. -1.
         -1    1    1    2    0  501 -0.12093354805E+02 -0.18365252209E+02  0.56948639150E+03  0.56991076655E+03  0.00000000000E+00 0.  1.
</event>
<event>
 4    1  0.6934088E+001  0.2086061E+02  0.7546771E-02  0.1521264E+00
          2   -1    0    0  502    0  0.00000000000E+00  0.00000000000E+00  0.46547264941E+03  0.46547264941E+03  0.00000000000E+00 0. -1.
         -2   -1    0    0    0  501 -0.00000000000E+00 -0.00000000000E+00 -0.15899704245E+01  0.15899704245E+01  0.00000000000E+00 0.  1.
          1    1    1    2  502    0  0.57864602202E+01  0.20042003984E+02  0.82042459725E+02  0.84652999021E+02  0.00000000000E+00 0.  1.
         -1    1    1    2    0  501 -0.57864602202E+01 -0.20042003984E+02  0.38184021926E+03  0.38240962082E+03  0.00000000000E+00 0. -1.
</event>
<event>
 4    1  0.6934088E+001  0.2052178E+02  0.7546771E-02  0.1526203E+00
          2   -1    0    0  502    0  0.00000000000E+00  0.00000000000E+00  0.38346595388E+03  0.38346595388E+03  0.00000000000E+00 0. -1.
         -2   -1    0    0    0  501 -0.00000000000E+00 -0.00000000000E+00 -0.13082144302E+01  0.13082144302E+01  0.00000000000E+00 0.  1.
          1    1    1    2  502    0  0.14042481666E+01 -0.20473679974E+02  0.26815216232E+03  0.26893628547E+03  0.00000000000E+00 0.  1.
         -1    1    1    2    0  501 -0.14042481666E+01  0.20473679974E+02  0.11400557714E+03  0.11583788285E+03  0.00000000000E+00 0. -1.
</event>
<event>
 4    1  0.6934088E+001  0.2114714E+02  0.7546771E-02  0.1517174E+00
          2   -1    0    0  502    0  0.00000000000E+00  0.00000000000E+00  0.10621889127E+04  0.10621889127E+04  0.00000000000E+00 0. -1.
         -2   -1    0    0    0  501 -0.00000000000E+00 -0.00000000000E+00 -0.42349018761E+00  0.42349018761E+00  0.00000000000E+00 0.  1.
          1    1    1    2  502    0 -0.20869087368E+02  0.34180156607E+01  0.57146927573E+03  0.57186041544E+03  0.00000000000E+00 0. -1.
         -1    1    1    2    0  501  0.20869087368E+02 -0.34180156607E+01  0.49029614682E+03  0.49075198749E+03  0.00000000000E+00 0.  1.
</event>
<event>
 4    1  0.6934088E+001  0.2293722E+02  0.7546771E-02  0.1493288E+00
          2   -1    0    0  502    0  0.00000000000E+00  0.00000000000E+00  0.14798143937E+04  0.14798143937E+04  0.00000000000E+00 0. -1.
         -2   -1    0    0    0  501 -0.00000000000E+00 -0.00000000000E+00 -0.45299863965E+00  0.45299863965E+00  0.00000000000E+00 0.  1.
          1    1    1    2  502    0  0.14709756722E+02  0.17599404497E+02  0.10829996972E+04  0.10832425676E+04  0.00000000000E+00 0. -1.
         -1    1    1    2    0  501 -0.14709756722E+02 -0.17599404497E+02  0.39636169782E+03  0.39702482477E+03  0.00000000000E+00 0.  1.
</event>
<event>
 4    1  0.6934088E+001  0.9198192E+02  0.7546771E-02  0.1178477E+00
          2   -1    0    0  502    0  0.00000000000E+00  0.00000000000E+00  0.15025104137E+04  0.15025104137E+04  0.00000000000E+00 0.  1.
         -2   -1    0    0    0  501 -0.00000000000E+00 -0.00000000000E+00 -0.64696202832E+01  0.64696202832E+01  0.00000000000E+00 0. -1.
          1    1    1    2  502    0  0.91911794192E+02  0.35911273356E+01  0.47638257455E+03  0.48518144178E+03  0.00000000000E+00 0.  1.
         -1    1    1    2    0  501 -0.91911794192E+02 -0.35911273356E+01  0.10196582189E+04  0.10237985922E+04  0.00000000000E+00 0. -1.
</event>
<event>
 4    1  0.6934088E+001  0.2319309E+02  0.7546771E-02  0.1490088E+00
          2   -1    0    0  502    0  0.00000000000E+00  0.00000000000E+00  0.35966271993E+01  0.35966271993E+01  0.00000000000E+00 0.  1.
         -2   -1    0    0    0  501 -0.00000000000E+00 -0.00000000000E+00 -0.15164291168E+03  0.15164291168E+03  0.00000000000E+00 0. -1.
          1    1    1    2  502    0 -0.38580600181E+01 -0.22869950481E+02 -0.83115436139E+02  0.86290758408E+02  0.00000000000E+00 0. -1.
         -1    1    1    2    0  501  0.38580600181E+01  0.22869950481E+02 -0.64930848345E+02  0.68948780474E+02  0.00000000000E+00 0.  1.
</event>
<event>
 4    1  0.6934088E+001  0.2256924E+02  0.7546771E-02  0.1497979E+00
          2   -1    0    0  502    0  0.00000000000E+00  0.00000000000E+00  0.39694179492E+01  0.39694179492E+01  0.00000000000E+00 0. -1.
         -2   -1    0    0    0  501 -0.00000000000E+00 -0.00000000000E+00 -0.16383557085E+03  0.16383557085E+03  0.00000000000E+00 0.  1.
          1    1    1    2  502    0 -0.39885797014E+01  0.22214003801E+02 -0.40870846375E+02  0.46688294211E+02  0.00000000000E+00 0. -1.
         -1    1    1    2    0  501  0.39885797014E+01 -0.22214003801E+02 -0.11899530653E+03  0.12111669459E+03  0.00000000000E+00 0.  1.
</event>
<event>
 4    1  0.6934088E+001  0.2280398E+02  0.7546771E-02  0.1494974E+00
          2   -1    0    0  502    0  0.00000000000E+00  0.00000000000E+00  0.10254185275E+04  0.10254185275E+04  0.00000000000E+00 0.  1.
         -2   -1    0    0    0  501 -0.00000000000E+00 -0.00000000000E+00 -0.21049209223E+01  0.21049209223E+01  0.00000000000E+00 0. -1.
          1    1    1    2  502    0 -0.17553769006E+02 -0.14556329115E+02  0.95927083479E+03  0.95954184693E+03  0.00000000000E+00 0.  1.
         -1    1    1    2    0  501  0.17553769006E+02  0.14556329115E+02  0.64042771772E+02  0.67981601481E+02  0.00000000000E+00 0. -1.
</event>
<event>
 4    1  0.6934088E+001  0.2816879E+02  0.7546771E-02  0.1436208E+00
          2   -1    0    0  502    0  0.00000000000E+00  0.00000000000E+00  0.24221381695E+03  0.24221381695E+03  0.00000000000E+00 0.  1.
         -2   -1    0    0    0  501 -0.00000000000E+00 -0.00000000000E+00 -0.44612053518E+01  0.44612053518E+01  0.00000000000E+00 0. -1.
          1    1    1    2  502    0  0.20012458252E+02 -0.19823775877E+02  0.55302989348E+02  0.62063686694E+02  0.00000000000E+00 0. -1.
         -1    1    1    2    0  501 -0.20012458252E+02  0.19823775877E+02  0.18244962225E+03  0.18461133560E+03  0.00000000000E+00 0.  1.
</event>
<event>
 4    1  0.6934088E+001  0.2224087E+02  0.7546771E-02  0.1502257E+00
          2   -1    0    0  502    0  0.00000000000E+00  0.00000000000E+00  0.25413949804E+02  0.25413949804E+02  0.00000000000E+00 0. -1.
         -2   -1    0    0    0  501 -0.00000000000E+00 -0.00000000000E+00 -0.24188222452E+02  0.24188222452E+02  0.00000000000E+00 0.  1.
          1    1    1    2  502    0  0.22233183908E+02 -0.58466996177E+00  0.11573489808E+02  0.25071935944E+02  0.00000000000E+00 0.  1.
         -1    1    1    2    0  501 -0.22233183908E+02  0.58466996177E+00 -0.10347762456E+02  0.24530236312E+02  0.00000000000E+00 0. -1.
</event>
<event>
 4    1  0.6934088E+001  0.4299252E+02  0.7546771E-02  0.1331789E+00
          2   -1    0    0  502    0  0.00000000000E+00  0.00000000000E+00  0.21933612092E+04  0.21933612092E+04  0.00000000000E+00 0. -1.
         -2   -1    0    0    0  501 -0.00000000000E+00 -0.00000000000E+00 -0.33362802962E+01  0.33362802962E+01  0.00000000000E+00 0.  1.
          1    1    1    2  502    0 -0.42312058052E+02  0.76188436017E+01  0.20445676575E+04  0.20450196241E+04  0.00000000000E+00 0. -1.
         -1    1    1    2    0  501  0.42312058052E+02 -0.76188436017E+01  0.14545727145E+03  0.15167786540E+03  0.00000000000E+00 0.  1.
</event>
<event>
 4    1  0.6934088E+001  0.3109200E+02  0.7546771E-02  0.1410338E+00
          2   -1    0    0  502    0  0.00000000000E+00  0.00000000000E+00  0.17982675090E+04  0.17982675090E+04  0.00000000000E+00 0. -1.
         -2   -1    0    0    0  501 -0.00000000000E+00 -0.00000000000E+00 -0.53933333917E+00  0.53933333917E+00  0.00000000000E+00 0.  1.
          1    1    1    2  502    0  0.53480105315E+01 -0.30628603184E+02  0.84758201063E+03  0.84815209561E+03  0.00000000000E+00 0. -1.
         -1    1    1    2    0  501 -0.53480105315E+01  0.30628603184E+02  0.95014616507E+03  0.95065474677E+03  0.00000000000E+00 0.  1.
</event>
<event>
 4    1  0.6934088E+001  0.2879013E+02  0.7546771E-02  0.1430410E+00
          2   -1    0    0  502    0  0.00000000000E+00  0.00000000000E+00  0.26898039656E+02  0.26898039656E+02  0.00000000000E+00 0. -1.
         -2   -1    0    0    0  501 -0.00000000000E+00 -0.00000000000E+00 -0.43669874342E+02  0.43669874342E+02  0.00000000000E+00 0.  1.
          1    1    1    2  502    0 -0.23496603142E+02  0.16636747554E+02 -0.27529129261E+02  0.39833712936E+02  0.00000000000E+00 0.  1.
         -1    1    1    2    0  501  0.23496603142E+02 -0.16636747554E+02  0.10757294575E+02  0.30734201063E+02  0.00000000000E+00 0. -1.
</event>
<event>
 4    1  0.6934088E+001  0.2068316E+02  0.7546771E-02  0.1523837E+00
          2   -1    0    0  502    0  0.00000000000E+00  0.00000000000E+00  0.15418735184E+02  0.15418735184E+02  0.00000000000E+00 0. -1.
         -2   -1    0    0    0  501 -0.00000000000E+00 -0.00000000000E+00 -0.39793233887E+02  0.39793233887E+02  0.00000000000E+00 0.  1.
          1    1    1    2  502    0 -0.12297450195E+02 -0.16630263572E+02 -0.27377332606E+02  0.34311970046E+02  0.00000000000E+00 0.  1.
         -1    1    1    2    0  501  0.12297450195E+02  0.16630263572E+02  0.30028339030E+01  0.20899999025E+02  0.00000000000E+00 0. -1.
</event>
<event>
 4    1  0.6934088E+001  0.2812133E+02  0.7546771E-02  0.1436658E+00
          2   -1    0    0  502    0  0.00000000000E+00  0.00000000000E+00  0.95245758218E+02  0.95245758218E+02  0.00000000000E+00 0.  1.
         -2   -1    0    0    0  501 -0.00000000000E+00 -0.00000000000E+00 -0.14461828146E+02  0.14461828146E+02  0.00000000000E+00 0. -1.
          1    1    1    2  502    0  0.79875830779E+01  0.26963077184E+02  0.76189261065E+02  0.81213376462E+02  0.00000000000E+00 0.  1.
         -1    1    1    2    0  501 -0.79875830779E+01 -0.26963077184E+02  0.45946690062E+01  0.28494209902E+02  0.00000000000E+00 0. -1.
</event>
<event>
 4    1  0.6934088E+001  0.2974339E+02  0.7546771E-02  0.1421840E+00
          2   -1    0    0  502    0  0.00000000000E+00  0.00000000000E+00  0.86461362661E+03  0.86461362661E+03  0.00000000000E+00 0.  1.
         -2   -1    0    0    0  501 -0.00000000000E+00 -0.00000000000E+00 -0.12769494205E+01  0.12769494205E+01  0.00000000000E+00 0. -1.
          1    1    1    2  502    0 -0.75643739704E+01 -0.28765424108E+02  0.23867071984E+03  0.24051690562E+03  0.00000000000E+00 0. -1.
         -1    1    1    2    0  501  0.75643739704E+01  0.28765424108E+02  0.62466595735E+03  0.62537367041E+03  0.00000000000E+00 0.  1.
</event>
<event>
 4    1  0.6934088E+001  0.2128428E+02  0.7546771E-02  0.1515245E+00
          2   -1    0    0  502    0  0.00000000000E+00  0.00000000000E+00  0.62803172239E+03  0.62803172239E+03  0.00000000000E+00 0. -1.
         -2   -1    0    0    0  501 -0.00000000000E+00 -0.00000000000E+00 -0.81805396626E+00  0.81805396626E+00  0.00000000000E+00 0.  1.
          1    1    1    2  502    0 -0.98579766322E+01  0.18863744793E+02  0.20549226228E+03  0.20659160300E+03  0.00000000000E+00 0.  1.
         -1    1    1    2    0  501  0.98579766322E+01 -0.18863744793E+02  0.42172140614E+03  0.42225817335E+03  0.00000000000E+00 0. -1.
</event>
<event>
 4    1  0.6934088E+001  0.2080880E+02  0.7546771E-02  0.1522012E+00
          2   -1    0    0  502    0  0.00000000000E+00  0.00000000000E+00  0.23971542718E+03  0.23971542718E+03  0.00000000000E+00 0. -1.
         -2   -1    0    0    0  501 -0.00000000000E+00 -0.00000000000E+00 -0.18814886594E+01  0.18814886594E+01  0.00000000000E+00 0.  1.
          1    1    1    2  502    0 -0.98615147476E+00  0.20785421543E+02  0.94774197273E+02  0.97031720134E+02  0.00000000000E+00 0.  1.
         -1    1    1    2    0  501  0.98615147476E+00 -0.20785421543E+02  0.14305974125E+03  0.14456519570E+03  0.00000000000E+00 0. -1.
</event>
<event>
 4    1  0.6934088E+001  0.2640343E+02  0.7546771E-02  0.1453695E+00
          2   -1    0    0  502    0  0.00000000000E+00  0.00000000000E+00  0.86151407110E+03  0.86151407110E+03  0.00000000000E+00 0.  1.
         -2   -1    0    0    0  501 -0.00000000000E+00 -0.00000000000E+00 -0.18451957945E+01  0.18451957945E+01  0.00000000000E+00 0. -1.
          1    1    1    2  502    0 -0.20912891088E+02  0.16118074711E+02  0.10637612599E+03  0.10960393026E+03  0.00000000000E+00 0. -1.
         -1    1    1    2    0  501  0.20912891088E+02 -0.16118074711E+02  0.75329274931E+03  0.75375533664E+03  0.00000000000E+00 0.  1.
</event>
<event>
 4    1  0.6934088E+001  0.2518950E+02  0.7546771E-02  0.1466695E+00
          2   -1    0    0  502    0  0.00000000000E+00  0.00000000000E+00  0.65105425423E+01  0.65105425423E+01  0.00000000000E+00 0. -1.
         -2   -1    0    0    0  501 -0.00000000000E+00 -0.00000000000E+00 -0.98883486385E+02  0.98883486385E+02  0.00000000000E+00 0.  1.
          1    1    1    2  502    0 -0.25189448719E+02  0.51426990535E-01 -0.39861579545E+02  0.47153541705E+02  0.00000000000E+00 0.  1.
         -1    1    1    2    0  501  0.25189448719E+02 -0.51426990535E-01 -0.52511364298E+02  0.58240487222E+02  0.00000000000E+00 0. -1.
</event>
<event>
 4    1  0.6934088E+001  0.2794629E+02  0.7546771E-02  0.1438327E+00
          2   -1    0    0  502    0  0.00000000000E+00  0.00000000000E+00  0.27152363496E+02  0.27152363496E+02  0.00000000000E+00 0.  1.
         -2   -1    0    0    0  501 -0.00000000000E+00 -0.00000000000E+00 -0.29191327130E+02  0.29191327130E+02  0.00000000000E+00 0. -1.
          1    1    1    2  502    0  0.21533947784E+02 -0.17812478883E+02 -0.44302660146E+01  0.28295274660E+02  0.00000000000E+00 0.  1.
         -1    1    1    2    0  501 -0.21533947784E+02  0.17812478883E+02  0.23913023805E+01  0.28048415966E+02  0.00000000000E+00 0. -1.
</event>
<event>
 4    1  0.6934088E+001  0.2060089E+02  0.7546771E-02  0.1525040E+00
          2   -1    0    0  502    0  0.00000000000E+00  0.00000000000E+00  0.14601636368E+03  0.14601636368E+03  0.00000000000E+00 0.  1.
         -2   -1    0    0    0  501 -0.00000000000E+00 -0.00000000000E+00 -0.30088378346E+01  0.30088378346E+01  0.00000000000E+00 0. -1.
          1    1    1    2  502    0  0.13068284035E+02  0.15925340271E+02  0.57761787122E+02  0.61325529447E+02  0.00000000000E+00 0.  1.
         -1    1    1    2    0  501 -0.13068284035E+02 -0.15925340271E+02  0.85245738725E+02  0.87699672070E+02  0.00000000000E+00 0. -1.
</event>
<event>
 4    1  0.6934088E+001  0.2539393E+02  0.7546771E-02  0.1464444E+00
          2   -1    0    0  502    0  0.00000000000E+00  0.00000000000E+00  0.70795611661E+01  0.70795611661E+01  0.00000000000E+00 0.  1.
         -2   -1    0    0    0  501 -0.00000000000E+00 -0.00000000000E+00 -0.11168781053E+03  0.11168781053E+03  0.00000000000E+00 0. -1.
          1    1    1    2  502    0 -0.25178543815E+02 -0.33003792213E+01 -0.26799849208E+02  0.36919960579E+02  0.00000000000E+00 0.  1.
         -1    1    1    2    0  501  0.25178543815E+02  0.33003792213E+01 -0.77808400158E+02  0.81847411118E+02  0.00000000000E+00 0. -1.
</event>
<event>
 4    1  0.6934088E+001  0.2218224E+02  0.7546771E-02  0.1503030E+00
          2   -1    0    0  502    0  0.00000000000E+00  0.00000000000E+00  0.16046071617E+04  0.16046071617E+04  0.00000000000E+00 0. -1.
         -2   -1    0    0    0  501 -0.00000000000E+00 -0.00000000000E+00 -0.47551098619E+00  0.47551098619E+00  0.00000000000E+00 0.  1.
          1    1    1    2  502    0 -0.19714853493E+02  0.10167404806E+02  0.12803133925E+04  0.12805055387E+04  0.00000000000E+00 0. -1.
         -1    1    1    2    0  501  0.19714853493E+02 -0.10167404806E+02  0.32381825822E+03  0.32457713402E+03  0.00000000000E+00 0.  1.
</event>
<event>
 4    1  0.6934088E+001  0.3219198E+02  0.7546771E-02  0.1401458E+00
          2   -1    0    0  502    0  0.00000000000E+00  0.00000000000E+00  0.13839720196E+04  0.13839720196E+04  0.00000000000E+00 0. -1.
         -2   -1    0    0    0  501 -0.00000000000E+00 -0.00000000000E+00 -0.11204925724E+01  0.11204925724E+01  0.00000000000E+00 0.  1.
          1    1    1    2  502    0 -0.30606008346E+01 -0.32046155316E+02  0.10902982527E+04  0.10907733968E+04  0.00000000000E+00 0. -1.
         -1    1    1    2    0  501  0.30606008346E+01  0.32046155316E+02  0.29255327439E+03  0.29431911542E+03  0.00000000000E+00 0.  1.
</event>
<event>
 4    1  0.6934088E+001  0.2000317E+02  0.7546771E-02  0.1533987E+00
          2   -1    0    0  502    0  0.00000000000E+00  0.00000000000E+00  0.18267499505E+01  0.18267499505E+01  0.00000000000E+00 0.  1.
         -2   -1    0    0    0  501 -0.00000000000E+00 -0.00000000000E+00 -0.27574913172E+03  0.27574913172E+03  0.00000000000E+00 0. -1.
          1    1    1    2  502    0 -0.12341490972E+02 -0.15742127287E+02 -0.74020682321E+02  0.76675865709E+02  0.00000000000E+00 0. -1.
         -1    1    1    2    0  501  0.12341490972E+02  0.15742127287E+02 -0.19990169945E+03  0.20090001596E+03  0.00000000000E+00 0.  1.
</event>
<event>
 4    1  0.6934088E+001  0.5238894E+02  0.7546771E-02  0.1288134E+00
          2   -1    0    0  502    0  0.00000000000E+00  0.00000000000E+00  0.13316592698E+04  0.13316592698E+04  0.00000000000E+00 0.  1.
         -2   -1    0    0    0  501 -0.00000000000E+00 -0.00000000000E+00 -0.22712939290E+01  0.22712939290E+01  0.00000000000E+00 0. -1.
          1    1    1    2  502    0  0.40495093833E+02  0.33237749402E+02  0.46176668269E+03  0.46472902841E+03  0.00000000000E+00 0. -1.
         -1    1    1    2    0  501 -0.40495093833E+02 -0.33237749402E+02  0.86762129322E+03  0.86920153536E+03  0.00000000000E+00 0.  1.
</event>
<event>
 4    1  0.6934088E+001  0.2171486E+02  0.7546771E-02  0.1509298E+00
          2   -1    0    0  502    0  0.00000000000E+00  0.00000000000E+00  0.99693653946E+03  0.99693653946E+03  0.00000000000E+00 0. -1.
         -2   -1    0    0    0  501 -0.00000000000E+00 -0.00000000000E+00 -0.88811992891E+00  0.88811992891E+00  0.00000000000E+00 0.  1.
          1    1    1    2  502    0 -0.21652058507E+02  0.16503640019E+01  0.83912555265E+03  0.83940647392E+03  0.00000000000E+00 0. -1.
         -1    1    1    2    0  501  0.21652058507E+02 -0.16503640019E+01  0.15692286688E+03  0.15841818547E+03  0.00000000000E+00 0.  1.
</event>
<event>
 4    1  0.6934088E+001  0.3586156E+02  0.7546771E-02  0.1374605E+00
          2   -1    0    0  502    0  0.00000000000E+00  0.00000000000E+00  0.22676035625E+03  0.22676035625E+03  0.00000000000E+00 0.  1.
         -2   -1    0    0    0  501 -0.00000000000E+00 -0.00000000000E+00 -0.76023875706E+01  0.76023875706E+01  0.00000000000E+00 0. -1.
          1    1    1    2  502    0  0.35849121400E+02  0.94426896739E+00  0.50521887745E+02  0.61955728471E+02  0.00000000000E+00 0. -1.
         -1    1    1    2    0  501 -0.35849121400E+02 -0.94426896739E+00  0.16863608094E+03  0.17240701535E+03  0.00000000000E+00 0.  1.
</event>
<event>
 4    1  0.6934088E+001  0.5534681E+02  0.7546771E-02  0.1276518E+00
          2   -1    0    0  502    0  0.00000000000E+00  0.00000000000E+00  0.15344183589E+02  0.15344183589E+02  0.00000000000E+00 0. -1.
         -2   -1    0    0    0  501 -0.00000000000E+00 -0.00000000000E+00 -0.22755444665E+03  0.22755444665E+03  0.00000000000E+00 0.  1.
          1    1    1    2  502    0 -0.27899803188E+02  0.47800316063E+02 -0.14864430134E+03  0.15861398916E+03  0.00000000000E+00 0.  1.
         -1    1    1    2    0  501  0.27899803188E+02 -0.47800316063E+02 -0.63565961721E+02  0.84284641087E+02  0.00000000000E+00 0. -1.
</event>
<event>
 4    1  0.6934088E+001  0.2411423E+02  0.7546771E-02  0.1478961E+00
          2   -1    0    0  502    0  0.00000000000E+00  0.00000000000E+00  0.10331803219E+03  0.10331803219E+03  0.00000000000E+00 0. -1.
         -2   -1    0    0    0  501 -0.00000000000E+00 -0.00000000000E+00 -0.77961614989E+01  0.77961614989E+01  0.00000000000E+00 0.  1.
          1    1    1    2  502    0 -0.23210303745E+02  0.65404790313E+01  0.77057954957E+02  0.80742953179E+02  0.00000000000E+00 0. -1.
         -1    1    1    2    0  501  0.23210303745E+02 -0.65404790313E+01  0.18463915735E+02  0.30371240511E+02  0.00000000000E+00 0.  1.
</event>
<event>
 4    1  0.6934088E+001  0.4853013E+02  0.7546771E-02  0.1304674E+00
          2   -1    0    0  502    0  0.00000000000E+00  0.00000000000E+00  0.34477866581E+03  0.34477866581E+03  0.00000000000E+00 0.  1.
         -2   -1    0    0    0  501 -0.00000000000E+00 -0.00000000000E+00 -0.16147781473E+02  0.16147781473E+02  0.00000000000E+00 0. -1.
          1    1    1    2  502    0 -0.47688025466E+02 -0.90014060661E+01  0.30139285800E+03  0.30527500379E+03  0.00000000000E+00 0.  1.
         -1    1    1    2    0  501  0.47688025466E+02  0.90014060661E+01  0.27238026330E+02  0.55651443489E+02  0.00000000000E+00 0. -1.
</event>
<event>
 4    1  0.6934088E+001  0.2178023E+02  0.7546771E-02  0.1508410E+00
          2   -1    0    0  502    0  0.00000000000E+00  0.00000000000E+00  0.19037991405E+02  0.19037991405E+02  0.00000000000E+00 0. -1.
         -2   -1    0    0    0  501 -0.00000000000E+00 -0.00000000000E+00 -0.31095212562E+02  0.31095212562E+02  0.00000000000E+00 0.  1.
          1    1    1    2  502    0  0.70642552645E+01 -0.20602785922E+02 -0.17201455446E+02  0.27753712538E+02  0.00000000000E+00 0.  1.
         -1    1    1    2    0  501 -0.70642552645E+01  0.20602785922E+02  0.51442342891E+01  0.22379491429E+02  0.00000000000E+00 0. -1.
</event>
<event>
 4    1  0.6934088E+001  0.2221533E+02  0.7546771E-02  0.1502593E+00
          2   -1    0    0  502    0  0.00000000000E+00  0.00000000000E+00  0.75673253088E+03  0.75673253088E+03  0.00000000000E+00 0.  1.
         -2   -1    0    0    0  501 -0.00000000000E+00 -0.00000000000E+00 -0.65465540790E+00  0.65465540790E+00  0.00000000000E+00 0. -1.
          1    1    1    2  502    0 -0.19399440769E+02  0.10825094987E+02  0.40135553174E+03  0.40196987927E+03  0.00000000000E+00 0. -1.
         -1    1    1    2    0  501  0.19399440769E+02 -0.10825094987E+02  0.35472234374E+03  0.35541730702E+03  0.00000000000E+00 0.  1.
</event>
<event>
 4    1  0.6934088E+001  0.3207520E+02  0.7546771E-02  0.1402380E+00
          2   -1    0    0  502    0  0.00000000000E+00  0.00000000000E+00  0.48269831074E+02  0.48269831074E+02  0.00000000000E+00 0.  1.
         -2   -1    0    0    0  501 -0.00000000000E+00 -0.00000000000E+00 -0.28596677178E+02  0.28596677178E+02  0.00000000000E+00 0. -1.
          1    1    1    2  502    0  0.20243020526E+02  0.24880485336E+02  0.29231936467E+02  0.43397287244E+02  0.00000000000E+00 0.  1.
         -1    1    1    2    0  501 -0.20243020526E+02 -0.24880485336E+02 -0.95587825710E+01  0.33469221007E+02  0.00000000000E+00 0. -1.
</event>
<event>
 4    1  0.6934088E+001  0.2459059E+02  0.7546771E-02  0.1473436E+00
          2   -1    0    0  502    0  0.00000000000E+00  0.00000000000E+00  0.11251239050E+04  0.11251239050E+04  0.00000000000E+00 0.  1.
         -2   -1    0    0    0  501 -0.00000000000E+00 -0.00000000000E+00 -0.77125181603E+00  0.77125181603E+00  0.00000000000E+00 0. -1.
          1    1    1    2  502    0  0.48692740088E+01 -0.24103674089E+02  0.87212839993E+03  0.87247500990E+03  0.00000000000E+00 0.  1.
         -1    1    1    2    0  501 -0.48692740088E+01  0.24103674089E+02  0.25222425328E+03  0.25342014694E+03  0.00000000000E+00 0. -1.
</event>
<event>
 4    1  0.6934088E+001  0.2102298E+02  0.7546771E-02  0.1518937E+00
          2   -1    0    0  502    0  0.00000000000E+00  0.00000000000E+00  0.21489222462E+03  0.21489222462E+03  0.00000000000E+00 0. -1.
         -2   -1    0    0    0  501 -0.00000000000E+00 -0.00000000000E+00 -0.23060821078E+01  0.23060821078E+01  0.00000000000E+00 0.  1.
          1    1    1    2  502    0 -0.14109263056E+02  0.15585064480E+02  0.70579352734E+02  0.73643808777E+02  0.00000000000E+00 0.  1.
         -1    1    1    2    0  501  0.14109263056E+02 -0.15585064480E+02  0.14200678978E+03  0.14355449795E+03  0.00000000000E+00 0. -1.
</event>
<event>
 4    1  0.6934088E+001  0.2036200E+02  0.7546771E-02  0.1528572E+00
          2   -1    0    0  502    0  0.00000000000E+00  0.00000000000E+00  0.46352632496E+02  0.46352632496E+02  0.00000000000E+00 0.  1.
         -2   -1    0    0    0  501 -0.00000000000E+00 -0.00000000000E+00 -0.13745494025E+02  0.13745494025E+02  0.00000000000E+00 0. -1.
          1    1    1    2  502    0 -0.83562717267E+01 -0.18568349412E+02  0.34062091516E+02  0.39684215446E+02  0.00000000000E+00 0.  1.
         -1    1    1    2    0  501  0.83562717267E+01  0.18568349412E+02 -0.14549530453E+01  0.20413911076E+02  0.00000000000E+00 0. -1.
</event>
<event>
 4    1  0.6934088E+001  0.3154382E+02  0.7546771E-02  0.1406639E+00
          2   -1    0    0  502    0  0.00000000000E+00  0.00000000000E+00  0.54352694106E+03  0.54352694106E+03  0.00000000000E+00 0. -1.
         -2   -1    0    0    0  501 -0.00000000000E+00 -0.00000000000E+00 -0.20240553633E+01  0.20240553633E+01  0.00000000000E+00 0.  1.
          1    1    1    2  502    0  0.19968159346E+02 -0.24418949572E+02  0.35506905843E+03  0.35646745817E+03  0.00000000000E+00 0. -1.
         -1    1    1    2    0  501 -0.19968159346E+02  0.24418949572E+02  0.18643382727E+03  0.18908353825E+03  0.00000000000E+00 0.  1.
</event>
<event>
 4    1  0.6934088E+001  0.2354330E+02  0.7546771E-02  0.1485786E+00
          2   -1    0    0  502    0  0.00000000000E+00  0.00000000000E+00  0.21261505371E+03  0.21261505371E+03  0.00000000000E+00 0.  1.
         -2   -1    0    0    0  501 -0.00000000000E+00 -0.00000000000E+00 -0.33593320969E+01  0.33593320969E+01  0.00000000000E+00 0. -1.
          1    1    1    2  502    0 -0.21830197180E+02 -0.88164391441E+01  0.15573140665E+03  0.15750097817E+03  0.00000000000E+00 0.  1.
         -1    1    1    2    0  501  0.21830197180E+02  0.88164391441E+01  0.53524314961E+02  0.58473407632E+02  0.00000000000E+00 0. -1.
</event>
<event>
 4    1  0.6934088E+001  0.2197795E+02  0.7546771E-02  0.1505747E+00
          2   -1    0    0  502    0  0.00000000000E+00  0.00000000000E+00  0.24939656058E+03  0.24939656058E+03  0.00000000000E+00 0. -1.
         -2   -1    0    0    0  501 -0.00000000000E+00 -0.00000000000E+00 -0.22438395700E+01  0.22438395700E+01  0.00000000000E+00 0.  1.
          1    1    1    2  502    0 -0.20736551000E+02 -0.72818747749E+01  0.77033345662E+02  0.80107219347E+02  0.00000000000E+00 0.  1.
         -1    1    1    2    0  501  0.20736551000E+02  0.72818747749E+01  0.17011937534E+03  0.17153318080E+03  0.00000000000E+00 0. -1.
</event>
<event>
 4    1  0.6934088E+001  0.2064940E+02  0.7546771E-02  0.1524330E+00
          2   -1    0    0  502    0  0.00000000000E+00  0.00000000000E+00  0.40554416280E+03  0.40554416280E+03  0.00000000000E+00 0.  1.
         -2   -1    0    0    0  501 -0.00000000000E+00 -0.00000000000E+00 -0.17802837061E+01  0.17802837061E+01  0.00000000000E+00 0. -1.
          1    1    1    2  502    0  0.16391656601E+01  0.20584242909E+02  0.71568701203E+02  0.74488099131E+02  0.00000000000E+00 0. -1.
         -1    1    1    2    0  501 -0.16391656601E+01 -0.20584242909E+02  0.33219517789E+03  0.33283634738E+03  0.00000000000E+00 0.  1.
</event>
<event>
 4    1  0.6934088E+001  0.3518134E+02  0.7546771E-02  0.1379293E+00
          2   -1    0    0  502    0  0.00000000000E+00  0.00000000000E+00  0.27666945184E+02  0.27666945184E+02  0.00000000000E+00 0. -1.
         -2   -1    0    0    0  501 -0.00000000000E+00 -0.00000000000E+00 -0.49133722899E+02  0.49133722899E+02  0.00000000000E+00 0.  1.
          1    1    1    2  502    0  0.11943829280E+02  0.33091862808E+02  0.75415020981E+00  0.35189418644E+02  0.00000000000E+00 0. -1.
         -1    1    1    2    0  501 -0.11943829280E+02 -0.33091862808E+02 -0.22220927925E+02  0.41611249439E+02  0.00000000000E+00 0.  1.
</event>
<event>
 4    1  0.6934088E+001  0.3390534E+02  0.7546771E-02  0.1388427E+00
          2   -1    0    0  502    0  0.00000000000E+00  0.00000000000E+00  0.22490324385E+02  0.22490324385E+02  0.00000000000E+00 0. -1.
         -2   -1    0    0    0  501 -0.00000000000E+00 -0.00000000000E+00 -0.52220520569E+02  0.52220520569E+02  0.00000000000E+00 0.  1.
          1    1    1    2  502    0  0.15334510389E+02  0.30239453496E+02 -0.20302623716E+02  0.39519214141E+02  0.00000000000E+00 0. -1.
         -1    1    1    2    0  501 -0.15334510389E+02 -0.30239453496E+02 -0.94275724681E+01  0.35191630812E+02  0.00000000000E+00 0.  1.
</event>
<event>
 4    1  0.6934088E+001  0.2590769E+02  0.7546771E-02  0.1458900E+00
          2   -1    0    0  502    0  0.00000000000E+00  0.00000000000E+00  0.22652094384E+03  0.22652094384E+03  0.00000000000E+00 0. -1.
         -2   -1    0    0    0  501 -0.00000000000E+00 -0.00000000000E+00 -0.29808792234E+01  0.29808792234E+01  0.00000000000E+00 0.  1.
          1    1    1    2  502    0 -0.24183515515E+02 -0.92933174220E+01  0.10291221776E+03  0.10612319603E+03  0.00000000000E+00 0. -1.
         -1    1    1    2    0  501  0.24183515515E+02  0.92933174220E+01  0.12062784685E+03  0.12337862703E+03  0.00000000000E+00 0.  1.
</event>
<event>
 4    1  0.6934088E+001  0.2059186E+02  0.7546771E-02  0.1525172E+00
          2   -1    0    0  502    0  0.00000000000E+00  0.00000000000E+00  0.21912284600E+01  0.21912284600E+01  0.00000000000E+00 0. -1.
         -2   -1    0    0    0  501 -0.00000000000E+00 -0.00000000000E+00 -0.20545598023E+03  0.20545598023E+03  0.00000000000E+00 0.  1.
          1    1    1    2  502    0 -0.17265067457E+02  0.11222403597E+02 -0.76597508079E+02  0.79317104970E+02  0.00000000000E+00 0. -1.
         -1    1    1    2    0  501  0.17265067457E+02 -0.11222403597E+02 -0.12666724370E+03  0.12833010373E+03  0.00000000000E+00 0.  1.
</event>
<event>
 4    1  0.6934088E+001  0.8574066E+02  0.7546771E-02  0.1191113E+00
          2   -1    0    0  502    0  0.00000000000E+00  0.00000000000E+00  0.11527523887E+03  0.11527523887E+03  0.00000000000E+00 0. -1.
         -2   -1    0    0    0  501 -0.00000000000E+00 -0.00000000000E+00 -0.64508511036E+02  0.64508511036E+02  0.00000000000E+00 0.  1.
          1    1    1    2  502    0 -0.76131579242E+02 -0.39439105777E+02  0.34981219666E+02  0.92602085029E+02  0.00000000000E+00 0. -1.
         -1    1    1    2    0  501  0.76131579242E+02  0.39439105777E+02  0.15785508166E+02  0.87181664875E+02  0.00000000000E+00 0.  1.
</event>
<event>
 4    1  0.6934088E+001  0.2397907E+02  0.7546771E-02  0.1480557E+00
          2   -1    0    0  502    0  0.00000000000E+00  0.00000000000E+00  0.11958445520E+04  0.11958445520E+04  0.00000000000E+00 0.  1.
         -2   -1    0    0    0  501 -0.00000000000E+00 -0.00000000000E+00 -0.49412455899E+00  0.49412455899E+00  0.00000000000E+00 0. -1.
          1    1    1    2  502    0 -0.21852849551E+01 -0.23879291530E+02  0.49955265434E+03  0.50012783415E+03  0.00000000000E+00 0. -1.
         -1    1    1    2    0  501  0.21852849551E+01  0.23879291530E+02  0.69579777310E+03  0.69621084241E+03  0.00000000000E+00 0.  1.
</event>
<event>
 4    1  0.6934088E+001  0.2007441E+02  0.7546771E-02  0.1532901E+00
          2   -1    0    0  502    0  0.00000000000E+00  0.00000000000E+00  0.12456701418E+04  0.12456701418E+04  0.00000000000E+00 0.  1.
         -2   -1    0    0    0  501 -0.00000000000E+00 -0.00000000000E+00 -0.32419255406E+00  0.32419255406E+00  0.00000000000E+00 0. -1.
          1    1    1    2  502    0  0.19925824017E+02  0.24378903869E+01  0.65134246978E+03  0.65165174343E+03  0.00000000000E+00 0. -1.
         -1    1    1    2    0  501 -0.19925824017E+02 -0.24378903869E+01  0.59400347945E+03  0.59434259091E+03  0.00000000000E+00 0.  1.
</event>
<event>
 4    1  0.6934088E+001  0.3280576E+02  0.7546771E-02  0.1396682E+00
          2   -1    0    0  502    0  0.00000000000E+00  0.00000000000E+00  0.10875928439E+03  0.10875928439E+03  0.00000000000E+00 0. -1.
         -2   -1    0    0    0  501 -0.00000000000E+00 -0.00000000000E+00 -0.13108592434E+02  0.13108592434E+02  0.00000000000E+00 0.  1.
          1    1    1    2  502    0  0.95280869464E+01  0.31391616294E+02  0.17657192976E+02  0.37255797913E+02  0.00000000000E+00 0.  1.
         -1    1    1    2    0  501 -0.95280869464E+01 -0.31391616294E+02  0.77993498981E+02  0.84612078911E+02  0.00000000000E+00 0. -1.
</event>
<event>
 4    1  0.6934088E+001  0.2193293E+02  0.7546771E-02  0.1506350E+00
          2   -1    0    0  502    0  0.00000000000E+00  0.00000000000E+00  0.39638896397E+01  0.39638896397E+01  0.00000000000E+00 0.  1.
         -2   -1    0    0    0  501 -0.00000000000E+00 -0.00000000000E+00 -0.38561855803E+03  0.38561855803E+03  0.00000000000E+00 0. -1.
          1    1    1    2  502    0 -0.21534559060E+02  0.41612680777E+01 -0.29575064317E+02  0.36820345127E+02  0.00000000000E+00 0.  1.
         -1    1    1    2    0  501  0.21534559060E+02 -0.41612680777E+01 -0.35207960407E+03  0.35276210254E+03  0.00000000000E+00 0. -1.
</event>
<event>
 4    1  0.6934088E+001  0.2892461E+02  0.7546771E-02  0.1429177E+00
          2   -1    0    0  502    0  0.00000000000E+00  0.00000000000E+00  0.54176865660E+03  0.54176865660E+03  0.00000000000E+00 0.  1.
         -2   -1    0    0    0  501 -0.00000000000E+00 -0.00000000000E+00 -0.18058252707E+01  0.18058252707E+01  0.00000000000E+00 0. -1.
          1    1    1    2  502    0  0.22444058574E+02 -0.18245469984E+02  0.37341921891E+03  0.37453777645E+03  0.00000000000E+00 0.  1.
         -1    1    1    2    0  501 -0.22444058574E+02  0.18245469984E+02  0.16654361242E+03  0.16903670542E+03  0.00000000000E+00 0. -1.
</event>
<event>
 4    1  0.6934088E+001  0.2398539E+02  0.7546771E-02  0.1480482E+00
          2   -1    0    0  502    0  0.00000000000E+00  0.00000000000E+00  0.82456880749E+02  0.82456880749E+02  0.00000000000E+00 0. -1.
         -2   -1    0    0    0  501 -0.00000000000E+00 -0.00000000000E+00 -0.10123509327E+02  0.10123509327E+02  0.00000000000E+00 0.  1.
          1    1    1    2  502    0 -0.97405003414E+01  0.21918523066E+02  0.61973844987E+02  0.66453415735E+02  0.00000000000E+00 0. -1.
         -1    1    1    2    0  501  0.97405003414E+01 -0.21918523066E+02  0.10359526434E+02  0.26126974341E+02  0.00000000000E+00 0.  1.
</event>
<event>
 4    1  0.6934088E+001  0.3814303E+02  0.7546771E-02  0.1359725E+00
          2   -1    0    0  502    0  0.00000000000E+00  0.00000000000E+00  0.34096146310E+04  0.34096146310E+04  0.00000000000E+00 0. -1.
         -2   -1    0    0    0  501 -0.00000000000E+00 -0.00000000000E+00 -0.43299266288E+00  0.43299266288E+00  0.00000000000E+00 0.  1.
          1    1    1    2  502    0  0.12184103832E+02 -0.36144682012E+02  0.14990832416E+04  0.14995684231E+04  0.00000000000E+00 0. -1.
         -1    1    1    2    0  501 -0.12184103832E+02  0.36144682012E+02  0.19100983968E+04  0.19104792006E+04  0.00000000000E+00 0.  1.
</event>
<event>
 4    1  0.6934088E+001  0.2133798E+02  0.7546771E-02  0.1514494E+00
          2   -1    0    0  502    0  0.00000000000E+00  0.00000000000E+00  0.26599797840E+03  0.26599797840E+03  0.00000000000E+00 0. -1.
         -2   -1    0    0    0  501 -0.00000000000E+00 -0.00000000000E+00 -0.50670222609E+01  0.50670222609E+01  0.00000000000E+00 0.  1.
          1    1    1    2  502    0 -0.21315748172E+02 -0.97377028691E+00  0.24075493928E+03  0.24169867632E+03  0.00000000000E+00 0. -1.
         -1    1    1    2    0  501  0.21315748172E+02  0.97377028691E+00  0.20176016853E+02  0.29366324332E+02  0.00000000000E+00 0.  1.
</event>
<event>
 4    1  0.6934088E+001  0.2015809E+02  0.7546771E-02  0.1531633E+00
          2   -1    0    0  502    0  0.00000000000E+00  0.00000000000E+00  0.10578439659E+04  0.10578439659E+04  0.00000000000E+00 0.  1.
         -2   -1    0    0    0  501 -0.00000000000E+00 -0.00000000000E+00 -0.38573359985E+00  0.38573359985E+00  0.00000000000E+00 0. -1.
          1    1    1    2  502    0  0.15468947624E+02 -0.12925176456E+02  0.56285562513E+03  0.56321647993E+03  0.00000000000E+00 0. -1.
         -1    1    1    2    0  501 -0.15468947624E+02  0.12925176456E+02  0.49460260722E+03  0.49501321961E+03  0.00000000000E+00 0.  1.
</event>
<event>
 4    1  0.6934088E+001  0.4163437E+02  0.7546771E-02  0.1339166E+00
          2   -1    0    0  502    0  0.00000000000E+00  0.00000000000E+00  0.17071058131E+01  0.17071058131E+01  0.00000000000E+00 0. -1.
         -2   -1    0    0    0  501 -0.00000000000E+00 -0.00000000000E+00 -0.13894170821E+04  0.13894170821E+04  0.00000000000E+00 0.  1.
          1    1    1    2  502    0  0.24756476041E+01 -0.41560705277E+02 -0.33298021033E+03  0.33557300476E+03  0.00000000000E+00 0. -1.
         -1    1    1    2    0  501 -0.24756476041E+01  0.41560705277E+02 -0.10547297660E+04  0.10555511832E+04  0.00000000000E+00 0.  1.
</event>
<event>
 4    1  0.6934088E+001  0.2083287E+02  0.7546771E-02  0.1521664E+00
          2   -1    0    0  502    0  0.00000000000E+00  0.00000000000E+00  0.21397740328E+01  0.21397740328E+01  0.00000000000E+00 0. -1.
         -2   -1    0    0    0  501 -0.00000000000E+00 -0.00000000000E+00 -0.21660633544E+03  0.21660633544E+03  0.00000000000E+00 0.  1.
          1    1    1    2  502    0 -0.18434605617E+02  0.97043193962E+01 -0.13481716216E+03  0.13641728524E+03  0.00000000000E+00 0. -1.
         -1    1    1    2    0  501  0.18434605617E+02 -0.97043193962E+01 -0.79649399247E+02  0.82328824233E+02  0.00000000000E+00 0.  1.
</event>
<event>
 4    1  0.6934088E+001  0.2118772E+02  0.7546771E-02  0.1516601E+00
          2   -1    0    0  502    0  0.00000000000E+00  0.00000000000E+00  0.37918192143E+01  0.37918192143E+01  0.00000000000E+00 0. -1.
         -2   -1    0    0    0  501 -0.00000000000E+00 -0.00000000000E+00 -0.14944574368E+03  0.14944574368E+03  0.00000000000E+00 0.  1.
          1    1    1    2  502    0 -0.24247968358E+01  0.21048513743E+02 -0.37900612782E+02  0.43420916846E+02  0.00000000000E+00 0.  1.
         -1    1    1    2    0  501  0.24247968358E+01 -0.21048513743E+02 -0.10775331169E+03  0.10981664605E+03  0.00000000000E+00 0. -1.
</event>
<event>
 4    1  0.6934088E+001  0.2470756E+02  0.7546771E-02  0.1472102E+00
          2   -1    0    0  502    0  0.00000000000E+00  0.00000000000E+00  0.25945021437E+04  0.25945021437E+04  0.00000000000E+00 0.  1.
         -2   -1    0    0    0  501 -0.00000000000E+00 -0.00000000000E+00 -0.25522143428E+00  0.25522143428E+00  0.00000000000E+00 0. -1.
          1    1    1    2  502    0  0.19094862595E+02  0.15679601180E+02  0.16596700024E+04  0.16598539034E+04  0.00000000000E+00 0.  1.
         -1    1    1    2    0  501 -0.19094862595E+02 -0.15679601180E+02  0.93457691993E+03  0.93490346182E+03  0.00000000000E+00 0. -1.
</event>
<event>
 4    1  0.6934088E+001  0.2352457E+02  0.7546771E-02  0.1486014E+00
          2   -1    0    0  502    0  0.00000000000E+00  0.00000000000E+00  0.19997349698E+03  0.19997349698E+03  0.00000000000E+00 0.  1.
         -2   -1    0    0    0  501 -0.00000000000E+00 -0.00000000000E+00 -0.52553576606E+01  0.52553576606E+01  0.00000000000E+00 0. -1.
          1    1    1    2  502    0 -0.18663036457E+02  0.14321192669E+02  0.26755072548E+02  0.35626386237E+02  0.00000000000E+00 0. -1.
         -1    1    1    2    0  501  0.18663036457E+02 -0.14321192669E+02  0.16796306677E+03  0.16960246840E+03  0.00000000000E+00 0.  1.
</event>
<event>
 4    1  0.6934088E+001  0.6723276E+02  0.7546771E-02  0.1237058E+00
          2   -1    0    0  502    0  0.00000000000E+00  0.00000000000E+00  0.12867791419E+03  0.12867791419E+03  0.00000000000E+00 0. -1.
         -2   -1    0    0    0  501 -0.00000000000E+00 -0.00000000000E+00 -0.43614102663E+02  0.43614102663E+02  0.00000000000E+00 0.  1.
          1    1    1    2  502    0 -0.17248166095E+02  0.64982654470E+02  0.80530411041E+02  0.10490658568E+03  0.00000000000E+00 0. -1.
         -1    1    1    2    0  501  0.17248166095E+02 -0.64982654470E+02  0.45334004894E+01  0.67385431182E+02  0.00000000000E+00 0.  1.
</event>
<event>
 4    1  0.6934088E+001  0.3348906E+02  0.7546771E-02  0.1391508E+00
          2   -1    0    0  502    0  0.00000000000E+00  0.00000000000E+00  0.19464536573E+03  0.19464536573E+03  0.00000000000E+00 0. -1.
         -2   -1    0    0    0  501 -0.00000000000E+00 -0.00000000000E+00 -0.65702815039E+01  0.65702815039E+01  0.00000000000E+00 0.  1.
          1    1    1    2  502    0  0.23051022219E+02 -0.24293367090E+02  0.58746741959E+02  0.67621719889E+02  0.00000000000E+00 0.  1.
         -1    1    1    2    0  501 -0.23051022219E+02  0.24293367090E+02  0.12932834227E+03  0.13359392735E+03  0.00000000000E+00 0. -1.
</event>
<event>
 4    1  0.6934088E+001  0.2271043E+02  0.7546771E-02  0.1496167E+00
          2   -1    0    0  502    0  0.00000000000E+00  0.00000000000E+00  0.80095445925E+03  0.80095445925E+03  0.00000000000E+00 0. -1.
         -2   -1    0    0    0  501 -0.00000000000E+00 -0.00000000000E+00 -0.80734718962E+00  0.80734718962E+00  0.00000000000E+00 0.  1.
          1    1    1    2  502    0  0.45628451676E+00 -0.22705849335E+02  0.58042742632E+03  0.58087155294E+03  0.00000000000E+00 0. -1.
         -1    1    1    2    0  501 -0.45628451676E+00  0.22705849335E+02  0.21971968573E+03  0.22089025349E+03  0.00000000000E+00 0.  1.
</event>
<event>
 4    1  0.6934088E+001  0.3708681E+02  0.7546771E-02  0.1366458E+00
          2   -1    0    0  502    0  0.00000000000E+00  0.00000000000E+00  0.57878011332E+02  0.57878011332E+02  0.00000000000E+00 0. -1.
         -2   -1    0    0    0  501 -0.00000000000E+00 -0.00000000000E+00 -0.34268920507E+02  0.34268920507E+02  0.00000000000E+00 0.  1.
          1    1    1    2  502    0 -0.20225529563E+02 -0.31086321047E+02  0.37313373461E+02  0.52609117473E+02  0.00000000000E+00 0.  1.
         -1    1    1    2    0  501  0.20225529563E+02  0.31086321047E+02 -0.13704282636E+02  0.39537814366E+02  0.00000000000E+00 0. -1.
</event>
<event>
 4    1  0.6934088E+001  0.3536353E+02  0.7546771E-02  0.1378025E+00
          2   -1    0    0  502    0  0.00000000000E+00  0.00000000000E+00  0.15668198751E+04  0.15668198751E+04  0.00000000000E+00 0. -1.
         -2   -1    0    0    0  501 -0.00000000000E+00 -0.00000000000E+00 -0.80005193125E+00  0.80005193125E+00  0.00000000000E+00 0.  1.
          1    1    1    2  502    0 -0.30373216918E+02  0.18112065694E+02  0.82108526839E+03  0.82184645597E+03  0.00000000000E+00 0. -1.
         -1    1    1    2    0  501  0.30373216918E+02 -0.18112065694E+02  0.74493455478E+03  0.74577347106E+03  0.00000000000E+00 0.  1.
</event>
<event>
 4    1  0.6934088E+001  0.2484015E+02  0.7546771E-02  0.1470600E+00
          2   -1    0    0  502    0  0.00000000000E+00  0.00000000000E+00  0.31144540858E+03  0.31144540858E+03  0.00000000000E+00 0. -1.
         -2   -1    0    0    0  501 -0.00000000000E+00 -0.00000000000E+00 -0.20230747759E+01  0.20230747759E+01  0.00000000000E+00 0.  1.
          1    1    1    2  502    0  0.38929880548E+01 -0.24533193285E+02  0.13215946286E+03  0.13447362772E+03  0.00000000000E+00 0.  1.
         -1    1    1    2    0  501 -0.38929880548E+01  0.24533193285E+02  0.17726287094E+03  0.17899485563E+03  0.00000000000E+00 0. -1.
</event>
<event>
 4    1  0.6934088E+001  0.2143362E+02  0.7546771E-02  0.1513163E+00
          2   -1    0    0  502    0  0.00000000000E+00  0.00000000000E+00  0.12323423560E+04  0.12323423560E+04  0.00000000000E+00 0. -1.
         -2   -1    0    0    0  501 -0.00000000000E+00 -0.00000000000E+00 -0.38096990910E+00  0.38096990910E+00  0.00000000000E+00 0.  1.
          1    1    1    2  502    0  0.21425589615E+02  0.58653821961E+00  0.70631900542E+03  0.70664413769E+03  0.00000000000E+00 0.  1.
         -1    1    1    2    0  501 -0.21425589615E+02 -0.58653821961E+00  0.52564238064E+03  0.52607918819E+03  0.00000000000E+00 0. -1.
</event>
<event>
 4    1  0.6934088E+001  0.2811892E+02  0.7546771E-02  0.1436681E+00
          2   -1    0    0  502    0  0.00000000000E+00  0.00000000000E+00  0.94238950216E+01  0.94238950216E+01  0.00000000000E+00 0. -1.
         -2   -1    0    0    0  501 -0.00000000000E+00 -0.00000000000E+00 -0.90356461661E+02  0.90356461661E+02  0.00000000000E+00 0.  1.
          1    1    1    2  502    0  0.23977363732E+02 -0.14688763638E+02 -0.53801521292E+02  0.60706485997E+02  0.00000000000E+00 0.  1.
         -1    1    1    2    0  501 -0.23977363732E+02  0.14688763638E+02 -0.27131045347E+02  0.39073870686E+02  0.00000000000E+00 0. -1.
</event>
<event>
 4    1  0.6934088E+001  0.3379577E+02  0.7546771E-02  0.1389233E+00
          2   -1    0    0  502    0  0.00000000000E+00  0.00000000000E+00  0.10058942521E+04  0.10058942521E+04  0.00000000000E+00 0. -1.
         -2   -1    0    0    0  501 -0.00000000000E+00 -0.00000000000E+00 -0.21307276406E+01  0.21307276406E+01  0.00000000000E+00 0.  1.
          1    1    1    2  502    0  0.24179191153E+02 -0.23611871455E+02  0.84634829891E+03  0.84702278413E+03  0.00000000000E+00 0. -1.
         -1    1    1    2    0  501 -0.24179191153E+02  0.23611871455E+02  0.15741522555E+03  0.16100219562E+03  0.00000000000E+00 0.  1.
</event>
<event>
 4    1  0.6934088E+001  0.2035092E+02  0.7546771E-02  0.1528737E+00
          2   -1    0    0  502    0  0.00000000000E+00  0.00000000000E+00  0.23829806507E+01  0.23829806507E+01  0.00000000000E+00 0. -1.
         -2   -1    0    0    0  501 -0.00000000000E+00 -0.00000000000E+00 -0.22503047714E+03  0.22503047714E+03  0.00000000000E+00 0.  1.
          1    1    1    2  502    0  0.59219852080E+01  0.19470232079E+02 -0.57069519633E+02  0.60589519862E+02  0.00000000000E+00 0. -1.
         -1    1    1    2    0  501 -0.59219852080E+01 -0.19470232079E+02 -0.16557797686E+03  0.16682393793E+03  0.00000000000E+00 0.  1.
</event>
<event>
 4    1  0.6934088E+001  0.2970442E+02  0.7546771E-02  0.1422183E+00
          2   -1    0    0  502    0  0.00000000000E+00  0.00000000000E+00  0.23722398389E+03  0.23722398389E+03  0.00000000000E+00 0.  1.
         -2   -1    0    0    0  501 -0.00000000000E+00 -0.00000000000E+00 -0.37311650713E+01  0.37311650713E+01  0.00000000000E+00 0. -1.
          1    1    1    2  502    0  0.25017713120E+02  0.16014572774E+02  0.11000746012E+03  0.11394732903E+03  0.00000000000E+00 0.  1.
         -1    1    1    2    0  501 -0.25017713120E+02 -0.16014572774E+02  0.12348535870E+03  0.12700781994E+03  0.00000000000E+00 0. -1.
</event>
<event>
 4    1  0.6934088E+001  0.4507227E+02  0.7546771E-02  0.1321078E+00
          2   -1    0    0  502    0  0.00000000000E+00  0.00000000000E+00  0.64280134472E+03  0.64280134472E+03  0.00000000000E+00 0. -1.
         -2   -1    0    0    0  501 -0.00000000000E+00 -0.00000000000E+00 -0.47015141063E+01  0.47015141063E+01  0.00000000000E+00 0.  1.
          1    1    1    2  502    0  0.23458517695E+01  0.45011181792E+02  0.13369240364E+03  0.14108567715E+03  0.00000000000E+00 0.  1.
         -1    1    1    2    0  501 -0.23458517695E+01 -0.45011181792E+02  0.50440742697E+03  0.50641718167E+03  0.00000000000E+00 0. -1.
</event>
<event>
 4    1  0.6934088E+001  0.5669460E+02  0.7546771E-02  0.1271496E+00
          2   -1    0    0  502    0  0.00000000000E+00  0.00000000000E+00  0.25450160382E+04  0.25450160382E+04  0.00000000000E+00 0.  1.
         -2   -1    0    0    0  501 -0.00000000000E+00 -0.00000000000E+00 -0.12723229217E+01  0.12723229217E+01  0.00000000000E+00 0. -1.
          1    1    1    2  502    0  0.56676454418E+02 -0.14344282470E+01  0.13810310185E+04  0.13821942527E+04  0.00000000000E+00 0.  1.
         -1    1    1    2    0  501 -0.56676454418E+02  0.14344282470E+01  0.11627126968E+04  0.11640941085E+04  0.00000000000E+00 0. -1.
</event>
<event>
 4    1  0.6934088E+001  0.2974705E+02  0.7546771E-02  0.1421808E+00
          2   -1    0    0  502    0  0.00000000000E+00  0.00000000000E+00  0.20787695531E+03  0.20787695531E+03  0.00000000000E+00 0. -1.
         -2   -1    0    0    0  501 -0.00000000000E+00 -0.00000000000E+00 -0.42584036288E+01  0.42584036288E+01  0.00000000000E+00 0.  1.
          1    1    1    2  502    0 -0.26236851246E+01  0.29631119698E+02  0.99739739170E+02  0.10408123053E+03  0.00000000000E+00 0. -1.
         -1    1    1    2    0  501  0.26236851246E+01 -0.29631119698E+02  0.10387881251E+03  0.10805412841E+03  0.00000000000E+00 0.  1.
</event>
<event>
 4    1  0.6934088E+001  0.4048087E+02  0.7546771E-02  0.1345691E+00
          2   -1    0    0  502    0  0.00000000000E+00  0.00000000000E+00  0.15890727409E+04  0.15890727409E+04  0.00000000000E+00 0.  1.
         -2   -1    0    0    0  501 -0.00000000000E+00 -0.00000000000E+00 -0.12161243145E+01  0.12161243145E+01  0.00000000000E+00 0. -1.
          1    1    1    2  502    0 -0.26122501445E+02  0.30924360802E+02  0.48388842415E+03  0.48557873532E+03  0.00000000000E+00 0. -1.
         -1    1    1    2    0  501  0.26122501445E+02 -0.30924360802E+02  0.11039681924E+04  0.11047101299E+04  0.00000000000E+00 0.  1.
</event>
<event>
 4    1  0.6934088E+001  0.2329790E+02  0.7546771E-02  0.1488791E+00
          2   -1    0    0  502    0  0.00000000000E+00  0.00000000000E+00  0.48610190871E+02  0.48610190871E+02  0.00000000000E+00 0. -1.
         -2   -1    0    0    0  501 -0.00000000000E+00 -0.00000000000E+00 -0.12678473433E+02  0.12678473433E+02  0.00000000000E+00 0.  1.
          1    1    1    2  502    0  0.14349496660E+02 -0.18354402173E+02  0.73823706116E+01  0.24439548469E+02  0.00000000000E+00 0. -1.
         -1    1    1    2    0  501 -0.14349496660E+02  0.18354402173E+02  0.28549346826E+02  0.36849115834E+02  0.00000000000E+00 0.  1.
</event>
<event>
 4    1  0.6934088E+001  0.4834679E+02  0.7546771E-02  0.1305504E+00
          2   -1    0    0  502    0  0.00000000000E+00  0.00000000000E+00  0.84456697570E+03  0.84456697570E+03  0.00000000000E+00 0.  1.
         -2   -1    0    0    0  501 -0.00000000000E+00 -0.00000000000E+00 -0.31124549982E+01  0.31124549982E+01  0.00000000000E+00 0. -1.
          1    1    1    2  502    0 -0.28438425606E+02 -0.39098185977E+02  0.56181096139E+03  0.56388737221E+03  0.00000000000E+00 0.  1.
         -1    1    1    2    0  501  0.28438425606E+02  0.39098185977E+02  0.27964355931E+03  0.28379205849E+03  0.00000000000E+00 0. -1.
</event>
<event>
 4    1  0.6934088E+001  0.3103349E+02  0.7546771E-02  0.1410823E+00
          2   -1    0    0  502    0  0.00000000000E+00  0.00000000000E+00  0.28470976408E+03  0.28470976408E+03  0.00000000000E+00 0.  1.
         -2   -1    0    0    0  501 -0.00000000000E+00 -0.00000000000E+00 -0.66917162517E+01  0.66917162517E+01  0.00000000000E+00 0. -1.
          1    1    1    2  502    0 -0.24021283989E+02  0.19648293261E+02  0.24146677096E+03  0.24345282703E+03  0.00000000000E+00 0.  1.
         -1    1    1    2    0  501  0.24021283989E+02 -0.19648293261E+02  0.36551276873E+02  0.47948653304E+02  0.00000000000E+00 0. -1.
</event>
<event>
 4    1  0.6934088E+001  0.4621306E+02  0.7546771E-02  0.1315483E+00
          2   -1    0    0  502    0  0.00000000000E+00  0.00000000000E+00  0.16940943113E+02  0.16940943113E+02  0.00000000000E+00 0.  1.
         -2   -1    0    0    0  501 -0.00000000000E+00 -0.00000000000E+00 -0.14197541979E+03  0.14197541979E+03  0.00000000000E+00 0. -1.
          1    1    1    2  502    0  0.42721707354E+02 -0.17621096118E+02 -0.35917149960E+02  0.58529385516E+02  0.00000000000E+00 0.  1.
         -1    1    1    2    0  501 -0.42721707354E+02  0.17621096118E+02 -0.89117326715E+02  0.10038697738E+03  0.00000000000E+00 0. -1.
</event>
<event>
 4    1  0.6934088E+001  0.2028481E+02  0.7546771E-02  0.1529726E+00
          2   -1    0    0  502    0  0.00000000000E+00  0.00000000000E+00  0.52358581197E+00  0.52358581197E+00  0.00000000000E+00 0. -1.
         -2   -1    0    0    0  501 -0.00000000000E+00 -0.00000000000E+00 -0.11448422581E+04  0.11448422581E+04  0.00000000000E+00 0.  1.
          1    1    1    2  502    0  0.20279063915E+02 -0.48275331050E+00 -0.89283667134E+03  0.89306707205E+03  0.00000000000E+00 0.  1.
         -1    1    1    2    0  501 -0.20279063915E+02  0.48275331050E+00 -0.25148200093E+03  0.25229877185E+03  0.00000000000E+00 0. -1.
</event>
<event>
 4    1  0.6934088E+001  0.2186289E+02  0.7546771E-02  0.1507293E+00
          2   -1    0    0  502    0  0.00000000000E+00  0.00000000000E+00  0.12760848069E+04  0.12760848069E+04  0.00000000000E+00 0.  1.
         -2   -1    0    0    0  501 -0.00000000000E+00 -0.00000000000E+00 -0.40100717373E+00  0.40100717373E+00  0.00000000000E+00 0. -1.
          1    1    1    2  502    0  0.21614946850E+02  0.32832720541E+01  0.80171208805E+03  0.80201013581E+03  0.00000000000E+00 0.  1.
         -1    1    1    2    0  501 -0.21614946850E+02 -0.32832720541E+01  0.47397171171E+03  0.47447567831E+03  0.00000000000E+00 0. -1.
</event>
<event>
 4    1  0.6934088E+001  0.6983862E+02  0.7546771E-02  0.1229632E+00
          2   -1    0    0  502    0  0.00000000000E+00  0.00000000000E+00  0.16198853205E+04  0.16198853205E+04  0.00000000000E+00 0. -1.
         -2   -1    0    0    0  501 -0.00000000000E+00 -0.00000000000E+00 -0.30385887281E+01  0.30385887281E+01  0.00000000000E+00 0.  1.
          1    1    1    2  502    0  0.69317763330E+02  0.85135091443E+01  0.73106546360E+03  0.73439372561E+03  0.00000000000E+00 0.  1.
         -1    1    1    2    0  501 -0.69317763330E+02 -0.85135091443E+01  0.88578126821E+03  0.88853018365E+03  0.00000000000E+00 0. -1.
</event>
<event>
 4    1  0.6934088E+001  0.4948579E+02  0.7546771E-02  0.1300417E+00
          2   -1    0    0  502    0  0.00000000000E+00  0.00000000000E+00  0.10705459864E+03  0.10705459864E+03  0.00000000000E+00 0. -1.
         -2   -1    0    0    0  501 -0.00000000000E+00 -0.00000000000E+00 -0.38437413757E+02  0.38437413757E+02  0.00000000000E+00 0.  1.
          1    1    1    2  502    0  0.49379386795E+02  0.32434607470E+01 -0.11980053151E+02  0.50915278172E+02  0.00000000000E+00 0.  1.
         -1    1    1    2    0  501 -0.49379386795E+02 -0.32434607470E+01  0.80597238035E+02  0.94576734225E+02  0.00000000000E+00 0. -1.
</event>
<event>
 4    1  0.6934088E+001  0.3743185E+02  0.7546771E-02  0.1364230E+00
          2   -1    0    0  502    0  0.00000000000E+00  0.00000000000E+00  0.19515525351E+03  0.19515525351E+03  0.00000000000E+00 0. -1.
         -2   -1    0    0    0  501 -0.00000000000E+00 -0.00000000000E+00 -0.84011691702E+01  0.84011691702E+01  0.00000000000E+00 0.  1.
          1    1    1    2  502    0  0.23562169495E+02  0.29085526550E+02  0.13218650033E+03  0.13738418598E+03  0.00000000000E+00 0. -1.
         -1    1    1    2    0  501 -0.23562169495E+02 -0.29085526550E+02  0.54567584004E+02  0.66172236702E+02  0.00000000000E+00 0.  1.
</event>
<event>
 4    1  0.6934088E+001  0.2750653E+02  0.7546771E-02  0.1442585E+00
          2   -1    0    0  502    0  0.00000000000E+00  0.00000000000E+00  0.11911504013E+04  0.11911504013E+04  0.00000000000E+00 0. -1.
         -2   -1    0    0    0  501 -0.00000000000E+00 -0.00000000000E+00 -0.63542176142E+00  0.63542176142E+00  0.00000000000E+00 0.  1.
          1    1    1    2  502    0  0.24741759087E+02 -0.12018916059E+02  0.58392174607E+03  0.58456925554E+03  0.00000000000E+00 0. -1.
         -1    1    1    2    0  501 -0.24741759087E+02  0.12018916059E+02  0.60659323344E+03  0.60721656749E+03  0.00000000000E+00 0.  1.
</event>
<event>
 4    1  0.6934088E+001  0.2146381E+02  0.7546771E-02  0.1512745E+00
          2   -1    0    0  502    0  0.00000000000E+00  0.00000000000E+00  0.15469378509E+03  0.15469378509E+03  0.00000000000E+00 0.  1.
         -2   -1    0    0    0  501 -0.00000000000E+00 -0.00000000000E+00 -0.31837307376E+01  0.31837307376E+01  0.00000000000E+00 0. -1.
          1    1    1    2  502    0 -0.21455886464E+02  0.58302083111E+00  0.55693847189E+02  0.59686678514E+02  0.00000000000E+00 0. -1.
         -1    1    1    2    0  501  0.21455886464E+02 -0.58302083111E+00  0.95816207158E+02  0.98190837309E+02  0.00000000000E+00 0.  1.
</event>
<event>
 4    1  0.6934088E+001  0.2257969E+02  0.7546771E-02  0.1497845E+00
          2   -1    0    0  502    0  0.00000000000E+00  0.00000000000E+00  0.22294247966E+02  0.22294247966E+02  0.00000000000E+00 0. -1.
         -2   -1    0    0    0  501 -0.00000000000E+00 -0.00000000000E+00 -0.27993156398E+02  0.27993156398E+02  0.00000000000E+00 0.  1.
          1    1    1    2  502    0 -0.13493271330E+02 -0.18104525702E+02 -0.13607263894E+02  0.26362849860E+02  0.00000000000E+00 0.  1.
         -1    1    1    2    0  501  0.13493271330E+02  0.18104525702E+02  0.79083554626E+01  0.23924554504E+02  0.00000000000E+00 0. -1.
</event>
<event>
 4    1  0.6934088E+001  0.2432070E+02  0.7546771E-02  0.1476548E+00
          2   -1    0    0  502    0  0.00000000000E+00  0.00000000000E+00  0.37035156371E+02  0.37035156371E+02  0.00000000000E+00 0. -1.
         -2   -1    0    0    0  501 -0.00000000000E+00 -0.00000000000E+00 -0.18429948102E+02  0.18429948102E+02  0.00000000000E+00 0.  1.
          1    1    1    2  502    0  0.19867877277E+02  0.14027253796E+02 -0.82679287325E+00  0.24334748469E+02  0.00000000000E+00 0.  1.
         -1    1    1    2    0  501 -0.19867877277E+02 -0.14027253796E+02  0.19432001141E+02  0.31130356004E+02  0.00000000000E+00 0. -1.
</event>
<event>
 4    1  0.6934088E+001  0.2073666E+02  0.7546771E-02  0.1523058E+00
          2   -1    0    0  502    0  0.00000000000E+00  0.00000000000E+00  0.13940624559E+04  0.13940624559E+04  0.00000000000E+00 0. -1.
         -2   -1    0    0    0  501 -0.00000000000E+00 -0.00000000000E+00 -0.31973169458E+00  0.31973169458E+00  0.00000000000E+00 0.  1.
          1    1    1    2  502    0  0.15208760287E+02  0.14096187001E+02  0.56595204876E+03  0.56633182003E+03  0.00000000000E+00 0.  1.
         -1    1    1    2    0  501 -0.15208760287E+02 -0.14096187001E+02  0.82779067546E+03  0.82805036759E+03  0.00000000000E+00 0. -1.
</event>
<event>
 4    1  0.6934088E+001  0.2678065E+02  0.7546771E-02  0.1449824E+00
          2   -1    0    0  502    0  0.00000000000E+00  0.00000000000E+00  0.10841785044E+04  0.10841785044E+04  0.00000000000E+00 0. -1.
         -2   -1    0    0    0  501 -0.00000000000E+00 -0.00000000000E+00 -0.94233500974E+00  0.94233500974E+00  0.00000000000E+00 0.  1.
          1    1    1    2  502    0 -0.26716955823E+02 -0.18460072767E+01  0.24543705456E+03  0.24689380555E+03  0.00000000000E+00 0.  1.
         -1    1    1    2    0  501  0.26716955823E+02  0.18460072767E+01  0.83779911485E+03  0.83822703388E+03  0.00000000000E+00 0. -1.
</event>
<event>
 4    1  0.6934088E+001  0.2015491E+02  0.7546771E-02  0.1531681E+00
          2   -1    0    0  502    0  0.00000000000E+00  0.00000000000E+00  0.29422137470E+01  0.29422137470E+01  0.00000000000E+00 0. -1.
         -2   -1    0    0    0  501 -0.00000000000E+00 -0.00000000000E+00 -0.20325277008E+03  0.20325277008E+03  0.00000000000E+00 0.  1.
          1    1    1    2  502    0  0.13045587042E+02  0.15363361511E+02 -0.41769242358E+02  0.46377686718E+02  0.00000000000E+00 0. -1.
         -1    1    1    2    0  501 -0.13045587042E+02 -0.15363361511E+02 -0.15854131398E+03  0.15981729711E+03  0.00000000000E+00 0.  1.
</event>
<event>
 4    1  0.6934088E+001  0.3011015E+02  0.7546771E-02  0.1418642E+00
          2   -1    0    0  502    0  0.00000000000E+00  0.00000000000E+00  0.35626675481E+02  0.35626675481E+02  0.00000000000E+00 0.  1.
         -2   -1    0    0    0  501 -0.00000000000E+00 -0.00000000000E+00 -0.29987971933E+02  0.29987971933E+02  0.00000000000E+00 0. -1.
          1    1    1    2  502    0  0.17025601500E+02  0.24834450563E+02 -0.99459973130E+01  0.31710312262E+02  0.00000000000E+00 0. -1.
         -1    1    1    2    0  501 -0.17025601500E+02 -0.24834450563E+02  0.15584700860E+02  0.33904335152E+02  0.00000000000E+00 0.  1.
</event>
<event>
 4    1  0.6934088E+001  0.2945447E+02  0.7546771E-02  0.1424397E+00
          2   -1    0    0  502    0  0.00000000000E+00  0.00000000000E+00  0.64681887262E+03  0.64681887262E+03  0.00000000000E+00 0. -1.
         -2   -1    0    0    0  501 -0.00000000000E+00 -0.00000000000E+00 -0.13625163899E+01  0.13625163899E+01  0.00000000000E+00 0.  1.
          1    1    1    2  502    0  0.27902692321E+02 -0.94342754837E+01  0.36318827750E+03  0.36438069475E+03  0.00000000000E+00 0. -1.
         -1    1    1    2    0  501 -0.27902692321E+02  0.94342754837E+01  0.28226807872E+03  0.28380069425E+03  0.00000000000E+00 0.  1.
</event>
<event>
 4    1  0.6934088E+001  0.2539976E+02  0.7546771E-02  0.1464381E+00
          2   -1    0    0  502    0  0.00000000000E+00  0.00000000000E+00  0.10241422574E+03  0.10241422574E+03  0.00000000000E+00 0.  1.
         -2   -1    0    0    0  501 -0.00000000000E+00 -0.00000000000E+00 -0.71148203521E+01  0.71148203521E+01  0.00000000000E+00 0. -1.
          1    1    1    2  502    0  0.21296456238E+02 -0.13842288431E+02  0.66189653277E+02  0.70895826381E+02  0.00000000000E+00 0.  1.
         -1    1    1    2    0  501 -0.21296456238E+02  0.13842288431E+02  0.29109752112E+02  0.38633219712E+02  0.00000000000E+00 0. -1.
</event>
<event>
 4    1  0.6934088E+001  0.2832132E+02  0.7546771E-02  0.1434768E+00
          2   -1    0    0  502    0  0.00000000000E+00  0.00000000000E+00  0.13017898153E+02  0.13017898153E+02  0.00000000000E+00 0. -1.
         -2   -1    0    0    0  501 -0.00000000000E+00 -0.00000000000E+00 -0.61962899076E+02  0.61962899076E+02  0.00000000000E+00 0.  1.
          1    1    1    2  502    0  0.15976687695E+02 -0.23384660282E+02 -0.27281970372E+02  0.39324328266E+02  0.00000000000E+00 0.  1.
         -1    1    1    2    0  501 -0.15976687695E+02  0.23384660282E+02 -0.21663030552E+02  0.35656468963E+02  0.00000000000E+00 0. -1.
</event>
<event>
 4    1  0.6934088E+001  0.2044909E+02  0.7546771E-02  0.1527278E+00
          2   -1    0    0  502    0  0.00000000000E+00  0.00000000000E+00  0.92978802580E+02  0.92978802580E+02  0.00000000000E+00 0.  1.
         -2   -1    0    0    0  501 -0.00000000000E+00 -0.00000000000E+00 -0.44984216906E+01  0.44984216906E+01  0.00000000000E+00 0. -1.
          1    1    1    2  502    0 -0.19130340279E+02 -0.72246494491E+01  0.44964539886E+02  0.49396106385E+02  0.00000000000E+00 0.  1.
         -1    1    1    2    0  501  0.19130340279E+02  0.72246494491E+01  0.43515841004E+02  0.48081117886E+02  0.00000000000E+00 0. -1.
</event>
<event>
 4    1  0.6934088E+001  0.1054533E+03  0.7546771E-02  0.1154680E+00
          2   -1    0    0  502    0  0.00000000000E+00  0.00000000000E+00  0.25649012204E+04  0.25649012204E+04  0.00000000000E+00 0.  1.
         -2   -1    0    0    0  501 -0.00000000000E+00 -0.00000000000E+00 -0.51057221536E+01  0.51057221536E+01  0.00000000000E+00 0. -1.
          1    1    1    2  502    0 -0.10149360924E+01  0.10544836893E+03  0.17789605557E+04  0.17820833447E+04  0.00000000000E+00 0.  1.
         -1    1    1    2    0  501  0.10149360924E+01 -0.10544836893E+03  0.78083494252E+03  0.78792359786E+03  0.00000000000E+00 0. -1.
</event>
<event>
 4    1  0.6934088E+001  0.2246471E+02  0.7546771E-02  0.1499331E+00
          2   -1    0    0  502    0  0.00000000000E+00  0.00000000000E+00  0.33973105226E+03  0.33973105226E+03  0.00000000000E+00 0. -1.
         -2   -1    0    0    0  501 -0.00000000000E+00 -0.00000000000E+00 -0.15022465397E+01  0.15022465397E+01  0.00000000000E+00 0.  1.
          1    1    1    2  502    0 -0.21357160275E+02  0.69666971797E+01  0.18714010975E+03  0.18848364343E+03  0.00000000000E+00 0. -1.
         -1    1    1    2    0  501  0.21357160275E+02 -0.69666971797E+01  0.15108869597E+03  0.15274965537E+03  0.00000000000E+00 0.  1.
</event>
<event>
 4    1  0.6934088E+001  0.2292841E+02  0.7546771E-02  0.1493399E+00
          2   -1    0    0  502    0  0.00000000000E+00  0.00000000000E+00  0.49163449009E+03  0.49163449009E+03  0.00000000000E+00 0. -1.
         -2   -1    0    0    0  501 -0.00000000000E+00 -0.00000000000E+00 -0.12076872794E+01  0.12076872794E+01  0.00000000000E+00 0.  1.
          1    1    1    2  502    0  0.18299240915E+02 -0.13814844343E+02  0.16180205155E+03  0.16341853024E+03  0.00000000000E+00 0.  1.
         -1    1    1    2    0  501 -0.18299240915E+02  0.13814844343E+02  0.32862475126E+03  0.32942364713E+03  0.00000000000E+00 0. -1.
</event>
<event>
 4    1  0.6934088E+001  0.2427829E+02  0.7546771E-02  0.1477041E+00
          2   -1    0    0  502    0  0.00000000000E+00  0.00000000000E+00  0.11594911284E+03  0.11594911284E+03  0.00000000000E+00 0.  1.
         -2   -1    0    0    0  501 -0.00000000000E+00 -0.00000000000E+00 -0.68761335739E+01  0.68761335739E+01  0.00000000000E+00 0. -1.
          1    1    1    2  502    0  0.23503847591E+02  0.60831521586E+01  0.23180348375E+02  0.33567307645E+02  0.00000000000E+00 0. -1.
         -1    1    1    2    0  501 -0.23503847591E+02 -0.60831521586E+01  0.85892630890E+02  0.89257938767E+02  0.00000000000E+00 0.  1.
</event>
<event>
 4    1  0.6934088E+001  0.3011465E+02  0.7546771E-02  0.1418603E+00
          2   -1    0    0  502    0  0.00000000000E+00  0.00000000000E+00  0.34956768158E+03  0.34956768158E+03  0.00000000000E+00 0.  1.
         -2   -1    0    0    0  501 -0.00000000000E+00 -0.00000000000E+00 -0.25952289560E+01  0.25952289560E+01  0.00000000000E+00 0. -1.
          1    1    1    2  502    0  0.24417072471E+01 -0.30015503258E+02  0.17020099701E+03  0.17284464630E+03  0.00000000000E+00 0.  1.
         -1    1    1    2    0  501 -0.24417072471E+01  0.30015503258E+02  0.17677145561E+03  0.17931826424E+03  0.00000000000E+00 0. -1.
</event>
<event>
 4    1  0.6934088E+001  0.2672752E+02  0.7546771E-02  0.1450365E+00
          2   -1    0    0  502    0  0.00000000000E+00  0.00000000000E+00  0.16712696713E+04  0.16712696713E+04  0.00000000000E+00 0.  1.
         -2   -1    0    0    0  501 -0.00000000000E+00 -0.00000000000E+00 -0.45525034000E+00  0.45525034000E+00  0.00000000000E+00 0. -1.
          1    1    1    2  502    0 -0.26622263118E+02  0.23697016710E+01  0.62879968612E+03  0.62936746472E+03  0.00000000000E+00 0. -1.
         -1    1    1    2    0  501  0.26622263118E+02 -0.23697016710E+01  0.10420147349E+04  0.10423574569E+04  0.00000000000E+00 0.  1.
</event>
<event>
 4    1  0.6934088E+001  0.3113184E+02  0.7546771E-02  0.1410009E+00
          2   -1    0    0  502    0  0.00000000000E+00  0.00000000000E+00  0.89877738376E+03  0.89877738376E+03  0.00000000000E+00 0. -1.
         -2   -1    0    0    0  501 -0.00000000000E+00 -0.00000000000E+00 -0.16106661814E+01  0.16106661814E+01  0.00000000000E+00 0.  1.
          1    1    1    2  502    0  0.28188141612E+02 -0.13214384274E+02  0.70739523546E+03  0.70807994635E+03  0.00000000000E+00 0. -1.
         -1    1    1    2    0  501 -0.28188141612E+02  0.13214384274E+02  0.18977148212E+03  0.19230810359E+03  0.00000000000E+00 0.  1.
</event>
<event>
 4    1  0.6934088E+001  0.2212817E+02  0.7546771E-02  0.1503746E+00
          2   -1    0    0  502    0  0.00000000000E+00  0.00000000000E+00  0.29368441031E+02  0.29368441031E+02  0.00000000000E+00 0. -1.
         -2   -1    0    0    0  501 -0.00000000000E+00 -0.00000000000E+00 -0.16758181987E+02  0.16758181987E+02  0.00000000000E+00 0.  1.
          1    1    1    2  502    0  0.40818755149E+01 -0.21748429215E+02  0.79507922455E+01  0.23513208594E+02  0.00000000000E+00 0.  1.
         -1    1    1    2    0  501 -0.40818755149E+01  0.21748429215E+02  0.46594667978E+01  0.22613414424E+02  0.00000000000E+00 0. -1.
</event>
<event>
 4    1  0.6934088E+001  0.3557503E+02  0.7546771E-02  0.1376565E+00
          2   -1    0    0  502    0  0.00000000000E+00  0.00000000000E+00  0.23633994984E+04  0.23633994984E+04  0.00000000000E+00 0. -1.
         -2   -1    0    0    0  501 -0.00000000000E+00 -0.00000000000E+00 -0.63432343430E+00  0.63432343430E+00  0.00000000000E+00 0.  1.
          1    1    1    2  502    0  0.35572473804E+02  0.42626409317E+00  0.16479504992E+04  0.16483344413E+04  0.00000000000E+00 0. -1.
         -1    1    1    2    0  501 -0.35572473804E+02 -0.42626409317E+00  0.71481467583E+03  0.71569938058E+03  0.00000000000E+00 0.  1.
</event>
<event>
 4    1  0.6934088E+001  0.2035985E+02  0.7546771E-02  0.1528604E+00
          2   -1    0    0  502    0  0.00000000000E+00  0.00000000000E+00  0.29348842902E+01  0.29348842902E+01  0.00000000000E+00 0. -1.
         -2   -1    0    0    0  501 -0.00000000000E+00 -0.00000000000E+00 -0.39317754772E+03  0.39317754772E+03  0.00000000000E+00 0.  1.
          1    1    1    2  502    0  0.18897039337E+02 -0.75779654378E+01 -0.35366189451E+03  0.35424745487E+03  0.00000000000E+00 0.  1.
         -1    1    1    2    0  501 -0.18897039337E+02  0.75779654378E+01 -0.36580768916E+02  0.41864977133E+02  0.00000000000E+00 0. -1.
</event>
<event>
 4    1  0.6934088E+001  0.2245500E+02  0.7546771E-02  0.1499457E+00
          2   -1    0    0  502    0  0.00000000000E+00  0.00000000000E+00  0.74497119613E+03  0.74497119613E+03  0.00000000000E+00 0.  1.
         -2   -1    0    0    0  501 -0.00000000000E+00 -0.00000000000E+00 -0.68339393676E+00  0.68339393676E+00  0.00000000000E+00 0. -1.
          1    1    1    2  502    0 -0.15402753549E+01 -0.22402114423E+02  0.33563620977E+03  0.33638652245E+03  0.00000000000E+00 0.  1.
         -1    1    1    2    0  501  0.15402753549E+01  0.22402114423E+02  0.40865159242E+03  0.40926806761E+03  0.00000000000E+00 0. -1.
</event>
<event>
 4    1  0.6934088E+001  0.4173155E+02  0.7546771E-02  0.1338627E+00
          2   -1    0    0  502    0  0.00000000000E+00  0.00000000000E+00  0.43071390442E+04  0.43071390442E+04  0.00000000000E+00 0.  1.
         -2   -1    0    0    0  501 -0.00000000000E+00 -0.00000000000E+00 -0.41314581812E+00  0.41314581812E+00  0.00000000000E+00 0. -1.
          1    1    1    2  502    0  0.38222257663E+02  0.16750560931E+02  0.24679091285E+04  0.24682619368E+04  0.00000000000E+00 0. -1.
         -1    1    1    2    0  501 -0.38222257663E+02 -0.16750560931E+02  0.18388167699E+04  0.18392902532E+04  0.00000000000E+00 0.  1.
</event>
<event>
 4    1  0.6934088E+001  0.2330751E+02  0.7546771E-02  0.1488672E+00
          2   -1    0    0  502    0  0.00000000000E+00  0.00000000000E+00  0.48605297967E+02  0.48605297967E+02  0.00000000000E+00 0. -1.
         -2   -1    0    0    0  501 -0.00000000000E+00 -0.00000000000E+00 -0.17256166775E+02  0.17256166775E+02  0.00000000000E+00 0.  1.
          1    1    1    2  502    0  0.18660641315E+02  0.13964968448E+02  0.35220979047E+02  0.42234550347E+02  0.00000000000E+00 0. -1.
         -1    1    1    2    0  501 -0.18660641315E+02 -0.13964968448E+02 -0.38718478546E+01  0.23626914396E+02  0.00000000000E+00 0.  1.
</event>
<event>
 4    1  0.6934088E+001  0.2920855E+02  0.7546771E-02  0.1426601E+00
          2   -1    0    0  502    0  0.00000000000E+00  0.00000000000E+00  0.36183362300E+01  0.36183362300E+01  0.00000000000E+00 0.  1.
         -2   -1    0    0    0  501 -0.00000000000E+00 -0.00000000000E+00 -0.27081842910E+03  0.27081842910E+03  0.00000000000E+00 0. -1.
          1    1    1    2  502    0 -0.28530527182E+02  0.62568839262E+01 -0.18295506867E+03  0.18527195343E+03  0.00000000000E+00 0. -1.
         -1    1    1    2    0  501  0.28530527182E+02 -0.62568839262E+01 -0.84245024201E+02  0.89164811895E+02  0.00000000000E+00 0.  1.
</event>
<event>
 4    1  0.6934088E+001  0.2013091E+02  0.7546771E-02  0.1532044E+00
          2   -1    0    0  502    0  0.00000000000E+00  0.00000000000E+00  0.15985213110E+03  0.15985213110E+03  0.00000000000E+00 0.  1.
         -2   -1    0    0    0  501 -0.00000000000E+00 -0.00000000000E+00 -0.29388790937E+01  0.29388790937E+01  0.00000000000E+00 0. -1.
          1    1    1    2  502    0 -0.19173691053E+02  0.61337726166E+01  0.48289109256E+02  0.52317221523E+02  0.00000000000E+00 0. -1.
         -1    1    1    2    0  501  0.19173691053E+02 -0.61337726166E+01  0.10862414275E+03  0.11047378867E+03  0.00000000000E+00 0.  1.
</event>
<event>
 4    1  0.6934088E+001  0.3815195E+02  0.7546771E-02  0.1359669E+00
          2   -1    0    0  502    0  0.00000000000E+00  0.00000000000E+00  0.44517774550E+03  0.44517774550E+03  0.00000000000E+00 0.  1.
         -2   -1    0    0    0  501 -0.00000000000E+00 -0.00000000000E+00 -0.43417964916E+01  0.43417964916E+01  0.00000000000E+00 0. -1.
          1    1    1    2  502    0  0.34840821662E+02  0.15546342928E+02  0.10872840044E+03  0.11522776009E+03  0.00000000000E+00 0. -1.
         -1    1    1    2    0  501 -0.34840821662E+02 -0.15546342928E+02  0.33210754857E+03  0.33429178191E+03  0.00000000000E+00 0.  1.
</event>
<event>
 4    1  0.6934088E+001  0.2738327E+02  0.7546771E-02  0.1443796E+00
          2   -1    0    0  502    0  0.00000000000E+00  0.00000000000E+00  0.21317521099E+04  0.21317521099E+04  0.00000000000E+00 0.  1.
         -2   -1    0    0    0  501 -0.00000000000E+00 -0.00000000000E+00 -0.60128295489E+00  0.60128295489E+00  0.00000000000E+00 0. -1.
          1    1    1    2  502    0  0.23076387302E+02 -0.14741903994E+02  0.17524127032E+04  0.17526266362E+04  0.00000000000E+00 0.  1.
         -1    1    1    2    0  501 -0.23076387302E+02  0.14741903994E+02  0.37873812373E+03  0.37972675670E+03  0.00000000000E+00 0. -1.
</event>
<event>
 4    1  0.6934088E+001  0.2866849E+02  0.7546771E-02  0.1431531E+00
          2   -1    0    0  502    0  0.00000000000E+00  0.00000000000E+00  0.73007519914E+03  0.73007519914E+03  0.00000000000E+00 0. -1.
         -2   -1    0    0    0  501 -0.00000000000E+00 -0.00000000000E+00 -0.19350038938E+01  0.19350038938E+01  0.00000000000E+00 0.  1.
          1    1    1    2  502    0  0.26267946830E+02 -0.11483774967E+02  0.60076485009E+03  0.60144849091E+03  0.00000000000E+00 0. -1.
         -1    1    1    2    0  501 -0.26267946830E+02  0.11483774967E+02  0.12737534516E+03  0.13056171212E+03  0.00000000000E+00 0.  1.
</event>
<event>
 4    1  0.6934088E+001  0.2489681E+02  0.7546771E-02  0.1469961E+00
          2   -1    0    0  502    0  0.00000000000E+00  0.00000000000E+00  0.35072610502E+03  0.35072610502E+03  0.00000000000E+00 0.  1.
         -2   -1    0    0    0  501 -0.00000000000E+00 -0.00000000000E+00 -0.18339204286E+01  0.18339204286E+01  0.00000000000E+00 0. -1.
          1    1    1    2  502    0  0.19781754699E+02  0.15117314173E+02  0.20803515695E+03  0.20951963520E+03  0.00000000000E+00 0.  1.
         -1    1    1    2    0  501 -0.19781754699E+02 -0.15117314173E+02  0.14085702765E+03  0.14304039026E+03  0.00000000000E+00 0. -1.
</event>
<event>
 4    1  0.6934088E+001  0.2440371E+02  0.7546771E-02  0.1475586E+00
          2   -1    0    0  502    0  0.00000000000E+00  0.00000000000E+00  0.46709013227E+03  0.46709013227E+03  0.00000000000E+00 0.  1.
         -2   -1    0    0    0  501 -0.00000000000E+00 -0.00000000000E+00 -0.13749394380E+01  0.13749394380E+01  0.00000000000E+00 0. -1.
          1    1    1    2  502    0 -0.44035194318E+01  0.24003131002E+02  0.29600675209E+03  0.29701100748E+03  0.00000000000E+00 0.  1.
         -1    1    1    2    0  501  0.44035194318E+01 -0.24003131002E+02  0.16970844074E+03  0.17145406423E+03  0.00000000000E+00 0. -1.
</event>
<event>
 4    1  0.6934088E+001  0.2530255E+02  0.7546771E-02  0.1465447E+00
          2   -1    0    0  502    0  0.00000000000E+00  0.00000000000E+00  0.24922874656E+02  0.24922874656E+02  0.00000000000E+00 0.  1.
         -2   -1    0    0    0  501 -0.00000000000E+00 -0.00000000000E+00 -0.26166018898E+02  0.26166018898E+02  0.00000000000E+00 0. -1.
          1    1    1    2  502    0 -0.79979379142E+01 -0.24005245289E+02 -0.40742022948E+01  0.25628459505E+02  0.00000000000E+00 0. -1.
         -1    1    1    2    0  501  0.79979379142E+01  0.24005245289E+02  0.28310580532E+01  0.25460434049E+02  0.00000000000E+00 0.  1.
</event>
<event>
 4    1  0.6934088E+001  0.2942009E+02  0.7546771E-02  0.1424704E+00
          2   -1    0    0  502    0  0.00000000000E+00  0.00000000000E+00  0.75749742333E+03  0.75749742333E+03  0.00000000000E+00 0. -1.
         -2   -1    0    0    0  501 -0.00000000000E+00 -0.00000000000E+00 -0.12270198438E+01  0.12270198438E+01  0.00000000000E+00 0.  1.
          1    1    1    2  502    0 -0.16226624170E+02 -0.24540543484E+02  0.27864839805E+03  0.28019720081E+03  0.00000000000E+00 0.  1.
         -1    1    1    2    0  501  0.16226624170E+02  0.24540543484E+02  0.47762200544E+03  0.47852724237E+03  0.00000000000E+00 0. -1.
</event>
<event>
 4    1  0.6934088E+001  0.2253923E+02  0.7546771E-02  0.1498367E+00
          2   -1    0    0  502    0  0.00000000000E+00  0.00000000000E+00  0.24817915697E+02  0.24817915697E+02  0.00000000000E+00 0.  1.
         -2   -1    0    0    0  501 -0.00000000000E+00 -0.00000000000E+00 -0.21059846324E+02  0.21059846324E+02  0.00000000000E+00 0. -1.
          1    1    1    2  502    0  0.16951657818E+02  0.14854563406E+02 -0.19607132836E+01  0.22624348683E+02  0.00000000000E+00 0. -1.
         -1    1    1    2    0  501 -0.16951657818E+02 -0.14854563406E+02  0.57187826571E+01  0.23253413337E+02  0.00000000000E+00 0.  1.
</event>
<event>
 4    1  0.6934088E+001  0.3668168E+02  0.7546771E-02  0.1369111E+00
          2   -1    0    0  502    0  0.00000000000E+00  0.00000000000E+00  0.15596740500E+03  0.15596740500E+03  0.00000000000E+00 0. -1.
         -2   -1    0    0    0  501 -0.00000000000E+00 -0.00000000000E+00 -0.95456604549E+01  0.95456604549E+01  0.00000000000E+00 0.  1.
          1    1    1    2  502    0  0.22392006029E+02 -0.29054153304E+02  0.47539201170E+02  0.60045994089E+02  0.00000000000E+00 0. -1.
         -1    1    1    2    0  501 -0.22392006029E+02  0.29054153304E+02  0.98882543375E+02  0.10546707137E+03  0.00000000000E+00 0.  1.
</event>
<event>
 4    1  0.6934088E+001  0.2670522E+02  0.7546771E-02  0.1450592E+00
          2   -1    0    0  502    0  0.00000000000E+00  0.00000000000E+00  0.83483487771E+03  0.83483487771E+03  0.00000000000E+00 0.  1.
         -2   -1    0    0    0  501 -0.00000000000E+00 -0.00000000000E+00 -0.92160508686E+00  0.92160508686E+00  0.00000000000E+00 0. -1.
          1    1    1    2  502    0 -0.25174657736E+02  0.89109726971E+01  0.52991529659E+03  0.53058777821E+03  0.00000000000E+00 0.  1.
         -1    1    1    2    0  501  0.25174657736E+02 -0.89109726971E+01  0.30399797604E+03  0.30516870459E+03  0.00000000000E+00 0. -1.
</event>
<event>
 4    1  0.6934088E+001  0.2650667E+02  0.7546771E-02  0.1452628E+00
          2   -1    0    0  502    0  0.00000000000E+00  0.00000000000E+00  0.48564840085E+03  0.48564840085E+03  0.00000000000E+00 0.  1.
         -2   -1    0    0    0  501 -0.00000000000E+00 -0.00000000000E+00 -0.36046103351E+01  0.36046103351E+01  0.00000000000E+00 0. -1.
          1    1    1    2  502    0 -0.10216844183E+02  0.24458530068E+02  0.51749307319E+02  0.58142879239E+02  0.00000000000E+00 0. -1.
         -1    1    1    2    0  501  0.10216844183E+02 -0.24458530068E+02  0.43029448320E+03  0.43111013195E+03  0.00000000000E+00 0.  1.
</event>
<event>
 4    1  0.6934088E+001  0.3555690E+02  0.7546771E-02  0.1376690E+00
          2   -1    0    0  502    0  0.00000000000E+00  0.00000000000E+00  0.25941364477E+03  0.25941364477E+03  0.00000000000E+00 0. -1.
         -2   -1    0    0    0  501 -0.00000000000E+00 -0.00000000000E+00 -0.55431785753E+01  0.55431785753E+01  0.00000000000E+00 0.  1.
          1    1    1    2  502    0  0.20233486062E+00 -0.35556320979E+02  0.80893862131E+02  0.88363509615E+02  0.00000000000E+00 0.  1.
         -1    1    1    2    0  501 -0.20233486062E+00  0.35556320979E+02  0.17297660406E+03  0.17659331373E+03  0.00000000000E+00 0. -1.
</event>
<event>
 4    1  0.6934088E+001  0.2474558E+02  0.7546771E-02  0.1471670E+00
          2   -1    0    0  502    0  0.00000000000E+00  0.00000000000E+00  0.79188352892E+03  0.79188352892E+03  0.00000000000E+00 0.  1.
         -2   -1    0    0    0  501 -0.00000000000E+00 -0.00000000000E+00 -0.23717298397E+01  0.23717298397E+01  0.00000000000E+00 0. -1.
          1    1    1    2  502    0  0.63970802246E+01  0.23904415594E+02  0.72077848155E+03  0.72120313586E+03  0.00000000000E+00 0.  1.
         -1    1    1    2    0  501 -0.63970802246E+01 -0.23904415594E+02  0.68733317535E+02  0.73052122896E+02  0.00000000000E+00 0. -1.
</event>
<event>
 4    1 -0.6934088E+001  0.7500554E+02  0.7546771E-02  0.1215943E+00
          2   -1    0    0  502    0  0.00000000000E+00  0.00000000000E+00  0.21052679803E+01  0.21052679803E+01  0.00000000000E+00 0. -1.
         -2   -1    0    0    0  501 -0.00000000000E+00 -0.00000000000E+00 -0.28729073396E+04  0.28729073396E+04  0.00000000000E+00 0.  1.
          1    1    1    2  502    0 -0.74124394729E+02  0.11463201566E+02 -0.10555075813E+04  0.10581692138E+04  0.00000000000E+00 0.  1.
         -1    1    1    2    0  501  0.74124394729E+02 -0.11463201566E+02 -0.18152944903E+04  0.18168433938E+04  0.00000000000E+00 0. -1.
</event>
<event>
 4    1  0.6934088E+001  0.2808637E+02  0.7546771E-02  0.1436990E+00
          2   -1    0    0  502    0  0.00000000000E+00  0.00000000000E+00  0.27024138235E+02  0.27024138235E+02  0.00000000000E+00 0. -1.
         -2   -1    0    0    0  501 -0.00000000000E+00 -0.00000000000E+00 -0.29332801617E+02  0.29332801617E+02  0.00000000000E+00 0.  1.
          1    1    1    2  502    0 -0.27105544259E+02 -0.73575626062E+01 -0.31179760923E+01  0.28258910666E+02  0.00000000000E+00 0.  1.
         -1    1    1    2    0  501  0.27105544259E+02  0.73575626062E+01  0.80931271060E+00  0.28098029186E+02  0.00000000000E+00 0. -1.
</event>
<event>
 4    1  0.6934088E+001  0.4565198E+02  0.7546771E-02  0.1318211E+00
          2   -1    0    0  502    0  0.00000000000E+00  0.00000000000E+00  0.42969545305E+01  0.42969545305E+01  0.00000000000E+00 0. -1.
         -2   -1    0    0    0  501 -0.00000000000E+00 -0.00000000000E+00 -0.50072933769E+03  0.50072933769E+03  0.00000000000E+00 0.  1.
          1    1    1    2  502    0  0.10698275703E+02 -0.44380743180E+02 -0.20348825734E+03  0.20854633620E+03  0.00000000000E+00 0. -1.
         -1    1    1    2    0  501 -0.10698275703E+02  0.44380743180E+02 -0.29294412582E+03  0.29647995602E+03  0.00000000000E+00 0.  1.
</event>
<event>
 4    1  0.6934088E+001  0.2308876E+02  0.7546771E-02  0.1491387E+00
          2   -1    0    0  502    0  0.00000000000E+00  0.00000000000E+00  0.41594809389E+02  0.41594809389E+02  0.00000000000E+00 0.  1.
         -2   -1    0    0    0  501 -0.00000000000E+00 -0.00000000000E+00 -0.17574152280E+02  0.17574152280E+02  0.00000000000E+00 0. -1.
          1    1    1    2  502    0 -0.20996543713E+02 -0.96039515137E+01  0.27403678407E+02  0.35833675820E+02  0.00000000000E+00 0.  1.
         -1    1    1    2    0  501  0.20996543713E+02  0.96039515137E+01 -0.33830212975E+01  0.23335285849E+02  0.00000000000E+00 0. -1.
</event>
<event>
 4    1  0.6934088E+001  0.2447195E+02  0.7546771E-02  0.1474798E+00
          2   -1    0    0  502    0  0.00000000000E+00  0.00000000000E+00  0.11230085955E+04  0.11230085955E+04  0.00000000000E+00 0. -1.
         -2   -1    0    0    0  501 -0.00000000000E+00 -0.00000000000E+00 -0.92234807603E+00  0.92234807603E+00  0.00000000000E+00 0.  1.
          1    1    1    2  502    0 -0.19622845302E+01 -0.24393152749E+02  0.19605747817E+03  0.19757887339E+03  0.00000000000E+00 0.  1.
         -1    1    1    2    0  501  0.19622845302E+01  0.24393152749E+02  0.92602876924E+03  0.92635207018E+03  0.00000000000E+00 0. -1.
</event>
<event>
 4    1  0.6934088E+001  0.2071980E+02  0.7546771E-02  0.1523303E+00
          2   -1    0    0  502    0  0.00000000000E+00  0.00000000000E+00  0.34548216118E+02  0.34548216118E+02  0.00000000000E+00 0. -1.
         -2   -1    0    0    0  501 -0.00000000000E+00 -0.00000000000E+00 -0.19477404181E+02  0.19477404181E+02  0.00000000000E+00 0.  1.
          1    1    1    2  502    0  0.58467757678E+01  0.19877758774E+02  0.23788258695E+02  0.31546653269E+02  0.00000000000E+00 0. -1.
         -1    1    1    2    0  501 -0.58467757678E+01 -0.19877758774E+02 -0.87174467572E+01  0.22478967030E+02  0.00000000000E+00 0.  1.
</event>
<event>
 4    1  0.6934088E+001  0.2659509E+02  0.7546771E-02  0.1451718E+00
          2   -1    0    0  502    0  0.00000000000E+00  0.00000000000E+00  0.17428605035E+03  0.17428605035E+03  0.00000000000E+00 0. -1.
         -2   -1    0    0    0  501 -0.00000000000E+00 -0.00000000000E+00 -0.44491842162E+01  0.44491842162E+01  0.00000000000E+00 0.  1.
          1    1    1    2  502    0 -0.18645825530E+02 -0.18963959554E+02  0.11140860579E+03  0.11453897161E+03  0.00000000000E+00 0. -1.
         -1    1    1    2    0  501  0.18645825530E+02  0.18963959554E+02  0.58428260338E+02  0.64196262958E+02  0.00000000000E+00 0.  1.
</event>
<event>
 4    1  0.6934088E+001  0.2381745E+02  0.7546771E-02  0.1482481E+00
          2   -1    0    0  502    0  0.00000000000E+00  0.00000000000E+00  0.24212607513E+03  0.24212607513E+03  0.00000000000E+00 0.  1.
         -2   -1    0    0    0  501 -0.00000000000E+00 -0.00000000000E+00 -0.32758348420E+01  0.32758348420E+01  0.00000000000E+00 0. -1.
          1    1    1    2  502    0 -0.16688593020E+02 -0.16992992810E+02  0.18490661703E+03  0.18643424568E+03  0.00000000000E+00 0. -1.
         -1    1    1    2    0  501  0.16688593020E+02  0.16992992810E+02  0.53943623264E+02  0.58967664295E+02  0.00000000000E+00 0.  1.
</event>
<event>
 4    1  0.6934088E+001  0.3159398E+02  0.7546771E-02  0.1406233E+00
          2   -1    0    0  502    0  0.00000000000E+00  0.00000000000E+00  0.18696094402E+02  0.18696094402E+02  0.00000000000E+00 0. -1.
         -2   -1    0    0    0  501 -0.00000000000E+00 -0.00000000000E+00 -0.56108720558E+02  0.56108720558E+02  0.00000000000E+00 0.  1.
          1    1    1    2  502    0 -0.29495389176E+02  0.11322615990E+02 -0.26939869030E+02  0.41520310197E+02  0.00000000000E+00 0.  1.
         -1    1    1    2    0  501  0.29495389176E+02 -0.11322615990E+02 -0.10472757126E+02  0.33284504763E+02  0.00000000000E+00 0. -1.
</event>
<event>
 4    1  0.6934088E+001  0.3619735E+02  0.7546771E-02  0.1372335E+00
          2   -1    0    0  502    0  0.00000000000E+00  0.00000000000E+00  0.20687008874E+04  0.20687008874E+04  0.00000000000E+00 0. -1.
         -2   -1    0    0    0  501 -0.00000000000E+00 -0.00000000000E+00 -0.63721452757E+00  0.63721452757E+00  0.00000000000E+00 0.  1.
          1    1    1    2  502    0  0.89751454439E+01 -0.35067003233E+02  0.95363848703E+03  0.95432521286E+03  0.00000000000E+00 0. -1.
         -1    1    1    2    0  501 -0.89751454439E+01  0.35067003233E+02  0.11144251858E+04  0.11150128891E+04  0.00000000000E+00 0.  1.
</event>
<event>
 4    1  0.6934088E+001  0.2053207E+02  0.7546771E-02  0.1526052E+00
          2   -1    0    0  502    0  0.00000000000E+00  0.00000000000E+00  0.16853959039E+01  0.16853959039E+01  0.00000000000E+00 0.  1.
         -2   -1    0    0    0  501 -0.00000000000E+00 -0.00000000000E+00 -0.32008266915E+03  0.32008266915E+03  0.00000000000E+00 0. -1.
          1    1    1    2  502    0  0.14553500356E+01 -0.20480422683E+02 -0.23441083490E+03  0.23530831960E+03  0.00000000000E+00 0. -1.
         -1    1    1    2    0  501 -0.14553500356E+01  0.20480422683E+02 -0.83986438351E+02  0.86459745453E+02  0.00000000000E+00 0.  1.
</event>
<event>
 4    1  0.6934088E+001  0.2154559E+02  0.7546771E-02  0.1511616E+00
          2   -1    0    0  502    0  0.00000000000E+00  0.00000000000E+00  0.17674385285E+04  0.17674385285E+04  0.00000000000E+00 0. -1.
         -2   -1    0    0    0  501 -0.00000000000E+00 -0.00000000000E+00 -0.37104367520E+00  0.37104367520E+00  0.00000000000E+00 0.  1.
          1    1    1    2  502    0 -0.11055850384E+02 -0.18492723194E+02  0.13612837579E+04  0.13614542527E+04  0.00000000000E+00 0. -1.
         -1    1    1    2    0  501  0.11055850384E+02  0.18492723194E+02  0.40578372689E+03  0.40635531946E+03  0.00000000000E+00 0.  1.
</event>
<event>
 4    1  0.6934088E+001  0.3257080E+02  0.7546771E-02  0.1398496E+00
          2   -1    0    0  502    0  0.00000000000E+00  0.00000000000E+00  0.36914306753E+03  0.36914306753E+03  0.00000000000E+00 0. -1.
         -2   -1    0    0    0  501 -0.00000000000E+00 -0.00000000000E+00 -0.28789618854E+01  0.28789618854E+01  0.00000000000E+00 0.  1.
          1    1    1    2  502    0  0.14857407430E+02  0.28984725206E+02  0.17528366297E+03  0.17828409731E+03  0.00000000000E+00 0. -1.
         -1    1    1    2    0  501 -0.14857407430E+02 -0.28984725206E+02  0.19098044267E+03  0.19373793210E+03  0.00000000000E+00 0.  1.
</event>
<event>
 4    1  0.6934088E+001  0.2067401E+02  0.7546771E-02  0.1523970E+00
          2   -1    0    0  502    0  0.00000000000E+00  0.00000000000E+00  0.56098755865E+02  0.56098755865E+02  0.00000000000E+00 0.  1.
         -2   -1    0    0    0  501 -0.00000000000E+00 -0.00000000000E+00 -0.76644033627E+01  0.76644033627E+01  0.00000000000E+00 0. -1.
          1    1    1    2  502    0  0.11992536659E+02  0.16840244886E+02  0.26671796035E+02  0.33746103287E+02  0.00000000000E+00 0.  1.
         -1    1    1    2    0  501 -0.11992536659E+02 -0.16840244886E+02  0.21762556468E+02  0.30017055941E+02  0.00000000000E+00 0. -1.
</event>
<event>
 4    1  0.6934088E+001  0.6169063E+02  0.7546771E-02  0.1254194E+00
          2   -1    0    0  502    0  0.00000000000E+00  0.00000000000E+00  0.85097331213E+02  0.85097331213E+02  0.00000000000E+00 0. -1.
         -2   -1    0    0    0  501 -0.00000000000E+00 -0.00000000000E+00 -0.62497100764E+02  0.62497100764E+02  0.00000000000E+00 0.  1.
          1    1    1    2  502    0 -0.75623533099E+01  0.61225360976E+02 -0.28056204070E+02  0.67770824113E+02  0.00000000000E+00 0.  1.
         -1    1    1    2    0  501  0.75623533099E+01 -0.61225360976E+02  0.50656434519E+02  0.79823607864E+02  0.00000000000E+00 0. -1.
</event>
<event>
 4    1  0.6934088E+001  0.3435871E+02  0.7546771E-02  0.1385129E+00
          2   -1    0    0  502    0  0.00000000000E+00  0.00000000000E+00  0.56053938036E+02  0.56053938036E+02  0.00000000000E+00 0. -1.
         -2   -1    0    0    0  501 -0.00000000000E+00 -0.00000000000E+00 -0.21220340432E+02  0.21220340432E+02  0.00000000000E+00 0.  1.
          1    1    1    2  502    0  0.29793667876E+02 -0.17113099333E+02  0.20770685503E+02  0.40148999869E+02  0.00000000000E+00 0. -1.
         -1    1    1    2    0  501 -0.29793667876E+02  0.17113099333E+02  0.14062912101E+02  0.37125278598E+02  0.00000000000E+00 0.  1.
</event>
<event>
 4    1  0.6934088E+001  0.3017471E+02  0.7546771E-02  0.1418084E+00
          2   -1    0    0  502    0  0.00000000000E+00  0.00000000000E+00  0.18635862443E+01  0.18635862443E+01  0.00000000000E+00 0.  1.
         -2   -1    0    0    0  501 -0.00000000000E+00 -0.00000000000E+00 -0.48955194007E+03  0.48955194007E+03  0.00000000000E+00 0. -1.
          1    1    1    2  502    0  0.24862935921E+02 -0.17098166672E+02 -0.25478648813E+03  0.25656708171E+03  0.00000000000E+00 0. -1.
         -1    1    1    2    0  501 -0.24862935921E+02  0.17098166672E+02 -0.23290186569E+03  0.23484844460E+03  0.00000000000E+00 0.  1.
</event>
<event>
 4    1  0.6934088E+001  0.2503143E+02  0.7546771E-02  0.1468452E+00
          2   -1    0    0  502    0  0.00000000000E+00  0.00000000000E+00  0.80609801501E+02  0.80609801501E+02  0.00000000000E+00 0.  1.
         -2   -1    0    0    0  501 -0.00000000000E+00 -0.00000000000E+00 -0.11546710687E+02  0.11546710687E+02  0.00000000000E+00 0. -1.
          1    1    1    2  502    0 -0.12129461375E+02  0.21896312105E+02  0.81890648637E+01  0.26336915164E+02  0.00000000000E+00 0. -1.
         -1    1    1    2    0  501  0.12129461375E+02 -0.21896312105E+02  0.60874025950E+02  0.65819597024E+02  0.00000000000E+00 0.  1.
</event>
<event>
 4    1  0.6934088E+001  0.3070705E+02  0.7546771E-02  0.1413550E+00
          2   -1    0    0  502    0  0.00000000000E+00  0.00000000000E+00  0.31805380758E+03  0.31805380758E+03  0.00000000000E+00 0.  1.
         -2   -1    0    0    0  501 -0.00000000000E+00 -0.00000000000E+00 -0.29664147929E+01  0.29664147929E+01  0.00000000000E+00 0. -1.
          1    1    1    2  502    0  0.21452173370E+02  0.21971056531E+02  0.16144177102E+03  0.16433614483E+03  0.00000000000E+00 0. -1.
         -1    1    1    2    0  501 -0.21452173370E+02 -0.21971056531E+02  0.15364562177E+03  0.15668407755E+03  0.00000000000E+00 0.  1.
</event>
<event>
 4    1  0.6934088E+001  0.2993449E+02  0.7546771E-02  0.1420167E+00
          2   -1    0    0  502    0  0.00000000000E+00  0.00000000000E+00  0.21934465829E+04  0.21934465829E+04  0.00000000000E+00 0.  1.
         -2   -1    0    0    0  501 -0.00000000000E+00 -0.00000000000E+00 -0.41857679717E+00  0.41857679717E+00  0.00000000000E+00 0. -1.
          1    1    1    2  502    0 -0.27192217585E+02  0.12516263367E+02  0.92651132195E+03  0.92699476981E+03  0.00000000000E+00 0. -1.
         -1    1    1    2    0  501  0.27192217585E+02 -0.12516263367E+02  0.12665166842E+04  0.12668703899E+04  0.00000000000E+00 0.  1.
</event>
<event>
 4    1  0.6934088E+001  0.2006694E+02  0.7546771E-02  0.1533015E+00
          2   -1    0    0  502    0  0.00000000000E+00  0.00000000000E+00  0.92497177257E+03  0.92497177257E+03  0.00000000000E+00 0. -1.
         -2   -1    0    0    0  501 -0.00000000000E+00 -0.00000000000E+00 -0.10080483587E+01  0.10080483587E+01  0.00000000000E+00 0.  1.
          1    1    1    2  502    0 -0.70901974755E+01  0.18772615276E+02  0.11300579189E+03  0.11477365109E+03  0.00000000000E+00 0.  1.
         -1    1    1    2    0  501  0.70901974755E+01 -0.18772615276E+02  0.81095793232E+03  0.81120616984E+03  0.00000000000E+00 0. -1.
</event>
<event>
 4    1  0.6934088E+001  0.5188818E+02  0.7546771E-02  0.1290187E+00
          2   -1    0    0  502    0  0.00000000000E+00  0.00000000000E+00  0.26084020968E+04  0.26084020968E+04  0.00000000000E+00 0. -1.
         -2   -1    0    0    0  501 -0.00000000000E+00 -0.00000000000E+00 -0.14522055981E+01  0.14522055981E+01  0.00000000000E+00 0.  1.
          1    1    1    2  502    0 -0.51862478222E+02 -0.16328386801E+01  0.20052561024E+04  0.20059273215E+04  0.00000000000E+00 0. -1.
         -1    1    1    2    0  501  0.51862478222E+02  0.16328386801E+01  0.60169378880E+03  0.60392698092E+03  0.00000000000E+00 0.  1.
</event>
<event>
 4    1  0.6934088E+001  0.2276541E+02  0.7546771E-02  0.1495465E+00
          2   -1    0    0  502    0  0.00000000000E+00  0.00000000000E+00  0.26535565274E+03  0.26535565274E+03  0.00000000000E+00 0. -1.
         -2   -1    0    0    0  501 -0.00000000000E+00 -0.00000000000E+00 -0.21473348519E+01  0.21473348519E+01  0.00000000000E+00 0.  1.
          1    1    1    2  502    0  0.17605707493E+02 -0.14432696993E+02  0.17183162169E+03  0.17333311828E+03  0.00000000000E+00 0. -1.
         -1    1    1    2    0  501 -0.17605707493E+02  0.14432696993E+02  0.91376696198E+02  0.94169869316E+02  0.00000000000E+00 0.  1.
</event>
<event>
 4    1  0.6934088E+001  0.2721812E+02  0.7546771E-02  0.1445429E+00
          2   -1    0    0  502    0  0.00000000000E+00  0.00000000000E+00  0.30673200675E+02  0.30673200675E+02  0.00000000000E+00 0. -1.
         -2   -1    0    0    0  501 -0.00000000000E+00 -0.00000000000E+00 -0.24330924279E+02  0.24330924279E+02  0.00000000000E+00 0.  1.
          1    1    1    2  502    0  0.19290920190E+02 -0.19201204244E+02  0.55281144296E+01  0.27773834726E+02  0.00000000000E+00 0. -1.
         -1    1    1    2    0  501 -0.19290920190E+02  0.19201204244E+02  0.81416196664E+00  0.27230290228E+02  0.00000000000E+00 0.  1.
</event>
<event>
 4    1  0.6934088E+001  0.2183191E+02  0.7546771E-02  0.1507711E+00
          2   -1    0    0  502    0  0.00000000000E+00  0.00000000000E+00  0.27759769858E+03  0.27759769858E+03  0.00000000000E+00 0. -1.
         -2   -1    0    0    0  501 -0.00000000000E+00 -0.00000000000E+00 -0.19868229426E+01  0.19868229426E+01  0.00000000000E+00 0.  1.
          1    1    1    2  502    0 -0.22169857993E-01  0.21831900673E+02  0.18932252535E+03  0.19057715231E+03  0.00000000000E+00 0. -1.
         -1    1    1    2    0  501  0.22169857993E-01 -0.21831900673E+02  0.86288350296E+02  0.89007369219E+02  0.00000000000E+00 0.  1.
</event>
<event>
 4    1  0.6934088E+001  0.2152929E+02  0.7546771E-02  0.1511840E+00
          2   -1    0    0  502    0  0.00000000000E+00  0.00000000000E+00  0.69889929299E+03  0.69889929299E+03  0.00000000000E+00 0.  1.
         -2   -1    0    0    0  501 -0.00000000000E+00 -0.00000000000E+00 -0.76556671432E+00  0.76556671432E+00  0.00000000000E+00 0. -1.
          1    1    1    2  502    0  0.12090644332E+02 -0.17813665791E+02  0.47698933419E+03  0.47747495778E+03  0.00000000000E+00 0.  1.
         -1    1    1    2    0  501 -0.12090644332E+02  0.17813665791E+02  0.22114439208E+03  0.22218990193E+03  0.00000000000E+00 0. -1.
</event>
<event>
 4    1  0.6934088E+001  0.2596942E+02  0.7546771E-02  0.1458244E+00
          2   -1    0    0  502    0  0.00000000000E+00  0.00000000000E+00  0.33978548291E+03  0.33978548291E+03  0.00000000000E+00 0. -1.
         -2   -1    0    0    0  501 -0.00000000000E+00 -0.00000000000E+00 -0.20298324587E+01  0.20298324587E+01  0.00000000000E+00 0.  1.
          1    1    1    2  502    0 -0.25645765867E+02  0.40872157110E+01  0.14342525618E+03  0.14575738318E+03  0.00000000000E+00 0.  1.
         -1    1    1    2    0  501  0.25645765867E+02 -0.40872157110E+01  0.19433039427E+03  0.19605793219E+03  0.00000000000E+00 0. -1.
</event>
<event>
 4    1  0.6934088E+001  0.2776723E+02  0.7546771E-02  0.1440050E+00
          2   -1    0    0  502    0  0.00000000000E+00  0.00000000000E+00  0.13441755031E+04  0.13441755031E+04  0.00000000000E+00 0. -1.
         -2   -1    0    0    0  501 -0.00000000000E+00 -0.00000000000E+00 -0.60544869705E+00  0.60544869705E+00  0.00000000000E+00 0.  1.
          1    1    1    2  502    0 -0.11139809492E+02 -0.25434692639E+02  0.51756906076E+03  0.51831337201E+03  0.00000000000E+00 0. -1.
         -1    1    1    2    0  501  0.11139809492E+02  0.25434692639E+02  0.82600099368E+03  0.82646757983E+03  0.00000000000E+00 0.  1.
</event>
<event>
 4    1  0.6934088E+001  0.4143494E+02  0.7546771E-02  0.1340276E+00
          2   -1    0    0  502    0  0.00000000000E+00  0.00000000000E+00  0.20438833496E+03  0.20438833496E+03  0.00000000000E+00 0.  1.
         -2   -1    0    0    0  501 -0.00000000000E+00 -0.00000000000E+00 -0.96644424394E+01  0.96644424394E+01  0.00000000000E+00 0. -1.
          1    1    1    2  502    0  0.24341717498E+02  0.33531108342E+02  0.13607508353E+03  0.14224374431E+03  0.00000000000E+00 0.  1.
         -1    1    1    2    0  501 -0.24341717498E+02 -0.33531108342E+02  0.58648808991E+02  0.71809033091E+02  0.00000000000E+00 0. -1.
</event>
<event>
 4    1  0.6934088E+001  0.3701599E+02  0.7546771E-02  0.1366919E+00
          2   -1    0    0  502    0  0.00000000000E+00  0.00000000000E+00  0.75446546770E+03  0.75446546770E+03  0.00000000000E+00 0. -1.
         -2   -1    0    0    0  501 -0.00000000000E+00 -0.00000000000E+00 -0.23776048008E+01  0.23776048008E+01  0.00000000000E+00 0.  1.
          1    1    1    2  502    0  0.29150512452E+02  0.22812955318E+02  0.19214319030E+03  0.19567623485E+03  0.00000000000E+00 0.  1.
         -1    1    1    2    0  501 -0.29150512452E+02 -0.22812955318E+02  0.55994467260E+03  0.56116683765E+03  0.00000000000E+00 0. -1.
</event>
<event>
 4    1  0.6934088E+001  0.4634340E+02  0.7546771E-02  0.1314855E+00
          2   -1    0    0  502    0  0.00000000000E+00  0.00000000000E+00  0.13040653671E+04  0.13040653671E+04  0.00000000000E+00 0.  1.
         -2   -1    0    0    0  501 -0.00000000000E+00 -0.00000000000E+00 -0.16809873648E+01  0.16809873648E+01  0.00000000000E+00 0. -1.
          1    1    1    2  502    0 -0.45717261811E+02  0.75922777409E+01  0.55826963265E+03  0.56018987267E+03  0.00000000000E+00 0. -1.
         -1    1    1    2    0  501  0.45717261811E+02 -0.75922777409E+01  0.74411474710E+03  0.74555648180E+03  0.00000000000E+00 0.  1.
</event>
<event>
 4    1  0.6934088E+001  0.4425741E+02  0.7546771E-02  0.1325195E+00
          2   -1    0    0  502    0  0.00000000000E+00  0.00000000000E+00  0.17054281956E+04  0.17054281956E+04  0.00000000000E+00 0.  1.
         -2   -1    0    0    0  501 -0.00000000000E+00 -0.00000000000E+00 -0.12170914390E+01  0.12170914390E+01  0.00000000000E+00 0. -1.
          1    1    1    2  502    0  0.30106341226E+02  0.32439588195E+02  0.64955996247E+03  0.65106594405E+03  0.00000000000E+00 0.  1.
         -1    1    1    2    0  501 -0.30106341226E+02 -0.32439588195E+02  0.10546511417E+04  0.10555793430E+04  0.00000000000E+00 0. -1.
</event>
<event>
 4    1  0.6934088E+001  0.2459144E+02  0.7546771E-02  0.1473426E+00
          2   -1    0    0  502    0  0.00000000000E+00  0.00000000000E+00  0.28967449756E+03  0.28967449756E+03  0.00000000000E+00 0.  1.
         -2   -1    0    0    0  501 -0.00000000000E+00 -0.00000000000E+00 -0.22523705463E+01  0.22523705463E+01  0.00000000000E+00 0. -1.
          1    1    1    2  502    0  0.24065180142E+02  0.50602327787E+01  0.10423820686E+03  0.10709968543E+03  0.00000000000E+00 0.  1.
         -1    1    1    2    0  501 -0.24065180142E+02 -0.50602327787E+01  0.18318392016E+03  0.18482718268E+03  0.00000000000E+00 0. -1.
</event>
<event>
 4    1  0.6934088E+001  0.2187745E+02  0.7546771E-02  0.1507096E+00
          2   -1    0    0  502    0  0.00000000000E+00  0.00000000000E+00  0.26622209331E+01  0.26622209331E+01  0.00000000000E+00 0. -1.
         -2   -1    0    0    0  501 -0.00000000000E+00 -0.00000000000E+00 -0.17985408095E+03  0.17985408095E+03  0.00000000000E+00 0.  1.
          1    1    1    2  502    0 -0.20653102120E+02 -0.72161189564E+01 -0.86786200242E+02  0.89501215368E+02  0.00000000000E+00 0.  1.
         -1    1    1    2    0  501  0.20653102120E+02  0.72161189564E+01 -0.90405659771E+02  0.93015086510E+02  0.00000000000E+00 0. -1.
</event>
<event>
 4    1  0.6934088E+001  0.2875627E+02  0.7546771E-02  0.1430721E+00
          2   -1    0    0  502    0  0.00000000000E+00  0.00000000000E+00  0.12877823585E+04  0.12877823585E+04  0.00000000000E+00 0.  1.
         -2   -1    0    0    0  501 -0.00000000000E+00 -0.00000000000E+00 -0.77688173103E+00  0.77688173103E+00  0.00000000000E+00 0. -1.
          1    1    1    2  502    0 -0.28395508940E+02  0.45407385854E+01  0.91182992700E+03  0.91228325591E+03  0.00000000000E+00 0.  1.
         -1    1    1    2    0  501  0.28395508940E+02 -0.45407385854E+01  0.37517554980E+03  0.37627598435E+03  0.00000000000E+00 0. -1.
</event>
<event>
 4    1  0.6934088E+001  0.2273607E+02  0.7546771E-02  0.1495839E+00
          2   -1    0    0  502    0  0.00000000000E+00  0.00000000000E+00  0.13870815802E+03  0.13870815802E+03  0.00000000000E+00 0.  1.
         -2   -1    0    0    0  501 -0.00000000000E+00 -0.00000000000E+00 -0.66132513073E+01  0.66132513073E+01  0.00000000000E+00 0. -1.
          1    1    1    2  502    0 -0.83373359180E+01 -0.21152250719E+02  0.11405161826E+03  0.11629574587E+03  0.00000000000E+00 0.  1.
         -1    1    1    2    0  501  0.83373359180E+01  0.21152250719E+02  0.18043288452E+02  0.29025663453E+02  0.00000000000E+00 0. -1.
</event>
<event>
 4    1  0.6934088E+001  0.3528707E+02  0.7546771E-02  0.1378556E+00
          2   -1    0    0  502    0  0.00000000000E+00  0.00000000000E+00  0.58525449206E+02  0.58525449206E+02  0.00000000000E+00 0.  1.
         -2   -1    0    0    0  501 -0.00000000000E+00 -0.00000000000E+00 -0.28267406904E+02  0.28267406904E+02  0.00000000000E+00 0. -1.
          1    1    1    2  502    0 -0.34728493727E+02 -0.62537241589E+01  0.36711367439E+02  0.50920544396E+02  0.00000000000E+00 0.  1.
         -1    1    1    2    0  501  0.34728493727E+02  0.62537241589E+01 -0.64533251363E+01  0.35872311714E+02  0.00000000000E+00 0. -1.
</event>
<event>
 4    1  0.6934088E+001  0.3232335E+02  0.7546771E-02  0.1400425E+00
          2   -1    0    0  502    0  0.00000000000E+00  0.00000000000E+00  0.19425337602E+04  0.19425337602E+04  0.00000000000E+00 0.  1.
         -2   -1    0    0    0  501 -0.00000000000E+00 -0.00000000000E+00 -0.10513856645E+01  0.10513856645E+01  0.00000000000E+00 0. -1.
          1    1    1    2  502    0  0.31684393314E+02 -0.63951907347E+01  0.29157472660E+03  0.29336090476E+03  0.00000000000E+00 0. -1.
         -1    1    1    2    0  501 -0.31684393314E+02  0.63951907347E+01  0.16499076479E+04  0.16502242411E+04  0.00000000000E+00 0.  1.
</event>
<event>
 4    1  0.6934088E+001  0.2240701E+02  0.7546771E-02  0.1500082E+00
          2   -1    0    0  502    0  0.00000000000E+00  0.00000000000E+00  0.11001012810E+04  0.11001012810E+04  0.00000000000E+00 0. -1.
         -2   -1    0    0    0  501 -0.00000000000E+00 -0.00000000000E+00 -0.70641807808E+00  0.70641807808E+00  0.00000000000E+00 0.  1.
          1    1    1    2  502    0  0.18941472380E+02 -0.11970578875E+02  0.22224681575E+03  0.22337350166E+03  0.00000000000E+00 0.  1.
         -1    1    1    2    0  501 -0.18941472380E+02  0.11970578875E+02  0.87714804715E+03  0.87743419739E+03  0.00000000000E+00 0. -1.
</event>
<event>
 4    1  0.6934088E+001  0.3229754E+02  0.7546771E-02  0.1400628E+00
          2   -1    0    0  502    0  0.00000000000E+00  0.00000000000E+00  0.15936899084E+04  0.15936899084E+04  0.00000000000E+00 0. -1.
         -2   -1    0    0    0  501 -0.00000000000E+00 -0.00000000000E+00 -0.71835948025E+00  0.71835948025E+00  0.00000000000E+00 0.  1.
          1    1    1    2  502    0 -0.11673559769E+02  0.30114097715E+02  0.10341049477E+04  0.10346091889E+04  0.00000000000E+00 0. -1.
         -1    1    1    2    0  501  0.11673559769E+02 -0.30114097715E+02  0.55886660116E+03  0.55979907893E+03  0.00000000000E+00 0.  1.
</event>
<event>
 4    1  0.6934088E+001  0.2962203E+02  0.7546771E-02  0.1422910E+00
          2   -1    0    0  502    0  0.00000000000E+00  0.00000000000E+00  0.47759412204E+03  0.47759412204E+03  0.00000000000E+00 0.  1.
         -2   -1    0    0    0  501 -0.00000000000E+00 -0.00000000000E+00 -0.19930227275E+01  0.19930227275E+01  0.00000000000E+00 0. -1.
          1    1    1    2  502    0 -0.26956577460E+02  0.12280371449E+02  0.30483732900E+03  0.30627318156E+03  0.00000000000E+00 0.  1.
         -1    1    1    2    0  501  0.26956577460E+02 -0.12280371449E+02  0.17076377032E+03  0.17331396321E+03  0.00000000000E+00 0. -1.
</event>
<event>
 4    1  0.6934088E+001  0.2764679E+02  0.7546771E-02  0.1441217E+00
          2   -1    0    0  502    0  0.00000000000E+00  0.00000000000E+00  0.22549953106E+03  0.22549953106E+03  0.00000000000E+00 0. -1.
         -2   -1    0    0    0  501 -0.00000000000E+00 -0.00000000000E+00 -0.19689906528E+02  0.19689906528E+02  0.00000000000E+00 0.  1.
          1    1    1    2  502    0  0.17031165281E+02 -0.21778065834E+02  0.21444935322E+03  0.21622411946E+03  0.00000000000E+00 0. -1.
         -1    1    1    2    0  501 -0.17031165281E+02  0.21778065834E+02 -0.86397286854E+01  0.28965318124E+02  0.00000000000E+00 0.  1.
</event>
<event>
 4    1  0.6934088E+001  0.2551822E+02  0.7546771E-02  0.1463089E+00
          2   -1    0    0  502    0  0.00000000000E+00  0.00000000000E+00  0.34729502510E+01  0.34729502510E+01  0.00000000000E+00 0. -1.
         -2   -1    0    0    0  501 -0.00000000000E+00 -0.00000000000E+00 -0.31914556794E+03  0.31914556794E+03  0.00000000000E+00 0.  1.
          1    1    1    2  502    0  0.70562674651E+01  0.24523230536E+02 -0.54234518360E+02  0.59937990692E+02  0.00000000000E+00 0.  1.
         -1    1    1    2    0  501 -0.70562674651E+01 -0.24523230536E+02 -0.26143809933E+03  0.26268052750E+03  0.00000000000E+00 0. -1.
</event>
<event>
 4    1  0.6934088E+001  0.2613764E+02  0.7546771E-02  0.1456468E+00
          2   -1    0    0  502    0  0.00000000000E+00  0.00000000000E+00  0.22882631911E+04  0.22882631911E+04  0.00000000000E+00 0. -1.
         -2   -1    0    0    0  501 -0.00000000000E+00 -0.00000000000E+00 -0.57214951435E+00  0.57214951435E+00  0.00000000000E+00 0.  1.
          1    1    1    2  502    0  0.69794807968E+01  0.25188550974E+02  0.19352202000E+04  0.19353967032E+04  0.00000000000E+00 0. -1.
         -1    1    1    2    0  501 -0.69794807968E+01 -0.25188550974E+02  0.35247084159E+03  0.35343863742E+03  0.00000000000E+00 0.  1.
</event>
<event>
 4    1  0.6934088E+001  0.2130011E+02  0.7546771E-02  0.1515023E+00
          2   -1    0    0  502    0  0.00000000000E+00  0.00000000000E+00  0.14968982954E+02  0.14968982954E+02  0.00000000000E+00 0.  1.
         -2   -1    0    0    0  501 -0.00000000000E+00 -0.00000000000E+00 -0.32304655294E+02  0.32304655294E+02  0.00000000000E+00 0. -1.
          1    1    1    2  502    0  0.59373310923E+00 -0.21291838029E+02 -0.27929510787E+01  0.21482445424E+02  0.00000000000E+00 0.  1.
         -1    1    1    2    0  501 -0.59373310923E+00  0.21291838029E+02 -0.14542721261E+02  0.25791192825E+02  0.00000000000E+00 0. -1.
</event>
<event>
 4    1  0.6934088E+001  0.2269065E+02  0.7546771E-02  0.1496420E+00
          2   -1    0    0  502    0  0.00000000000E+00  0.00000000000E+00  0.31901521625E+01  0.31901521625E+01  0.00000000000E+00 0.  1.
         -2   -1    0    0    0  501 -0.00000000000E+00 -0.00000000000E+00 -0.19114749158E+03  0.19114749158E+03  0.00000000000E+00 0. -1.
          1    1    1    2  502    0  0.20484167030E+02 -0.97603475926E+01 -0.55641046962E+02  0.60089862632E+02  0.00000000000E+00 0.  1.
         -1    1    1    2    0  501 -0.20484167030E+02  0.97603475926E+01 -0.13231629246E+03  0.13424778111E+03  0.00000000000E+00 0. -1.
</event>
<event>
 4    1  0.6934088E+001  0.2237322E+02  0.7546771E-02  0.1500522E+00
          2   -1    0    0  502    0  0.00000000000E+00  0.00000000000E+00  0.11634557928E+04  0.11634557928E+04  0.00000000000E+00 0. -1.
         -2   -1    0    0    0  501 -0.00000000000E+00 -0.00000000000E+00 -0.45164810685E+00  0.45164810685E+00  0.00000000000E+00 0.  1.
          1    1    1    2  502    0  0.19830216391E+02  0.10359710868E+02  0.45479131770E+03  0.45534130468E+03  0.00000000000E+00 0.  1.
         -1    1    1    2    0  501 -0.19830216391E+02 -0.10359710868E+02  0.70821282699E+03  0.70856613623E+03  0.00000000000E+00 0. -1.
</event>
<event>
 4    1  0.6934088E+001  0.5759210E+02  0.7546771E-02  0.1268241E+00
          2   -1    0    0  502    0  0.00000000000E+00  0.00000000000E+00  0.35567150149E+02  0.35567150149E+02  0.00000000000E+00 0.  1.
         -2   -1    0    0    0  501 -0.00000000000E+00 -0.00000000000E+00 -0.12464910321E+03  0.12464910321E+03  0.00000000000E+00 0. -1.
          1    1    1    2  502    0  0.38144470430E+02 -0.43149146321E+02 -0.43388286128E+01  0.57755301803E+02  0.00000000000E+00 0.  1.
         -1    1    1    2    0  501 -0.38144470430E+02  0.43149146321E+02 -0.84743124449E+02  0.10246095156E+03  0.00000000000E+00 0. -1.
</event>
<event>
 4    1  0.6934088E+001  0.2361085E+02  0.7546771E-02  0.1484967E+00
          2   -1    0    0  502    0  0.00000000000E+00  0.00000000000E+00  0.39165610319E+01  0.39165610319E+01  0.00000000000E+00 0. -1.
         -2   -1    0    0    0  501 -0.00000000000E+00 -0.00000000000E+00 -0.20519132691E+03  0.20519132691E+03  0.00000000000E+00 0.  1.
          1    1    1    2  502    0 -0.23395674456E+02 -0.31803566486E+01 -0.15850397269E+03  0.16025286771E+03  0.00000000000E+00 0.  1.
         -1    1    1    2    0  501  0.23395674456E+02  0.31803566486E+01 -0.42770793193E+02  0.48855020233E+02  0.00000000000E+00 0. -1.
</event>
<event>
 4    1  0.6934088E+001  0.2451477E+02  0.7546771E-02  0.1474305E+00
          2   -1    0    0  502    0  0.00000000000E+00  0.00000000000E+00  0.19391157762E+02  0.19391157762E+02  0.00000000000E+00 0.  1.
         -2   -1    0    0    0  501 -0.00000000000E+00 -0.00000000000E+00 -0.33161062771E+02  0.33161062771E+02  0.00000000000E+00 0. -1.
          1    1    1    2  502    0 -0.55329309871E+01  0.23882219973E+02 -0.13604924352E+02  0.28036899308E+02  0.00000000000E+00 0. -1.
         -1    1    1    2    0  501  0.55329309871E+01 -0.23882219973E+02 -0.16498065619E+00  0.24515321225E+02  0.00000000000E+00 0.  1.
</event>
