<event>
 4    1  0.3305068E+006  0.7977866E+02  0.7546771E-02  0.1204362E+00
         21   -1    0    0  503  501  0.00000000000E+00  0.00000000000E+00  0.11622640384E+03  0.11622640384E+03  0.00000000000E+00 0. -1.
         21   -1    0    0  504  502 -0.00000000000E+00 -0.00000000000E+00 -0.74970604640E+02  0.74970604640E+02  0.00000000000E+00 0.  1.
         21    1    1    2  503  502  0.74547442795E+02  0.28413247901E+02  0.70262921429E+02  0.10630856979E+03  0.00000000000E+00 0. -1.
         21    1    1    2  504  501 -0.74547442795E+02 -0.28413247901E+02 -0.29007122226E+02  0.84888438691E+02  0.00000000000E+00 0.  1.
</event>
<event>
 4    1  0.3305068E+006  0.3201408E+02  0.7546771E-02  0.1402865E+00
         21   -1    0    0  503  501  0.00000000000E+00  0.00000000000E+00  0.59293466471E+02  0.59293466471E+02  0.00000000000E+00 0. -1.
         21   -1    0    0  504  502 -0.00000000000E+00 -0.00000000000E+00 -0.75540197090E+02  0.75540197090E+02  0.00000000000E+00 0.  1.
         21    1    1    2  503  502 -0.25539511683E+02  0.19303751839E+02  0.51079911515E+02  0.60283155627E+02  0.00000000000E+00 0. -1.
         21    1    1    2  504  501  0.25539511683E+02 -0.19303751839E+02 -0.67326642133E+02  0.74550507933E+02  0.00000000000E+00 0.  1.
</event>
<event>
 4    1  0.3305068E+006  0.2516102E+02  0.7546771E-02  0.1467010E+00
         21   -1    0    0  503  501  0.00000000000E+00  0.00000000000E+00  0.30770947485E+03  0.30770947485E+03  0.00000000000E+00 0.  1.
         21   -1    0    0  501  502 -0.00000000000E+00 -0.00000000000E+00 -0.13252488464E+03  0.13252488464E+03  0.00000000000E+00 0.  1.
         21    1    1    2  503  504  0.24790714638E+02  0.43008804388E+01  0.30599418428E+03  0.30702690097E+03  0.00000000000E+00 0.  1.
         21    1    1    2  504  502 -0.24790714638E+02 -0.43008804388E+01 -0.13080959407E+03  0.13320745852E+03  0.00000000000E+00 0.  1.
</event>
<event>
 4    1  0.3305068E+006  0.5524199E+02  0.7546771E-02  0.1276916E+00
         21   -1    0    0  503  501  0.00000000000E+00  0.00000000000E+00  0.48762031882E+03  0.48762031882E+03  0.00000000000E+00 0. -1.
         21   -1    0    0  504  502 -0.00000000000E+00 -0.00000000000E+00 -0.67509505894E+03  0.67509505894E+03  0.00000000000E+00 0. -1.
         21    1    1    2  503  502  0.39628653955E+02  0.38486977206E+02 -0.67239411619E+03  0.67465956239E+03  0.00000000000E+00 0. -1.
         21    1    1    2  504  501 -0.39628653955E+02 -0.38486977206E+02  0.48491937608E+03  0.48805581538E+03  0.00000000000E+00 0. -1.
</event>
<event>
 4    1  0.3305068E+006  0.4149840E+02  0.7546771E-02  0.1339922E+00
         21   -1    0    0  503  501  0.00000000000E+00  0.00000000000E+00  0.19894595357E+03  0.19894595357E+03  0.00000000000E+00 0. -1.
         21   -1    0    0  504  502 -0.00000000000E+00 -0.00000000000E+00 -0.15813977146E+03  0.15813977146E+03  0.00000000000E+00 0.  1.
         21    1    1    2  503  502 -0.37966188843E+02 -0.16753665502E+02 -0.15318449610E+03  0.15870603848E+03  0.00000000000E+00 0.  1.
         21    1    1    2  504  501  0.37966188843E+02  0.16753665502E+02  0.19399067821E+03  0.19837968655E+03  0.00000000000E+00 0. -1.
</event>
<event>
 4    1  0.3305068E+006  0.2731103E+02  0.7546771E-02  0.1444509E+00
         21   -1    0    0  502  501  0.00000000000E+00  0.00000000000E+00  0.82977084471E+03  0.82977084471E+03  0.00000000000E+00 0.  1.
         21   -1    0    0  504  502 -0.00000000000E+00 -0.00000000000E+00 -0.40188003846E+01  0.40188003846E+01  0.00000000000E+00 0.  1.
         21    1    1    2  503  501 -0.22983348236E+02 -0.14753231535E+02  0.78019867717E+03  0.78067654505E+03  0.00000000000E+00 0.  1.
         21    1    1    2  504  503  0.22983348236E+02  0.14753231535E+02  0.45553367153E+02  0.53113100040E+02  0.00000000000E+00 0.  1.
</event>
<event>
 4    1  0.3305068E+006  0.2877605E+02  0.7546771E-02  0.1430539E+00
         21   -1    0    0  504  501  0.00000000000E+00  0.00000000000E+00  0.76579201199E+02  0.76579201199E+02  0.00000000000E+00 0.  1.
         21   -1    0    0  503  502 -0.00000000000E+00 -0.00000000000E+00 -0.11031260591E+02  0.11031260591E+02  0.00000000000E+00 0.  1.
         21    1    1    2  503  501 -0.13333674616E+02 -0.25500476683E+02  0.26614159483E+02  0.39196615604E+02  0.00000000000E+00 0.  1.
         21    1    1    2  504  502  0.13333674616E+02  0.25500476683E+02  0.38933781125E+02  0.48413846186E+02  0.00000000000E+00 0.  1.
</event>
<event>
 4    1  0.3305068E+006  0.2285952E+02  0.7546771E-02  0.1494270E+00
         21   -1    0    0  504  501  0.00000000000E+00  0.00000000000E+00  0.61551395793E+02  0.61551395793E+02  0.00000000000E+00 0. -1.
         21   -1    0    0  503  502 -0.00000000000E+00 -0.00000000000E+00 -0.25271487923E+02  0.25271487923E+02  0.00000000000E+00 0. -1.
         21    1    1    2  503  501  0.21904020642E+02 -0.65399913230E+01 -0.17235899489E+02  0.28629247947E+02  0.00000000000E+00 0. -1.
         21    1    1    2  504  502 -0.21904020642E+02  0.65399913230E+01  0.53515807359E+02  0.58193635770E+02  0.00000000000E+00 0. -1.
</event>
<event>
 4    1  0.3305068E+006  0.2981977E+02  0.7546771E-02  0.1421169E+00
         21   -1    0    0  503  501  0.00000000000E+00  0.00000000000E+00  0.31961161008E+02  0.31961161008E+02  0.00000000000E+00 0. -1.
         21   -1    0    0  504  502 -0.00000000000E+00 -0.00000000000E+00 -0.43235452480E+02  0.43235452480E+02  0.00000000000E+00 0.  1.
         21    1    1    2  503  502 -0.23003269544E+02 -0.18975463895E+02  0.16812027649E+02  0.34232483307E+02  0.00000000000E+00 0. -1.
         21    1    1    2  504  501  0.23003269544E+02  0.18975463895E+02 -0.28086319120E+02  0.40964130181E+02  0.00000000000E+00 0.  1.
</event>
<event>
 4    1  0.3305068E+006  0.2278391E+02  0.7546771E-02  0.1495230E+00
         21   -1    0    0  503  501  0.00000000000E+00  0.00000000000E+00  0.13172977644E+01  0.13172977644E+01  0.00000000000E+00 0.  1.
         21   -1    0    0  501  502 -0.00000000000E+00 -0.00000000000E+00 -0.10446318635E+04  0.10446318635E+04  0.00000000000E+00 0.  1.
         21    1    1    2  503  504 -0.18499639695E+02  0.13299235427E+02 -0.10894865308E+03  0.11130550453E+03  0.00000000000E+00 0.  1.
         21    1    1    2  504  502  0.18499639695E+02 -0.13299235427E+02 -0.93436591269E+03  0.93464365677E+03  0.00000000000E+00 0.  1.
</event>
<event>
 4    1  0.3305068E+006  0.4578823E+02  0.7546771E-02  0.1317544E+00
         21   -1    0    0  503  501  0.00000000000E+00  0.00000000000E+00  0.21446518426E+03  0.21446518426E+03  0.00000000000E+00 0.  1.
         21   -1    0    0  504  502 -0.00000000000E+00 -0.00000000000E+00 -0.16089283677E+02  0.16089283677E+02  0.00000000000E+00 0. -1.
         21    1    1    2  503  502 -0.27371563599E+02  0.36706392412E+02  0.17140019547E+03  0.17741079095E+03  0.00000000000E+00 0.  1.
         21    1    1    2  504  501  0.27371563599E+02 -0.36706392412E+02  0.26975705117E+02  0.53143676993E+02  0.00000000000E+00 0. -1.
</event>
<event>
 4    1  0.3305068E+006  0.2938464E+02  0.7546771E-02  0.1425020E+00
         21   -1    0    0  502  501  0.00000000000E+00  0.00000000000E+00  0.33409014080E+03  0.33409014080E+03  0.00000000000E+00 0. -1.
         21   -1    0    0  503  502 -0.00000000000E+00 -0.00000000000E+00 -0.62718126298E+01  0.62718126298E+01  0.00000000000E+00 0. -1.
         21    1    1    2  503  504 -0.51672271997E+01  0.28926746943E+02  0.33421551286E+02  0.44502325962E+02  0.00000000000E+00 0. -1.
         21    1    1    2  504  501  0.51672271997E+01 -0.28926746943E+02  0.29439677688E+03  0.29585962747E+03  0.00000000000E+00 0. -1.
</event>
<event>
 4    1  0.3305068E+006  0.2083154E+02  0.7546771E-02  0.1521684E+00
         21   -1    0    0  502  501  0.00000000000E+00  0.00000000000E+00  0.39905085564E+02  0.39905085564E+02  0.00000000000E+00 0.  1.
         21   -1    0    0  503  502 -0.00000000000E+00 -0.00000000000E+00 -0.34473739961E+03  0.34473739961E+03  0.00000000000E+00 0. -1.
         21    1    1    2  503  504  0.11984431973E+02 -0.17038973145E+02 -0.34167973614E+03  0.34231417631E+03  0.00000000000E+00 0. -1.
         21    1    1    2  504  501 -0.11984431973E+02  0.17038973145E+02  0.36847422098E+02  0.42328308858E+02  0.00000000000E+00 0.  1.
</event>
<event>
 4    1  0.3305068E+006  0.2040571E+02  0.7546771E-02  0.1527921E+00
         21   -1    0    0  503  501  0.00000000000E+00  0.00000000000E+00  0.42360143008E+02  0.42360143008E+02  0.00000000000E+00 0.  1.
         21   -1    0    0  501  502 -0.00000000000E+00 -0.00000000000E+00 -0.38772370209E+02  0.38772370209E+02  0.00000000000E+00 0. -1.
         21    1    1    2  503  504  0.13234571508E+02 -0.15531877301E+02  0.36842598551E+02  0.42116150863E+02  0.00000000000E+00 0.  1.
         21    1    1    2  504  502 -0.13234571508E+02  0.15531877301E+02 -0.33254825752E+02  0.39016362353E+02  0.00000000000E+00 0. -1.
</event>
<event>
 4    1  0.3305068E+006  0.2499369E+02  0.7546771E-02  0.1468874E+00
         21   -1    0    0  504  501  0.00000000000E+00  0.00000000000E+00  0.92067926913E+01  0.92067926913E+01  0.00000000000E+00 0.  1.
         21   -1    0    0  503  502 -0.00000000000E+00 -0.00000000000E+00 -0.12891744722E+03  0.12891744722E+03  0.00000000000E+00 0.  1.
         21    1    1    2  503  501 -0.58284893583E+01  0.24304589226E+02 -0.10738749301E+03  0.11025768907E+03  0.00000000000E+00 0.  1.
         21    1    1    2  504  502  0.58284893583E+01 -0.24304589226E+02 -0.12323161520E+02  0.27866550836E+02  0.00000000000E+00 0.  1.
</event>
<event>
 4    1  0.3305068E+006  0.2112543E+02  0.7546771E-02  0.1517481E+00
         21   -1    0    0  502  501  0.00000000000E+00  0.00000000000E+00  0.35219660658E+02  0.35219660658E+02  0.00000000000E+00 0. -1.
         21   -1    0    0  503  502 -0.00000000000E+00 -0.00000000000E+00 -0.18539152881E+02  0.18539152881E+02  0.00000000000E+00 0. -1.
         21    1    1    2  503  504 -0.10730245476E+02 -0.18197408227E+02 -0.67817430531E+01  0.22187290799E+02  0.00000000000E+00 0. -1.
         21    1    1    2  504  501  0.10730245476E+02  0.18197408227E+02  0.23462250830E+02  0.31571522740E+02  0.00000000000E+00 0. -1.
</event>
<event>
 4    1  0.3305068E+006  0.2799368E+02  0.7546771E-02  0.1437874E+00
         21   -1    0    0  503  501  0.00000000000E+00  0.00000000000E+00  0.20815706788E+03  0.20815706788E+03  0.00000000000E+00 0.  1.
         21   -1    0    0  501  502 -0.00000000000E+00 -0.00000000000E+00 -0.46931207012E+01  0.46931207012E+01  0.00000000000E+00 0. -1.
         21    1    1    2  503  504  0.26436915680E+02 -0.92052018478E+01  0.14906764921E+03  0.15167336711E+03  0.00000000000E+00 0.  1.
         21    1    1    2  504  502 -0.26436915680E+02  0.92052018478E+01  0.54396297971E+02  0.61176821466E+02  0.00000000000E+00 0. -1.
</event>
<event>
 4    1  0.3305068E+006  0.2032742E+02  0.7546771E-02  0.1529088E+00
         21   -1    0    0  504  501  0.00000000000E+00  0.00000000000E+00  0.37066218667E+02  0.37066218667E+02  0.00000000000E+00 0. -1.
         21   -1    0    0  503  502 -0.00000000000E+00 -0.00000000000E+00 -0.60798385753E+02  0.60798385753E+02  0.00000000000E+00 0.  1.
         21    1    1    2  503  501  0.89131501537E+01 -0.18269089391E+02 -0.56085413520E+02  0.59655489962E+02  0.00000000000E+00 0.  1.
         21    1    1    2  504  502 -0.89131501537E+01  0.18269089391E+02  0.32353246434E+02  0.38209114458E+02  0.00000000000E+00 0. -1.
</event>
<event>
 4    1  0.3305068E+006  0.2182908E+02  0.7546771E-02  0.1507749E+00
         21   -1    0    0  504  501  0.00000000000E+00  0.00000000000E+00  0.58501961976E+02  0.58501961976E+02  0.00000000000E+00 0. -1.
         21   -1    0    0  503  502 -0.00000000000E+00 -0.00000000000E+00 -0.95068088830E+01  0.95068088830E+01  0.00000000000E+00 0. -1.
         21    1    1    2  503  501  0.13439956795E+02  0.17201055792E+02  0.37366659847E+02  0.43275582343E+02  0.00000000000E+00 0. -1.
         21    1    1    2  504  502 -0.13439956795E+02 -0.17201055792E+02  0.11628493247E+02  0.24733188516E+02  0.00000000000E+00 0. -1.
</event>
<event>
 4    1  0.3305068E+006  0.2171376E+02  0.7546771E-02  0.1509313E+00
         21   -1    0    0  504  501  0.00000000000E+00  0.00000000000E+00  0.22461501740E+02  0.22461501740E+02  0.00000000000E+00 0. -1.
         21   -1    0    0  503  502 -0.00000000000E+00 -0.00000000000E+00 -0.11013724654E+03  0.11013724654E+03  0.00000000000E+00 0.  1.
         21    1    1    2  503  501 -0.19496689389E+02  0.95585910844E+01  0.15809875391E+02  0.26859629941E+02  0.00000000000E+00 0. -1.
         21    1    1    2  504  502  0.19496689389E+02 -0.95585910844E+01 -0.10348562019E+03  0.10573911834E+03  0.00000000000E+00 0.  1.
</event>
<event>
 4    1  0.3305068E+006  0.4439303E+02  0.7546771E-02  0.1324503E+00
         21   -1    0    0  502  501  0.00000000000E+00  0.00000000000E+00  0.24128916914E+02  0.24128916914E+02  0.00000000000E+00 0. -1.
         21   -1    0    0  503  502 -0.00000000000E+00 -0.00000000000E+00 -0.45098259053E+03  0.45098259053E+03  0.00000000000E+00 0.  1.
         21    1    1    2  503  504 -0.27404217767E+02 -0.34924914858E+02 -0.42839765084E+03  0.43069163920E+03  0.00000000000E+00 0.  1.
         21    1    1    2  504  501  0.27404217767E+02  0.34924914858E+02  0.15439772248E+01  0.44419868245E+02  0.00000000000E+00 0. -1.
</event>
<event>
 4    1  0.3305068E+006  0.2291462E+02  0.7546771E-02  0.1493573E+00
         21   -1    0    0  503  501  0.00000000000E+00  0.00000000000E+00  0.33894989245E+02  0.33894989245E+02  0.00000000000E+00 0. -1.
         21   -1    0    0  504  502 -0.00000000000E+00 -0.00000000000E+00 -0.51090599429E+03  0.51090599429E+03  0.00000000000E+00 0.  1.
         21    1    1    2  503  502 -0.14043317877E+02 -0.18107045044E+02 -0.50674442693E+03  0.50726225375E+03  0.00000000000E+00 0.  1.
         21    1    1    2  504  501  0.14043317877E+02  0.18107045044E+02  0.29733421882E+02  0.37538729787E+02  0.00000000000E+00 0. -1.
</event>
<event>
 4    1  0.3305068E+006  0.2804236E+02  0.7546771E-02  0.1437409E+00
         21   -1    0    0  503  501  0.00000000000E+00  0.00000000000E+00  0.28682969890E+03  0.28682969890E+03  0.00000000000E+00 0.  1.
         21   -1    0    0  504  502 -0.00000000000E+00 -0.00000000000E+00 -0.48255456372E+01  0.48255456372E+01  0.00000000000E+00 0.  1.
         21    1    1    2  503  502  0.23357174275E+02  0.15518267071E+02  0.23683375258E+03  0.23848815603E+03  0.00000000000E+00 0.  1.
         21    1    1    2  504  501 -0.23357174275E+02 -0.15518267071E+02  0.45170400679E+02  0.53167088508E+02  0.00000000000E+00 0.  1.
</event>
<event>
 4    1  0.3305068E+006  0.2065670E+02  0.7546771E-02  0.1524223E+00
         21   -1    0    0  504  501  0.00000000000E+00  0.00000000000E+00  0.54955912416E+02  0.54955912416E+02  0.00000000000E+00 0. -1.
         21   -1    0    0  503  502 -0.00000000000E+00 -0.00000000000E+00 -0.96590217733E+01  0.96590217733E+01  0.00000000000E+00 0. -1.
         21    1    1    2  503  501 -0.15757500431E+02 -0.13356659139E+02  0.83397943141E+01  0.22276699315E+02  0.00000000000E+00 0. -1.
         21    1    1    2  504  502  0.15757500431E+02  0.13356659139E+02  0.36957096328E+02  0.42338234873E+02  0.00000000000E+00 0. -1.
</event>
<event>
 4    1  0.3305068E+006  0.2853323E+02  0.7546771E-02  0.1432786E+00
         21   -1    0    0  504  501  0.00000000000E+00  0.00000000000E+00  0.39334837229E+02  0.39334837229E+02  0.00000000000E+00 0.  1.
         21   -1    0    0  503  502 -0.00000000000E+00 -0.00000000000E+00 -0.22716633453E+02  0.22716633453E+02  0.00000000000E+00 0.  1.
         21    1    1    2  503  501 -0.26478008027E+02 -0.10632972327E+02 -0.93999243014E+00  0.28548705669E+02  0.00000000000E+00 0.  1.
         21    1    1    2  504  502  0.26478008027E+02  0.10632972327E+02  0.17558196206E+02  0.33502765014E+02  0.00000000000E+00 0.  1.
</event>
<event>
 4    1  0.3305068E+006  0.2096762E+02  0.7546771E-02  0.1519728E+00
         21   -1    0    0  503  501  0.00000000000E+00  0.00000000000E+00  0.28972647245E+02  0.28972647245E+02  0.00000000000E+00 0. -1.
         21   -1    0    0  504  502 -0.00000000000E+00 -0.00000000000E+00 -0.15402863591E+02  0.15402863591E+02  0.00000000000E+00 0. -1.
         21    1    1    2  503  502  0.16381247179E+02 -0.13088006500E+02  0.40823905262E+01  0.21361345597E+02  0.00000000000E+00 0. -1.
         21    1    1    2  504  501 -0.16381247179E+02  0.13088006500E+02  0.94873931274E+01  0.23014165239E+02  0.00000000000E+00 0. -1.
</event>
<event>
 4    1  0.3305068E+006  0.2878382E+02  0.7546771E-02  0.1430468E+00
         21   -1    0    0  504  501  0.00000000000E+00  0.00000000000E+00  0.11905892634E+02  0.11905892634E+02  0.00000000000E+00 0.  1.
         21   -1    0    0  503  502 -0.00000000000E+00 -0.00000000000E+00 -0.18790298500E+03  0.18790298500E+03  0.00000000000E+00 0. -1.
         21    1    1    2  503  501 -0.21479266215E+02 -0.19161148557E+02 -0.16727379818E+03  0.16973223632E+03  0.00000000000E+00 0. -1.
         21    1    1    2  504  502  0.21479266215E+02  0.19161148557E+02 -0.87232941932E+01  0.30076641314E+02  0.00000000000E+00 0.  1.
</event>
<event>
 4    1  0.3305068E+006  0.2935461E+02  0.7546771E-02  0.1425289E+00
         21   -1    0    0  502  501  0.00000000000E+00  0.00000000000E+00  0.81293086732E+02  0.81293086732E+02  0.00000000000E+00 0.  1.
         21   -1    0    0  503  502 -0.00000000000E+00 -0.00000000000E+00 -0.22526578909E+03  0.22526578909E+03  0.00000000000E+00 0.  1.
         21    1    1    2  503  504 -0.28560082318E+02  0.67834018247E+01 -0.22161607350E+03  0.22355173199E+03  0.00000000000E+00 0.  1.
         21    1    1    2  504  501  0.28560082318E+02 -0.67834018247E+01  0.77643371150E+02  0.83007143824E+02  0.00000000000E+00 0.  1.
</event>
<event>
 4    1  0.3305068E+006  0.2818813E+02  0.7546771E-02  0.1436025E+00
         21   -1    0    0  503  501  0.00000000000E+00  0.00000000000E+00  0.30977821800E+02  0.30977821800E+02  0.00000000000E+00 0.  1.
         21   -1    0    0  501  502 -0.00000000000E+00 -0.00000000000E+00 -0.43264068581E+02  0.43264068581E+02  0.00000000000E+00 0. -1.
         21    1    1    2  503  504 -0.16514647428E+02 -0.22843752905E+02  0.17542748056E+02  0.33201184253E+02  0.00000000000E+00 0.  1.
         21    1    1    2  504  502  0.16514647428E+02  0.22843752905E+02 -0.29828994837E+02  0.41040706127E+02  0.00000000000E+00 0. -1.
</event>
<event>
 4    1  0.3305068E+006  0.1327273E+03  0.7546771E-02  0.1116766E+00
         21   -1    0    0  504  501  0.00000000000E+00  0.00000000000E+00  0.44703164289E+02  0.44703164289E+02  0.00000000000E+00 0.  1.
         21   -1    0    0  503  502 -0.00000000000E+00 -0.00000000000E+00 -0.40215552471E+03  0.40215552471E+03  0.00000000000E+00 0.  1.
         21    1    1    2  503  501 -0.68615217562E+02  0.11361547950E+03 -0.21039175233E+03  0.24875935100E+03  0.00000000000E+00 0.  1.
         21    1    1    2  504  502  0.68615217562E+02 -0.11361547950E+03 -0.14706060808E+03  0.19809933799E+03  0.00000000000E+00 0.  1.
</event>
<event>
 4    1  0.3305068E+006  0.2248850E+02  0.7546771E-02  0.1499023E+00
         21   -1    0    0  503  501  0.00000000000E+00  0.00000000000E+00  0.17838627633E+03  0.17838627633E+03  0.00000000000E+00 0.  1.
         21   -1    0    0  504  502 -0.00000000000E+00 -0.00000000000E+00 -0.32651613634E+01  0.32651613634E+01  0.00000000000E+00 0.  1.
         21    1    1    2  503  502 -0.86287711839E+01  0.20767209158E+02  0.54595731888E+02  0.59045970300E+02  0.00000000000E+00 0.  1.
         21    1    1    2  504  501  0.86287711839E+01 -0.20767209158E+02  0.12052538307E+03  0.12260546739E+03  0.00000000000E+00 0.  1.
</event>
<event>
 4    1  0.3305068E+006  0.2855102E+02  0.7546771E-02  0.1432621E+00
         21   -1    0    0  502  501  0.00000000000E+00  0.00000000000E+00  0.34843127202E+03  0.34843127202E+03  0.00000000000E+00 0. -1.
         21   -1    0    0  504  502 -0.00000000000E+00 -0.00000000000E+00 -0.18725972319E+02  0.18725972319E+02  0.00000000000E+00 0.  1.
         21    1    1    2  503  501 -0.21827664721E+02 -0.18404172768E+02  0.33658117507E+03  0.33778994647E+03  0.00000000000E+00 0. -1.
         21    1    1    2  504  503  0.21827664721E+02  0.18404172768E+02 -0.68758753666E+01  0.29367297876E+02  0.00000000000E+00 0.  1.
</event>
<event>
 4    1  0.3305068E+006  0.5081766E+02  0.7546771E-02  0.1294666E+00
         21   -1    0    0  502  501  0.00000000000E+00  0.00000000000E+00  0.80904383853E+02  0.80904383853E+02  0.00000000000E+00 0.  1.
         21   -1    0    0  503  502 -0.00000000000E+00 -0.00000000000E+00 -0.83676163099E+03  0.83676163099E+03  0.00000000000E+00 0.  1.
         21    1    1    2  503  504  0.54435670174E+00  0.50814743452E+02 -0.82792508785E+03  0.82948320391E+03  0.00000000000E+00 0.  1.
         21    1    1    2  504  501 -0.54435670174E+00 -0.50814743452E+02  0.72067840721E+02  0.88182810925E+02  0.00000000000E+00 0.  1.
</event>
<event>
 4    1  0.3305068E+006  0.2861661E+02  0.7546771E-02  0.1432012E+00
         21   -1    0    0  504  501  0.00000000000E+00  0.00000000000E+00  0.13610535680E+03  0.13610535680E+03  0.00000000000E+00 0.  1.
         21   -1    0    0  501  502 -0.00000000000E+00 -0.00000000000E+00 -0.14951475624E+02  0.14951475624E+02  0.00000000000E+00 0.  1.
         21    1    1    2  503  502 -0.20522648134E+02  0.19943199554E+02  0.21908701218E+01  0.28700352032E+02  0.00000000000E+00 0.  1.
         21    1    1    2  504  503  0.20522648134E+02 -0.19943199554E+02  0.11896301105E+03  0.12235648039E+03  0.00000000000E+00 0.  1.
</event>
<event>
 4    1  0.3305068E+006  0.3016159E+02  0.7546771E-02  0.1418197E+00
         21   -1    0    0  503  501  0.00000000000E+00  0.00000000000E+00  0.24877460974E+02  0.24877460974E+02  0.00000000000E+00 0. -1.
         21   -1    0    0  501  502 -0.00000000000E+00 -0.00000000000E+00 -0.11826124951E+03  0.11826124951E+03  0.00000000000E+00 0.  1.
         21    1    1    2  503  504  0.18916917419E+02  0.23491952317E+02  0.12791902540E+02  0.32762087218E+02  0.00000000000E+00 0. -1.
         21    1    1    2  504  502 -0.18916917419E+02 -0.23491952317E+02 -0.10617569108E+03  0.11037662327E+03  0.00000000000E+00 0.  1.
</event>
<event>
 4    1  0.3305068E+006  0.2175064E+02  0.7546771E-02  0.1508812E+00
         21   -1    0    0  504  501  0.00000000000E+00  0.00000000000E+00  0.16814853142E+01  0.16814853142E+01  0.00000000000E+00 0. -1.
         21   -1    0    0  501  502 -0.00000000000E+00 -0.00000000000E+00 -0.30827396412E+03  0.30827396412E+03  0.00000000000E+00 0. -1.
         21    1    1    2  503  502 -0.16978073424E+02 -0.13595417364E+02 -0.19909449939E+03  0.20027908038E+03  0.00000000000E+00 0. -1.
         21    1    1    2  504  503  0.16978073424E+02  0.13595417364E+02 -0.10749797942E+03  0.10967636906E+03  0.00000000000E+00 0. -1.
</event>
<event>
 4    1  0.3305068E+006  0.2492984E+02  0.7546771E-02  0.1469590E+00
         21   -1    0    0  503  501  0.00000000000E+00  0.00000000000E+00  0.10256434335E+02  0.10256434335E+02  0.00000000000E+00 0. -1.
         21   -1    0    0  504  502 -0.00000000000E+00 -0.00000000000E+00 -0.60946019585E+02  0.60946019585E+02  0.00000000000E+00 0. -1.
         21    1    1    2  503  502  0.21813346817E+02  0.12069577018E+02 -0.28043562317E+02  0.37522502265E+02  0.00000000000E+00 0. -1.
         21    1    1    2  504  501 -0.21813346817E+02 -0.12069577018E+02 -0.22646022933E+02  0.33679951655E+02  0.00000000000E+00 0. -1.
</event>
<event>
 4    1  0.3305068E+006  0.2458203E+02  0.7546771E-02  0.1473534E+00
         21   -1    0    0  504  501  0.00000000000E+00  0.00000000000E+00  0.22689392421E+02  0.22689392421E+02  0.00000000000E+00 0. -1.
         21   -1    0    0  503  502 -0.00000000000E+00 -0.00000000000E+00 -0.36008912093E+02  0.36008912093E+02  0.00000000000E+00 0.  1.
         21    1    1    2  503  501  0.22306211117E+02 -0.10330005461E+02  0.83166619784E+01  0.25950779057E+02  0.00000000000E+00 0. -1.
         21    1    1    2  504  502 -0.22306211117E+02  0.10330005461E+02 -0.21636181651E+02  0.32747525458E+02  0.00000000000E+00 0.  1.
</event>
<event>
 4    1  0.3305068E+006  0.3939098E+02  0.7546771E-02  0.1352092E+00
         21   -1    0    0  503  501  0.00000000000E+00  0.00000000000E+00  0.26022144834E+03  0.26022144834E+03  0.00000000000E+00 0.  1.
         21   -1    0    0  504  502 -0.00000000000E+00 -0.00000000000E+00 -0.51721678072E+03  0.51721678072E+03  0.00000000000E+00 0. -1.
         21    1    1    2  503  502  0.25385227952E+02  0.30120412106E+02 -0.51496958526E+03  0.51647393232E+03  0.00000000000E+00 0. -1.
         21    1    1    2  504  501 -0.25385227952E+02 -0.30120412106E+02  0.25797425288E+03  0.26096429674E+03  0.00000000000E+00 0.  1.
</event>
<event>
 4    1  0.3305068E+006  0.2434940E+02  0.7546771E-02  0.1476215E+00
         21   -1    0    0  504  501  0.00000000000E+00  0.00000000000E+00  0.10967889023E+03  0.10967889023E+03  0.00000000000E+00 0.  1.
         21   -1    0    0  503  502 -0.00000000000E+00 -0.00000000000E+00 -0.11093893286E+02  0.11093893286E+02  0.00000000000E+00 0.  1.
         21    1    1    2  503  501 -0.17090208478E+02  0.17344103810E+02  0.60527091117E+01  0.25090405545E+02  0.00000000000E+00 0.  1.
         21    1    1    2  504  502  0.17090208478E+02 -0.17344103810E+02  0.92532287832E+02  0.95682377972E+02  0.00000000000E+00 0.  1.
</event>
<event>
 4    1  0.3305068E+006  0.2145131E+02  0.7546771E-02  0.1512918E+00
         21   -1    0    0  502  501  0.00000000000E+00  0.00000000000E+00  0.95421319038E+02  0.95421319038E+02  0.00000000000E+00 0. -1.
         21   -1    0    0  503  502 -0.00000000000E+00 -0.00000000000E+00 -0.78845257788E+01  0.78845257788E+01  0.00000000000E+00 0. -1.
         21    1    1    2  503  504 -0.87997866390E-01  0.21451126326E+02  0.11578504797E+02  0.24376635076E+02  0.00000000000E+00 0. -1.
         21    1    1    2  504  501  0.87997866390E-01 -0.21451126326E+02  0.75958288462E+02  0.78929209741E+02  0.00000000000E+00 0. -1.
</event>
<event>
 4    1  0.3305068E+006  0.2094378E+02  0.7546771E-02  0.1520069E+00
         21   -1    0    0  504  501  0.00000000000E+00  0.00000000000E+00  0.12687165879E+02  0.12687165879E+02  0.00000000000E+00 0.  1.
         21   -1    0    0  501  502 -0.00000000000E+00 -0.00000000000E+00 -0.10043858120E+03  0.10043858120E+03  0.00000000000E+00 0. -1.
         21    1    1    2  503  502 -0.20826449588E+02 -0.22137970187E+01 -0.89680216638E+02  0.92093339367E+02  0.00000000000E+00 0. -1.
         21    1    1    2  504  503  0.20826449588E+02  0.22137970187E+01  0.19288013151E+01  0.21032407712E+02  0.00000000000E+00 0.  1.
</event>
<event>
 4    1  0.3305068E+006  0.4237062E+02  0.7546771E-02  0.1335127E+00
         21   -1    0    0  503  501  0.00000000000E+00  0.00000000000E+00  0.74500757802E+03  0.74500757802E+03  0.00000000000E+00 0. -1.
         21   -1    0    0  504  502 -0.00000000000E+00 -0.00000000000E+00 -0.18166661350E+02  0.18166661350E+02  0.00000000000E+00 0. -1.
         21    1    1    2  503  502 -0.42219665372E+02 -0.35734373929E+01  0.80413265304E+01  0.43126935102E+02  0.00000000000E+00 0. -1.
         21    1    1    2  504  501  0.42219665372E+02  0.35734373929E+01  0.71879959014E+03  0.72004730427E+03  0.00000000000E+00 0. -1.
</event>
<event>
 4    1  0.3305068E+006  0.2263214E+02  0.7546771E-02  0.1497170E+00
         21   -1    0    0  503  501  0.00000000000E+00  0.00000000000E+00  0.11952599930E+02  0.11952599930E+02  0.00000000000E+00 0. -1.
         21   -1    0    0  504  502 -0.00000000000E+00 -0.00000000000E+00 -0.11667779716E+03  0.11667779716E+03  0.00000000000E+00 0.  1.
         21    1    1    2  503  502 -0.22622426733E+02  0.66315527359E+00 -0.10352116560E+03  0.10596624790E+03  0.00000000000E+00 0.  1.
         21    1    1    2  504  501  0.22622426733E+02 -0.66315527359E+00 -0.12040316243E+01  0.22664149187E+02  0.00000000000E+00 0. -1.
</event>
<event>
 4    1  0.3305068E+006  0.2189390E+02  0.7546771E-02  0.1506875E+00
         21   -1    0    0  503  501  0.00000000000E+00  0.00000000000E+00  0.83001793835E+01  0.83001793835E+01  0.00000000000E+00 0. -1.
         21   -1    0    0  504  502 -0.00000000000E+00 -0.00000000000E+00 -0.80658644814E+02  0.80658644814E+02  0.00000000000E+00 0. -1.
         21    1    1    2  503  502  0.16293786649E+02 -0.14623794027E+02 -0.59883401990E+02  0.63760212272E+02  0.00000000000E+00 0. -1.
         21    1    1    2  504  501 -0.16293786649E+02  0.14623794027E+02 -0.12475063440E+02  0.25198611925E+02  0.00000000000E+00 0. -1.
</event>
<event>
 4    1  0.3305068E+006  0.2311800E+02  0.7546771E-02  0.1491022E+00
         21   -1    0    0  502  501  0.00000000000E+00  0.00000000000E+00  0.92540614278E+02  0.92540614278E+02  0.00000000000E+00 0.  1.
         21   -1    0    0  503  502 -0.00000000000E+00 -0.00000000000E+00 -0.37201849862E+02  0.37201849862E+02  0.00000000000E+00 0.  1.
         21    1    1    2  503  504  0.27416090809E+01 -0.22954857925E+02 -0.31954303628E+02  0.39440074075E+02  0.00000000000E+00 0.  1.
         21    1    1    2  504  501 -0.27416090809E+01  0.22954857925E+02  0.87293068044E+02  0.90302390064E+02  0.00000000000E+00 0.  1.
</event>
<event>
 4    1  0.3305068E+006  0.2512965E+02  0.7546771E-02  0.1467358E+00
         21   -1    0    0  504  501  0.00000000000E+00  0.00000000000E+00  0.89140065536E+01  0.89140065536E+01  0.00000000000E+00 0. -1.
         21   -1    0    0  503  502 -0.00000000000E+00 -0.00000000000E+00 -0.73606210449E+02  0.73606210449E+02  0.00000000000E+00 0. -1.
         21    1    1    2  503  501  0.57021170855E+01 -0.24474171819E+02 -0.40339704760E+02  0.47526739901E+02  0.00000000000E+00 0. -1.
         21    1    1    2  504  502 -0.57021170855E+01  0.24474171819E+02 -0.24352499135E+02  0.34993477101E+02  0.00000000000E+00 0. -1.
</event>
<event>
 4    1  0.3305068E+006  0.2228815E+02  0.7546771E-02  0.1501636E+00
         21   -1    0    0  503  501  0.00000000000E+00  0.00000000000E+00  0.14616536011E+03  0.14616536011E+03  0.00000000000E+00 0.  1.
         21   -1    0    0  504  502 -0.00000000000E+00 -0.00000000000E+00 -0.43059771995E+02  0.43059771995E+02  0.00000000000E+00 0.  1.
         21    1    1    2  503  502  0.17941013537E+02  0.13224278508E+02 -0.39249241323E+02  0.45136065992E+02  0.00000000000E+00 0.  1.
         21    1    1    2  504  501 -0.17941013537E+02 -0.13224278508E+02  0.14235482944E+03  0.14408906611E+03  0.00000000000E+00 0.  1.
</event>
<event>
 4    1  0.3305068E+006  0.2259001E+02  0.7546771E-02  0.1497712E+00
         21   -1    0    0  504  501  0.00000000000E+00  0.00000000000E+00  0.40369565836E+01  0.40369565836E+01  0.00000000000E+00 0. -1.
         21   -1    0    0  503  502 -0.00000000000E+00 -0.00000000000E+00 -0.19220092433E+03  0.19220092433E+03  0.00000000000E+00 0.  1.
         21    1    1    2  503  501 -0.14828026983E+02  0.17042251784E+02 -0.15148841141E+03  0.15316346667E+03  0.00000000000E+00 0.  1.
         21    1    1    2  504  502  0.14828026983E+02 -0.17042251784E+02 -0.36675556337E+02  0.43074414247E+02  0.00000000000E+00 0. -1.
</event>
<event>
 4    1  0.3305068E+006  0.2044537E+02  0.7546771E-02  0.1527333E+00
         21   -1    0    0  504  501  0.00000000000E+00  0.00000000000E+00  0.11929163494E+02  0.11929163494E+02  0.00000000000E+00 0.  1.
         21   -1    0    0  501  502 -0.00000000000E+00 -0.00000000000E+00 -0.17119649015E+03  0.17119649015E+03  0.00000000000E+00 0. -1.
         21    1    1    2  503  502 -0.15373951063E+02  0.13477933676E+02 -0.16128981500E+03  0.16258049542E+03  0.00000000000E+00 0. -1.
         21    1    1    2  504  503  0.15373951063E+02 -0.13477933676E+02  0.20224883444E+01  0.20545158227E+02  0.00000000000E+00 0.  1.
</event>
<event>
 4    1  0.3305068E+006  0.2121714E+02  0.7546771E-02  0.1516187E+00
         21   -1    0    0  504  501  0.00000000000E+00  0.00000000000E+00  0.14452116848E+04  0.14452116848E+04  0.00000000000E+00 0.  1.
         21   -1    0    0  503  502 -0.00000000000E+00 -0.00000000000E+00 -0.64073735798E+00  0.64073735798E+00  0.00000000000E+00 0.  1.
         21    1    1    2  503  501 -0.16338354080E+02  0.13536066296E+02  0.12405077147E+04  0.12406891460E+04  0.00000000000E+00 0.  1.
         21    1    1    2  504  502  0.16338354080E+02 -0.13536066296E+02  0.20406323274E+03  0.20516327611E+03  0.00000000000E+00 0.  1.
</event>
<event>
 4    1  0.3305068E+006  0.4529076E+02  0.7546771E-02  0.1319992E+00
         21   -1    0    0  503  501  0.00000000000E+00  0.00000000000E+00  0.12022754995E+04  0.12022754995E+04  0.00000000000E+00 0.  1.
         21   -1    0    0  504  502 -0.00000000000E+00 -0.00000000000E+00 -0.22094743457E+01  0.22094743457E+01  0.00000000000E+00 0.  1.
         21    1    1    2  503  502 -0.42341113495E+02 -0.16077394612E+02  0.31258824547E+03  0.31585228148E+03  0.00000000000E+00 0.  1.
         21    1    1    2  504  501  0.42341113495E+02  0.16077394612E+02  0.88747777971E+03  0.88863269239E+03  0.00000000000E+00 0.  1.
</event>
<event>
 4    1  0.3305068E+006  0.3205444E+02  0.7546771E-02  0.1402545E+00
         21   -1    0    0  502  501  0.00000000000E+00  0.00000000000E+00  0.18004333876E+03  0.18004333876E+03  0.00000000000E+00 0.  1.
         21   -1    0    0  503  502 -0.00000000000E+00 -0.00000000000E+00 -0.66008110443E+02  0.66008110443E+02  0.00000000000E+00 0.  1.
         21    1    1    2  503  504 -0.19087021082E+02  0.25752144669E+02 -0.60569663611E+02  0.68528617955E+02  0.00000000000E+00 0.  1.
         21    1    1    2  504  501  0.19087021082E+02 -0.25752144669E+02  0.17460489193E+03  0.17752283125E+03  0.00000000000E+00 0.  1.
</event>
<event>
 4    1  0.3305068E+006  0.2408682E+02  0.7546771E-02  0.1479284E+00
         21   -1    0    0  503  501  0.00000000000E+00  0.00000000000E+00  0.16883417315E+02  0.16883417315E+02  0.00000000000E+00 0.  1.
         21   -1    0    0  504  502 -0.00000000000E+00 -0.00000000000E+00 -0.21831102194E+03  0.21831102194E+03  0.00000000000E+00 0. -1.
         21    1    1    2  503  502  0.23507660682E+02  0.52502330811E+01 -0.20865968229E+03  0.21004532385E+03  0.00000000000E+00 0. -1.
         21    1    1    2  504  501 -0.23507660682E+02 -0.52502330811E+01  0.72320776661E+01  0.25149115402E+02  0.00000000000E+00 0.  1.
</event>
<event>
 4    1  0.3305068E+006  0.2811341E+02  0.7546771E-02  0.1436733E+00
         21   -1    0    0  504  501  0.00000000000E+00  0.00000000000E+00  0.95658874499E+01  0.95658874499E+01  0.00000000000E+00 0. -1.
         21   -1    0    0  501  502 -0.00000000000E+00 -0.00000000000E+00 -0.99125453511E+02  0.99125453511E+02  0.00000000000E+00 0. -1.
         21    1    1    2  503  502  0.28090745150E+02  0.11285984870E+01 -0.66953817576E+02  0.72616646753E+02  0.00000000000E+00 0. -1.
         21    1    1    2  504  503 -0.28090745150E+02 -0.11285984870E+01 -0.22605748485E+02  0.36074694208E+02  0.00000000000E+00 0. -1.
</event>
<event>
 4    1  0.3305068E+006  0.2873839E+02  0.7546771E-02  0.1430886E+00
         21   -1    0    0  503  501  0.00000000000E+00  0.00000000000E+00  0.24947287102E+03  0.24947287102E+03  0.00000000000E+00 0.  1.
         21   -1    0    0  501  502 -0.00000000000E+00 -0.00000000000E+00 -0.18483013541E+02  0.18483013541E+02  0.00000000000E+00 0.  1.
         21    1    1    2  503  504  0.22350277575E+01 -0.28651345095E+02  0.23688266703E+03  0.23861955675E+03  0.00000000000E+00 0.  1.
         21    1    1    2  504  502 -0.22350277575E+01  0.28651345095E+02 -0.58928095525E+01  0.29336327808E+02  0.00000000000E+00 0.  1.
</event>
<event>
 4    1  0.3305068E+006  0.2926399E+02  0.7546771E-02  0.1426102E+00
         21   -1    0    0  504  501  0.00000000000E+00  0.00000000000E+00  0.24842811416E+02  0.24842811416E+02  0.00000000000E+00 0. -1.
         21   -1    0    0  501  502 -0.00000000000E+00 -0.00000000000E+00 -0.26512629923E+03  0.26512629923E+03  0.00000000000E+00 0. -1.
         21    1    1    2  503  502  0.13183269035E+02  0.26126278342E+02 -0.25537270290E+03  0.25704396198E+03  0.00000000000E+00 0. -1.
         21    1    1    2  504  503 -0.13183269035E+02 -0.26126278342E+02  0.15089215090E+02  0.32925148664E+02  0.00000000000E+00 0. -1.
</event>
<event>
 4    1  0.3305068E+006  0.2068358E+02  0.7546771E-02  0.1523831E+00
         21   -1    0    0  502  501  0.00000000000E+00  0.00000000000E+00  0.13863202190E+02  0.13863202190E+02  0.00000000000E+00 0.  1.
         21   -1    0    0  504  502 -0.00000000000E+00 -0.00000000000E+00 -0.12180296925E+03  0.12180296925E+03  0.00000000000E+00 0. -1.
         21    1    1    2  503  501 -0.13343069077E+02 -0.15804207050E+02  0.46437402972E+01  0.21198461662E+02  0.00000000000E+00 0.  1.
         21    1    1    2  504  503  0.13343069077E+02  0.15804207050E+02 -0.11258350736E+03  0.11446770978E+03  0.00000000000E+00 0. -1.
</event>
<event>
 4    1  0.3305068E+006  0.2784655E+02  0.7546771E-02  0.1439285E+00
         21   -1    0    0  503  501  0.00000000000E+00  0.00000000000E+00  0.34979091999E+01  0.34979091999E+01  0.00000000000E+00 0.  1.
         21   -1    0    0  504  502 -0.00000000000E+00 -0.00000000000E+00 -0.57971029350E+03  0.57971029350E+03  0.00000000000E+00 0. -1.
         21    1    1    2  503  502 -0.17973248255E+02  0.21269521090E+02 -0.51726979379E+03  0.51801879285E+03  0.00000000000E+00 0. -1.
         21    1    1    2  504  501  0.17973248255E+02 -0.21269521090E+02 -0.58942590505E+02  0.65189409843E+02  0.00000000000E+00 0.  1.
</event>
<event>
 4    1  0.3305068E+006  0.3069290E+02  0.7546771E-02  0.1413669E+00
         21   -1    0    0  502  501  0.00000000000E+00  0.00000000000E+00  0.32862808699E+03  0.32862808699E+03  0.00000000000E+00 0. -1.
         21   -1    0    0  504  502 -0.00000000000E+00 -0.00000000000E+00 -0.25885880002E+03  0.25885880002E+03  0.00000000000E+00 0.  1.
         21    1    1    2  503  501  0.10878213485E+01  0.30673619522E+02  0.32699708728E+03  0.32843439128E+03  0.00000000000E+00 0. -1.
         21    1    1    2  504  503 -0.10878213485E+01 -0.30673619522E+02 -0.25722780031E+03  0.25905249572E+03  0.00000000000E+00 0.  1.
</event>
<event>
 4    1  0.3305068E+006  0.2316409E+02  0.7546771E-02  0.1490448E+00
         21   -1    0    0  503  501  0.00000000000E+00  0.00000000000E+00  0.53312649962E+01  0.53312649962E+01  0.00000000000E+00 0.  1.
         21   -1    0    0  501  502 -0.00000000000E+00 -0.00000000000E+00 -0.12715001747E+03  0.12715001747E+03  0.00000000000E+00 0. -1.
         21    1    1    2  503  504  0.22135567082E+02  0.68258215566E+01 -0.30667064299E+02  0.38432330175E+02  0.00000000000E+00 0.  1.
         21    1    1    2  504  502 -0.22135567082E+02 -0.68258215566E+01 -0.91151688173E+02  0.94048952289E+02  0.00000000000E+00 0. -1.
</event>
<event>
 4    1  0.3305068E+006  0.2716708E+02  0.7546771E-02  0.1445937E+00
         21   -1    0    0  503  501  0.00000000000E+00  0.00000000000E+00  0.91104701943E+02  0.91104701943E+02  0.00000000000E+00 0. -1.
         21   -1    0    0  501  502 -0.00000000000E+00 -0.00000000000E+00 -0.26430655156E+03  0.26430655156E+03  0.00000000000E+00 0. -1.
         21    1    1    2  503  504 -0.25383218017E+02 -0.96820701508E+01  0.88360126732E+02  0.92442210247E+02  0.00000000000E+00 0. -1.
         21    1    1    2  504  502  0.25383218017E+02  0.96820701508E+01 -0.26156197635E+03  0.26296904326E+03  0.00000000000E+00 0. -1.
</event>
<event>
 4    1  0.3305068E+006  0.3322389E+02  0.7546771E-02  0.1393499E+00
         21   -1    0    0  503  501  0.00000000000E+00  0.00000000000E+00  0.10147767462E+03  0.10147767462E+03  0.00000000000E+00 0.  1.
         21   -1    0    0  504  502 -0.00000000000E+00 -0.00000000000E+00 -0.62272390814E+02  0.62272390814E+02  0.00000000000E+00 0.  1.
         21    1    1    2  503  502  0.70402006209E+01  0.32469403942E+02  0.93983906330E+02  0.99683505487E+02  0.00000000000E+00 0.  1.
         21    1    1    2  504  501 -0.70402006209E+01 -0.32469403942E+02 -0.54778622527E+02  0.64066559944E+02  0.00000000000E+00 0.  1.
</event>
<event>
 4    1  0.3305068E+006  0.2870737E+02  0.7546771E-02  0.1431172E+00
         21   -1    0    0  503  501  0.00000000000E+00  0.00000000000E+00  0.28081770499E+02  0.28081770499E+02  0.00000000000E+00 0. -1.
         21   -1    0    0  504  502 -0.00000000000E+00 -0.00000000000E+00 -0.13276582575E+04  0.13276582575E+04  0.00000000000E+00 0.  1.
         21    1    1    2  503  502  0.27429691124E+02  0.84690818628E+01 -0.13201244825E+04  0.13204365803E+04  0.00000000000E+00 0.  1.
         21    1    1    2  504  501 -0.27429691124E+02 -0.84690818628E+01  0.20547995477E+02  0.35303447719E+02  0.00000000000E+00 0. -1.
</event>
<event>
 4    1  0.3305068E+006  0.2086821E+02  0.7546771E-02  0.1521155E+00
         21   -1    0    0  503  501  0.00000000000E+00  0.00000000000E+00  0.37665525055E+02  0.37665525055E+02  0.00000000000E+00 0. -1.
         21   -1    0    0  504  502 -0.00000000000E+00 -0.00000000000E+00 -0.36445366617E+02  0.36445366617E+02  0.00000000000E+00 0.  1.
         21    1    1    2  503  502  0.92195470258E+01  0.18721166997E+02 -0.30008638103E+02  0.36551340631E+02  0.00000000000E+00 0.  1.
         21    1    1    2  504  501 -0.92195470258E+01 -0.18721166997E+02  0.31228796541E+02  0.37559551042E+02  0.00000000000E+00 0. -1.
</event>
<event>
 4    1  0.3305068E+006  0.3152977E+02  0.7546771E-02  0.1406753E+00
         21   -1    0    0  502  501  0.00000000000E+00  0.00000000000E+00  0.19921272540E+02  0.19921272540E+02  0.00000000000E+00 0.  1.
         21   -1    0    0  504  502 -0.00000000000E+00 -0.00000000000E+00 -0.11344490673E+03  0.11344490673E+03  0.00000000000E+00 0. -1.
         21    1    1    2  503  501 -0.28321124117E+02  0.13857871821E+02  0.31443389097E+01  0.31686172849E+02  0.00000000000E+00 0.  1.
         21    1    1    2  504  503  0.28321124117E+02 -0.13857871821E+02 -0.96667973100E+02  0.10168000642E+03  0.00000000000E+00 0. -1.
</event>
<event>
 4    1  0.3305068E+006  0.2536945E+02  0.7546771E-02  0.1464712E+00
         21   -1    0    0  503  501  0.00000000000E+00  0.00000000000E+00  0.17986078064E+03  0.17986078064E+03  0.00000000000E+00 0. -1.
         21   -1    0    0  504  502 -0.00000000000E+00 -0.00000000000E+00 -0.39993980828E+01  0.39993980828E+01  0.00000000000E+00 0. -1.
         21    1    1    2  503  502 -0.25232497845E+02 -0.26325390063E+01  0.11775797046E+03  0.12045973940E+03  0.00000000000E+00 0. -1.
         21    1    1    2  504  501  0.25232497845E+02  0.26325390063E+01  0.58103412095E+02  0.63400439322E+02  0.00000000000E+00 0. -1.
</event>
<event>
 4    1  0.3305068E+006  0.2798343E+02  0.7546771E-02  0.1437972E+00
         21   -1    0    0  503  501  0.00000000000E+00  0.00000000000E+00  0.11297560466E+03  0.11297560466E+03  0.00000000000E+00 0.  1.
         21   -1    0    0  501  502 -0.00000000000E+00 -0.00000000000E+00 -0.36767629894E+02  0.36767629894E+02  0.00000000000E+00 0.  1.
         21    1    1    2  503  504 -0.27713225929E+02 -0.38793394920E+01  0.10555008334E+03  0.10919657623E+03  0.00000000000E+00 0.  1.
         21    1    1    2  504  502  0.27713225929E+02  0.38793394920E+01 -0.29342108573E+02  0.40546658331E+02  0.00000000000E+00 0.  1.
</event>
<event>
 4    1  0.3305068E+006  0.2125527E+02  0.7546771E-02  0.1515651E+00
         21   -1    0    0  503  501  0.00000000000E+00  0.00000000000E+00  0.77980866810E+01  0.77980866810E+01  0.00000000000E+00 0. -1.
         21   -1    0    0  504  502 -0.00000000000E+00 -0.00000000000E+00 -0.31071531827E+03  0.31071531827E+03  0.00000000000E+00 0. -1.
         21    1    1    2  503  502 -0.64953056156E+01 -0.20238511978E+02 -0.78145956347E+01  0.22646285944E+02  0.00000000000E+00 0. -1.
         21    1    1    2  504  501  0.64953056156E+01  0.20238511978E+02 -0.29510263596E+03  0.29586711901E+03  0.00000000000E+00 0. -1.
</event>
<event>
 4    1  0.3305068E+006  0.2830490E+02  0.7546771E-02  0.1434923E+00
         21   -1    0    0  502  501  0.00000000000E+00  0.00000000000E+00  0.45266788606E+01  0.45266788606E+01  0.00000000000E+00 0. -1.
         21   -1    0    0  503  502 -0.00000000000E+00 -0.00000000000E+00 -0.39667208117E+03  0.39667208117E+03  0.00000000000E+00 0.  1.
         21    1    1    2  503  504  0.24529491812E+02 -0.14123437475E+02 -0.34535666112E+03  0.34651463293E+03  0.00000000000E+00 0.  1.
         21    1    1    2  504  501 -0.24529491812E+02  0.14123437475E+02 -0.46788741189E+02  0.54684127100E+02  0.00000000000E+00 0. -1.
</event>
<event>
 4    1  0.3305068E+006  0.2210457E+02  0.7546771E-02  0.1504059E+00
         21   -1    0    0  504  501  0.00000000000E+00  0.00000000000E+00  0.76809821407E+00  0.76809821407E+00  0.00000000000E+00 0.  1.
         21   -1    0    0  501  502 -0.00000000000E+00 -0.00000000000E+00 -0.69890087757E+03  0.69890087757E+03  0.00000000000E+00 0.  1.
         21    1    1    2  503  502  0.69527026083E+01 -0.20982661636E+02 -0.45390605230E+03  0.45444396407E+03  0.00000000000E+00 0.  1.
         21    1    1    2  504  503 -0.69527026083E+01  0.20982661636E+02 -0.24422672705E+03  0.24522501171E+03  0.00000000000E+00 0.  1.
</event>
<event>
 4    1  0.3305068E+006  0.3876685E+02  0.7546771E-02  0.1355868E+00
         21   -1    0    0  504  501  0.00000000000E+00  0.00000000000E+00  0.29548428847E+02  0.29548428847E+02  0.00000000000E+00 0.  1.
         21   -1    0    0  503  502 -0.00000000000E+00 -0.00000000000E+00 -0.57814261297E+02  0.57814261297E+02  0.00000000000E+00 0. -1.
         21    1    1    2  503  501 -0.20567430358E+02  0.32861062914E+02 -0.29281304840E+02  0.48582542755E+02  0.00000000000E+00 0. -1.
         21    1    1    2  504  502  0.20567430358E+02 -0.32861062914E+02  0.10154723903E+01  0.38780147389E+02  0.00000000000E+00 0.  1.
</event>
<event>
 4    1  0.3305068E+006  0.2110667E+02  0.7546771E-02  0.1517747E+00
         21   -1    0    0  503  501  0.00000000000E+00  0.00000000000E+00  0.22084983671E+02  0.22084983671E+02  0.00000000000E+00 0. -1.
         21   -1    0    0  501  502 -0.00000000000E+00 -0.00000000000E+00 -0.57394324251E+02  0.57394324251E+02  0.00000000000E+00 0. -1.
         21    1    1    2  503  504 -0.21098887728E+02 -0.57327985069E+00  0.14348506386E+02  0.25521977757E+02  0.00000000000E+00 0. -1.
         21    1    1    2  504  502  0.21098887728E+02  0.57327985069E+00 -0.49657846967E+02  0.53957330165E+02  0.00000000000E+00 0. -1.
</event>
<event>
 4    1  0.3305068E+006  0.2394094E+02  0.7546771E-02  0.1481009E+00
         21   -1    0    0  503  501  0.00000000000E+00  0.00000000000E+00  0.59735425404E+02  0.59735425404E+02  0.00000000000E+00 0.  1.
         21   -1    0    0  504  502 -0.00000000000E+00 -0.00000000000E+00 -0.96635906508E+01  0.96635906508E+01  0.00000000000E+00 0.  1.
         21    1    1    2  503  502  0.11387232735E+02 -0.21059426102E+02  0.27956775199E+02  0.36806925661E+02  0.00000000000E+00 0.  1.
         21    1    1    2  504  501 -0.11387232735E+02  0.21059426102E+02  0.22115059555E+02  0.32592090394E+02  0.00000000000E+00 0.  1.
</event>
<event>
 4    1  0.3305068E+006  0.2145548E+02  0.7546771E-02  0.1512860E+00
         21   -1    0    0  504  501  0.00000000000E+00  0.00000000000E+00  0.74851359794E+02  0.74851359794E+02  0.00000000000E+00 0. -1.
         21   -1    0    0  503  502 -0.00000000000E+00 -0.00000000000E+00 -0.45809673346E+02  0.45809673346E+02  0.00000000000E+00 0. -1.
         21    1    1    2  503  501  0.11670400103E+02  0.18003874059E+02  0.70655733360E+02  0.73841522035E+02  0.00000000000E+00 0. -1.
         21    1    1    2  504  502 -0.11670400103E+02 -0.18003874059E+02 -0.41614046912E+02  0.46819511105E+02  0.00000000000E+00 0. -1.
</event>
<event>
 4    1  0.3305068E+006  0.3529438E+02  0.7546771E-02  0.1378505E+00
         21   -1    0    0  502  501  0.00000000000E+00  0.00000000000E+00  0.37548774802E+02  0.37548774802E+02  0.00000000000E+00 0. -1.
         21   -1    0    0  503  502 -0.00000000000E+00 -0.00000000000E+00 -0.36026141164E+02  0.36026141164E+02  0.00000000000E+00 0. -1.
         21    1    1    2  503  504 -0.29708620904E+02 -0.19054950345E+02 -0.95871148392E+01  0.36573297084E+02  0.00000000000E+00 0. -1.
         21    1    1    2  504  501  0.29708620904E+02  0.19054950345E+02  0.11109748477E+02  0.37001618882E+02  0.00000000000E+00 0. -1.
</event>
<event>
 4    1  0.3305068E+006  0.2698999E+02  0.7546771E-02  0.1447709E+00
         21   -1    0    0  503  501  0.00000000000E+00  0.00000000000E+00  0.59264784986E+02  0.59264784986E+02  0.00000000000E+00 0. -1.
         21   -1    0    0  504  502 -0.00000000000E+00 -0.00000000000E+00 -0.84642364697E+02  0.84642364697E+02  0.00000000000E+00 0. -1.
         21    1    1    2  503  502  0.22086521711E+02  0.15512744467E+02  0.53835463911E+02  0.60222228925E+02  0.00000000000E+00 0. -1.
         21    1    1    2  504  501 -0.22086521711E+02 -0.15512744467E+02 -0.79213043623E+02  0.83684920758E+02  0.00000000000E+00 0. -1.
</event>
<event>
 4    1  0.3305068E+006  0.2638678E+02  0.7546771E-02  0.1453867E+00
         21   -1    0    0  502  501  0.00000000000E+00  0.00000000000E+00  0.94187303191E+02  0.94187303191E+02  0.00000000000E+00 0. -1.
         21   -1    0    0  503  502 -0.00000000000E+00 -0.00000000000E+00 -0.18813967173E+02  0.18813967173E+02  0.00000000000E+00 0.  1.
         21    1    1    2  503  504 -0.25924500649E+02 -0.49175468092E+01 -0.63361305535E+01  0.27136848581E+02  0.00000000000E+00 0.  1.
         21    1    1    2  504  501  0.25924500649E+02  0.49175468092E+01  0.81709466572E+02  0.85864421782E+02  0.00000000000E+00 0. -1.
</event>
<event>
 4    1  0.3305068E+006  0.2377143E+02  0.7546771E-02  0.1483032E+00
         21   -1    0    0  502  501  0.00000000000E+00  0.00000000000E+00  0.49560685184E+03  0.49560685184E+03  0.00000000000E+00 0. -1.
         21   -1    0    0  503  502 -0.00000000000E+00 -0.00000000000E+00 -0.17658907920E+01  0.17658907920E+01  0.00000000000E+00 0. -1.
         21    1    1    2  503  504 -0.11406450300E+02 -0.20856029660E+02  0.98888058709E+02  0.10170510920E+03  0.00000000000E+00 0. -1.
         21    1    1    2  504  501  0.11406450300E+02  0.20856029660E+02  0.39495290234E+03  0.39566763344E+03  0.00000000000E+00 0. -1.
</event>
<event>
 4    1  0.3305068E+006  0.2029385E+02  0.7546771E-02  0.1529590E+00
         21   -1    0    0  503  501  0.00000000000E+00  0.00000000000E+00  0.29130592124E+03  0.29130592124E+03  0.00000000000E+00 0. -1.
         21   -1    0    0  501  502 -0.00000000000E+00 -0.00000000000E+00 -0.34695663807E+02  0.34695663807E+02  0.00000000000E+00 0. -1.
         21    1    1    2  503  504  0.96396665202E+01 -0.17858247154E+02  0.28795042147E+03  0.28866465905E+03  0.00000000000E+00 0. -1.
         21    1    1    2  504  502 -0.96396665202E+01  0.17858247154E+02 -0.31340164027E+02  0.37336926002E+02  0.00000000000E+00 0. -1.
</event>
<event>
 4    1  0.3305068E+006  0.5470821E+02  0.7546771E-02  0.1278956E+00
         21   -1    0    0  503  501  0.00000000000E+00  0.00000000000E+00  0.45243950478E+03  0.45243950478E+03  0.00000000000E+00 0. -1.
         21   -1    0    0  504  502 -0.00000000000E+00 -0.00000000000E+00 -0.41418306803E+02  0.41418306803E+02  0.00000000000E+00 0. -1.
         21    1    1    2  503  502 -0.47512079960E+02 -0.27121781292E+02 -0.20841547717E+02  0.58543649304E+02  0.00000000000E+00 0. -1.
         21    1    1    2  504  501  0.47512079960E+02  0.27121781292E+02  0.43186274569E+03  0.43531416228E+03  0.00000000000E+00 0. -1.
</event>
<event>
 4    1  0.3305068E+006  0.2102194E+02  0.7546771E-02  0.1518952E+00
         21   -1    0    0  503  501  0.00000000000E+00  0.00000000000E+00  0.49054567842E+03  0.49054567842E+03  0.00000000000E+00 0.  1.
         21   -1    0    0  504  502 -0.00000000000E+00 -0.00000000000E+00 -0.11117643199E+01  0.11117643199E+01  0.00000000000E+00 0.  1.
         21    1    1    2  503  502  0.16803877865E+02 -0.12631376536E+02  0.35178259114E+03  0.35241014942E+03  0.00000000000E+00 0.  1.
         21    1    1    2  504  501 -0.16803877865E+02  0.12631376536E+02  0.13765132297E+03  0.13924729333E+03  0.00000000000E+00 0.  1.
</event>
<event>
 4    1  0.3305068E+006  0.2566234E+02  0.7546771E-02  0.1461528E+00
         21   -1    0    0  502  501  0.00000000000E+00  0.00000000000E+00  0.32488168437E+02  0.32488168437E+02  0.00000000000E+00 0. -1.
         21   -1    0    0  504  502 -0.00000000000E+00 -0.00000000000E+00 -0.31235093074E+03  0.31235093074E+03  0.00000000000E+00 0.  1.
         21    1    1    2  503  501  0.20368539098E+02  0.15610205505E+02  0.26799571528E+02  0.37104890984E+02  0.00000000000E+00 0. -1.
         21    1    1    2  504  503 -0.20368539098E+02 -0.15610205505E+02 -0.30666233383E+03  0.30773420819E+03  0.00000000000E+00 0.  1.
</event>
<event>
 4    1  0.3305068E+006  0.2663926E+02  0.7546771E-02  0.1451266E+00
         21   -1    0    0  503  501  0.00000000000E+00  0.00000000000E+00  0.57303431440E+01  0.57303431440E+01  0.00000000000E+00 0.  1.
         21   -1    0    0  504  502 -0.00000000000E+00 -0.00000000000E+00 -0.18442528191E+03  0.18442528191E+03  0.00000000000E+00 0.  1.
         21    1    1    2  503  502 -0.23946717155E+02 -0.11670683208E+02 -0.34853334934E+02  0.43868041500E+02  0.00000000000E+00 0.  1.
         21    1    1    2  504  501  0.23946717155E+02  0.11670683208E+02 -0.14384160383E+03  0.14628758355E+03  0.00000000000E+00 0.  1.
</event>
<event>
 4    1  0.3305068E+006  0.2036630E+02  0.7546771E-02  0.1528508E+00
         21   -1    0    0  503  501  0.00000000000E+00  0.00000000000E+00  0.33363781326E+02  0.33363781326E+02  0.00000000000E+00 0. -1.
         21   -1    0    0  504  502 -0.00000000000E+00 -0.00000000000E+00 -0.56868559599E+02  0.56868559599E+02  0.00000000000E+00 0. -1.
         21    1    1    2  503  502 -0.15500822401E+02  0.13210242828E+02 -0.51633315038E+02  0.55504821704E+02  0.00000000000E+00 0. -1.
         21    1    1    2  504  501  0.15500822401E+02 -0.13210242828E+02  0.28128536765E+02  0.34727519220E+02  0.00000000000E+00 0. -1.
</event>
<event>
 4    1  0.3305068E+006  0.2393900E+02  0.7546771E-02  0.1481032E+00
         21   -1    0    0  503  501  0.00000000000E+00  0.00000000000E+00  0.10614515460E+02  0.10614515460E+02  0.00000000000E+00 0.  1.
         21   -1    0    0  504  502 -0.00000000000E+00 -0.00000000000E+00 -0.11871895807E+03  0.11871895807E+03  0.00000000000E+00 0.  1.
         21    1    1    2  503  502  0.17139040569E+02 -0.16713140573E+02 -0.10180194025E+03  0.10457873024E+03  0.00000000000E+00 0.  1.
         21    1    1    2  504  501 -0.17139040569E+02  0.16713140573E+02 -0.63025023583E+01  0.24754743292E+02  0.00000000000E+00 0.  1.
</event>
<event>
 4    1  0.3305068E+006  0.2396692E+02  0.7546771E-02  0.1480701E+00
         21   -1    0    0  503  501  0.00000000000E+00  0.00000000000E+00  0.96461853389E+01  0.96461853389E+01  0.00000000000E+00 0.  1.
         21   -1    0    0  501  502 -0.00000000000E+00 -0.00000000000E+00 -0.82294674923E+02  0.82294674923E+02  0.00000000000E+00 0. -1.
         21    1    1    2  503  504  0.20596110940E+02 -0.12256160854E+02 -0.12155757782E+02  0.26873327147E+02  0.00000000000E+00 0.  1.
         21    1    1    2  504  502 -0.20596110940E+02  0.12256160854E+02 -0.60492731802E+02  0.65067533114E+02  0.00000000000E+00 0. -1.
</event>
<event>
 4    1  0.3305068E+006  0.2350248E+02  0.7546771E-02  0.1486283E+00
         21   -1    0    0  502  501  0.00000000000E+00  0.00000000000E+00  0.36424837625E+02  0.36424837625E+02  0.00000000000E+00 0.  1.
         21   -1    0    0  504  502 -0.00000000000E+00 -0.00000000000E+00 -0.88598073002E+02  0.88598073002E+02  0.00000000000E+00 0.  1.
         21    1    1    2  503  501 -0.12021474896E+02 -0.20195312629E+02  0.30824174937E+02  0.38762046791E+02  0.00000000000E+00 0.  1.
         21    1    1    2  504  503  0.12021474896E+02  0.20195312629E+02 -0.82997410314E+02  0.86260863836E+02  0.00000000000E+00 0.  1.
</event>
<event>
 4    1  0.3305068E+006  0.2012651E+02  0.7546771E-02  0.1532111E+00
         21   -1    0    0  503  501  0.00000000000E+00  0.00000000000E+00  0.29004750029E+03  0.29004750029E+03  0.00000000000E+00 0.  1.
         21   -1    0    0  504  502 -0.00000000000E+00 -0.00000000000E+00 -0.19175835188E+02  0.19175835188E+02  0.00000000000E+00 0.  1.
         21    1    1    2  503  502  0.52203516760E+01 -0.19437700810E+02  0.28431085116E+03  0.28502234363E+03  0.00000000000E+00 0.  1.
         21    1    1    2  504  501 -0.52203516760E+01  0.19437700810E+02 -0.13439186056E+02  0.24200991845E+02  0.00000000000E+00 0.  1.
</event>
<event>
 4    1  0.3305068E+006  0.3399552E+02  0.7546771E-02  0.1387766E+00
         21   -1    0    0  502  501  0.00000000000E+00  0.00000000000E+00  0.38315064443E+03  0.38315064443E+03  0.00000000000E+00 0.  1.
         21   -1    0    0  503  502 -0.00000000000E+00 -0.00000000000E+00 -0.44914339236E+01  0.44914339236E+01  0.00000000000E+00 0.  1.
         21    1    1    2  503  504 -0.71912218932E+01 -0.33226223998E+02  0.78252444161E+02  0.85317880017E+02  0.00000000000E+00 0.  1.
         21    1    1    2  504  501  0.71912218932E+01  0.33226223998E+02  0.30040676635E+03  0.30232419834E+03  0.00000000000E+00 0.  1.
</event>
<event>
 4    1  0.3305068E+006  0.2468902E+02  0.7546771E-02  0.1472312E+00
         21   -1    0    0  503  501  0.00000000000E+00  0.00000000000E+00  0.10406320672E+03  0.10406320672E+03  0.00000000000E+00 0.  1.
         21   -1    0    0  504  502 -0.00000000000E+00 -0.00000000000E+00 -0.24709715976E+02  0.24709715976E+02  0.00000000000E+00 0. -1.
         21    1    1    2  503  502  0.60544257896E+01 -0.23935159915E+02 -0.16562843366E+02  0.29730047631E+02  0.00000000000E+00 0. -1.
         21    1    1    2  504  501 -0.60544257896E+01  0.23935159915E+02  0.95916334115E+02  0.99042875069E+02  0.00000000000E+00 0.  1.
</event>
<event>
 4    1  0.3305068E+006  0.2317111E+02  0.7546771E-02  0.1490361E+00
         21   -1    0    0  502  501  0.00000000000E+00  0.00000000000E+00  0.37542756689E+03  0.37542756689E+03  0.00000000000E+00 0.  1.
         21   -1    0    0  503  502 -0.00000000000E+00 -0.00000000000E+00 -0.32123246258E+01  0.32123246258E+01  0.00000000000E+00 0.  1.
         21    1    1    2  503  504  0.65827173584E+01 -0.22216390201E+02  0.45091914122E+02  0.50696951393E+02  0.00000000000E+00 0.  1.
         21    1    1    2  504  501 -0.65827173584E+01  0.22216390201E+02  0.32712332815E+03  0.32794294013E+03  0.00000000000E+00 0.  1.
</event>
<event>
 4    1  0.3305068E+006  0.2233500E+02  0.7546771E-02  0.1501022E+00
         21   -1    0    0  502  501  0.00000000000E+00  0.00000000000E+00  0.21390381100E+02  0.21390381100E+02  0.00000000000E+00 0.  1.
         21   -1    0    0  503  502 -0.00000000000E+00 -0.00000000000E+00 -0.69311248622E+02  0.69311248622E+02  0.00000000000E+00 0. -1.
         21    1    1    2  503  504 -0.48819083572E+01  0.21794932085E+02 -0.60901936962E+02  0.64868312908E+02  0.00000000000E+00 0. -1.
         21    1    1    2  504  501  0.48819083572E+01 -0.21794932085E+02  0.12981069440E+02  0.25833316814E+02  0.00000000000E+00 0.  1.
</event>
<event>
 4    1  0.3305068E+006  0.2251820E+02  0.7546771E-02  0.1498638E+00
         21   -1    0    0  504  501  0.00000000000E+00  0.00000000000E+00  0.13624302317E+02  0.13624302317E+02  0.00000000000E+00 0. -1.
         21   -1    0    0  503  502 -0.00000000000E+00 -0.00000000000E+00 -0.61925157039E+02  0.61925157039E+02  0.00000000000E+00 0.  1.
         21    1    1    2  503  501  0.25691775086E+01 -0.22371152305E+02 -0.28994084524E+00  0.22520062038E+02  0.00000000000E+00 0. -1.
         21    1    1    2  504  502 -0.25691775086E+01  0.22371152305E+02 -0.48010913877E+02  0.53029397317E+02  0.00000000000E+00 0.  1.
</event>
<event>
 4    1  0.3305068E+006  0.2029422E+02  0.7546771E-02  0.1529585E+00
         21   -1    0    0  504  501  0.00000000000E+00  0.00000000000E+00  0.16858934991E+02  0.16858934991E+02  0.00000000000E+00 0.  1.
         21   -1    0    0  503  502 -0.00000000000E+00 -0.00000000000E+00 -0.33012709686E+02  0.33012709686E+02  0.00000000000E+00 0.  1.
         21    1    1    2  503  501  0.76593910487E+01  0.18793323967E+02 -0.20791644012E+02  0.29054220995E+02  0.00000000000E+00 0.  1.
         21    1    1    2  504  502 -0.76593910487E+01 -0.18793323967E+02  0.46378693170E+01  0.20817423682E+02  0.00000000000E+00 0.  1.
</event>
<event>
 4    1  0.3305068E+006  0.2831712E+02  0.7546771E-02  0.1434808E+00
         21   -1    0    0  503  501  0.00000000000E+00  0.00000000000E+00  0.47153801192E+01  0.47153801192E+01  0.00000000000E+00 0. -1.
         21   -1    0    0  504  502 -0.00000000000E+00 -0.00000000000E+00 -0.22796600043E+03  0.22796600043E+03  0.00000000000E+00 0. -1.
         21    1    1    2  503  502 -0.25355652969E+02  0.12607537354E+02 -0.17026462983E+03  0.17260331198E+03  0.00000000000E+00 0. -1.
         21    1    1    2  504  501  0.25355652969E+02 -0.12607537354E+02 -0.52985990477E+02  0.60078068565E+02  0.00000000000E+00 0. -1.
</event>
<event>
 4    1  0.3305068E+006  0.2314669E+02  0.7546771E-02  0.1490664E+00
         21   -1    0    0  504  501  0.00000000000E+00  0.00000000000E+00  0.92891774061E+02  0.92891774061E+02  0.00000000000E+00 0. -1.
         21   -1    0    0  503  502 -0.00000000000E+00 -0.00000000000E+00 -0.95874538764E+01  0.95874538764E+01  0.00000000000E+00 0. -1.
         21    1    1    2  503  501  0.54821243355E+01 -0.22488117089E+02  0.73994661193E+02  0.77530503561E+02  0.00000000000E+00 0. -1.
         21    1    1    2  504  502 -0.54821243355E+01  0.22488117089E+02  0.93096589918E+01  0.24948724376E+02  0.00000000000E+00 0. -1.
</event>
<event>
 4    1  0.3305068E+006  0.2671157E+02  0.7546771E-02  0.1450527E+00
         21   -1    0    0  503  501  0.00000000000E+00  0.00000000000E+00  0.10150939536E+03  0.10150939536E+03  0.00000000000E+00 0.  1.
         21   -1    0    0  504  502 -0.00000000000E+00 -0.00000000000E+00 -0.42877107253E+02  0.42877107253E+02  0.00000000000E+00 0. -1.
         21    1    1    2  503  502 -0.24582846155E+02  0.10449487173E+02 -0.36694970115E+02  0.45387541672E+02  0.00000000000E+00 0. -1.
         21    1    1    2  504  501  0.24582846155E+02 -0.10449487173E+02  0.95327258226E+02  0.98998960945E+02  0.00000000000E+00 0.  1.
</event>
<event>
 4    1  0.3305068E+006  0.3882500E+02  0.7546771E-02  0.1355512E+00
         21   -1    0    0  503  501  0.00000000000E+00  0.00000000000E+00  0.37866838847E+02  0.37866838847E+02  0.00000000000E+00 0. -1.
         21   -1    0    0  504  502 -0.00000000000E+00 -0.00000000000E+00 -0.10256738289E+04  0.10256738289E+04  0.00000000000E+00 0.  1.
         21    1    1    2  503  502 -0.46338463345E+01  0.38547481739E+02 -0.10152524467E+04  0.10159945430E+04  0.00000000000E+00 0.  1.
         21    1    1    2  504  501  0.46338463345E+01 -0.38547481739E+02  0.27445456697E+02  0.47546124695E+02  0.00000000000E+00 0. -1.
</event>
<event>
 4    1  0.3305068E+006  0.2370393E+02  0.7546771E-02  0.1483843E+00
         21   -1    0    0  502  501  0.00000000000E+00  0.00000000000E+00  0.12629013926E+02  0.12629013926E+02  0.00000000000E+00 0. -1.
         21   -1    0    0  504  502 -0.00000000000E+00 -0.00000000000E+00 -0.15876845775E+03  0.15876845775E+03  0.00000000000E+00 0. -1.
         21    1    1    2  503  501 -0.84300634729E+01 -0.22154240589E+02 -0.36330288520E+00  0.23706714981E+02  0.00000000000E+00 0. -1.
         21    1    1    2  504  503  0.84300634729E+01  0.22154240589E+02 -0.14577614094E+03  0.14769075669E+03  0.00000000000E+00 0. -1.
</event>
<event>
 4    1  0.3305068E+006  0.2581740E+02  0.7546771E-02  0.1459863E+00
         21   -1    0    0  503  501  0.00000000000E+00  0.00000000000E+00  0.37752047623E+02  0.37752047623E+02  0.00000000000E+00 0. -1.
         21   -1    0    0  504  502 -0.00000000000E+00 -0.00000000000E+00 -0.22121960141E+02  0.22121960141E+02  0.00000000000E+00 0. -1.
         21    1    1    2  503  502 -0.22054240889E+02 -0.13421936384E+02 -0.56364251086E+01  0.26425502937E+02  0.00000000000E+00 0. -1.
         21    1    1    2  504  501  0.22054240889E+02  0.13421936384E+02  0.21266512591E+02  0.33448504828E+02  0.00000000000E+00 0. -1.
</event>
<event>
 4    1  0.3305068E+006  0.3687156E+02  0.7546771E-02  0.1367862E+00
         21   -1    0    0  503  501  0.00000000000E+00  0.00000000000E+00  0.11991985684E+02  0.11991985684E+02  0.00000000000E+00 0. -1.
         21   -1    0    0  504  502 -0.00000000000E+00 -0.00000000000E+00 -0.12100708571E+03  0.12100708571E+03  0.00000000000E+00 0. -1.
         21    1    1    2  503  502  0.19892912503E+02 -0.31044865992E+02 -0.37799573557E+02  0.52804539893E+02  0.00000000000E+00 0. -1.
         21    1    1    2  504  501 -0.19892912503E+02  0.31044865992E+02 -0.71215526465E+02  0.80194531497E+02  0.00000000000E+00 0. -1.
</event>
<event>
 4    1  0.3305068E+006  0.2019101E+02  0.7546771E-02  0.1531136E+00
         21   -1    0    0  504  501  0.00000000000E+00  0.00000000000E+00  0.43558887386E+03  0.43558887386E+03  0.00000000000E+00 0. -1.
         21   -1    0    0  503  502 -0.00000000000E+00 -0.00000000000E+00 -0.46259822847E+01  0.46259822847E+01  0.00000000000E+00 0. -1.
         21    1    1    2  503  501 -0.70939301675E+01 -0.18903782435E+02  0.18896843719E+02  0.27654430714E+02  0.00000000000E+00 0. -1.
         21    1    1    2  504  502  0.70939301675E+01  0.18903782435E+02  0.41206604786E+03  0.41256042543E+03  0.00000000000E+00 0. -1.
</event>
<event>
 4    1  0.3305068E+006  0.3130220E+02  0.7546771E-02  0.1408608E+00
         21   -1    0    0  503  501  0.00000000000E+00  0.00000000000E+00  0.27643729978E+02  0.27643729978E+02  0.00000000000E+00 0.  1.
         21   -1    0    0  501  502 -0.00000000000E+00 -0.00000000000E+00 -0.19621234801E+03  0.19621234801E+03  0.00000000000E+00 0.  1.
         21    1    1    2  503  504 -0.30022290378E+02 -0.88594437058E+01  0.17030951089E+02  0.35635389114E+02  0.00000000000E+00 0.  1.
         21    1    1    2  504  502  0.30022290378E+02  0.88594437058E+01 -0.18559956912E+03  0.18822068888E+03  0.00000000000E+00 0.  1.
</event>
<event>
 4    1  0.3305068E+006  0.2514267E+02  0.7546771E-02  0.1467214E+00
         21   -1    0    0  504  501  0.00000000000E+00  0.00000000000E+00  0.37884528282E+01  0.37884528282E+01  0.00000000000E+00 0.  1.
         21   -1    0    0  503  502 -0.00000000000E+00 -0.00000000000E+00 -0.42255055905E+03  0.42255055905E+03  0.00000000000E+00 0.  1.
         21    1    1    2  503  501  0.18081510539E+02 -0.17470336355E+02 -0.43559760322E+02  0.50295192564E+02  0.00000000000E+00 0.  1.
         21    1    1    2  504  502 -0.18081510539E+02  0.17470336355E+02 -0.37520234590E+03  0.37604381931E+03  0.00000000000E+00 0.  1.
</event>
<event>
 4    1  0.3305068E+006  0.2010439E+02  0.7546771E-02  0.1532446E+00
         21   -1    0    0  503  501  0.00000000000E+00  0.00000000000E+00  0.13617612170E+03  0.13617612170E+03  0.00000000000E+00 0. -1.
         21   -1    0    0  501  502 -0.00000000000E+00 -0.00000000000E+00 -0.82750344257E+01  0.82750344257E+01  0.00000000000E+00 0.  1.
         21    1    1    2  503  504 -0.13636278391E+02  0.14772899591E+02  0.12179041126E+03  0.12343861197E+03  0.00000000000E+00 0. -1.
         21    1    1    2  504  502  0.13636278391E+02 -0.14772899591E+02  0.61106760211E+01  0.21012544161E+02  0.00000000000E+00 0.  1.
</event>
<event>
 4    1  0.3305068E+006  0.2032472E+02  0.7546771E-02  0.1529128E+00
         21   -1    0    0  503  501  0.00000000000E+00  0.00000000000E+00  0.14775177228E+02  0.14775177228E+02  0.00000000000E+00 0. -1.
         21   -1    0    0  504  502 -0.00000000000E+00 -0.00000000000E+00 -0.14783564338E+03  0.14783564338E+03  0.00000000000E+00 0.  1.
         21    1    1    2  503  502  0.16745590491E+02  0.11518663514E+02 -0.13974484079E+03  0.14121513706E+03  0.00000000000E+00 0.  1.
         21    1    1    2  504  501 -0.16745590491E+02 -0.11518663514E+02  0.66843746342E+01  0.21395683544E+02  0.00000000000E+00 0. -1.
</event>
<event>
 4    1  0.3305068E+006  0.3036351E+02  0.7546771E-02  0.1416463E+00
         21   -1    0    0  504  501  0.00000000000E+00  0.00000000000E+00  0.53585810869E+02  0.53585810869E+02  0.00000000000E+00 0.  1.
         21   -1    0    0  503  502 -0.00000000000E+00 -0.00000000000E+00 -0.19587387487E+02  0.19587387487E+02  0.00000000000E+00 0. -1.
         21    1    1    2  503  501 -0.18452142938E+02  0.24113500475E+02  0.29758967181E+02  0.42515157436E+02  0.00000000000E+00 0.  1.
         21    1    1    2  504  502  0.18452142938E+02 -0.24113500475E+02  0.42394562007E+01  0.30658040920E+02  0.00000000000E+00 0. -1.
</event>
<event>
 4    1  0.3305068E+006  0.2123050E+02  0.7546771E-02  0.1515999E+00
         21   -1    0    0  504  501  0.00000000000E+00  0.00000000000E+00  0.46346309249E+02  0.46346309249E+02  0.00000000000E+00 0. -1.
         21   -1    0    0  503  502 -0.00000000000E+00 -0.00000000000E+00 -0.30904283260E+02  0.30904283260E+02  0.00000000000E+00 0. -1.
         21    1    1    2  503  501  0.11293068077E+02 -0.17977787750E+02  0.39696302921E+02  0.45017004616E+02  0.00000000000E+00 0. -1.
         21    1    1    2  504  502 -0.11293068077E+02  0.17977787750E+02 -0.24254276932E+02  0.32233587893E+02  0.00000000000E+00 0. -1.
</event>
<event>
 4    1  0.3305068E+006  0.2080034E+02  0.7546771E-02  0.1522135E+00
         21   -1    0    0  504  501  0.00000000000E+00  0.00000000000E+00  0.13468390521E+02  0.13468390521E+02  0.00000000000E+00 0.  1.
         21   -1    0    0  501  502 -0.00000000000E+00 -0.00000000000E+00 -0.40453393595E+02  0.40453393595E+02  0.00000000000E+00 0.  1.
         21    1    1    2  503  502 -0.16424253065E+02 -0.12763151283E+02 -0.25726603570E+02  0.33083413528E+02  0.00000000000E+00 0.  1.
         21    1    1    2  504  503  0.16424253065E+02  0.12763151283E+02 -0.12583995036E+01  0.20838370587E+02  0.00000000000E+00 0.  1.
</event>
<event>
 4    1  0.3305068E+006  0.2607569E+02  0.7546771E-02  0.1457121E+00
         21   -1    0    0  503  501  0.00000000000E+00  0.00000000000E+00  0.54245609505E+02  0.54245609505E+02  0.00000000000E+00 0.  1.
         21   -1    0    0  504  502 -0.00000000000E+00 -0.00000000000E+00 -0.16680358333E+02  0.16680358333E+02  0.00000000000E+00 0.  1.
         21    1    1    2  503  502  0.50019973130E+01 -0.25591432380E+02  0.11027170906E+01  0.26098991808E+02  0.00000000000E+00 0.  1.
         21    1    1    2  504  501 -0.50019973130E+01  0.25591432380E+02  0.36462534081E+02  0.44826976030E+02  0.00000000000E+00 0.  1.
</event>
<event>
 4    1  0.3305068E+006  0.2133001E+02  0.7546771E-02  0.1514605E+00
         21   -1    0    0  503  501  0.00000000000E+00  0.00000000000E+00  0.90352971665E+01  0.90352971665E+01  0.00000000000E+00 0. -1.
         21   -1    0    0  501  502 -0.00000000000E+00 -0.00000000000E+00 -0.12159287703E+03  0.12159287703E+03  0.00000000000E+00 0.  1.
         21    1    1    2  503  504 -0.20874296364E+02 -0.43855340040E+01 -0.62857704273E+01  0.22236907768E+02  0.00000000000E+00 0. -1.
         21    1    1    2  504  502  0.20874296364E+02  0.43855340040E+01 -0.10627180944E+03  0.10839126643E+03  0.00000000000E+00 0.  1.
</event>
<event>
 4    1  0.3305068E+006  0.2610276E+02  0.7546771E-02  0.1456835E+00
         21   -1    0    0  504  501  0.00000000000E+00  0.00000000000E+00  0.15823271639E+01  0.15823271639E+01  0.00000000000E+00 0. -1.
         21   -1    0    0  503  502 -0.00000000000E+00 -0.00000000000E+00 -0.43872830183E+03  0.43872830183E+03  0.00000000000E+00 0. -1.
         21    1    1    2  503  501 -0.74221908574E+01  0.25025285917E+02 -0.18861121464E+03  0.19040888671E+03  0.00000000000E+00 0. -1.
         21    1    1    2  504  502  0.74221908574E+01 -0.25025285917E+02 -0.24853476002E+03  0.24990174227E+03  0.00000000000E+00 0. -1.
</event>
<event>
 4    1  0.3305068E+006  0.2020234E+02  0.7546771E-02  0.1530965E+00
         21   -1    0    0  504  501  0.00000000000E+00  0.00000000000E+00  0.80801767153E+01  0.80801767153E+01  0.00000000000E+00 0. -1.
         21   -1    0    0  503  502 -0.00000000000E+00 -0.00000000000E+00 -0.45395713847E+03  0.45395713847E+03  0.00000000000E+00 0.  1.
         21    1    1    2  503  501 -0.18114563573E+02 -0.89441148628E+01 -0.51511432507E+01  0.20848714131E+02  0.00000000000E+00 0. -1.
         21    1    1    2  504  502  0.18114563573E+02  0.89441148628E+01 -0.44072581851E+03  0.44118860106E+03  0.00000000000E+00 0.  1.
</event>
<event>
 4    1  0.3305068E+006  0.4323551E+02  0.7546771E-02  0.1330502E+00
         21   -1    0    0  504  501  0.00000000000E+00  0.00000000000E+00  0.11085621352E+03  0.11085621352E+03  0.00000000000E+00 0.  1.
         21   -1    0    0  501  502 -0.00000000000E+00 -0.00000000000E+00 -0.37535965889E+02  0.37535965889E+02  0.00000000000E+00 0.  1.
         21    1    1    2  503  502 -0.15429982326E+02 -0.40388421562E+02 -0.18403430309E+02  0.46989309401E+02  0.00000000000E+00 0.  1.
         21    1    1    2  504  503  0.15429982326E+02  0.40388421562E+02  0.91723677939E+02  0.10140287001E+03  0.00000000000E+00 0.  1.
</event>
<event>
 4    1  0.3305068E+006  0.2110988E+02  0.7546771E-02  0.1517702E+00
         21   -1    0    0  502  501  0.00000000000E+00  0.00000000000E+00  0.80107245878E+03  0.80107245878E+03  0.00000000000E+00 0. -1.
         21   -1    0    0  504  502 -0.00000000000E+00 -0.00000000000E+00 -0.24507795104E+01  0.24507795104E+01  0.00000000000E+00 0.  1.
         21    1    1    2  503  501  0.20695444755E+02  0.41623977164E+01  0.75254496877E+03  0.75284099053E+03  0.00000000000E+00 0. -1.
         21    1    1    2  504  503 -0.20695444755E+02 -0.41623977164E+01  0.46076710491E+02  0.50682247761E+02  0.00000000000E+00 0.  1.
</event>
<event>
 4    1  0.3305068E+006  0.2021242E+02  0.7546771E-02  0.1530813E+00
         21   -1    0    0  504  501  0.00000000000E+00  0.00000000000E+00  0.65428532930E+03  0.65428532930E+03  0.00000000000E+00 0. -1.
         21   -1    0    0  503  502 -0.00000000000E+00 -0.00000000000E+00 -0.20269591374E+03  0.20269591374E+03  0.00000000000E+00 0.  1.
         21    1    1    2  503  501  0.13057921560E+02 -0.15428311782E+02 -0.20203541676E+03  0.20304396505E+03  0.00000000000E+00 0.  1.
         21    1    1    2  504  502 -0.13057921560E+02  0.15428311782E+02  0.65362483231E+03  0.65393727798E+03  0.00000000000E+00 0. -1.
</event>
<event>
 4    1  0.3305068E+006  0.2339229E+02  0.7546771E-02  0.1487630E+00
         21   -1    0    0  502  501  0.00000000000E+00  0.00000000000E+00  0.44550015202E+02  0.44550015202E+02  0.00000000000E+00 0. -1.
         21   -1    0    0  503  502 -0.00000000000E+00 -0.00000000000E+00 -0.89835583205E+02  0.89835583205E+02  0.00000000000E+00 0. -1.
         21    1    1    2  503  504  0.16841503718E+02 -0.16234617383E+02 -0.85073343140E+02  0.88230792596E+02  0.00000000000E+00 0. -1.
         21    1    1    2  504  501 -0.16841503718E+02  0.16234617383E+02  0.39787775138E+02  0.46154805811E+02  0.00000000000E+00 0. -1.
</event>
<event>
 4    1  0.3305068E+006  0.3777238E+02  0.7546771E-02  0.1362058E+00
         21   -1    0    0  504  501  0.00000000000E+00  0.00000000000E+00  0.23868045408E+03  0.23868045408E+03  0.00000000000E+00 0. -1.
         21   -1    0    0  503  502 -0.00000000000E+00 -0.00000000000E+00 -0.65648103234E+01  0.65648103234E+01  0.00000000000E+00 0. -1.
         21    1    1    2  503  501 -0.88040639380E+01  0.36732017563E+02  0.15272951944E+03  0.15733104832E+03  0.00000000000E+00 0. -1.
         21    1    1    2  504  502  0.88040639380E+01 -0.36732017563E+02  0.79386124313E+02  0.87914216083E+02  0.00000000000E+00 0. -1.
</event>
<event>
 4    1  0.3305068E+006  0.3370099E+02  0.7546771E-02  0.1389933E+00
         21   -1    0    0  504  501  0.00000000000E+00  0.00000000000E+00  0.44151495554E+02  0.44151495554E+02  0.00000000000E+00 0.  1.
         21   -1    0    0  501  502 -0.00000000000E+00 -0.00000000000E+00 -0.32633366345E+02  0.32633366345E+02  0.00000000000E+00 0.  1.
         21    1    1    2  503  502 -0.32536100185E+02  0.87840148427E+01 -0.11906648708E+02  0.35742481943E+02  0.00000000000E+00 0.  1.
         21    1    1    2  504  503  0.32536100185E+02 -0.87840148427E+01  0.23424777918E+02  0.41042379956E+02  0.00000000000E+00 0.  1.
</event>
<event>
 4    1  0.3305068E+006  0.2895099E+02  0.7546771E-02  0.1428937E+00
         21   -1    0    0  503  501  0.00000000000E+00  0.00000000000E+00  0.10034289844E+03  0.10034289844E+03  0.00000000000E+00 0. -1.
         21   -1    0    0  501  502 -0.00000000000E+00 -0.00000000000E+00 -0.10590817813E+02  0.10590817813E+02  0.00000000000E+00 0. -1.
         21    1    1    2  503  504  0.28926714997E+02  0.11853070461E+01  0.70372828257E+02  0.76095300447E+02  0.00000000000E+00 0. -1.
         21    1    1    2  504  502 -0.28926714997E+02 -0.11853070461E+01  0.19379252369E+02  0.34838415804E+02  0.00000000000E+00 0. -1.
</event>
<event>
 4    1  0.3305068E+006  0.2516796E+02  0.7546771E-02  0.1466933E+00
         21   -1    0    0  502  501  0.00000000000E+00  0.00000000000E+00  0.34744456448E+02  0.34744456448E+02  0.00000000000E+00 0.  1.
         21   -1    0    0  503  502 -0.00000000000E+00 -0.00000000000E+00 -0.15035428354E+03  0.15035428354E+03  0.00000000000E+00 0. -1.
         21    1    1    2  503  504  0.45032052697E+01 -0.24761817145E+02 -0.14456205434E+03  0.14673654624E+03  0.00000000000E+00 0. -1.
         21    1    1    2  504  501 -0.45032052697E+01  0.24761817145E+02  0.28952227254E+02  0.38362193746E+02  0.00000000000E+00 0.  1.
</event>
<event>
 4    1  0.3305068E+006  0.2076266E+02  0.7546771E-02  0.1522681E+00
         21   -1    0    0  502  501  0.00000000000E+00  0.00000000000E+00  0.66559294889E+02  0.66559294889E+02  0.00000000000E+00 0. -1.
         21   -1    0    0  504  502 -0.00000000000E+00 -0.00000000000E+00 -0.11464638420E+02  0.11464638420E+02  0.00000000000E+00 0. -1.
         21    1    1    2  503  501  0.18412852103E+02  0.95945184013E+01  0.53279475772E+02  0.57182081499E+02  0.00000000000E+00 0. -1.
         21    1    1    2  504  503 -0.18412852103E+02 -0.95945184013E+01  0.18151806968E+01  0.20841851810E+02  0.00000000000E+00 0. -1.
</event>
<event>
 4    1  0.3305068E+006  0.2031511E+02  0.7546771E-02  0.1529272E+00
         21   -1    0    0  503  501  0.00000000000E+00  0.00000000000E+00  0.84154616437E+02  0.84154616437E+02  0.00000000000E+00 0.  1.
         21   -1    0    0  504  502 -0.00000000000E+00 -0.00000000000E+00 -0.17924176011E+02  0.17924176011E+02  0.00000000000E+00 0.  1.
         21    1    1    2  503  502  0.20227978857E+02  0.18794817781E+01  0.76615545503E+02  0.79263140193E+02  0.00000000000E+00 0.  1.
         21    1    1    2  504  501 -0.20227978857E+02 -0.18794817781E+01 -0.10385105077E+02  0.22815652256E+02  0.00000000000E+00 0.  1.
</event>
<event>
 4    1  0.3305068E+006  0.2708990E+02  0.7546771E-02  0.1446707E+00
         21   -1    0    0  504  501  0.00000000000E+00  0.00000000000E+00  0.17640650565E+02  0.17640650565E+02  0.00000000000E+00 0.  1.
         21   -1    0    0  503  502 -0.00000000000E+00 -0.00000000000E+00 -0.47303942733E+02  0.47303942733E+02  0.00000000000E+00 0. -1.
         21    1    1    2  503  501  0.24856280039E+02 -0.10771634508E+02 -0.35563837569E+01  0.27322346765E+02  0.00000000000E+00 0.  1.
         21    1    1    2  504  502 -0.24856280039E+02  0.10771634508E+02 -0.26106908411E+02  0.37622246532E+02  0.00000000000E+00 0. -1.
</event>
<event>
 4    1  0.3305068E+006  0.2411924E+02  0.7546771E-02  0.1478903E+00
         21   -1    0    0  503  501  0.00000000000E+00  0.00000000000E+00  0.63092310398E+02  0.63092310398E+02  0.00000000000E+00 0. -1.
         21   -1    0    0  504  502 -0.00000000000E+00 -0.00000000000E+00 -0.87330594907E+02  0.87330594907E+02  0.00000000000E+00 0. -1.
         21    1    1    2  503  502  0.22942746142E+02  0.74409676662E+01 -0.83249431164E+02  0.86672979581E+02  0.00000000000E+00 0. -1.
         21    1    1    2  504  501 -0.22942746142E+02 -0.74409676662E+01  0.59011146655E+02  0.63749925724E+02  0.00000000000E+00 0. -1.
</event>
<event>
 4    1  0.3305068E+006  0.2247989E+02  0.7546771E-02  0.1499134E+00
         21   -1    0    0  504  501  0.00000000000E+00  0.00000000000E+00  0.71628224368E+02  0.71628224368E+02  0.00000000000E+00 0. -1.
         21   -1    0    0  503  502 -0.00000000000E+00 -0.00000000000E+00 -0.17775233367E+02  0.17775233367E+02  0.00000000000E+00 0. -1.
         21    1    1    2  503  501 -0.20237673883E+02  0.97868390474E+01 -0.77884405247E+01  0.23790869437E+02  0.00000000000E+00 0. -1.
         21    1    1    2  504  502  0.20237673883E+02 -0.97868390474E+01  0.61641431525E+02  0.65612588299E+02  0.00000000000E+00 0. -1.
</event>
<event>
 4    1  0.3305068E+006  0.2175942E+02  0.7546771E-02  0.1508693E+00
         21   -1    0    0  504  501  0.00000000000E+00  0.00000000000E+00  0.15784560884E+04  0.15784560884E+04  0.00000000000E+00 0.  1.
         21   -1    0    0  503  502 -0.00000000000E+00 -0.00000000000E+00 -0.66586727307E+00  0.66586727307E+00  0.00000000000E+00 0.  1.
         21    1    1    2  503  501  0.14850714243E+02  0.15903727676E+02  0.20359595668E+03  0.20475542934E+03  0.00000000000E+00 0.  1.
         21    1    1    2  504  502 -0.14850714243E+02 -0.15903727676E+02  0.13741942644E+04  0.13743665263E+04  0.00000000000E+00 0.  1.
</event>
<event>
 4    1  0.3305068E+006  0.2187854E+02  0.7546771E-02  0.1507082E+00
         21   -1    0    0  503  501  0.00000000000E+00  0.00000000000E+00  0.53517765353E+02  0.53517765353E+02  0.00000000000E+00 0.  1.
         21   -1    0    0  504  502 -0.00000000000E+00 -0.00000000000E+00 -0.91523722327E+01  0.91523722327E+01  0.00000000000E+00 0.  1.
         21    1    1    2  503  502  0.11179111184E+02 -0.18806864080E+02  0.17456275769E+02  0.27989144808E+02  0.00000000000E+00 0.  1.
         21    1    1    2  504  501 -0.11179111184E+02  0.18806864080E+02  0.26909117352E+02  0.34680992778E+02  0.00000000000E+00 0.  1.
</event>
<event>
 4    1  0.3305068E+006  0.2269667E+02  0.7546771E-02  0.1496343E+00
         21   -1    0    0  503  501  0.00000000000E+00  0.00000000000E+00  0.34113009690E+01  0.34113009690E+01  0.00000000000E+00 0.  1.
         21   -1    0    0  501  502 -0.00000000000E+00 -0.00000000000E+00 -0.22382050463E+03  0.22382050463E+03  0.00000000000E+00 0.  1.
         21    1    1    2  503  504  0.11608498502E+02  0.19503379638E+02 -0.45402733950E+02  0.50759701584E+02  0.00000000000E+00 0.  1.
         21    1    1    2  504  502 -0.11608498502E+02 -0.19503379638E+02 -0.17500646971E+03  0.17647210401E+03  0.00000000000E+00 0.  1.
</event>
<event>
 4    1  0.3305068E+006  0.2223710E+02  0.7546771E-02  0.1502307E+00
         21   -1    0    0  502  501  0.00000000000E+00  0.00000000000E+00  0.13311051393E+03  0.13311051393E+03  0.00000000000E+00 0. -1.
         21   -1    0    0  503  502 -0.00000000000E+00 -0.00000000000E+00 -0.47748927873E+02  0.47748927873E+02  0.00000000000E+00 0.  1.
         21    1    1    2  503  504 -0.13097473061E+01  0.22198495647E+02 -0.44159987458E+02  0.49442826975E+02  0.00000000000E+00 0.  1.
         21    1    1    2  504  501  0.13097473061E+01 -0.22198495647E+02  0.12952157352E+03  0.13141661483E+03  0.00000000000E+00 0. -1.
</event>
<event>
 4    1  0.3305068E+006  0.2480508E+02  0.7546771E-02  0.1470996E+00
         21   -1    0    0  504  501  0.00000000000E+00  0.00000000000E+00  0.51484717248E+03  0.51484717248E+03  0.00000000000E+00 0. -1.
         21   -1    0    0  503  502 -0.00000000000E+00 -0.00000000000E+00 -0.35731089048E+01  0.35731089048E+01  0.00000000000E+00 0. -1.
         21    1    1    2  503  501  0.22287659703E+02 -0.10888177993E+02  0.46710076449E+03  0.46775892978E+03  0.00000000000E+00 0. -1.
         21    1    1    2  504  502 -0.22287659703E+02  0.10888177993E+02  0.44173299083E+02  0.50661351610E+02  0.00000000000E+00 0. -1.
</event>
<event>
 4    1  0.3305068E+006  0.3130509E+02  0.7546771E-02  0.1408584E+00
         21   -1    0    0  503  501  0.00000000000E+00  0.00000000000E+00  0.35191090098E+03  0.35191090098E+03  0.00000000000E+00 0. -1.
         21   -1    0    0  504  502 -0.00000000000E+00 -0.00000000000E+00 -0.42591701182E+01  0.42591701182E+01  0.00000000000E+00 0.  1.
         21    1    1    2  503  502  0.15755181518E+02 -0.27051484972E+02  0.69049043917E+02  0.75814108514E+02  0.00000000000E+00 0.  1.
         21    1    1    2  504  501 -0.15755181518E+02  0.27051484972E+02  0.27860268695E+03  0.28035596259E+03  0.00000000000E+00 0. -1.
</event>
<event>
 4    1  0.3305068E+006  0.2096187E+02  0.7546771E-02  0.1519810E+00
         21   -1    0    0  504  501  0.00000000000E+00  0.00000000000E+00  0.80000269055E+02  0.80000269055E+02  0.00000000000E+00 0. -1.
         21   -1    0    0  503  502 -0.00000000000E+00 -0.00000000000E+00 -0.13448677598E+02  0.13448677598E+02  0.00000000000E+00 0. -1.
         21    1    1    2  503  501  0.15971474022E+02  0.13576149918E+02 -0.26624952313E+01  0.21130279456E+02  0.00000000000E+00 0. -1.
         21    1    1    2  504  502 -0.15971474022E+02 -0.13576149918E+02  0.69214086688E+02  0.72318667196E+02  0.00000000000E+00 0. -1.
</event>
<event>
 4    1  0.3305068E+006  0.2320294E+02  0.7546771E-02  0.1489965E+00
         21   -1    0    0  504  501  0.00000000000E+00  0.00000000000E+00  0.97609776499E+02  0.97609776499E+02  0.00000000000E+00 0.  1.
         21   -1    0    0  503  502 -0.00000000000E+00 -0.00000000000E+00 -0.55815555620E+01  0.55815555620E+01  0.00000000000E+00 0.  1.
         21    1    1    2  503  501  0.17293029996E+02 -0.15470207115E+02  0.51622924553E+02  0.56597725520E+02  0.00000000000E+00 0.  1.
         21    1    1    2  504  502 -0.17293029996E+02  0.15470207115E+02  0.40405296384E+02  0.46593606541E+02  0.00000000000E+00 0.  1.
</event>
<event>
 4    1  0.3305068E+006  0.2714883E+02  0.7546771E-02  0.1446119E+00
         21   -1    0    0  503  501  0.00000000000E+00  0.00000000000E+00  0.50020718243E+03  0.50020718243E+03  0.00000000000E+00 0. -1.
         21   -1    0    0  504  502 -0.00000000000E+00 -0.00000000000E+00 -0.29788103892E+01  0.29788103892E+01  0.00000000000E+00 0. -1.
         21    1    1    2  503  502 -0.67604585512E+01 -0.26293630019E+02  0.69764105987E+02  0.74860465291E+02  0.00000000000E+00 0. -1.
         21    1    1    2  504  501  0.67604585512E+01  0.26293630019E+02  0.42746426606E+03  0.42832552753E+03  0.00000000000E+00 0. -1.
</event>
<event>
 4    1  0.3305068E+006  0.2529863E+02  0.7546771E-02  0.1465490E+00
         21   -1    0    0  504  501  0.00000000000E+00  0.00000000000E+00  0.24949822775E+03  0.24949822775E+03  0.00000000000E+00 0. -1.
         21   -1    0    0  501  502 -0.00000000000E+00 -0.00000000000E+00 -0.45004814554E+02  0.45004814554E+02  0.00000000000E+00 0. -1.
         21    1    1    2  503  502  0.15508010659E+02  0.19988051654E+02 -0.40746649117E+02  0.47961547283E+02  0.00000000000E+00 0. -1.
         21    1    1    2  504  503 -0.15508010659E+02 -0.19988051654E+02  0.24524006232E+03  0.24654149502E+03  0.00000000000E+00 0. -1.
</event>
<event>
 4    1  0.3305068E+006  0.3156288E+02  0.7546771E-02  0.1406484E+00
         21   -1    0    0  502  501  0.00000000000E+00  0.00000000000E+00  0.48865400067E+03  0.48865400067E+03  0.00000000000E+00 0. -1.
         21   -1    0    0  504  502 -0.00000000000E+00 -0.00000000000E+00 -0.39166151211E+01  0.39166151211E+01  0.00000000000E+00 0.  1.
         21    1    1    2  503  501  0.28744360282E+02 -0.13037522995E+02  0.41290698186E+03  0.41411156820E+03  0.00000000000E+00 0. -1.
         21    1    1    2  504  503 -0.28744360282E+02  0.13037522995E+02  0.71830403695E+02  0.78459047591E+02  0.00000000000E+00 0.  1.
</event>
<event>
 4    1  0.3305068E+006  0.2221508E+02  0.7546771E-02  0.1502597E+00
         21   -1    0    0  502  501  0.00000000000E+00  0.00000000000E+00  0.97823994274E+01  0.97823994274E+01  0.00000000000E+00 0. -1.
         21   -1    0    0  504  502 -0.00000000000E+00 -0.00000000000E+00 -0.52961717707E+02  0.52961717707E+02  0.00000000000E+00 0. -1.
         21    1    1    2  503  501 -0.22000218377E+02 -0.30822376428E+01 -0.14755962971E+02  0.26669237723E+02  0.00000000000E+00 0. -1.
         21    1    1    2  504  503  0.22000218377E+02  0.30822376428E+01 -0.28423355309E+02  0.36074879411E+02  0.00000000000E+00 0. -1.
</event>
<event>
 4    1  0.3305068E+006  0.2349770E+02  0.7546771E-02  0.1486341E+00
         21   -1    0    0  504  501  0.00000000000E+00  0.00000000000E+00  0.23309153951E+02  0.23309153951E+02  0.00000000000E+00 0.  1.
         21   -1    0    0  503  502 -0.00000000000E+00 -0.00000000000E+00 -0.45265840408E+02  0.45265840408E+02  0.00000000000E+00 0.  1.
         21    1    1    2  503  501 -0.21698257939E+02  0.90181753559E+01  0.12694847166E+02  0.26707696062E+02  0.00000000000E+00 0.  1.
         21    1    1    2  504  502  0.21698257939E+02 -0.90181753559E+01 -0.34651533623E+02  0.41867298298E+02  0.00000000000E+00 0.  1.
</event>
<event>
 4    1  0.3305068E+006  0.2074619E+02  0.7546771E-02  0.1522920E+00
         21   -1    0    0  503  501  0.00000000000E+00  0.00000000000E+00  0.65742903418E+03  0.65742903418E+03  0.00000000000E+00 0. -1.
         21   -1    0    0  501  502 -0.00000000000E+00 -0.00000000000E+00 -0.17330891382E+01  0.17330891382E+01  0.00000000000E+00 0.  1.
         21    1    1    2  503  504 -0.10788445714E+02 -0.17720436961E+02  0.58783036933E+03  0.58819635119E+03  0.00000000000E+00 0. -1.
         21    1    1    2  504  502  0.10788445714E+02  0.17720436961E+02  0.67865575716E+02  0.70965772132E+02  0.00000000000E+00 0.  1.
</event>
<event>
 4    1  0.3305068E+006  0.2069489E+02  0.7546771E-02  0.1523666E+00
         21   -1    0    0  503  501  0.00000000000E+00  0.00000000000E+00  0.50492007116E+02  0.50492007116E+02  0.00000000000E+00 0. -1.
         21   -1    0    0  504  502 -0.00000000000E+00 -0.00000000000E+00 -0.18341737196E+02  0.18341737196E+02  0.00000000000E+00 0.  1.
         21    1    1    2  503  502  0.11729769806E+02 -0.17049661334E+02  0.41308870456E+02  0.46202827074E+02  0.00000000000E+00 0. -1.
         21    1    1    2  504  501 -0.11729769806E+02  0.17049661334E+02 -0.91586005355E+01  0.22630917239E+02  0.00000000000E+00 0.  1.
</event>
<event>
 4    1  0.3305068E+006  0.2286414E+02  0.7546771E-02  0.1494211E+00
         21   -1    0    0  502  501  0.00000000000E+00  0.00000000000E+00  0.30324119541E+03  0.30324119541E+03  0.00000000000E+00 0.  1.
         21   -1    0    0  504  502 -0.00000000000E+00 -0.00000000000E+00 -0.19406506564E+01  0.19406506564E+01  0.00000000000E+00 0.  1.
         21    1    1    2  503  501 -0.22753851843E+02 -0.22430028973E+01  0.20164176971E+03  0.20293391074E+03  0.00000000000E+00 0.  1.
         21    1    1    2  504  503  0.22753851843E+02  0.22430028973E+01  0.99658775042E+02  0.10224793533E+03  0.00000000000E+00 0.  1.
</event>
<event>
 4    1  0.3305068E+006  0.2428136E+02  0.7546771E-02  0.1477006E+00
         21   -1    0    0  502  501  0.00000000000E+00  0.00000000000E+00  0.16282235476E+01  0.16282235476E+01  0.00000000000E+00 0.  1.
         21   -1    0    0  503  502 -0.00000000000E+00 -0.00000000000E+00 -0.12349129295E+04  0.12349129295E+04  0.00000000000E+00 0.  1.
         21    1    1    2  503  504  0.19328237992E+02 -0.14697055745E+02 -0.11364232453E+04  0.11366826191E+04  0.00000000000E+00 0.  1.
         21    1    1    2  504  501 -0.19328237992E+02  0.14697055745E+02 -0.96861460659E+02  0.99858533899E+02  0.00000000000E+00 0.  1.
</event>
<event>
 4    1  0.3305068E+006  0.2930879E+02  0.7546771E-02  0.1425700E+00
         21   -1    0    0  503  501  0.00000000000E+00  0.00000000000E+00  0.30645459231E+01  0.30645459231E+01  0.00000000000E+00 0.  1.
         21   -1    0    0  504  502 -0.00000000000E+00 -0.00000000000E+00 -0.28305875352E+03  0.28305875352E+03  0.00000000000E+00 0.  1.
         21    1    1    2  503  502 -0.25816490365E+02  0.13874939723E+02 -0.12588441798E+03  0.12925127395E+03  0.00000000000E+00 0.  1.
         21    1    1    2  504  501  0.25816490365E+02 -0.13874939723E+02 -0.15410978961E+03  0.15687202549E+03  0.00000000000E+00 0.  1.
</event>
<event>
 4    1  0.3305068E+006  0.2198937E+02  0.7546771E-02  0.1505594E+00
         21   -1    0    0  504  501  0.00000000000E+00  0.00000000000E+00  0.35650192122E+03  0.35650192122E+03  0.00000000000E+00 0. -1.
         21   -1    0    0  503  502 -0.00000000000E+00 -0.00000000000E+00 -0.56189228879E+01  0.56189228879E+01  0.00000000000E+00 0. -1.
         21    1    1    2  503  501 -0.18249743504E+02  0.12266993214E+02  0.17740587216E+02  0.28253507663E+02  0.00000000000E+00 0. -1.
         21    1    1    2  504  502  0.18249743504E+02 -0.12266993214E+02  0.33314241111E+03  0.33386733644E+03  0.00000000000E+00 0. -1.
</event>
<event>
 4    1  0.3305068E+006  0.4563667E+02  0.7546771E-02  0.1318286E+00
         21   -1    0    0  504  501  0.00000000000E+00  0.00000000000E+00  0.20928800823E+03  0.20928800823E+03  0.00000000000E+00 0. -1.
         21   -1    0    0  503  502 -0.00000000000E+00 -0.00000000000E+00 -0.20201820137E+02  0.20201820137E+02  0.00000000000E+00 0. -1.
         21    1    1    2  503  501  0.45115322406E+02  0.68784832332E+01  0.12807859009E+02  0.47399863921E+02  0.00000000000E+00 0. -1.
         21    1    1    2  504  502 -0.45115322406E+02 -0.68784832332E+01  0.17627832908E+03  0.18208996445E+03  0.00000000000E+00 0. -1.
</event>
<event>
 4    1  0.3305068E+006  0.2061145E+02  0.7546771E-02  0.1524885E+00
         21   -1    0    0  503  501  0.00000000000E+00  0.00000000000E+00  0.38666535417E+01  0.38666535417E+01  0.00000000000E+00 0.  1.
         21   -1    0    0  504  502 -0.00000000000E+00 -0.00000000000E+00 -0.62951808344E+03  0.62951808344E+03  0.00000000000E+00 0. -1.
         21    1    1    2  503  502 -0.20569142146E+02  0.13199726116E+01 -0.60055751647E+03  0.60091111034E+03  0.00000000000E+00 0. -1.
         21    1    1    2  504  501  0.20569142146E+02 -0.13199726116E+01 -0.25093913423E+02  0.32473626641E+02  0.00000000000E+00 0.  1.
</event>
<event>
 4    1  0.3305068E+006  0.2184421E+02  0.7546771E-02  0.1507545E+00
         21   -1    0    0  503  501  0.00000000000E+00  0.00000000000E+00  0.17963498650E+02  0.17963498650E+02  0.00000000000E+00 0. -1.
         21   -1    0    0  504  502 -0.00000000000E+00 -0.00000000000E+00 -0.47943128540E+02  0.47943128540E+02  0.00000000000E+00 0.  1.
         21    1    1    2  503  502 -0.88122905683E+01 -0.19987825746E+02  0.70160328975E+01  0.22943285744E+02  0.00000000000E+00 0. -1.
         21    1    1    2  504  501  0.88122905683E+01  0.19987825746E+02 -0.36995662788E+02  0.42963341446E+02  0.00000000000E+00 0.  1.
</event>
<event>
 4    1  0.3305068E+006  0.4011773E+02  0.7546771E-02  0.1347797E+00
         21   -1    0    0  503  501  0.00000000000E+00  0.00000000000E+00  0.87622558543E+00  0.87622558543E+00  0.00000000000E+00 0.  1.
         21   -1    0    0  504  502 -0.00000000000E+00 -0.00000000000E+00 -0.21156386666E+04  0.21156386666E+04  0.00000000000E+00 0.  1.
         21    1    1    2  503  502  0.29725162624E+02 -0.26941552306E+02 -0.67317567130E+03  0.67437001487E+03  0.00000000000E+00 0.  1.
         21    1    1    2  504  501 -0.29725162624E+02  0.26941552306E+02 -0.14415867698E+04  0.14421448773E+04  0.00000000000E+00 0.  1.
</event>
<event>
 4    1  0.3305068E+006  0.2462510E+02  0.7546771E-02  0.1473041E+00
         21   -1    0    0  503  501  0.00000000000E+00  0.00000000000E+00  0.16388387431E+01  0.16388387431E+01  0.00000000000E+00 0.  1.
         21   -1    0    0  504  502 -0.00000000000E+00 -0.00000000000E+00 -0.39046305316E+03  0.39046305316E+03  0.00000000000E+00 0.  1.
         21    1    1    2  503  502 -0.24469268510E+02 -0.27659648227E+01 -0.14954788711E+03  0.15156175705E+03  0.00000000000E+00 0.  1.
         21    1    1    2  504  501  0.24469268510E+02  0.27659648227E+01 -0.23927632731E+03  0.24054013485E+03  0.00000000000E+00 0.  1.
</event>
<event>
 4    1  0.3305068E+006  0.2099748E+02  0.7546771E-02  0.1519301E+00
         21   -1    0    0  503  501  0.00000000000E+00  0.00000000000E+00  0.77266126650E+02  0.77266126650E+02  0.00000000000E+00 0. -1.
         21   -1    0    0  504  502 -0.00000000000E+00 -0.00000000000E+00 -0.67698131433E+01  0.67698131433E+01  0.00000000000E+00 0. -1.
         21    1    1    2  503  502  0.13532162443E+02  0.16055369972E+02  0.51903091027E+02  0.55989509584E+02  0.00000000000E+00 0. -1.
         21    1    1    2  504  501 -0.13532162443E+02 -0.16055369972E+02  0.18593222480E+02  0.28046430209E+02  0.00000000000E+00 0. -1.
</event>
<event>
 4    1  0.3305068E+006  0.2091261E+02  0.7546771E-02  0.1520516E+00
         21   -1    0    0  503  501  0.00000000000E+00  0.00000000000E+00  0.21184362503E+01  0.21184362503E+01  0.00000000000E+00 0. -1.
         21   -1    0    0  504  502 -0.00000000000E+00 -0.00000000000E+00 -0.20763380446E+03  0.20763380446E+03  0.00000000000E+00 0.  1.
         21    1    1    2  503  502 -0.20749596048E+02  0.26060466789E+01 -0.11069862550E+03  0.11265665939E+03  0.00000000000E+00 0.  1.
         21    1    1    2  504  501  0.20749596048E+02 -0.26060466789E+01 -0.94816742708E+02  0.97095581327E+02  0.00000000000E+00 0. -1.
</event>
<event>
 4    1  0.3305068E+006  0.2588154E+02  0.7546771E-02  0.1459179E+00
         21   -1    0    0  503  501  0.00000000000E+00  0.00000000000E+00  0.40030882740E+02  0.40030882740E+02  0.00000000000E+00 0. -1.
         21   -1    0    0  504  502 -0.00000000000E+00 -0.00000000000E+00 -0.16770414975E+02  0.16770414975E+02  0.00000000000E+00 0.  1.
         21    1    1    2  503  502  0.22359408636E+02  0.13034994030E+02  0.10296612997E+02  0.27854523208E+02  0.00000000000E+00 0.  1.
         21    1    1    2  504  501 -0.22359408636E+02 -0.13034994030E+02  0.12963854768E+02  0.28946774507E+02  0.00000000000E+00 0. -1.
</event>
<event>
 4    1  0.3305068E+006  0.3582387E+02  0.7546771E-02  0.1374862E+00
         21   -1    0    0  503  501  0.00000000000E+00  0.00000000000E+00  0.12857635168E+03  0.12857635168E+03  0.00000000000E+00 0. -1.
         21   -1    0    0  504  502 -0.00000000000E+00 -0.00000000000E+00 -0.10099767204E+02  0.10099767204E+02  0.00000000000E+00 0.  1.
         21    1    1    2  503  502 -0.28358000526E+02 -0.21890023465E+02  0.51726302450E+02  0.62920264512E+02  0.00000000000E+00 0.  1.
         21    1    1    2  504  501  0.28358000526E+02  0.21890023465E+02  0.66750282027E+02  0.75755854373E+02  0.00000000000E+00 0. -1.
</event>
<event>
 4    1  0.3305068E+006  0.2218019E+02  0.7546771E-02  0.1503057E+00
         21   -1    0    0  504  501  0.00000000000E+00  0.00000000000E+00  0.10936187898E+04  0.10936187898E+04  0.00000000000E+00 0. -1.
         21   -1    0    0  501  502 -0.00000000000E+00 -0.00000000000E+00 -0.87394912417E+00  0.87394912417E+00  0.00000000000E+00 0. -1.
         21    1    1    2  503  502  0.18138554202E+02 -0.12765339135E+02  0.16515294091E+03  0.16663569523E+03  0.00000000000E+00 0. -1.
         21    1    1    2  504  503 -0.18138554202E+02  0.12765339135E+02  0.92759189980E+03  0.92785704373E+03  0.00000000000E+00 0. -1.
</event>
<event>
 4    1  0.3305068E+006  0.2135449E+02  0.7546771E-02  0.1514263E+00
         21   -1    0    0  502  501  0.00000000000E+00  0.00000000000E+00  0.26561602731E+01  0.26561602731E+01  0.00000000000E+00 0. -1.
         21   -1    0    0  503  502 -0.00000000000E+00 -0.00000000000E+00 -0.40365571546E+03  0.40365571546E+03  0.00000000000E+00 0. -1.
         21    1    1    2  503  504 -0.82946634924E+00 -0.21338377777E+02 -0.35450787033E+03  0.35515045334E+03  0.00000000000E+00 0. -1.
         21    1    1    2  504  501  0.82946634924E+00  0.21338377777E+02 -0.46491684853E+02  0.51161422390E+02  0.00000000000E+00 0. -1.
</event>
<event>
 4    1  0.3305068E+006  0.2372416E+02  0.7546771E-02  0.1483600E+00
         21   -1    0    0  504  501  0.00000000000E+00  0.00000000000E+00  0.20500987576E+02  0.20500987576E+02  0.00000000000E+00 0. -1.
         21   -1    0    0  503  502 -0.00000000000E+00 -0.00000000000E+00 -0.29828193507E+02  0.29828193507E+02  0.00000000000E+00 0. -1.
         21    1    1    2  503  501  0.23713951293E+02 -0.69586535496E+00  0.24358895153E+01  0.23848884088E+02  0.00000000000E+00 0. -1.
         21    1    1    2  504  502 -0.23713951293E+02  0.69586535496E+00 -0.11763095446E+02  0.26480296996E+02  0.00000000000E+00 0. -1.
</event>
<event>
 4    1  0.3305068E+006  0.2224854E+02  0.7546771E-02  0.1502156E+00
         21   -1    0    0  503  501  0.00000000000E+00  0.00000000000E+00  0.10365077727E+03  0.10365077727E+03  0.00000000000E+00 0. -1.
         21   -1    0    0  504  502 -0.00000000000E+00 -0.00000000000E+00 -0.12272154991E+02  0.12272154991E+02  0.00000000000E+00 0.  1.
         21    1    1    2  503  502  0.20095950162E+02  0.95472589048E+01  0.38817920388E+00  0.22251922358E+02  0.00000000000E+00 0.  1.
         21    1    1    2  504  501 -0.20095950162E+02 -0.95472589048E+01  0.90990443076E+02  0.93671009905E+02  0.00000000000E+00 0. -1.
</event>
<event>
 4    1  0.3305068E+006  0.2096195E+02  0.7546771E-02  0.1519809E+00
         21   -1    0    0  504  501  0.00000000000E+00  0.00000000000E+00  0.71240861931E+02  0.71240861931E+02  0.00000000000E+00 0. -1.
         21   -1    0    0  503  502 -0.00000000000E+00 -0.00000000000E+00 -0.73005982094E+01  0.73005982094E+01  0.00000000000E+00 0. -1.
         21    1    1    2  503  501  0.20479139931E+02  0.44730337280E+01  0.16501362528E+02  0.26677671718E+02  0.00000000000E+00 0. -1.
         21    1    1    2  504  502 -0.20479139931E+02 -0.44730337280E+01  0.47438901193E+02  0.51863788422E+02  0.00000000000E+00 0. -1.
</event>
<event>
 4    1  0.3305068E+006  0.2691851E+02  0.7546771E-02  0.1448428E+00
         21   -1    0    0  503  501  0.00000000000E+00  0.00000000000E+00  0.20261472331E+02  0.20261472331E+02  0.00000000000E+00 0. -1.
         21   -1    0    0  504  502 -0.00000000000E+00 -0.00000000000E+00 -0.82437331944E+03  0.82437331944E+03  0.00000000000E+00 0.  1.
         21    1    1    2  503  502 -0.26799347673E+02  0.25300917950E+01  0.10999470680E+02  0.29079112012E+02  0.00000000000E+00 0. -1.
         21    1    1    2  504  501  0.26799347673E+02 -0.25300917950E+01 -0.81511131779E+03  0.81555567976E+03  0.00000000000E+00 0.  1.
</event>
<event>
 4    1  0.3305068E+006  0.2472844E+02  0.7546771E-02  0.1471864E+00
         21   -1    0    0  504  501  0.00000000000E+00  0.00000000000E+00  0.13317197562E+04  0.13317197562E+04  0.00000000000E+00 0. -1.
         21   -1    0    0  503  502 -0.00000000000E+00 -0.00000000000E+00 -0.11812664560E+02  0.11812664560E+02  0.00000000000E+00 0.  1.
         21    1    1    2  503  501  0.92099659064E+01 -0.22949343383E+02  0.13730680878E+01  0.24766532856E+02  0.00000000000E+00 0.  1.
         21    1    1    2  504  502 -0.92099659064E+01  0.22949343383E+02  0.13185340235E+04  0.13187658879E+04  0.00000000000E+00 0. -1.
</event>
<event>
 4    1  0.3305068E+006  0.2163582E+02  0.7546771E-02  0.1510377E+00
         21   -1    0    0  504  501  0.00000000000E+00  0.00000000000E+00  0.99480336680E+02  0.99480336680E+02  0.00000000000E+00 0. -1.
         21   -1    0    0  503  502 -0.00000000000E+00 -0.00000000000E+00 -0.47987630608E+01  0.47987630608E+01  0.00000000000E+00 0. -1.
         21    1    1    2  503  501 -0.35661119804E+01 -0.21339909340E+02  0.40073705073E+02  0.45541307882E+02  0.00000000000E+00 0. -1.
         21    1    1    2  504  502  0.35661119804E+01  0.21339909340E+02  0.54607868546E+02  0.58737791859E+02  0.00000000000E+00 0. -1.
</event>
<event>
 4    1  0.3305068E+006  0.3749908E+02  0.7546771E-02  0.1363799E+00
         21   -1    0    0  504  501  0.00000000000E+00  0.00000000000E+00  0.11637802179E+03  0.11637802179E+03  0.00000000000E+00 0. -1.
         21   -1    0    0  503  502 -0.00000000000E+00 -0.00000000000E+00 -0.38879674800E+02  0.38879674800E+02  0.00000000000E+00 0. -1.
         21    1    1    2  503  501  0.24624784834E+02  0.28280754491E+02  0.10319626109E+03  0.10979822132E+03  0.00000000000E+00 0. -1.
         21    1    1    2  504  502 -0.24624784834E+02 -0.28280754491E+02 -0.25697914098E+02  0.45459475268E+02  0.00000000000E+00 0. -1.
</event>
<event>
 4    1  0.3305068E+006  0.2992884E+02  0.7546771E-02  0.1420216E+00
         21   -1    0    0  503  501  0.00000000000E+00  0.00000000000E+00  0.19860357742E+03  0.19860357742E+03  0.00000000000E+00 0.  1.
         21   -1    0    0  504  502 -0.00000000000E+00 -0.00000000000E+00 -0.64631963808E+01  0.64631963808E+01  0.00000000000E+00 0.  1.
         21    1    1    2  503  502 -0.23907010370E+02 -0.18005288837E+02  0.15243341940E+03  0.15534375727E+03  0.00000000000E+00 0.  1.
         21    1    1    2  504  501  0.23907010370E+02  0.18005288837E+02  0.39706961640E+02  0.49723016538E+02  0.00000000000E+00 0.  1.
</event>
<event>
 4    1  0.3305068E+006  0.2176225E+02  0.7546771E-02  0.1508654E+00
         21   -1    0    0  504  501  0.00000000000E+00  0.00000000000E+00  0.72691093792E+03  0.72691093792E+03  0.00000000000E+00 0. -1.
         21   -1    0    0  503  502 -0.00000000000E+00 -0.00000000000E+00 -0.34801352021E+02  0.34801352021E+02  0.00000000000E+00 0. -1.
         21    1    1    2  503  501 -0.11065238257E+01  0.21734102476E+02  0.72332908005E+03  0.72365637816E+03  0.00000000000E+00 0. -1.
         21    1    1    2  504  502  0.11065238257E+01 -0.21734102476E+02 -0.31219494159E+02  0.38055911774E+02  0.00000000000E+00 0. -1.
</event>
<event>
 4    1  0.3305068E+006  0.2355119E+02  0.7546771E-02  0.1485690E+00
         21   -1    0    0  503  501  0.00000000000E+00  0.00000000000E+00  0.15169395161E+03  0.15169395161E+03  0.00000000000E+00 0. -1.
         21   -1    0    0  501  502 -0.00000000000E+00 -0.00000000000E+00 -0.86378698405E+03  0.86378698405E+03  0.00000000000E+00 0.  1.
         21    1    1    2  503  504  0.20212066974E+02  0.12088456461E+02  0.15061817324E+03  0.15244832745E+03  0.00000000000E+00 0. -1.
         21    1    1    2  504  502 -0.20212066974E+02 -0.12088456461E+02 -0.86271120568E+03  0.86303260821E+03  0.00000000000E+00 0.  1.
</event>
<event>
 4    1  0.3305068E+006  0.2608004E+02  0.7546771E-02  0.1457075E+00
         21   -1    0    0  504  501  0.00000000000E+00  0.00000000000E+00  0.16992872445E+01  0.16992872445E+01  0.00000000000E+00 0. -1.
         21   -1    0    0  503  502 -0.00000000000E+00 -0.00000000000E+00 -0.61942093774E+03  0.61942093774E+03  0.00000000000E+00 0.  1.
         21    1    1    2  503  501  0.15083399712E+02 -0.21275798922E+02 -0.12413509260E+03  0.12684514094E+03  0.00000000000E+00 0. -1.
         21    1    1    2  504  502 -0.15083399712E+02  0.21275798922E+02 -0.49358655790E+03  0.49427508404E+03  0.00000000000E+00 0.  1.
</event>
<event>
 4    1  0.3305068E+006  0.2856522E+02  0.7546771E-02  0.1432489E+00
         21   -1    0    0  503  501  0.00000000000E+00  0.00000000000E+00  0.15104949890E+01  0.15104949890E+01  0.00000000000E+00 0. -1.
         21   -1    0    0  504  502 -0.00000000000E+00 -0.00000000000E+00 -0.74755914303E+03  0.74755914303E+03  0.00000000000E+00 0. -1.
         21    1    1    2  503  502 -0.17382836059E+02  0.22667345590E+02 -0.57028000607E+03  0.57099497097E+03  0.00000000000E+00 0. -1.
         21    1    1    2  504  501  0.17382836059E+02 -0.22667345590E+02 -0.17576864196E+03  0.17807466705E+03  0.00000000000E+00 0. -1.
</event>
<event>
 4    1  0.3305068E+006  0.2220133E+02  0.7546771E-02  0.1502778E+00
         21   -1    0    0  504  501  0.00000000000E+00  0.00000000000E+00  0.61052513567E+03  0.61052513567E+03  0.00000000000E+00 0. -1.
         21   -1    0    0  503  502 -0.00000000000E+00 -0.00000000000E+00 -0.80761874634E+00  0.80761874634E+00  0.00000000000E+00 0. -1.
         21    1    1    2  503  501 -0.40590893837E+01  0.21827117404E+02  0.31057242644E+03  0.31136494878E+03  0.00000000000E+00 0. -1.
         21    1    1    2  504  502  0.40590893837E+01 -0.21827117404E+02  0.29914509048E+03  0.29996780564E+03  0.00000000000E+00 0. -1.
</event>
<event>
 4    1  0.3305068E+006  0.2434900E+02  0.7546771E-02  0.1476220E+00
         21   -1    0    0  502  501  0.00000000000E+00  0.00000000000E+00  0.60841369122E+02  0.60841369122E+02  0.00000000000E+00 0.  1.
         21   -1    0    0  504  502 -0.00000000000E+00 -0.00000000000E+00 -0.27410702191E+02  0.27410702191E+02  0.00000000000E+00 0. -1.
         21    1    1    2  503  501  0.22564984685E+02  0.91485043252E+01  0.52139972248E+02  0.57545202852E+02  0.00000000000E+00 0.  1.
         21    1    1    2  504  503 -0.22564984685E+02 -0.91485043252E+01 -0.18709305318E+02  0.30706868461E+02  0.00000000000E+00 0. -1.
</event>
<event>
 4    1  0.3305068E+006  0.3485201E+02  0.7546771E-02  0.1381607E+00
         21   -1    0    0  503  501  0.00000000000E+00  0.00000000000E+00  0.13188836865E+03  0.13188836865E+03  0.00000000000E+00 0.  1.
         21   -1    0    0  504  502 -0.00000000000E+00 -0.00000000000E+00 -0.12187144050E+02  0.12187144050E+02  0.00000000000E+00 0.  1.
         21    1    1    2  503  502 -0.23717593137E+02 -0.25537004453E+02  0.24244447497E+02  0.42455341891E+02  0.00000000000E+00 0.  1.
         21    1    1    2  504  501  0.23717593137E+02  0.25537004453E+02  0.95456777101E+02  0.10162017081E+03  0.00000000000E+00 0.  1.
</event>
<event>
 4    1  0.3305068E+006  0.3975560E+02  0.7546771E-02  0.1349924E+00
         21   -1    0    0  504  501  0.00000000000E+00  0.00000000000E+00  0.31709653680E+03  0.31709653680E+03  0.00000000000E+00 0. -1.
         21   -1    0    0  503  502 -0.00000000000E+00 -0.00000000000E+00 -0.94923368191E+02  0.94923368191E+02  0.00000000000E+00 0.  1.
         21    1    1    2  503  501  0.14948793146E+02  0.36838046397E+02  0.31161494100E+03  0.31414070022E+03  0.00000000000E+00 0. -1.
         21    1    1    2  504  502 -0.14948793146E+02 -0.36838046397E+02 -0.89441772390E+02  0.97879204774E+02  0.00000000000E+00 0.  1.
</event>
<event>
 4    1  0.3305068E+006  0.2598767E+02  0.7546771E-02  0.1458051E+00
         21   -1    0    0  502  501  0.00000000000E+00  0.00000000000E+00  0.70475641448E+03  0.70475641448E+03  0.00000000000E+00 0. -1.
         21   -1    0    0  504  502 -0.00000000000E+00 -0.00000000000E+00 -0.34196705041E+01  0.34196705041E+01  0.00000000000E+00 0. -1.
         21    1    1    2  503  501 -0.25975890080E+02  0.78246179650E+00  0.65107447210E+03  0.65159291535E+03  0.00000000000E+00 0. -1.
         21    1    1    2  504  503  0.25975890080E+02 -0.78246179650E+00  0.50262271876E+02  0.56583169635E+02  0.00000000000E+00 0. -1.
</event>
<event>
 4    1  0.3305068E+006  0.2266154E+02  0.7546771E-02  0.1496793E+00
         21   -1    0    0  504  501  0.00000000000E+00  0.00000000000E+00  0.56350721991E+01  0.56350721991E+01  0.00000000000E+00 0.  1.
         21   -1    0    0  501  502 -0.00000000000E+00 -0.00000000000E+00 -0.54985401770E+03  0.54985401770E+03  0.00000000000E+00 0.  1.
         21    1    1    2  503  502  0.21899972644E+02  0.58254969301E+01 -0.52579506624E+03  0.52628319078E+03  0.00000000000E+00 0.  1.
         21    1    1    2  504  503 -0.21899972644E+02 -0.58254969301E+01 -0.18423879262E+02  0.29205899119E+02  0.00000000000E+00 0.  1.
</event>
<event>
 4    1  0.3305068E+006  0.3265589E+02  0.7546771E-02  0.1397837E+00
         21   -1    0    0  503  501  0.00000000000E+00  0.00000000000E+00  0.10203399679E+03  0.10203399679E+03  0.00000000000E+00 0.  1.
         21   -1    0    0  504  502 -0.00000000000E+00 -0.00000000000E+00 -0.14885091910E+02  0.14885091910E+02  0.00000000000E+00 0.  1.
         21    1    1    2  503  502 -0.87865458296E+01  0.31451613128E+02  0.75479396335E+02  0.82240784451E+02  0.00000000000E+00 0.  1.
         21    1    1    2  504  501  0.87865458296E+01 -0.31451613128E+02  0.11669508545E+02  0.34678304250E+02  0.00000000000E+00 0.  1.
</event>
<event>
 4    1  0.3305068E+006  0.3606042E+02  0.7546771E-02  0.1373258E+00
         21   -1    0    0  503  501  0.00000000000E+00  0.00000000000E+00  0.34811308227E+02  0.34811308227E+02  0.00000000000E+00 0. -1.
         21   -1    0    0  504  502 -0.00000000000E+00 -0.00000000000E+00 -0.63959286441E+02  0.63959286441E+02  0.00000000000E+00 0. -1.
         21    1    1    2  503  502 -0.12855323935E+02  0.33691167477E+02  0.17277291917E+02  0.39985734149E+02  0.00000000000E+00 0. -1.
         21    1    1    2  504  501  0.12855323935E+02 -0.33691167477E+02 -0.46425270131E+02  0.58784860518E+02  0.00000000000E+00 0. -1.
</event>
<event>
 4    1  0.3305068E+006  0.2704627E+02  0.7546771E-02  0.1447144E+00
         21   -1    0    0  503  501  0.00000000000E+00  0.00000000000E+00  0.15497993733E+02  0.15497993733E+02  0.00000000000E+00 0. -1.
         21   -1    0    0  504  502 -0.00000000000E+00 -0.00000000000E+00 -0.11694572571E+03  0.11694572571E+03  0.00000000000E+00 0.  1.
         21    1    1    2  503  502 -0.20165887744E+01  0.26970986787E+02 -0.10186482976E+03  0.10539423277E+03  0.00000000000E+00 0.  1.
         21    1    1    2  504  501  0.20165887744E+01 -0.26970986787E+02  0.41709778788E+00  0.27049486670E+02  0.00000000000E+00 0. -1.
</event>
<event>
 4    1  0.3305068E+006  0.2151441E+02  0.7546771E-02  0.1512046E+00
         21   -1    0    0  502  501  0.00000000000E+00  0.00000000000E+00  0.37354383867E+02  0.37354383867E+02  0.00000000000E+00 0.  1.
         21   -1    0    0  504  502 -0.00000000000E+00 -0.00000000000E+00 -0.30143893196E+02  0.30143893196E+02  0.00000000000E+00 0.  1.
         21    1    1    2  503  501 -0.71913652226E+01  0.20276930603E+02  0.29504891577E+02  0.36515863339E+02  0.00000000000E+00 0.  1.
         21    1    1    2  504  503  0.71913652226E+01 -0.20276930603E+02 -0.22294400906E+02  0.30982413725E+02  0.00000000000E+00 0.  1.
</event>
<event>
 4    1  0.3305068E+006  0.2377467E+02  0.7546771E-02  0.1482993E+00
         21   -1    0    0  504  501  0.00000000000E+00  0.00000000000E+00  0.25336272901E+02  0.25336272901E+02  0.00000000000E+00 0. -1.
         21   -1    0    0  503  502 -0.00000000000E+00 -0.00000000000E+00 -0.13069789783E+03  0.13069789783E+03  0.00000000000E+00 0. -1.
         21    1    1    2  503  501  0.15349977489E+02 -0.18155246427E+02 -0.12372805029E+03  0.12599152833E+03  0.00000000000E+00 0. -1.
         21    1    1    2  504  502 -0.15349977489E+02  0.18155246427E+02  0.18366425365E+02  0.30042642401E+02  0.00000000000E+00 0. -1.
</event>
<event>
 4    1  0.3305068E+006  0.3040821E+02  0.7546771E-02  0.1416082E+00
         21   -1    0    0  502  501  0.00000000000E+00  0.00000000000E+00  0.24993812361E+03  0.24993812361E+03  0.00000000000E+00 0.  1.
         21   -1    0    0  504  502 -0.00000000000E+00 -0.00000000000E+00 -0.14377095223E+02  0.14377095223E+02  0.00000000000E+00 0. -1.
         21    1    1    2  503  501 -0.14001972185E+02  0.26992660698E+02  0.23167226759E+03  0.23365936430E+03  0.00000000000E+00 0.  1.
         21    1    1    2  504  503  0.14001972185E+02 -0.26992660698E+02  0.38887608021E+01  0.30655854533E+02  0.00000000000E+00 0. -1.
</event>
<event>
 4    1  0.3305068E+006  0.2830279E+02  0.7546771E-02  0.1434943E+00
         21   -1    0    0  502  501  0.00000000000E+00  0.00000000000E+00  0.22462250551E+03  0.22462250551E+03  0.00000000000E+00 0.  1.
         21   -1    0    0  503  502 -0.00000000000E+00 -0.00000000000E+00 -0.42718925945E+01  0.42718925945E+01  0.00000000000E+00 0.  1.
         21    1    1    2  503  504  0.18106352891E+02 -0.21753338717E+02  0.63659111561E+02  0.69667282458E+02  0.00000000000E+00 0.  1.
         21    1    1    2  504  501 -0.18106352891E+02  0.21753338717E+02  0.15669150135E+03  0.15922711565E+03  0.00000000000E+00 0.  1.
</event>
<event>
 4    1  0.3305068E+006  0.2120631E+02  0.7546771E-02  0.1516340E+00
         21   -1    0    0  504  501  0.00000000000E+00  0.00000000000E+00  0.91988919634E+01  0.91988919634E+01  0.00000000000E+00 0. -1.
         21   -1    0    0  503  502 -0.00000000000E+00 -0.00000000000E+00 -0.50202547707E+02  0.50202547707E+02  0.00000000000E+00 0. -1.
         21    1    1    2  503  501  0.46189658454E+00  0.21201277819E+02 -0.15694163944E+02  0.26382083153E+02  0.00000000000E+00 0. -1.
         21    1    1    2  504  502 -0.46189658454E+00 -0.21201277819E+02 -0.25309491800E+02  0.33019356517E+02  0.00000000000E+00 0. -1.
</event>
<event>
 4    1  0.3305068E+006  0.3135164E+02  0.7546771E-02  0.1408203E+00
         21   -1    0    0  503  501  0.00000000000E+00  0.00000000000E+00  0.39457187502E+02  0.39457187502E+02  0.00000000000E+00 0.  1.
         21   -1    0    0  504  502 -0.00000000000E+00 -0.00000000000E+00 -0.25218450396E+02  0.25218450396E+02  0.00000000000E+00 0.  1.
         21    1    1    2  503  502  0.28893888545E+02  0.12168331703E+02  0.10688906789E+02  0.33123674616E+02  0.00000000000E+00 0.  1.
         21    1    1    2  504  501 -0.28893888545E+02 -0.12168331703E+02  0.35498303171E+01  0.31551963282E+02  0.00000000000E+00 0.  1.
</event>
<event>
 4    1  0.3305068E+006  0.2450280E+02  0.7546771E-02  0.1474443E+00
         21   -1    0    0  504  501  0.00000000000E+00  0.00000000000E+00  0.53046085594E+00  0.53046085594E+00  0.00000000000E+00 0. -1.
         21   -1    0    0  503  502 -0.00000000000E+00 -0.00000000000E+00 -0.12847674070E+04  0.12847674070E+04  0.00000000000E+00 0. -1.
         21    1    1    2  503  501 -0.16942247092E+02  0.17701621249E+02 -0.86385136363E+03  0.86419879980E+03  0.00000000000E+00 0. -1.
         21    1    1    2  504  502  0.16942247092E+02 -0.17701621249E+02 -0.42038558252E+03  0.42109906806E+03  0.00000000000E+00 0. -1.
</event>
<event>
 4    1  0.3305068E+006  0.3201805E+02  0.7546771E-02  0.1402834E+00
         21   -1    0    0  503  501  0.00000000000E+00  0.00000000000E+00  0.97062997569E+02  0.97062997569E+02  0.00000000000E+00 0.  1.
         21   -1    0    0  501  502 -0.00000000000E+00 -0.00000000000E+00 -0.19569061810E+02  0.19569061810E+02  0.00000000000E+00 0.  1.
         21    1    1    2  503  504 -0.50511596597E+01  0.31617107024E+02  0.78310987304E+02  0.84603583866E+02  0.00000000000E+00 0.  1.
         21    1    1    2  504  502  0.50511596597E+01 -0.31617107024E+02 -0.81705154541E+00  0.32028475513E+02  0.00000000000E+00 0.  1.
</event>
<event>
 4    1  0.3305068E+006  0.2623233E+02  0.7546771E-02  0.1455476E+00
         21   -1    0    0  504  501  0.00000000000E+00  0.00000000000E+00  0.59692858954E+02  0.59692858954E+02  0.00000000000E+00 0. -1.
         21   -1    0    0  503  502 -0.00000000000E+00 -0.00000000000E+00 -0.16980436540E+02  0.16980436540E+02  0.00000000000E+00 0. -1.
         21    1    1    2  503  501  0.63797254599E+01 -0.25444727177E+02  0.43080113832E+02  0.50438390596E+02  0.00000000000E+00 0. -1.
         21    1    1    2  504  502 -0.63797254599E+01  0.25444727177E+02 -0.36769141847E+00  0.26234904899E+02  0.00000000000E+00 0. -1.
</event>
<event>
 4    1  0.3305068E+006  0.2461943E+02  0.7546771E-02  0.1473106E+00
         21   -1    0    0  504  501  0.00000000000E+00  0.00000000000E+00  0.16601414536E+02  0.16601414536E+02  0.00000000000E+00 0.  1.
         21   -1    0    0  503  502 -0.00000000000E+00 -0.00000000000E+00 -0.16201256713E+03  0.16201256713E+03  0.00000000000E+00 0.  1.
         21    1    1    2  503  501  0.24616666098E+02  0.36871121269E+00 -0.15130829360E+03  0.15329812754E+03  0.00000000000E+00 0.  1.
         21    1    1    2  504  502 -0.24616666098E+02 -0.36871121269E+00  0.58971410040E+01  0.25315854119E+02  0.00000000000E+00 0.  1.
</event>
<event>
 4    1  0.3305068E+006  0.2153270E+02  0.7546771E-02  0.1511793E+00
         21   -1    0    0  504  501  0.00000000000E+00  0.00000000000E+00  0.15974153545E+02  0.15974153545E+02  0.00000000000E+00 0. -1.
         21   -1    0    0  501  502 -0.00000000000E+00 -0.00000000000E+00 -0.48237458220E+02  0.48237458220E+02  0.00000000000E+00 0.  1.
         21    1    1    2  503  502  0.56111138602E-01  0.21532625311E+02 -0.36393436024E+02  0.42286396003E+02  0.00000000000E+00 0.  1.
         21    1    1    2  504  503 -0.56111138602E-01 -0.21532625311E+02  0.41301313491E+01  0.21925215762E+02  0.00000000000E+00 0. -1.
</event>
<event>
 4    1  0.3305068E+006  0.4368576E+02  0.7546771E-02  0.1328143E+00
         21   -1    0    0  503  501  0.00000000000E+00  0.00000000000E+00  0.25247668742E+02  0.25247668742E+02  0.00000000000E+00 0. -1.
         21   -1    0    0  504  502 -0.00000000000E+00 -0.00000000000E+00 -0.80009969672E+02  0.80009969672E+02  0.00000000000E+00 0. -1.
         21    1    1    2  503  502 -0.27887421511E+02  0.33626435054E+02 -0.15009958488E+02  0.46192469807E+02  0.00000000000E+00 0. -1.
         21    1    1    2  504  501  0.27887421511E+02 -0.33626435054E+02 -0.39752342442E+02  0.59065168608E+02  0.00000000000E+00 0. -1.
</event>
<event>
 4    1  0.3305068E+006  0.2987524E+02  0.7546771E-02  0.1420684E+00
         21   -1    0    0  504  501  0.00000000000E+00  0.00000000000E+00  0.13709473772E+04  0.13709473772E+04  0.00000000000E+00 0.  1.
         21   -1    0    0  503  502 -0.00000000000E+00 -0.00000000000E+00 -0.41365577901E+03  0.41365577901E+03  0.00000000000E+00 0.  1.
         21    1    1    2  503  501 -0.28024801791E+02 -0.10350865685E+02  0.13702449270E+04  0.13705705710E+04  0.00000000000E+00 0.  1.
         21    1    1    2  504  502  0.28024801791E+02  0.10350865685E+02 -0.41295332879E+03  0.41403258530E+03  0.00000000000E+00 0.  1.
</event>
<event>
 4    1  0.3305068E+006  0.2730718E+02  0.7546771E-02  0.1444547E+00
         21   -1    0    0  502  501  0.00000000000E+00  0.00000000000E+00  0.17874152836E+02  0.17874152836E+02  0.00000000000E+00 0.  1.
         21   -1    0    0  504  502 -0.00000000000E+00 -0.00000000000E+00 -0.12134131131E+03  0.12134131131E+03  0.00000000000E+00 0.  1.
         21    1    1    2  503  501 -0.23414267817E+02 -0.14051842464E+02  0.46525123039E+01  0.27700687442E+02  0.00000000000E+00 0.  1.
         21    1    1    2  504  503  0.23414267817E+02  0.14051842464E+02 -0.10811967078E+03  0.11151477670E+03  0.00000000000E+00 0.  1.
</event>
<event>
 4    1  0.3305068E+006  0.3234281E+02  0.7546771E-02  0.1400273E+00
         21   -1    0    0  504  501  0.00000000000E+00  0.00000000000E+00  0.47429728647E+03  0.47429728647E+03  0.00000000000E+00 0.  1.
         21   -1    0    0  503  502 -0.00000000000E+00 -0.00000000000E+00 -0.22138756033E+02  0.22138756033E+02  0.00000000000E+00 0.  1.
         21    1    1    2  503  501  0.89346511065E+01 -0.31084227291E+02  0.46160911255E+03  0.46274078054E+03  0.00000000000E+00 0.  1.
         21    1    1    2  504  502 -0.89346511065E+01  0.31084227291E+02 -0.94505821176E+01  0.33695261967E+02  0.00000000000E+00 0.  1.
</event>
<event>
 4    1  0.3305068E+006  0.2392919E+02  0.7546771E-02  0.1481149E+00
         21   -1    0    0  502  501  0.00000000000E+00  0.00000000000E+00  0.36875478736E+03  0.36875478736E+03  0.00000000000E+00 0. -1.
         21   -1    0    0  503  502 -0.00000000000E+00 -0.00000000000E+00 -0.14649008316E+02  0.14649008316E+02  0.00000000000E+00 0.  1.
         21    1    1    2  503  504 -0.79894124731E+01 -0.22556052007E+02 -0.42041648102E+01  0.24295703232E+02  0.00000000000E+00 0.  1.
         21    1    1    2  504  501  0.79894124731E+01  0.22556052007E+02  0.35830994385E+03  0.35910809244E+03  0.00000000000E+00 0. -1.
</event>
<event>
 4    1  0.3305068E+006  0.2333815E+02  0.7546771E-02  0.1488295E+00
         21   -1    0    0  503  501  0.00000000000E+00  0.00000000000E+00  0.24197403533E+03  0.24197403533E+03  0.00000000000E+00 0. -1.
         21   -1    0    0  501  502 -0.00000000000E+00 -0.00000000000E+00 -0.42591272769E+02  0.42591272769E+02  0.00000000000E+00 0. -1.
         21    1    1    2  503  504  0.19514370980E+02  0.12800717378E+02  0.23816319687E+03  0.23930394351E+03  0.00000000000E+00 0. -1.
         21    1    1    2  504  502 -0.19514370980E+02 -0.12800717378E+02 -0.38780434299E+02  0.45261364590E+02  0.00000000000E+00 0. -1.
</event>
<event>
 4    1  0.3305068E+006  0.2424921E+02  0.7546771E-02  0.1477380E+00
         21   -1    0    0  503  501  0.00000000000E+00  0.00000000000E+00  0.90769040392E+02  0.90769040392E+02  0.00000000000E+00 0. -1.
         21   -1    0    0  501  502 -0.00000000000E+00 -0.00000000000E+00 -0.70003790494E+01  0.70003790494E+01  0.00000000000E+00 0. -1.
         21    1    1    2  503  504 -0.12271286435E+01 -0.24218144733E+02  0.55234965273E+02  0.60323509245E+02  0.00000000000E+00 0. -1.
         21    1    1    2  504  502  0.12271286435E+01  0.24218144733E+02  0.28533696070E+02  0.37445910196E+02  0.00000000000E+00 0. -1.
</event>
<event>
 4    1  0.3305068E+006  0.2306873E+02  0.7546771E-02  0.1491637E+00
         21   -1    0    0  504  501  0.00000000000E+00  0.00000000000E+00  0.45781565289E+03  0.45781565289E+03  0.00000000000E+00 0.  1.
         21   -1    0    0  501  502 -0.00000000000E+00 -0.00000000000E+00 -0.27002357914E+01  0.27002357914E+01  0.00000000000E+00 0.  1.
         21    1    1    2  503  502  0.19303109748E+02  0.12631549124E+02  0.53790269158E+02  0.58528276374E+02  0.00000000000E+00 0.  1.
         21    1    1    2  504  503 -0.19303109748E+02 -0.12631549124E+02  0.40132514794E+03  0.40198761231E+03  0.00000000000E+00 0.  1.
</event>
<event>
 4    1  0.3305068E+006  0.4485959E+02  0.7546771E-02  0.1322143E+00
         21   -1    0    0  503  501  0.00000000000E+00  0.00000000000E+00  0.78038642733E+03  0.78038642733E+03  0.00000000000E+00 0. -1.
         21   -1    0    0  504  502 -0.00000000000E+00 -0.00000000000E+00 -0.54485385687E+02  0.54485385687E+02  0.00000000000E+00 0. -1.
         21    1    1    2  503  502  0.20721635078E+02 -0.39786893804E+02  0.77038843020E+03  0.77169340833E+03  0.00000000000E+00 0. -1.
         21    1    1    2  504  501 -0.20721635078E+02  0.39786893804E+02 -0.44487388552E+02  0.63178404689E+02  0.00000000000E+00 0. -1.
</event>
<event>
 4    1  0.3305068E+006  0.3093046E+02  0.7546771E-02  0.1411679E+00
         21   -1    0    0  502  501  0.00000000000E+00  0.00000000000E+00  0.13205043669E+03  0.13205043669E+03  0.00000000000E+00 0.  1.
         21   -1    0    0  504  502 -0.00000000000E+00 -0.00000000000E+00 -0.85145758672E+01  0.85145758672E+01  0.00000000000E+00 0.  1.
         21    1    1    2  503  501  0.28883085838E+02 -0.11066187639E+02  0.88907998667E+02  0.94134613099E+02  0.00000000000E+00 0.  1.
         21    1    1    2  504  503 -0.28883085838E+02  0.11066187639E+02  0.34627862159E+02  0.46430399461E+02  0.00000000000E+00 0.  1.
</event>
<event>
 4    1  0.3305068E+006  0.2517249E+02  0.7546771E-02  0.1466883E+00
         21   -1    0    0  503  501  0.00000000000E+00  0.00000000000E+00  0.16742245759E+03  0.16742245759E+03  0.00000000000E+00 0.  1.
         21   -1    0    0  504  502 -0.00000000000E+00 -0.00000000000E+00 -0.40894029089E+01  0.40894029089E+01  0.00000000000E+00 0. -1.
         21    1    1    2  503  502  0.15171529033E+02  0.20086790383E+02  0.10507252227E+03  0.10804577445E+03  0.00000000000E+00 0.  1.
         21    1    1    2  504  501 -0.15171529033E+02 -0.20086790383E+02  0.58260532411E+02  0.63466086045E+02  0.00000000000E+00 0. -1.
</event>
<event>
 4    1  0.3305068E+006  0.2178566E+02  0.7546771E-02  0.1508337E+00
         21   -1    0    0  504  501  0.00000000000E+00  0.00000000000E+00  0.54083387569E+01  0.54083387569E+01  0.00000000000E+00 0.  1.
         21   -1    0    0  503  502 -0.00000000000E+00 -0.00000000000E+00 -0.18693655522E+03  0.18693655522E+03  0.00000000000E+00 0.  1.
         21    1    1    2  503  501  0.90690146209E+01 -0.19808276674E+02 -0.20712752808E+02  0.30060488683E+02  0.00000000000E+00 0.  1.
         21    1    1    2  504  502 -0.90690146209E+01  0.19808276674E+02 -0.16081546365E+03  0.16228440529E+03  0.00000000000E+00 0.  1.
</event>
<event>
 4    1  0.3305068E+006  0.3213604E+02  0.7546771E-02  0.1401899E+00
         21   -1    0    0  504  501  0.00000000000E+00  0.00000000000E+00  0.18287699766E+01  0.18287699766E+01  0.00000000000E+00 0.  1.
         21   -1    0    0  503  502 -0.00000000000E+00 -0.00000000000E+00 -0.67293768213E+03  0.67293768213E+03  0.00000000000E+00 0.  1.
         21    1    1    2  503  501 -0.27706899886E+02 -0.16280442022E+02 -0.47085663865E+03  0.47195200948E+03  0.00000000000E+00 0.  1.
         21    1    1    2  504  502  0.27706899886E+02  0.16280442022E+02 -0.20025227350E+03  0.20281444262E+03  0.00000000000E+00 0.  1.
</event>
<event>
 4    1  0.3305068E+006  0.5469379E+02  0.7546771E-02  0.1279011E+00
         21   -1    0    0  503  501  0.00000000000E+00  0.00000000000E+00  0.15151629106E+04  0.15151629106E+04  0.00000000000E+00 0.  1.
         21   -1    0    0  504  502 -0.00000000000E+00 -0.00000000000E+00 -0.50227581548E+01  0.50227581548E+01  0.00000000000E+00 0. -1.
         21    1    1    2  503  502 -0.23270335452E+02  0.49496481341E+02  0.13472238389E+04  0.13483335946E+04  0.00000000000E+00 0.  1.
         21    1    1    2  504  501  0.23270335452E+02 -0.49496481341E+02  0.16291631348E+03  0.17185207410E+03  0.00000000000E+00 0. -1.
</event>
<event>
 4    1  0.3305068E+006  0.2168051E+02  0.7546771E-02  0.1509767E+00
         21   -1    0    0  503  501  0.00000000000E+00  0.00000000000E+00  0.22101240436E+01  0.22101240436E+01  0.00000000000E+00 0. -1.
         21   -1    0    0  504  502 -0.00000000000E+00 -0.00000000000E+00 -0.37582355859E+03  0.37582355859E+03  0.00000000000E+00 0.  1.
         21    1    1    2  503  502  0.35268246305E+01 -0.21391728806E+02 -0.31134310199E+03  0.31209705495E+03  0.00000000000E+00 0.  1.
         21    1    1    2  504  501 -0.35268246305E+01  0.21391728806E+02 -0.62270332561E+02  0.65936627685E+02  0.00000000000E+00 0. -1.
</event>
<event>
 4    1  0.3305068E+006  0.2100677E+02  0.7546771E-02  0.1519168E+00
         21   -1    0    0  503  501  0.00000000000E+00  0.00000000000E+00  0.13741970767E+04  0.13741970767E+04  0.00000000000E+00 0. -1.
         21   -1    0    0  501  502 -0.00000000000E+00 -0.00000000000E+00 -0.11959615644E+02  0.11959615644E+02  0.00000000000E+00 0.  1.
         21    1    1    2  503  504 -0.80573805646E+00 -0.20991308936E+02  0.13648290183E+04  0.13649906716E+04  0.00000000000E+00 0. -1.
         21    1    1    2  504  502  0.80573805646E+00  0.20991308936E+02 -0.25915572866E+01  0.21166020736E+02  0.00000000000E+00 0.  1.
</event>
<event>
 4    1  0.3305068E+006  0.2243458E+02  0.7546771E-02  0.1499723E+00
         21   -1    0    0  504  501  0.00000000000E+00  0.00000000000E+00  0.10442921172E+04  0.10442921172E+04  0.00000000000E+00 0.  1.
         21   -1    0    0  503  502 -0.00000000000E+00 -0.00000000000E+00 -0.53404617424E+00  0.53404617424E+00  0.00000000000E+00 0.  1.
         21    1    1    2  503  501  0.15226589301E+02  0.16476077979E+02  0.35873419667E+03  0.35943502059E+03  0.00000000000E+00 0.  1.
         21    1    1    2  504  502 -0.15226589301E+02 -0.16476077979E+02  0.68502387434E+03  0.68539114277E+03  0.00000000000E+00 0.  1.
</event>
<event>
 4    1  0.3305068E+006  0.3048470E+02  0.7546771E-02  0.1415430E+00
         21   -1    0    0  503  501  0.00000000000E+00  0.00000000000E+00  0.41908927845E+02  0.41908927845E+02  0.00000000000E+00 0.  1.
         21   -1    0    0  501  502 -0.00000000000E+00 -0.00000000000E+00 -0.13708370350E+03  0.13708370350E+03  0.00000000000E+00 0. -1.
         21    1    1    2  503  504  0.21884543789E+02  0.21222237868E+02  0.34351361104E+02  0.45927471590E+02  0.00000000000E+00 0.  1.
         21    1    1    2  504  502 -0.21884543789E+02 -0.21222237868E+02 -0.12952613676E+03  0.13306515975E+03  0.00000000000E+00 0. -1.
</event>
<event>
 4    1  0.3305068E+006  0.2043166E+02  0.7546771E-02  0.1527536E+00
         21   -1    0    0  504  501  0.00000000000E+00  0.00000000000E+00  0.19901406430E+02  0.19901406430E+02  0.00000000000E+00 0.  1.
         21   -1    0    0  503  502 -0.00000000000E+00 -0.00000000000E+00 -0.37024711392E+02  0.37024711392E+02  0.00000000000E+00 0. -1.
         21    1    1    2  503  501 -0.11440668307E+02 -0.16928190745E+02 -0.27301039673E+02  0.34099843115E+02  0.00000000000E+00 0. -1.
         21    1    1    2  504  502  0.11440668307E+02  0.16928190745E+02  0.10177734711E+02  0.22826274708E+02  0.00000000000E+00 0.  1.
</event>
<event>
 4    1  0.3305068E+006  0.2254807E+02  0.7546771E-02  0.1498252E+00
         21   -1    0    0  502  501  0.00000000000E+00  0.00000000000E+00  0.70731992754E+00  0.70731992754E+00  0.00000000000E+00 0.  1.
         21   -1    0    0  503  502 -0.00000000000E+00 -0.00000000000E+00 -0.73418964960E+03  0.73418964960E+03  0.00000000000E+00 0.  1.
         21    1    1    2  503  504 -0.71589856093E+01 -0.21381403573E+02 -0.41995539155E+03  0.42056027675E+03  0.00000000000E+00 0.  1.
         21    1    1    2  504  501  0.71589856093E+01  0.21381403573E+02 -0.31352693813E+03  0.31433669278E+03  0.00000000000E+00 0.  1.
</event>
<event>
 4    1  0.3305068E+006  0.2225415E+02  0.7546771E-02  0.1502082E+00
         21   -1    0    0  503  501  0.00000000000E+00  0.00000000000E+00  0.11348420210E+02  0.11348420210E+02  0.00000000000E+00 0.  1.
         21   -1    0    0  504  502 -0.00000000000E+00 -0.00000000000E+00 -0.79511502242E+02  0.79511502242E+02  0.00000000000E+00 0.  1.
         21    1    1    2  503  502  0.78082631279E+01 -0.20839346794E+02 -0.64595667883E+02  0.68321648525E+02  0.00000000000E+00 0.  1.
         21    1    1    2  504  501 -0.78082631279E+01  0.20839346794E+02 -0.35674141492E+01  0.22538273927E+02  0.00000000000E+00 0.  1.
</event>
<event>
 4    1  0.3305068E+006  0.2554899E+02  0.7546771E-02  0.1462755E+00
         21   -1    0    0  504  501  0.00000000000E+00  0.00000000000E+00  0.23294676845E+02  0.23294676845E+02  0.00000000000E+00 0.  1.
         21   -1    0    0  503  502 -0.00000000000E+00 -0.00000000000E+00 -0.20612395499E+03  0.20612395499E+03  0.00000000000E+00 0.  1.
         21    1    1    2  503  501  0.24126030743E+02  0.84074578370E+01 -0.19804219777E+03  0.19968340643E+03  0.00000000000E+00 0.  1.
         21    1    1    2  504  502 -0.24126030743E+02 -0.84074578370E+01  0.15212919621E+02  0.29735225408E+02  0.00000000000E+00 0.  1.
</event>
<event>
 4    1  0.3305068E+006  0.2071292E+02  0.7546771E-02  0.1523403E+00
         21   -1    0    0  503  501  0.00000000000E+00  0.00000000000E+00  0.63476584215E+02  0.63476584215E+02  0.00000000000E+00 0. -1.
         21   -1    0    0  504  502 -0.00000000000E+00 -0.00000000000E+00 -0.55576087772E+03  0.55576087772E+03  0.00000000000E+00 0. -1.
         21    1    1    2  503  502 -0.68120753895E+01 -0.19560690038E+02 -0.55387243099E+03  0.55425959151E+03  0.00000000000E+00 0. -1.
         21    1    1    2  504  501  0.68120753895E+01  0.19560690038E+02  0.61588137488E+02  0.64977870426E+02  0.00000000000E+00 0. -1.
</event>
<event>
 4    1  0.3305068E+006  0.2664707E+02  0.7546771E-02  0.1451186E+00
         21   -1    0    0  504  501  0.00000000000E+00  0.00000000000E+00  0.20339659394E+03  0.20339659394E+03  0.00000000000E+00 0. -1.
         21   -1    0    0  503  502 -0.00000000000E+00 -0.00000000000E+00 -0.72461813890E+02  0.72461813890E+02  0.00000000000E+00 0.  1.
         21    1    1    2  503  501 -0.98873616376E+01 -0.24744829877E+02 -0.69098244896E+02  0.74058314682E+02  0.00000000000E+00 0.  1.
         21    1    1    2  504  502  0.98873616376E+01  0.24744829877E+02  0.20003302495E+03  0.20180009315E+03  0.00000000000E+00 0. -1.
</event>
<event>
 4    1  0.3305068E+006  0.2161915E+02  0.7546771E-02  0.1510606E+00
         21   -1    0    0  503  501  0.00000000000E+00  0.00000000000E+00  0.22474995729E+01  0.22474995729E+01  0.00000000000E+00 0. -1.
         21   -1    0    0  504  502 -0.00000000000E+00 -0.00000000000E+00 -0.21810297361E+03  0.21810297361E+03  0.00000000000E+00 0. -1.
         21    1    1    2  503  502 -0.21186712502E+02 -0.43024361840E+01 -0.13168833921E+03  0.13345113873E+03  0.00000000000E+00 0. -1.
         21    1    1    2  504  501  0.21186712502E+02  0.43024361840E+01 -0.84167134821E+02  0.86899334450E+02  0.00000000000E+00 0. -1.
</event>
<event>
 4    1  0.3305068E+006  0.2049951E+02  0.7546771E-02  0.1526532E+00
         21   -1    0    0  502  501  0.00000000000E+00  0.00000000000E+00  0.14281189838E+02  0.14281189838E+02  0.00000000000E+00 0.  1.
         21   -1    0    0  503  502 -0.00000000000E+00 -0.00000000000E+00 -0.30331705590E+02  0.30331705590E+02  0.00000000000E+00 0. -1.
         21    1    1    2  503  504 -0.17290365924E+02  0.11012410804E+02 -0.11881067676E+02  0.23693664018E+02  0.00000000000E+00 0. -1.
         21    1    1    2  504  501  0.17290365924E+02 -0.11012410804E+02 -0.41694480756E+01  0.20919231409E+02  0.00000000000E+00 0.  1.
</event>
<event>
 4    1  0.3305068E+006  0.3143717E+02  0.7546771E-02  0.1407505E+00
         21   -1    0    0  504  501  0.00000000000E+00  0.00000000000E+00  0.63490982037E+01  0.63490982037E+01  0.00000000000E+00 0. -1.
         21   -1    0    0  503  502 -0.00000000000E+00 -0.00000000000E+00 -0.16217407309E+03  0.16217407309E+03  0.00000000000E+00 0. -1.
         21    1    1    2  503  501  0.23505986373E+02 -0.20874966761E+02 -0.94801001769E+02  0.99877552879E+02  0.00000000000E+00 0. -1.
         21    1    1    2  504  502 -0.23505986373E+02  0.20874966761E+02 -0.61023973122E+02  0.68645618419E+02  0.00000000000E+00 0. -1.
</event>
<event>
 4    1  0.3305068E+006  0.2034844E+02  0.7546771E-02  0.1528774E+00
         21   -1    0    0  503  501  0.00000000000E+00  0.00000000000E+00  0.30194983046E+02  0.30194983046E+02  0.00000000000E+00 0.  1.
         21   -1    0    0  504  502 -0.00000000000E+00 -0.00000000000E+00 -0.23975891807E+02  0.23975891807E+02  0.00000000000E+00 0.  1.
         21    1    1    2  503  502  0.14880558477E+02 -0.13879044702E+02 -0.14611395297E+02  0.25050983512E+02  0.00000000000E+00 0.  1.
         21    1    1    2  504  501 -0.14880558477E+02  0.13879044702E+02  0.20830486536E+02  0.29119891341E+02  0.00000000000E+00 0.  1.
</event>
<event>
 4    1  0.3305068E+006  0.3853756E+02  0.7546771E-02  0.1357275E+00
         21   -1    0    0  502  501  0.00000000000E+00  0.00000000000E+00  0.46517709340E+02  0.46517709340E+02  0.00000000000E+00 0.  1.
         21   -1    0    0  503  502 -0.00000000000E+00 -0.00000000000E+00 -0.47269060043E+02  0.47269060043E+02  0.00000000000E+00 0.  1.
         21    1    1    2  503  504 -0.14340212323E+02 -0.35770127703E+02 -0.27091784335E+02  0.47107414532E+02  0.00000000000E+00 0.  1.
         21    1    1    2  504  501  0.14340212323E+02  0.35770127703E+02  0.26340433632E+02  0.46679354851E+02  0.00000000000E+00 0.  1.
</event>
<event>
 4    1  0.3305068E+006  0.3341004E+02  0.7546771E-02  0.1392099E+00
         21   -1    0    0  502  501  0.00000000000E+00  0.00000000000E+00  0.14368574300E+02  0.14368574300E+02  0.00000000000E+00 0. -1.
         21   -1    0    0  503  502 -0.00000000000E+00 -0.00000000000E+00 -0.43468968484E+03  0.43468968484E+03  0.00000000000E+00 0.  1.
         21    1    1    2  503  504  0.11644144419E+02  0.31315243377E+02 -0.41363958113E+03  0.41498666683E+03  0.00000000000E+00 0.  1.
         21    1    1    2  504  501 -0.11644144419E+02 -0.31315243377E+02 -0.66815294015E+01  0.34071592304E+02  0.00000000000E+00 0. -1.
</event>
<event>
 4    1  0.3305068E+006  0.2892738E+02  0.7546771E-02  0.1429152E+00
         21   -1    0    0  503  501  0.00000000000E+00  0.00000000000E+00  0.36085580890E+02  0.36085580890E+02  0.00000000000E+00 0. -1.
         21   -1    0    0  504  502 -0.00000000000E+00 -0.00000000000E+00 -0.37585185775E+02  0.37585185775E+02  0.00000000000E+00 0. -1.
         21    1    1    2  503  502 -0.27583624141E+02  0.87141962459E+01 -0.23546843092E+02  0.37299428368E+02  0.00000000000E+00 0. -1.
         21    1    1    2  504  501  0.27583624141E+02 -0.87141962459E+01  0.22047238207E+02  0.36371338297E+02  0.00000000000E+00 0. -1.
</event>
<event>
 4    1  0.3305068E+006  0.2516659E+02  0.7546771E-02  0.1466948E+00
         21   -1    0    0  504  501  0.00000000000E+00  0.00000000000E+00  0.14197871572E+02  0.14197871572E+02  0.00000000000E+00 0.  1.
         21   -1    0    0  501  502 -0.00000000000E+00 -0.00000000000E+00 -0.57246369377E+02  0.57246369377E+02  0.00000000000E+00 0. -1.
         21    1    1    2  503  502 -0.21325148587E+02 -0.13363955869E+02 -0.38307892169E+02  0.45835050793E+02  0.00000000000E+00 0. -1.
         21    1    1    2  504  503  0.21325148587E+02  0.13363955869E+02 -0.47406056358E+01  0.25609190157E+02  0.00000000000E+00 0.  1.
</event>
<event>
 4    1  0.3305068E+006  0.2932520E+02  0.7546771E-02  0.1425552E+00
         21   -1    0    0  503  501  0.00000000000E+00  0.00000000000E+00  0.40395661110E+01  0.40395661110E+01  0.00000000000E+00 0. -1.
         21   -1    0    0  504  502 -0.00000000000E+00 -0.00000000000E+00 -0.13413635324E+04  0.13413635324E+04  0.00000000000E+00 0.  1.
         21    1    1    2  503  502 -0.85129413292E+01 -0.28062381175E+02 -0.51647124278E+02  0.59391858478E+02  0.00000000000E+00 0. -1.
         21    1    1    2  504  501  0.85129413292E+01  0.28062381175E+02 -0.12856768420E+04  0.12860112401E+04  0.00000000000E+00 0.  1.
</event>
<event>
 4    1  0.3305068E+006  0.2290608E+02  0.7546771E-02  0.1493681E+00
         21   -1    0    0  504  501  0.00000000000E+00  0.00000000000E+00  0.37681436567E+01  0.37681436567E+01  0.00000000000E+00 0. -1.
         21   -1    0    0  501  502 -0.00000000000E+00 -0.00000000000E+00 -0.10942943263E+04  0.10942943263E+04  0.00000000000E+00 0. -1.
         21    1    1    2  503  502 -0.17859332212E+02 -0.14343393914E+02 -0.10581755762E+04  0.10584234686E+04  0.00000000000E+00 0. -1.
         21    1    1    2  504  503  0.17859332212E+02  0.14343393914E+02 -0.32350606456E+02  0.39639001426E+02  0.00000000000E+00 0. -1.
</event>
<event>
 4    1  0.3305068E+006  0.2350572E+02  0.7546771E-02  0.1486244E+00
         21   -1    0    0  504  501  0.00000000000E+00  0.00000000000E+00  0.62087091267E+01  0.62087091267E+01  0.00000000000E+00 0.  1.
         21   -1    0    0  503  502 -0.00000000000E+00 -0.00000000000E+00 -0.92522201847E+02  0.92522201847E+02  0.00000000000E+00 0. -1.
         21    1    1    2  503  501 -0.21153248480E+02 -0.10249831867E+02 -0.52800897520E+02  0.57796658671E+02  0.00000000000E+00 0.  1.
         21    1    1    2  504  502  0.21153248480E+02  0.10249831867E+02 -0.33512595200E+02  0.40934252303E+02  0.00000000000E+00 0. -1.
</event>
<event>
 4    1  0.3305068E+006  0.2778962E+02  0.7546771E-02  0.1439834E+00
         21   -1    0    0  504  501  0.00000000000E+00  0.00000000000E+00  0.89832871524E+01  0.89832871524E+01  0.00000000000E+00 0. -1.
         21   -1    0    0  503  502 -0.00000000000E+00 -0.00000000000E+00 -0.15817777622E+03  0.15817777622E+03  0.00000000000E+00 0. -1.
         21    1    1    2  503  501  0.27011382603E+02 -0.65305432116E+01 -0.18125063350E+02  0.33178015405E+02  0.00000000000E+00 0. -1.
         21    1    1    2  504  502 -0.27011382603E+02  0.65305432116E+01 -0.13106942571E+03  0.13398304796E+03  0.00000000000E+00 0. -1.
</event>
<event>
 4    1  0.3305068E+006  0.2161855E+02  0.7546771E-02  0.1510614E+00
         21   -1    0    0  503  501  0.00000000000E+00  0.00000000000E+00  0.17252509190E+03  0.17252509190E+03  0.00000000000E+00 0. -1.
         21   -1    0    0  501  502 -0.00000000000E+00 -0.00000000000E+00 -0.22430815782E+02  0.22430815782E+02  0.00000000000E+00 0. -1.
         21    1    1    2  503  504 -0.51486859738E+01 -0.20996490485E+02  0.16644959850E+03  0.16784764050E+03  0.00000000000E+00 0. -1.
         21    1    1    2  504  502  0.51486859738E+01  0.20996490485E+02 -0.16355322377E+02  0.27108267189E+02  0.00000000000E+00 0. -1.
</event>
<event>
 4    1  0.3305068E+006  0.2310781E+02  0.7546771E-02  0.1491149E+00
         21   -1    0    0  503  501  0.00000000000E+00  0.00000000000E+00  0.24581052451E+03  0.24581052451E+03  0.00000000000E+00 0.  1.
         21   -1    0    0  504  502 -0.00000000000E+00 -0.00000000000E+00 -0.15828274277E+03  0.15828274277E+03  0.00000000000E+00 0. -1.
         21    1    1    2  503  502  0.62002869968E+01  0.22260444268E+02 -0.15689149972E+03  0.15858409007E+03  0.00000000000E+00 0. -1.
         21    1    1    2  504  501 -0.62002869968E+01 -0.22260444268E+02  0.24441928146E+03  0.24550917720E+03  0.00000000000E+00 0.  1.
</event>
<event>
 4    1  0.3305068E+006  0.2846858E+02  0.7546771E-02  0.1433389E+00
         21   -1    0    0  503  501  0.00000000000E+00  0.00000000000E+00  0.40137890987E+02  0.40137890987E+02  0.00000000000E+00 0. -1.
         21   -1    0    0  501  502 -0.00000000000E+00 -0.00000000000E+00 -0.25927143708E+02  0.25927143708E+02  0.00000000000E+00 0. -1.
         21    1    1    2  503  504  0.24938507395E+02  0.13730649902E+02  0.22641424499E+02  0.36374359117E+02  0.00000000000E+00 0. -1.
         21    1    1    2  504  502 -0.24938507395E+02 -0.13730649902E+02 -0.84306772212E+01  0.29690675577E+02  0.00000000000E+00 0. -1.
</event>
<event>
 4    1  0.3305068E+006  0.2595008E+02  0.7546771E-02  0.1458450E+00
         21   -1    0    0  504  501  0.00000000000E+00  0.00000000000E+00  0.13284688798E+03  0.13284688798E+03  0.00000000000E+00 0. -1.
         21   -1    0    0  503  502 -0.00000000000E+00 -0.00000000000E+00 -0.21308942895E+03  0.21308942895E+03  0.00000000000E+00 0.  1.
         21    1    1    2  503  501 -0.22872903678E+02  0.12257110860E+02 -0.21101973415E+03  0.21260934761E+03  0.00000000000E+00 0.  1.
         21    1    1    2  504  502  0.22872903678E+02 -0.12257110860E+02  0.13077719319E+03  0.13332696931E+03  0.00000000000E+00 0. -1.
</event>
<event>
 4    1  0.3305068E+006  0.2476875E+02  0.7546771E-02  0.1471407E+00
         21   -1    0    0  504  501  0.00000000000E+00  0.00000000000E+00  0.39833761819E+02  0.39833761819E+02  0.00000000000E+00 0. -1.
         21   -1    0    0  503  502 -0.00000000000E+00 -0.00000000000E+00 -0.16237541595E+02  0.16237541595E+02  0.00000000000E+00 0. -1.
         21    1    1    2  503  501 -0.22888735665E+02 -0.94655628717E+01  0.18160501919E+02  0.30713106824E+02  0.00000000000E+00 0. -1.
         21    1    1    2  504  502  0.22888735665E+02  0.94655628717E+01  0.54357183048E+01  0.25358196590E+02  0.00000000000E+00 0. -1.
</event>
<event>
 4    1  0.3305068E+006  0.2571518E+02  0.7546771E-02  0.1460959E+00
         21   -1    0    0  504  501  0.00000000000E+00  0.00000000000E+00  0.56270549937E+02  0.56270549937E+02  0.00000000000E+00 0. -1.
         21   -1    0    0  503  502 -0.00000000000E+00 -0.00000000000E+00 -0.67258137609E+02  0.67258137609E+02  0.00000000000E+00 0.  1.
         21    1    1    2  503  501  0.15148372707E+02  0.20779729875E+02  0.50615833739E+02  0.56773523710E+02  0.00000000000E+00 0. -1.
         21    1    1    2  504  502 -0.15148372707E+02 -0.20779729875E+02 -0.61603421411E+02  0.66755163837E+02  0.00000000000E+00 0.  1.
</event>
<event>
 4    1  0.3305068E+006  0.2749654E+02  0.7546771E-02  0.1442683E+00
         21   -1    0    0  503  501  0.00000000000E+00  0.00000000000E+00  0.43672617667E+02  0.43672617667E+02  0.00000000000E+00 0.  1.
         21   -1    0    0  504  502 -0.00000000000E+00 -0.00000000000E+00 -0.15410323955E+03  0.15410323955E+03  0.00000000000E+00 0.  1.
         21    1    1    2  503  502 -0.16685885306E+02  0.21855001552E+02  0.37952642584E+02  0.46866437249E+02  0.00000000000E+00 0.  1.
         21    1    1    2  504  501  0.16685885306E+02 -0.21855001552E+02 -0.14838326447E+03  0.15090941997E+03  0.00000000000E+00 0.  1.
</event>
<event>
 4    1  0.3305068E+006  0.2139065E+02  0.7546771E-02  0.1513760E+00
         21   -1    0    0  504  501  0.00000000000E+00  0.00000000000E+00  0.37886920821E+02  0.37886920821E+02  0.00000000000E+00 0. -1.
         21   -1    0    0  503  502 -0.00000000000E+00 -0.00000000000E+00 -0.14468010744E+02  0.14468010744E+02  0.00000000000E+00 0. -1.
         21    1    1    2  503  501 -0.11483190090E+02  0.18047060993E+02  0.22351243424E+02  0.30937649357E+02  0.00000000000E+00 0. -1.
         21    1    1    2  504  502  0.11483190090E+02 -0.18047060993E+02  0.10676666533E+01  0.21417282208E+02  0.00000000000E+00 0. -1.
</event>
<event>
 4    1  0.3305068E+006  0.2154267E+02  0.7546771E-02  0.1511656E+00
         21   -1    0    0  502  501  0.00000000000E+00  0.00000000000E+00  0.41065366733E+02  0.41065366733E+02  0.00000000000E+00 0.  1.
         21   -1    0    0  503  502 -0.00000000000E+00 -0.00000000000E+00 -0.41470114744E+02  0.41470114744E+02  0.00000000000E+00 0.  1.
         21    1    1    2  503  504 -0.16735028434E+02  0.13565602432E+02 -0.35400790430E+02  0.41440351218E+02  0.00000000000E+00 0.  1.
         21    1    1    2  504  501  0.16735028434E+02 -0.13565602432E+02  0.34996042418E+02  0.41095130259E+02  0.00000000000E+00 0.  1.
</event>
<event>
 4    1  0.3305068E+006  0.2039154E+02  0.7546771E-02  0.1528132E+00
         21   -1    0    0  502  501  0.00000000000E+00  0.00000000000E+00  0.56627699886E+02  0.56627699886E+02  0.00000000000E+00 0.  1.
         21   -1    0    0  503  502 -0.00000000000E+00 -0.00000000000E+00 -0.27953889802E+02  0.27953889802E+02  0.00000000000E+00 0. -1.
         21    1    1    2  503  504  0.18535539707E+02  0.84999152239E+01 -0.21977049214E+02  0.29980084777E+02  0.00000000000E+00 0. -1.
         21    1    1    2  504  501 -0.18535539707E+02 -0.84999152239E+01  0.50650859298E+02  0.54601504912E+02  0.00000000000E+00 0.  1.
</event>
<event>
 4    1  0.3305068E+006  0.2520897E+02  0.7546771E-02  0.1466479E+00
         21   -1    0    0  503  501  0.00000000000E+00  0.00000000000E+00  0.11562280310E+01  0.11562280310E+01  0.00000000000E+00 0.  1.
         21   -1    0    0  504  502 -0.00000000000E+00 -0.00000000000E+00 -0.71391152749E+03  0.71391152749E+03  0.00000000000E+00 0. -1.
         21    1    1    2  503  502 -0.25062291413E+02 -0.27154442887E+01 -0.18486518692E+03  0.18657606873E+03  0.00000000000E+00 0.  1.
         21    1    1    2  504  501  0.25062291413E+02  0.27154442887E+01 -0.52789011254E+03  0.52849168679E+03  0.00000000000E+00 0. -1.
</event>
<event>
 4    1  0.3305068E+006  0.2235707E+02  0.7546771E-02  0.1500733E+00
         21   -1    0    0  503  501  0.00000000000E+00  0.00000000000E+00  0.30504412149E+02  0.30504412149E+02  0.00000000000E+00 0.  1.
         21   -1    0    0  504  502 -0.00000000000E+00 -0.00000000000E+00 -0.94418744900E+02  0.94418744900E+02  0.00000000000E+00 0. -1.
         21    1    1    2  503  502 -0.85449241745E+01 -0.20659688432E+02  0.24826431980E+02  0.33409432502E+02  0.00000000000E+00 0.  1.
         21    1    1    2  504  501  0.85449241745E+01  0.20659688432E+02 -0.88740764732E+02  0.91513724547E+02  0.00000000000E+00 0. -1.
</event>
<event>
 4    1  0.3305068E+006  0.2454052E+02  0.7546771E-02  0.1474010E+00
         21   -1    0    0  504  501  0.00000000000E+00  0.00000000000E+00  0.90046179693E+01  0.90046179693E+01  0.00000000000E+00 0. -1.
         21   -1    0    0  503  502 -0.00000000000E+00 -0.00000000000E+00 -0.83288322901E+02  0.83288322901E+02  0.00000000000E+00 0. -1.
         21    1    1    2  503  501  0.20297822459E+02  0.13792592660E+02 -0.16660141084E+02  0.29661380780E+02  0.00000000000E+00 0. -1.
         21    1    1    2  504  502 -0.20297822459E+02 -0.13792592660E+02 -0.57623563848E+02  0.62631560090E+02  0.00000000000E+00 0. -1.
</event>
<event>
 4    1  0.3305068E+006  0.2234368E+02  0.7546771E-02  0.1500908E+00
         21   -1    0    0  504  501  0.00000000000E+00  0.00000000000E+00  0.44323042417E+01  0.44323042417E+01  0.00000000000E+00 0.  1.
         21   -1    0    0  503  502 -0.00000000000E+00 -0.00000000000E+00 -0.21309936109E+03  0.21309936109E+03  0.00000000000E+00 0.  1.
         21    1    1    2  503  501 -0.20871935639E+02  0.79751192506E+01 -0.17901342446E+03  0.18040245664E+03  0.00000000000E+00 0.  1.
         21    1    1    2  504  502  0.20871935639E+02 -0.79751192506E+01 -0.29653632389E+02  0.37129208694E+02  0.00000000000E+00 0.  1.
</event>
<event>
 4    1  0.3305068E+006  0.3255701E+02  0.7546771E-02  0.1398603E+00
         21   -1    0    0  504  501  0.00000000000E+00  0.00000000000E+00  0.47606478412E+03  0.47606478412E+03  0.00000000000E+00 0.  1.
         21   -1    0    0  503  502 -0.00000000000E+00 -0.00000000000E+00 -0.33458197661E+01  0.33458197661E+01  0.00000000000E+00 0.  1.
         21    1    1    2  503  501  0.55146534327E+01 -0.32086559351E+02  0.97714782498E+02  0.10299581259E+03  0.00000000000E+00 0.  1.
         21    1    1    2  504  502 -0.55146534327E+01  0.32086559351E+02  0.37500418186E+03  0.37641479130E+03  0.00000000000E+00 0.  1.
</event>
<event>
 4    1  0.3305068E+006  0.2615023E+02  0.7546771E-02  0.1456336E+00
         21   -1    0    0  503  501  0.00000000000E+00  0.00000000000E+00  0.32541200035E+03  0.32541200035E+03  0.00000000000E+00 0.  1.
         21   -1    0    0  504  502 -0.00000000000E+00 -0.00000000000E+00 -0.26577169403E+01  0.26577169403E+01  0.00000000000E+00 0.  1.
         21    1    1    2  503  502  0.83003950157E+01 -0.24797939749E+02  0.86331302203E+02  0.90204922888E+02  0.00000000000E+00 0.  1.
         21    1    1    2  504  501 -0.83003950157E+01  0.24797939749E+02  0.23642298121E+03  0.23786479441E+03  0.00000000000E+00 0.  1.
</event>
<event>
 4    1  0.3305068E+006  0.2935295E+02  0.7546771E-02  0.1425304E+00
         21   -1    0    0  503  501  0.00000000000E+00  0.00000000000E+00  0.45308725818E+01  0.45308725818E+01  0.00000000000E+00 0. -1.
         21   -1    0    0  504  502 -0.00000000000E+00 -0.00000000000E+00 -0.22528132684E+03  0.22528132684E+03  0.00000000000E+00 0. -1.
         21    1    1    2  503  502  0.23146846660E+02  0.18050465156E+02 -0.15574420773E+03  0.15848613203E+03  0.00000000000E+00 0. -1.
         21    1    1    2  504  501 -0.23146846660E+02 -0.18050465156E+02 -0.65006246523E+02  0.71326067393E+02  0.00000000000E+00 0. -1.
</event>
<event>
 4    1  0.3305068E+006  0.2080867E+02  0.7546771E-02  0.1522014E+00
         21   -1    0    0  503  501  0.00000000000E+00  0.00000000000E+00  0.27839055343E+02  0.27839055343E+02  0.00000000000E+00 0.  1.
         21   -1    0    0  504  502 -0.00000000000E+00 -0.00000000000E+00 -0.34374153393E+02  0.34374153393E+02  0.00000000000E+00 0.  1.
         21    1    1    2  503  502 -0.82306590555E+01  0.19111701736E+02  0.19749593244E+02  0.28688801387E+02  0.00000000000E+00 0.  1.
         21    1    1    2  504  501  0.82306590555E+01 -0.19111701736E+02 -0.26284691294E+02  0.33524407349E+02  0.00000000000E+00 0.  1.
</event>
<event>
 4    1  0.3305068E+006  0.2154672E+02  0.7546771E-02  0.1511600E+00
         21   -1    0    0  502  501  0.00000000000E+00  0.00000000000E+00  0.12408304425E+03  0.12408304425E+03  0.00000000000E+00 0.  1.
         21   -1    0    0  504  502 -0.00000000000E+00 -0.00000000000E+00 -0.53599674006E+01  0.53599674006E+01  0.00000000000E+00 0.  1.
         21    1    1    2  503  501 -0.21022773883E+02 -0.47227126818E+01  0.94925885394E+02  0.97340560686E+02  0.00000000000E+00 0.  1.
         21    1    1    2  504  503  0.21022773883E+02  0.47227126818E+01  0.23797191459E+02  0.32102450968E+02  0.00000000000E+00 0.  1.
</event>
<event>
 4    1  0.3305068E+006  0.2214607E+02  0.7546771E-02  0.1503509E+00
         21   -1    0    0  503  501  0.00000000000E+00  0.00000000000E+00  0.43535142547E+01  0.43535142547E+01  0.00000000000E+00 0.  1.
         21   -1    0    0  504  502 -0.00000000000E+00 -0.00000000000E+00 -0.14645400901E+03  0.14645400901E+03  0.00000000000E+00 0. -1.
         21    1    1    2  503  502  0.17136210073E+02  0.14028492201E+02 -0.10727369045E+03  0.10953580671E+03  0.00000000000E+00 0. -1.
         21    1    1    2  504  501 -0.17136210073E+02 -0.14028492201E+02 -0.34826804299E+02  0.41271716547E+02  0.00000000000E+00 0.  1.
</event>
<event>
 4    1  0.3305068E+006  0.2551573E+02  0.7546771E-02  0.1463116E+00
         21   -1    0    0  504  501  0.00000000000E+00  0.00000000000E+00  0.61258234369E+02  0.61258234369E+02  0.00000000000E+00 0.  1.
         21   -1    0    0  503  502 -0.00000000000E+00 -0.00000000000E+00 -0.49514653202E+02  0.49514653202E+02  0.00000000000E+00 0.  1.
         21    1    1    2  503  501  0.18433214063E+02 -0.17642820762E+02  0.54955445568E+02  0.60590044584E+02  0.00000000000E+00 0.  1.
         21    1    1    2  504  502 -0.18433214063E+02  0.17642820762E+02 -0.43211864402E+02  0.50182842987E+02  0.00000000000E+00 0.  1.
</event>
<event>
 4    1  0.3305068E+006  0.2107939E+02  0.7546771E-02  0.1518134E+00
         21   -1    0    0  503  501  0.00000000000E+00  0.00000000000E+00  0.10660699082E+03  0.10660699082E+03  0.00000000000E+00 0.  1.
         21   -1    0    0  504  502 -0.00000000000E+00 -0.00000000000E+00 -0.17619640761E+02  0.17619640761E+02  0.00000000000E+00 0. -1.
         21    1    1    2  503  502  0.16058503486E+02  0.13655231675E+02  0.98765368434E+02  0.10098979596E+03  0.00000000000E+00 0.  1.
         21    1    1    2  504  501 -0.16058503486E+02 -0.13655231675E+02 -0.97780183744E+01  0.23236835620E+02  0.00000000000E+00 0. -1.
</event>
<event>
 4    1  0.3305068E+006  0.5856152E+02  0.7546771E-02  0.1264800E+00
         21   -1    0    0  503  501  0.00000000000E+00  0.00000000000E+00  0.55905171799E+02  0.55905171799E+02  0.00000000000E+00 0. -1.
         21   -1    0    0  504  502 -0.00000000000E+00 -0.00000000000E+00 -0.67869683897E+02  0.67869683897E+02  0.00000000000E+00 0. -1.
         21    1    1    2  503  502 -0.56031958101E+02  0.17025600757E+02  0.13207737440E+02  0.60032455705E+02  0.00000000000E+00 0. -1.
         21    1    1    2  504  501  0.56031958101E+02 -0.17025600757E+02 -0.25172249538E+02  0.63742399991E+02  0.00000000000E+00 0. -1.
</event>
<event>
 4    1  0.3305068E+006  0.2330067E+02  0.7546771E-02  0.1488757E+00
         21   -1    0    0  504  501  0.00000000000E+00  0.00000000000E+00  0.65659565691E+02  0.65659565691E+02  0.00000000000E+00 0. -1.
         21   -1    0    0  501  502 -0.00000000000E+00 -0.00000000000E+00 -0.13137901721E+02  0.13137901721E+02  0.00000000000E+00 0. -1.
         21    1    1    2  503  502 -0.18704802611E+01 -0.23225472761E+02  0.22754431410E+01  0.23411512614E+02  0.00000000000E+00 0. -1.
         21    1    1    2  504  503  0.18704802611E+01  0.23225472761E+02  0.50246220829E+02  0.55385954799E+02  0.00000000000E+00 0. -1.
</event>
<event>
 4    1  0.3305068E+006  0.2676086E+02  0.7546771E-02  0.1450025E+00
         21   -1    0    0  504  501  0.00000000000E+00  0.00000000000E+00  0.11594811509E+04  0.11594811509E+04  0.00000000000E+00 0.  1.
         21   -1    0    0  503  502 -0.00000000000E+00 -0.00000000000E+00 -0.22574152981E+01  0.22574152981E+01  0.00000000000E+00 0.  1.
         21    1    1    2  503  501 -0.34610690466E+01 -0.26536103165E+02  0.83544113523E+02  0.87725496148E+02  0.00000000000E+00 0.  1.
         21    1    1    2  504  502  0.34610690466E+01  0.26536103165E+02  0.10736796221E+04  0.10740130700E+04  0.00000000000E+00 0.  1.
</event>
<event>
 4    1  0.3305068E+006  0.2462124E+02  0.7546771E-02  0.1473085E+00
         21   -1    0    0  503  501  0.00000000000E+00  0.00000000000E+00  0.60681842198E+03  0.60681842198E+03  0.00000000000E+00 0. -1.
         21   -1    0    0  504  502 -0.00000000000E+00 -0.00000000000E+00 -0.19229697540E+03  0.19229697540E+03  0.00000000000E+00 0. -1.
         21    1    1    2  503  502 -0.37858317239E+00  0.24618330135E+02  0.60577921198E+03  0.60627935737E+03  0.00000000000E+00 0. -1.
         21    1    1    2  504  501  0.37858317239E+00 -0.24618330135E+02 -0.19125776540E+03  0.19283604002E+03  0.00000000000E+00 0. -1.
</event>
<event>
 4    1  0.3305068E+006  0.3023068E+02  0.7546771E-02  0.1417602E+00
         21   -1    0    0  503  501  0.00000000000E+00  0.00000000000E+00  0.65270757550E+03  0.65270757550E+03  0.00000000000E+00 0. -1.
         21   -1    0    0  504  502 -0.00000000000E+00 -0.00000000000E+00 -0.15692934549E+01  0.15692934549E+01  0.00000000000E+00 0.  1.
         21    1    1    2  503  502  0.22149864675E+02  0.20573708272E+02  0.21817110540E+03  0.22025559064E+03  0.00000000000E+00 0.  1.
         21    1    1    2  504  501 -0.22149864675E+02 -0.20573708272E+02  0.43296717664E+03  0.43402127831E+03  0.00000000000E+00 0. -1.
</event>
<event>
 4    1  0.3305068E+006  0.2895435E+02  0.7546771E-02  0.1428906E+00
         21   -1    0    0  504  501  0.00000000000E+00  0.00000000000E+00  0.15265059184E+04  0.15265059184E+04  0.00000000000E+00 0.  1.
         21   -1    0    0  503  502 -0.00000000000E+00 -0.00000000000E+00 -0.84063685829E+00  0.84063685829E+00  0.00000000000E+00 0.  1.
         21    1    1    2  503  501  0.13232500330E+02  0.25753741193E+02  0.12124851125E+04  0.12128307805E+04  0.00000000000E+00 0.  1.
         21    1    1    2  504  502 -0.13232500330E+02 -0.25753741193E+02  0.31318016909E+03  0.31451577474E+03  0.00000000000E+00 0.  1.
</event>
<event>
 4    1  0.3305068E+006  0.2279026E+02  0.7546771E-02  0.1495149E+00
         21   -1    0    0  502  501  0.00000000000E+00  0.00000000000E+00  0.19302212938E+02  0.19302212938E+02  0.00000000000E+00 0.  1.
         21   -1    0    0  503  502 -0.00000000000E+00 -0.00000000000E+00 -0.90334994282E+02  0.90334994282E+02  0.00000000000E+00 0.  1.
         21    1    1    2  503  504  0.11088352668E+02  0.19910908515E+02 -0.81450459136E+02  0.84578798385E+02  0.00000000000E+00 0.  1.
         21    1    1    2  504  501 -0.11088352668E+02 -0.19910908515E+02  0.10417677792E+02  0.25058408835E+02  0.00000000000E+00 0.  1.
</event>
<event>
 4    1  0.3305068E+006  0.5411175E+02  0.7546771E-02  0.1281266E+00
         21   -1    0    0  503  501  0.00000000000E+00  0.00000000000E+00  0.90870786830E+02  0.90870786830E+02  0.00000000000E+00 0. -1.
         21   -1    0    0  504  502 -0.00000000000E+00 -0.00000000000E+00 -0.58234379249E+02  0.58234379249E+02  0.00000000000E+00 0. -1.
         21    1    1    2  503  502 -0.21268127488E+02 -0.49756890778E+02 -0.33508145067E+02  0.63646501967E+02  0.00000000000E+00 0. -1.
         21    1    1    2  504  501  0.21268127488E+02  0.49756890778E+02  0.66144552648E+02  0.85458664112E+02  0.00000000000E+00 0. -1.
</event>
<event>
 4    1  0.3305068E+006  0.2054427E+02  0.7546771E-02  0.1525872E+00
         21   -1    0    0  503  501  0.00000000000E+00  0.00000000000E+00  0.38205816768E+02  0.38205816768E+02  0.00000000000E+00 0.  1.
         21   -1    0    0  504  502 -0.00000000000E+00 -0.00000000000E+00 -0.40542078913E+02  0.40542078913E+02  0.00000000000E+00 0. -1.
         21    1    1    2  503  502  0.11778490795E+02 -0.16832531217E+02  0.32415629872E+02  0.38377597796E+02  0.00000000000E+00 0.  1.
         21    1    1    2  504  501 -0.11778490795E+02  0.16832531217E+02 -0.34751892017E+02  0.40370297885E+02  0.00000000000E+00 0. -1.
</event>
<event>
 4    1  0.3305068E+006  0.2036168E+02  0.7546771E-02  0.1528577E+00
         21   -1    0    0  503  501  0.00000000000E+00  0.00000000000E+00  0.17380298597E+01  0.17380298597E+01  0.00000000000E+00 0.  1.
         21   -1    0    0  504  502 -0.00000000000E+00 -0.00000000000E+00 -0.24858347333E+03  0.24858347333E+03  0.00000000000E+00 0.  1.
         21    1    1    2  503  502  0.10655677018E+02  0.17350919523E+02 -0.98270766915E+02  0.10035806640E+03  0.00000000000E+00 0.  1.
         21    1    1    2  504  501 -0.10655677018E+02 -0.17350919523E+02 -0.14857467656E+03  0.14996343679E+03  0.00000000000E+00 0.  1.
</event>
<event>
 4    1  0.3305068E+006  0.2643060E+02  0.7546771E-02  0.1453413E+00
         21   -1    0    0  502  501  0.00000000000E+00  0.00000000000E+00  0.46570474581E+02  0.46570474581E+02  0.00000000000E+00 0.  1.
         21   -1    0    0  503  502 -0.00000000000E+00 -0.00000000000E+00 -0.68207171339E+02  0.68207171339E+02  0.00000000000E+00 0.  1.
         21    1    1    2  503  504 -0.25656854396E+02 -0.63484019884E+01 -0.61505244228E+02  0.66943793236E+02  0.00000000000E+00 0.  1.
         21    1    1    2  504  501  0.25656854396E+02  0.63484019884E+01  0.39868547470E+02  0.47833852685E+02  0.00000000000E+00 0.  1.
</event>
<event>
 4    1  0.3305068E+006  0.2328716E+02  0.7546771E-02  0.1488923E+00
         21   -1    0    0  504  501  0.00000000000E+00  0.00000000000E+00  0.87893479671E+03  0.87893479671E+03  0.00000000000E+00 0.  1.
         21   -1    0    0  503  502 -0.00000000000E+00 -0.00000000000E+00 -0.74135684515E+00  0.74135684515E+00  0.00000000000E+00 0.  1.
         21    1    1    2  503  501  0.99339604773E+01  0.21062013854E+02  0.61924719775E+03  0.61968490696E+03  0.00000000000E+00 0.  1.
         21    1    1    2  504  502 -0.99339604773E+01 -0.21062013854E+02  0.25894624212E+03  0.25999124659E+03  0.00000000000E+00 0.  1.
</event>
<event>
 4    1  0.3305068E+006  0.2514559E+02  0.7546771E-02  0.1467181E+00
         21   -1    0    0  503  501  0.00000000000E+00  0.00000000000E+00  0.28123807527E+02  0.28123807527E+02  0.00000000000E+00 0.  1.
         21   -1    0    0  501  502 -0.00000000000E+00 -0.00000000000E+00 -0.22736031992E+02  0.22736031992E+02  0.00000000000E+00 0.  1.
         21    1    1    2  503  504 -0.24593121397E+02  0.52420480956E+01  0.53779037486E+01  0.25714247743E+02  0.00000000000E+00 0.  1.
         21    1    1    2  504  502  0.24593121397E+02 -0.52420480956E+01  0.98717866629E-02  0.25145591775E+02  0.00000000000E+00 0.  1.
</event>
<event>
 4    1  0.3305068E+006  0.2039298E+02  0.7546771E-02  0.1528111E+00
         21   -1    0    0  504  501  0.00000000000E+00  0.00000000000E+00  0.63521457020E+01  0.63521457020E+01  0.00000000000E+00 0. -1.
         21   -1    0    0  503  502 -0.00000000000E+00 -0.00000000000E+00 -0.48857817148E+03  0.48857817148E+03  0.00000000000E+00 0.  1.
         21    1    1    2  503  501  0.57205065918E+01  0.19574207695E+02 -0.47140182176E+03  0.47184271889E+03  0.00000000000E+00 0.  1.
         21    1    1    2  504  502 -0.57205065918E+01 -0.19574207695E+02 -0.10824204013E+02  0.23087598296E+02  0.00000000000E+00 0. -1.
</event>
<event>
 4    1  0.3305068E+006  0.3098583E+02  0.7546771E-02  0.1411219E+00
         21   -1    0    0  504  501  0.00000000000E+00  0.00000000000E+00  0.81530575119E+01  0.81530575119E+01  0.00000000000E+00 0.  1.
         21   -1    0    0  503  502 -0.00000000000E+00 -0.00000000000E+00 -0.14112764832E+03  0.14112764832E+03  0.00000000000E+00 0.  1.
         21    1    1    2  503  501 -0.15491916029E+02 -0.26835094214E+02 -0.36116583580E+02  0.47587071282E+02  0.00000000000E+00 0.  1.
         21    1    1    2  504  502  0.15491916029E+02  0.26835094214E+02 -0.96858007227E+02  0.10169363455E+03  0.00000000000E+00 0.  1.
</event>
<event>
 4    1  0.3305068E+006  0.2002528E+02  0.7546771E-02  0.1533649E+00
         21   -1    0    0  504  501  0.00000000000E+00  0.00000000000E+00  0.39974796924E+02  0.39974796924E+02  0.00000000000E+00 0. -1.
         21   -1    0    0  503  502 -0.00000000000E+00 -0.00000000000E+00 -0.12604176340E+02  0.12604176340E+02  0.00000000000E+00 0. -1.
         21    1    1    2  503  501  0.11128921997E+00 -0.20024974420E+02  0.25562324858E+02  0.32472210241E+02  0.00000000000E+00 0. -1.
         21    1    1    2  504  502 -0.11128921997E+00  0.20024974420E+02  0.18082957262E+01  0.20106763023E+02  0.00000000000E+00 0. -1.
</event>
<event>
 4    1  0.3305068E+006  0.2182711E+02  0.7546771E-02  0.1507776E+00
         21   -1    0    0  503  501  0.00000000000E+00  0.00000000000E+00  0.20755595923E+02  0.20755595923E+02  0.00000000000E+00 0. -1.
         21   -1    0    0  504  502 -0.00000000000E+00 -0.00000000000E+00 -0.42652656579E+02  0.42652656579E+02  0.00000000000E+00 0. -1.
         21    1    1    2  503  502  0.21091222861E+02  0.56198954732E+01  0.10597219041E+02  0.24263634482E+02  0.00000000000E+00 0. -1.
         21    1    1    2  504  501 -0.21091222861E+02 -0.56198954732E+01 -0.32494279696E+02  0.39144618019E+02  0.00000000000E+00 0. -1.
</event>
<event>
 4    1  0.3305068E+006  0.2146240E+02  0.7546771E-02  0.1512764E+00
         21   -1    0    0  503  501  0.00000000000E+00  0.00000000000E+00  0.17193168995E+03  0.17193168995E+03  0.00000000000E+00 0. -1.
         21   -1    0    0  504  502 -0.00000000000E+00 -0.00000000000E+00 -0.21165821185E+02  0.21165821185E+02  0.00000000000E+00 0. -1.
         21    1    1    2  503  502  0.10600026532E+02 -0.18662107108E+02 -0.14848570994E+02  0.26098177422E+02  0.00000000000E+00 0. -1.
         21    1    1    2  504  501 -0.10600026532E+02  0.18662107108E+02  0.16561443976E+03  0.16699933371E+03  0.00000000000E+00 0. -1.
</event>
<event>
 4    1  0.3305068E+006  0.2655337E+02  0.7546771E-02  0.1452147E+00
         21   -1    0    0  503  501  0.00000000000E+00  0.00000000000E+00  0.29057000332E+02  0.29057000332E+02  0.00000000000E+00 0. -1.
         21   -1    0    0  504  502 -0.00000000000E+00 -0.00000000000E+00 -0.15997378738E+03  0.15997378738E+03  0.00000000000E+00 0. -1.
         21    1    1    2  503  502 -0.26498850533E+02  0.17007042668E+01 -0.15251092085E+03  0.15480524039E+03  0.00000000000E+00 0. -1.
         21    1    1    2  504  501  0.26498850533E+02 -0.17007042668E+01  0.21594133802E+02  0.34225547319E+02  0.00000000000E+00 0. -1.
</event>
<event>
 4    1  0.3305068E+006  0.2361031E+02  0.7546771E-02  0.1484973E+00
         21   -1    0    0  503  501  0.00000000000E+00  0.00000000000E+00  0.50264131341E+01  0.50264131341E+01  0.00000000000E+00 0. -1.
         21   -1    0    0  504  502 -0.00000000000E+00 -0.00000000000E+00 -0.43841249586E+03  0.43841249586E+03  0.00000000000E+00 0.  1.
         21    1    1    2  503  502  0.98943646451E+01  0.21437079225E+02 -0.40832765480E+03  0.40900968264E+03  0.00000000000E+00 0.  1.
         21    1    1    2  504  501 -0.98943646451E+01 -0.21437079225E+02 -0.25058427930E+02  0.34429226360E+02  0.00000000000E+00 0. -1.
</event>
<event>
 4    1  0.3305068E+006  0.2237702E+02  0.7546771E-02  0.1500473E+00
         21   -1    0    0  503  501  0.00000000000E+00  0.00000000000E+00  0.46197051095E+01  0.46197051095E+01  0.00000000000E+00 0. -1.
         21   -1    0    0  504  502 -0.00000000000E+00 -0.00000000000E+00 -0.10841523707E+03  0.10841523707E+03  0.00000000000E+00 0. -1.
         21    1    1    2  503  502  0.19740207928E+02 -0.10538283595E+02 -0.52754895161E+02  0.57304539031E+02  0.00000000000E+00 0. -1.
         21    1    1    2  504  501 -0.19740207928E+02  0.10538283595E+02 -0.51040636801E+02  0.55730403149E+02  0.00000000000E+00 0. -1.
</event>
<event>
 4    1  0.3305068E+006  0.3299948E+02  0.7546771E-02  0.1395201E+00
         21   -1    0    0  503  501  0.00000000000E+00  0.00000000000E+00  0.53971893171E+02  0.53971893171E+02  0.00000000000E+00 0.  1.
         21   -1    0    0  504  502 -0.00000000000E+00 -0.00000000000E+00 -0.14598567448E+03  0.14598567448E+03  0.00000000000E+00 0. -1.
         21    1    1    2  503  502 -0.29076218710E+02  0.15605740227E+02 -0.13881989491E+03  0.14268822252E+03  0.00000000000E+00 0. -1.
         21    1    1    2  504  501  0.29076218710E+02 -0.15605740227E+02  0.46806113596E+02  0.57269345138E+02  0.00000000000E+00 0.  1.
</event>
<event>
 4    1  0.3305068E+006  0.2093000E+02  0.7546771E-02  0.1520267E+00
         21   -1    0    0  504  501  0.00000000000E+00  0.00000000000E+00  0.15076812078E+03  0.15076812078E+03  0.00000000000E+00 0.  1.
         21   -1    0    0  503  502 -0.00000000000E+00 -0.00000000000E+00 -0.11531241200E+02  0.11531241200E+02  0.00000000000E+00 0.  1.
         21    1    1    2  503  501  0.46118692646E+01  0.20415570210E+02  0.13980365777E+03  0.14136169060E+03  0.00000000000E+00 0.  1.
         21    1    1    2  504  502 -0.46118692646E+01 -0.20415570210E+02 -0.56677818830E+00  0.20937671375E+02  0.00000000000E+00 0.  1.
</event>
<event>
 4    1  0.3305068E+006  0.3143747E+02  0.7546771E-02  0.1407503E+00
         21   -1    0    0  502  501  0.00000000000E+00  0.00000000000E+00  0.64549508383E+03  0.64549508383E+03  0.00000000000E+00 0. -1.
         21   -1    0    0  503  502 -0.00000000000E+00 -0.00000000000E+00 -0.19913279453E+02  0.19913279453E+02  0.00000000000E+00 0.  1.
         21    1    1    2  503  504  0.66418314352E+01 -0.30727848150E+02 -0.68669814873E+01  0.32178719854E+02  0.00000000000E+00 0.  1.
         21    1    1    2  504  501 -0.66418314352E+01  0.30727848150E+02  0.63244878586E+03  0.63322964343E+03  0.00000000000E+00 0. -1.
</event>
<event>
 4    1  0.3305068E+006  0.2308579E+02  0.7546771E-02  0.1491424E+00
         21   -1    0    0  504  501  0.00000000000E+00  0.00000000000E+00  0.79367878864E+02  0.79367878864E+02  0.00000000000E+00 0. -1.
         21   -1    0    0  503  502 -0.00000000000E+00 -0.00000000000E+00 -0.75326021377E+01  0.75326021377E+01  0.00000000000E+00 0. -1.
         21    1    1    2  503  501  0.20087679242E+02 -0.11377110862E+02  0.21602462272E+02  0.31616765886E+02  0.00000000000E+00 0. -1.
         21    1    1    2  504  502 -0.20087679242E+02  0.11377110862E+02  0.50232814455E+02  0.55283715116E+02  0.00000000000E+00 0. -1.
</event>
<event>
 4    1  0.3305068E+006  0.2599819E+02  0.7546771E-02  0.1457939E+00
         21   -1    0    0  504  501  0.00000000000E+00  0.00000000000E+00  0.76485239959E+00  0.76485239959E+00  0.00000000000E+00 0.  1.
         21   -1    0    0  503  502 -0.00000000000E+00 -0.00000000000E+00 -0.11982053231E+04  0.11982053231E+04  0.00000000000E+00 0.  1.
         21    1    1    2  503  501 -0.14393015635E+02  0.21650569557E+02 -0.29159086465E+03  0.29274756773E+03  0.00000000000E+00 0.  1.
         21    1    1    2  504  502  0.14393015635E+02 -0.21650569557E+02 -0.90584960608E+03  0.90622260781E+03  0.00000000000E+00 0.  1.
</event>
<event>
 4    1  0.3305068E+006  0.2582713E+02  0.7546771E-02  0.1459759E+00
         21   -1    0    0  502  501  0.00000000000E+00  0.00000000000E+00  0.49909716289E+03  0.49909716289E+03  0.00000000000E+00 0. -1.
         21   -1    0    0  504  502 -0.00000000000E+00 -0.00000000000E+00 -0.33674679543E+01  0.33674679543E+01  0.00000000000E+00 0. -1.
         21    1    1    2  503  501  0.17512892594E+02  0.18982604304E+02  0.44297320629E+03  0.44372548063E+03  0.00000000000E+00 0. -1.
         21    1    1    2  504  503 -0.17512892594E+02 -0.18982604304E+02  0.52756488645E+02  0.58739150209E+02  0.00000000000E+00 0. -1.
</event>
<event>
 4    1  0.3305068E+006  0.2330468E+02  0.7546771E-02  0.1488707E+00
         21   -1    0    0  502  501  0.00000000000E+00  0.00000000000E+00  0.32082231180E+02  0.32082231180E+02  0.00000000000E+00 0. -1.
         21   -1    0    0  503  502 -0.00000000000E+00 -0.00000000000E+00 -0.99303114539E+02  0.99303114539E+02  0.00000000000E+00 0.  1.
         21    1    1    2  503  504 -0.16210945197E+02 -0.16742565758E+02 -0.93442211577E+02  0.96304491883E+02  0.00000000000E+00 0.  1.
         21    1    1    2  504  501  0.16210945197E+02  0.16742565758E+02  0.26221328218E+02  0.35080853836E+02  0.00000000000E+00 0. -1.
</event>
<event>
 4    1  0.3305068E+006  0.3225910E+02  0.7546771E-02  0.1400929E+00
         21   -1    0    0  502  501  0.00000000000E+00  0.00000000000E+00  0.45021241438E+03  0.45021241438E+03  0.00000000000E+00 0.  1.
         21   -1    0    0  503  502 -0.00000000000E+00 -0.00000000000E+00 -0.34805650465E+01  0.34805650465E+01  0.00000000000E+00 0.  1.
         21    1    1    2  503  504  0.25962416616E+02  0.19146865311E+02  0.91893909996E+02  0.97391684564E+02  0.00000000000E+00 0.  1.
         21    1    1    2  504  501 -0.25962416616E+02 -0.19146865311E+02  0.35483793934E+03  0.35630129486E+03  0.00000000000E+00 0.  1.
</event>
<event>
 4    1  0.3305068E+006  0.2222417E+02  0.7546771E-02  0.1502477E+00
         21   -1    0    0  504  501  0.00000000000E+00  0.00000000000E+00  0.79023821716E+01  0.79023821716E+01  0.00000000000E+00 0.  1.
         21   -1    0    0  503  502 -0.00000000000E+00 -0.00000000000E+00 -0.63690684048E+02  0.63690684048E+02  0.00000000000E+00 0.  1.
         21    1    1    2  503  501 -0.20693567886E+02 -0.81049361540E+01 -0.32784706025E+02  0.39607457518E+02  0.00000000000E+00 0.  1.
         21    1    1    2  504  502  0.20693567886E+02  0.81049361540E+01 -0.23003595851E+02  0.31985608701E+02  0.00000000000E+00 0.  1.
</event>
<event>
 4    1  0.3305068E+006  0.2215115E+02  0.7546771E-02  0.1503441E+00
         21   -1    0    0  503  501  0.00000000000E+00  0.00000000000E+00  0.50012283287E+03  0.50012283287E+03  0.00000000000E+00 0.  1.
         21   -1    0    0  501  502 -0.00000000000E+00 -0.00000000000E+00 -0.10323929514E+01  0.10323929514E+01  0.00000000000E+00 0. -1.
         21    1    1    2  503  504 -0.83739349994E+01 -0.20507329049E+02  0.30539541810E+03  0.30619770529E+03  0.00000000000E+00 0.  1.
         21    1    1    2  504  502  0.83739349994E+01  0.20507329049E+02  0.19369502182E+03  0.19495752053E+03  0.00000000000E+00 0. -1.
</event>
<event>
 4    1  0.3305068E+006  0.2309129E+02  0.7546771E-02  0.1491355E+00
         21   -1    0    0  503  501  0.00000000000E+00  0.00000000000E+00  0.15612558154E+04  0.15612558154E+04  0.00000000000E+00 0.  1.
         21   -1    0    0  504  502 -0.00000000000E+00 -0.00000000000E+00 -0.24677381999E+02  0.24677381999E+02  0.00000000000E+00 0. -1.
         21    1    1    2  503  502  0.16975313732E+02  0.15653957887E+02 -0.19171097964E+02  0.30012308658E+02  0.00000000000E+00 0. -1.
         21    1    1    2  504  501 -0.16975313732E+02 -0.15653957887E+02  0.15557495314E+04  0.15559208887E+04  0.00000000000E+00 0.  1.
</event>
<event>
 4    1  0.3305068E+006  0.2065813E+02  0.7546771E-02  0.1524202E+00
         21   -1    0    0  504  501  0.00000000000E+00  0.00000000000E+00  0.16723074321E+03  0.16723074321E+03  0.00000000000E+00 0. -1.
         21   -1    0    0  503  502 -0.00000000000E+00 -0.00000000000E+00 -0.30296292463E+02  0.30296292463E+02  0.00000000000E+00 0. -1.
         21    1    1    2  503  501 -0.17035029028E+02  0.11686144932E+02  0.16297974066E+03  0.16428376080E+03  0.00000000000E+00 0. -1.
         21    1    1    2  504  502  0.17035029028E+02 -0.11686144932E+02 -0.26045289915E+02  0.33243274870E+02  0.00000000000E+00 0. -1.
</event>
<event>
 4    1  0.3305068E+006  0.2001678E+02  0.7546771E-02  0.1533779E+00
         21   -1    0    0  502  501  0.00000000000E+00  0.00000000000E+00  0.30601774432E+01  0.30601774432E+01  0.00000000000E+00 0.  1.
         21   -1    0    0  503  502 -0.00000000000E+00 -0.00000000000E+00 -0.47632948073E+03  0.47632948073E+03  0.00000000000E+00 0.  1.
         21    1    1    2  503  504  0.42659868824E+01 -0.19556910802E+02 -0.44074512380E+03  0.44119942833E+03  0.00000000000E+00 0.  1.
         21    1    1    2  504  501 -0.42659868824E+01  0.19556910802E+02 -0.32524179478E+02  0.38190229836E+02  0.00000000000E+00 0.  1.
</event>
<event>
 4    1  0.3305068E+006  0.2011885E+02  0.7546771E-02  0.1532227E+00
         21   -1    0    0  502  501  0.00000000000E+00  0.00000000000E+00  0.34621019340E+02  0.34621019340E+02  0.00000000000E+00 0. -1.
         21   -1    0    0  504  502 -0.00000000000E+00 -0.00000000000E+00 -0.12601923022E+02  0.12601923022E+02  0.00000000000E+00 0. -1.
         21    1    1    2  503  501 -0.47106801987E+01  0.19559589043E+02  0.17356294821E+02  0.26570829897E+02  0.00000000000E+00 0. -1.
         21    1    1    2  504  503  0.47106801987E+01 -0.19559589043E+02  0.46628014975E+01  0.20652112465E+02  0.00000000000E+00 0. -1.
</event>
<event>
 4    1  0.3305068E+006  0.2169776E+02  0.7546771E-02  0.1509531E+00
         21   -1    0    0  502  501  0.00000000000E+00  0.00000000000E+00  0.57698291232E+00  0.57698291232E+00  0.00000000000E+00 0.  1.
         21   -1    0    0  504  502 -0.00000000000E+00 -0.00000000000E+00 -0.10660792630E+04  0.10660792630E+04  0.00000000000E+00 0.  1.
         21    1    1    2  503  501 -0.21697183825E+02 -0.15852532878E+00 -0.27442020947E+03  0.27527666861E+03  0.00000000000E+00 0.  1.
         21    1    1    2  504  503  0.21697183825E+02  0.15852532878E+00 -0.79108207058E+03  0.79137957727E+03  0.00000000000E+00 0.  1.
</event>
<event>
 4    1  0.3305068E+006  0.2008050E+02  0.7546771E-02  0.1532809E+00
         21   -1    0    0  504  501  0.00000000000E+00  0.00000000000E+00  0.53080863915E+02  0.53080863915E+02  0.00000000000E+00 0. -1.
         21   -1    0    0  503  502 -0.00000000000E+00 -0.00000000000E+00 -0.95360477971E+02  0.95360477971E+02  0.00000000000E+00 0. -1.
         21    1    1    2  503  501 -0.19977594474E+02 -0.20303490424E+01 -0.92342909647E+02  0.94501002959E+02  0.00000000000E+00 0. -1.
         21    1    1    2  504  502  0.19977594474E+02  0.20303490424E+01  0.50063295591E+02  0.53940338927E+02  0.00000000000E+00 0. -1.
</event>
<event>
 4    1  0.3305068E+006  0.2100787E+02  0.7546771E-02  0.1519152E+00
         21   -1    0    0  503  501  0.00000000000E+00  0.00000000000E+00  0.11073604408E+02  0.11073604408E+02  0.00000000000E+00 0. -1.
         21   -1    0    0  504  502 -0.00000000000E+00 -0.00000000000E+00 -0.97486692814E+02  0.97486692814E+02  0.00000000000E+00 0. -1.
         21    1    1    2  503  502  0.11269275804E+02  0.17729473462E+02 -0.84941664195E+02  0.87500954981E+02  0.00000000000E+00 0. -1.
         21    1    1    2  504  501 -0.11269275804E+02 -0.17729473462E+02 -0.14714242108E+01  0.21059342240E+02  0.00000000000E+00 0. -1.
</event>
<event>
 4    1  0.3305068E+006  0.3601044E+02  0.7546771E-02  0.1373595E+00
         21   -1    0    0  504  501  0.00000000000E+00  0.00000000000E+00  0.43979777618E+03  0.43979777618E+03  0.00000000000E+00 0. -1.
         21   -1    0    0  503  502 -0.00000000000E+00 -0.00000000000E+00 -0.55749591943E+01  0.55749591943E+01  0.00000000000E+00 0.  1.
         21    1    1    2  503  501 -0.11249925809E+02  0.34208059117E+02  0.36995827349E+03  0.37170670732E+03  0.00000000000E+00 0. -1.
         21    1    1    2  504  502  0.11249925809E+02 -0.34208059117E+02  0.64264543493E+02  0.73666028056E+02  0.00000000000E+00 0.  1.
</event>
<event>
 4    1  0.3305068E+006  0.2125446E+02  0.7546771E-02  0.1515663E+00
         21   -1    0    0  504  501  0.00000000000E+00  0.00000000000E+00  0.24100803322E+03  0.24100803322E+03  0.00000000000E+00 0.  1.
         21   -1    0    0  503  502 -0.00000000000E+00 -0.00000000000E+00 -0.21536950937E+01  0.21536950937E+01  0.00000000000E+00 0.  1.
         21    1    1    2  503  501 -0.10264915647E+02  0.18611378364E+02  0.16320799924E+03  0.16458615651E+03  0.00000000000E+00 0.  1.
         21    1    1    2  504  502  0.10264915647E+02 -0.18611378364E+02  0.75646338889E+02  0.78575571809E+02  0.00000000000E+00 0.  1.
</event>
<event>
 4    1  0.3305068E+006  0.2095595E+02  0.7546771E-02  0.1519895E+00
         21   -1    0    0  504  501  0.00000000000E+00  0.00000000000E+00  0.32170550344E+01  0.32170550344E+01  0.00000000000E+00 0.  1.
         21   -1    0    0  503  502 -0.00000000000E+00 -0.00000000000E+00 -0.22619293957E+03  0.22619293957E+03  0.00000000000E+00 0. -1.
         21    1    1    2  503  501 -0.17526778988E+02 -0.11487543935E+02 -0.18371570423E+03  0.18490703509E+03  0.00000000000E+00 0. -1.
         21    1    1    2  504  502  0.17526778988E+02  0.11487543935E+02 -0.39260180305E+02  0.44502959507E+02  0.00000000000E+00 0.  1.
</event>
<event>
 4    1  0.3305068E+006  0.2651444E+02  0.7546771E-02  0.1452548E+00
         21   -1    0    0  502  501  0.00000000000E+00  0.00000000000E+00  0.10878647002E+02  0.10878647002E+02  0.00000000000E+00 0.  1.
         21   -1    0    0  504  502 -0.00000000000E+00 -0.00000000000E+00 -0.64824751090E+02  0.64824751090E+02  0.00000000000E+00 0.  1.
         21    1    1    2  503  501  0.24911020985E+02 -0.90805476895E+01 -0.24863566977E+02  0.36348483816E+02  0.00000000000E+00 0.  1.
         21    1    1    2  504  503 -0.24911020985E+02  0.90805476895E+01 -0.29082537111E+02  0.39354914276E+02  0.00000000000E+00 0.  1.
</event>
<event>
 4    1  0.3305068E+006  0.4119776E+02  0.7546771E-02  0.1341606E+00
         21   -1    0    0  504  501  0.00000000000E+00  0.00000000000E+00  0.68821220129E+01  0.68821220129E+01  0.00000000000E+00 0. -1.
         21   -1    0    0  503  502 -0.00000000000E+00 -0.00000000000E+00 -0.30310592094E+03  0.30310592094E+03  0.00000000000E+00 0.  1.
         21    1    1    2  503  501 -0.80656204896E+01 -0.40400511848E+02 -0.81201242416E+02  0.91054364867E+02  0.00000000000E+00 0. -1.
         21    1    1    2  504  502  0.80656204896E+01  0.40400511848E+02 -0.21502255652E+03  0.21893367809E+03  0.00000000000E+00 0.  1.
</event>
<event>
 4    1  0.3305068E+006  0.2056290E+02  0.7546771E-02  0.1525598E+00
         21   -1    0    0  504  501  0.00000000000E+00  0.00000000000E+00  0.26022228167E+03  0.26022228167E+03  0.00000000000E+00 0.  1.
         21   -1    0    0  503  502 -0.00000000000E+00 -0.00000000000E+00 -0.16698155436E+01  0.16698155436E+01  0.00000000000E+00 0.  1.
         21    1    1    2  503  501  0.57385639288E+01 -0.19745928823E+02  0.10779790843E+03  0.10974161419E+03  0.00000000000E+00 0.  1.
         21    1    1    2  504  502 -0.57385639288E+01  0.19745928823E+02  0.15075455769E+03  0.15215048303E+03  0.00000000000E+00 0.  1.
</event>
<event>
 4    1  0.3305068E+006  0.2378808E+02  0.7546771E-02  0.1482832E+00
         21   -1    0    0  504  501  0.00000000000E+00  0.00000000000E+00  0.10432285201E+01  0.10432285201E+01  0.00000000000E+00 0.  1.
         21   -1    0    0  503  502 -0.00000000000E+00 -0.00000000000E+00 -0.65651673434E+03  0.65651673434E+03  0.00000000000E+00 0. -1.
         21    1    1    2  503  501 -0.11836999816E+02 -0.20633905309E+02 -0.19067676690E+03  0.19215489078E+03  0.00000000000E+00 0.  1.
         21    1    1    2  504  502  0.11836999816E+02  0.20633905309E+02 -0.46479673891E+03  0.46540507208E+03  0.00000000000E+00 0. -1.
</event>
<event>
 4    1  0.3305068E+006  0.4970186E+02  0.7546771E-02  0.1299470E+00
         21   -1    0    0  504  501  0.00000000000E+00  0.00000000000E+00  0.39444700746E+03  0.39444700746E+03  0.00000000000E+00 0.  1.
         21   -1    0    0  501  502 -0.00000000000E+00 -0.00000000000E+00 -0.64528127973E+01  0.64528127973E+01  0.00000000000E+00 0.  1.
         21    1    1    2  503  502  0.16746891113E+02 -0.46795472036E+02  0.15958428828E+03  0.16714490609E+03  0.00000000000E+00 0.  1.
         21    1    1    2  504  503 -0.16746891113E+02  0.46795472036E+02  0.22840990638E+03  0.23375491417E+03  0.00000000000E+00 0.  1.
</event>
<event>
 4    1  0.3305068E+006  0.2353346E+02  0.7546771E-02  0.1485906E+00
         21   -1    0    0  504  501  0.00000000000E+00  0.00000000000E+00  0.15154963588E+03  0.15154963588E+03  0.00000000000E+00 0.  1.
         21   -1    0    0  501  502 -0.00000000000E+00 -0.00000000000E+00 -0.31907428495E+03  0.31907428495E+03  0.00000000000E+00 0.  1.
         21    1    1    2  503  502 -0.22002183643E+02  0.83503160002E+01 -0.31772287269E+03  0.31859323234E+03  0.00000000000E+00 0.  1.
         21    1    1    2  504  503  0.22002183643E+02 -0.83503160002E+01  0.15019822363E+03  0.15203068849E+03  0.00000000000E+00 0.  1.
</event>
<event>
 4    1  0.3305068E+006  0.2294749E+02  0.7546771E-02  0.1493159E+00
         21   -1    0    0  504  501  0.00000000000E+00  0.00000000000E+00  0.47966438965E+02  0.47966438965E+02  0.00000000000E+00 0.  1.
         21   -1    0    0  503  502 -0.00000000000E+00 -0.00000000000E+00 -0.15245269741E+02  0.15245269741E+02  0.00000000000E+00 0.  1.
         21    1    1    2  503  501  0.19063940358E+02 -0.12773160397E+02  0.33081591309E+02  0.40261385123E+02  0.00000000000E+00 0.  1.
         21    1    1    2  504  502 -0.19063940358E+02  0.12773160397E+02 -0.36042208594E+00  0.22950323583E+02  0.00000000000E+00 0.  1.
</event>
<event>
 4    1  0.3305068E+006  0.3002779E+02  0.7546771E-02  0.1419355E+00
         21   -1    0    0  503  501  0.00000000000E+00  0.00000000000E+00  0.60586689601E+01  0.60586689601E+01  0.00000000000E+00 0. -1.
         21   -1    0    0  504  502 -0.00000000000E+00 -0.00000000000E+00 -0.18139799189E+03  0.18139799189E+03  0.00000000000E+00 0. -1.
         21    1    1    2  503  502 -0.25638526858E+02  0.15631196120E+02 -0.47950704537E+02  0.56576836401E+02  0.00000000000E+00 0. -1.
         21    1    1    2  504  501  0.25638526858E+02 -0.15631196120E+02 -0.12738861839E+03  0.13087982445E+03  0.00000000000E+00 0. -1.
</event>
<event>
 4    1  0.3305068E+006  0.2014816E+02  0.7546771E-02  0.1531783E+00
         21   -1    0    0  503  501  0.00000000000E+00  0.00000000000E+00  0.36146888090E+02  0.36146888090E+02  0.00000000000E+00 0.  1.
         21   -1    0    0  501  502 -0.00000000000E+00 -0.00000000000E+00 -0.72775214091E+02  0.72775214091E+02  0.00000000000E+00 0. -1.
         21    1    1    2  503  504 -0.14772742657E+02 -0.13700884237E+02  0.31768752274E+02  0.37619167661E+02  0.00000000000E+00 0.  1.
         21    1    1    2  504  502  0.14772742657E+02  0.13700884237E+02 -0.68397078276E+02  0.71302934520E+02  0.00000000000E+00 0. -1.
</event>
<event>
 4    1  0.3305068E+006  0.2033795E+02  0.7546771E-02  0.1528931E+00
         21   -1    0    0  504  501  0.00000000000E+00  0.00000000000E+00  0.83402163800E+02  0.83402163800E+02  0.00000000000E+00 0.  1.
         21   -1    0    0  503  502 -0.00000000000E+00 -0.00000000000E+00 -0.18664512898E+03  0.18664512898E+03  0.00000000000E+00 0.  1.
         21    1    1    2  503  501 -0.19008224637E+02 -0.72332228090E+01 -0.18483914339E+03  0.18595467470E+03  0.00000000000E+00 0.  1.
         21    1    1    2  504  502  0.19008224637E+02  0.72332228090E+01  0.81596178209E+02  0.84092618074E+02  0.00000000000E+00 0.  1.
</event>
<event>
 4    1  0.3305068E+006  0.2738109E+02  0.7546771E-02  0.1443817E+00
         21   -1    0    0  503  501  0.00000000000E+00  0.00000000000E+00  0.99205532880E+02  0.99205532880E+02  0.00000000000E+00 0.  1.
         21   -1    0    0  504  502 -0.00000000000E+00 -0.00000000000E+00 -0.10741702440E+02  0.10741702440E+02  0.00000000000E+00 0.  1.
         21    1    1    2  503  502 -0.21753765804E+00 -0.27380226384E+02  0.14300103324E+02  0.30890404247E+02  0.00000000000E+00 0.  1.
         21    1    1    2  504  501  0.21753765804E+00  0.27380226384E+02  0.74163727117E+02  0.79056831073E+02  0.00000000000E+00 0.  1.
</event>
<event>
 4    1  0.3305068E+006  0.2551107E+02  0.7546771E-02  0.1463166E+00
         21   -1    0    0  502  501  0.00000000000E+00  0.00000000000E+00  0.64302829600E+02  0.64302829600E+02  0.00000000000E+00 0.  1.
         21   -1    0    0  503  502 -0.00000000000E+00 -0.00000000000E+00 -0.33037609047E+02  0.33037609047E+02  0.00000000000E+00 0.  1.
         21    1    1    2  503  504  0.14047491455E+01  0.25472368924E+02 -0.24902681001E+02  0.35650503780E+02  0.00000000000E+00 0.  1.
         21    1    1    2  504  501 -0.14047491455E+01 -0.25472368924E+02  0.56167901555E+02  0.61689934866E+02  0.00000000000E+00 0.  1.
</event>
<event>
 4    1  0.3305068E+006  0.2154172E+02  0.7546771E-02  0.1511669E+00
         21   -1    0    0  504  501  0.00000000000E+00  0.00000000000E+00  0.40489865054E+02  0.40489865054E+02  0.00000000000E+00 0. -1.
         21   -1    0    0  501  502 -0.00000000000E+00 -0.00000000000E+00 -0.72784427051E+02  0.72784427051E+02  0.00000000000E+00 0.  1.
         21    1    1    2  503  502 -0.48423136567E+01 -0.20990415527E+02 -0.68134442473E+02  0.71458713931E+02  0.00000000000E+00 0.  1.
         21    1    1    2  504  503  0.48423136567E+01  0.20990415527E+02  0.35839880476E+02  0.41815578174E+02  0.00000000000E+00 0. -1.
</event>
<event>
 4    1  0.3305068E+006  0.2325627E+02  0.7546771E-02  0.1489305E+00
         21   -1    0    0  502  501  0.00000000000E+00  0.00000000000E+00  0.13387767617E+01  0.13387767617E+01  0.00000000000E+00 0. -1.
         21   -1    0    0  503  502 -0.00000000000E+00 -0.00000000000E+00 -0.70317590200E+03  0.70317590200E+03  0.00000000000E+00 0.  1.
         21    1    1    2  503  504 -0.76503708979E+01  0.21961919586E+02 -0.58069088941E+03  0.58115640161E+03  0.00000000000E+00 0.  1.
         21    1    1    2  504  501  0.76503708979E+01 -0.21961919586E+02 -0.12114623582E+03  0.12335827715E+03  0.00000000000E+00 0. -1.
</event>
<event>
 4    1  0.3305068E+006  0.2896782E+02  0.7546771E-02  0.1428783E+00
         21   -1    0    0  504  501  0.00000000000E+00  0.00000000000E+00  0.79688516806E+02  0.79688516806E+02  0.00000000000E+00 0. -1.
         21   -1    0    0  503  502 -0.00000000000E+00 -0.00000000000E+00 -0.21939471624E+02  0.21939471624E+02  0.00000000000E+00 0. -1.
         21    1    1    2  503  501 -0.21199153956E+02 -0.19741585063E+02  0.65518248000E+02  0.71636409250E+02  0.00000000000E+00 0. -1.
         21    1    1    2  504  502  0.21199153956E+02  0.19741585063E+02 -0.77692028182E+01  0.29991579180E+02  0.00000000000E+00 0. -1.
</event>
<event>
 4    1  0.3305068E+006  0.3956918E+02  0.7546771E-02  0.1351029E+00
         21   -1    0    0  504  501  0.00000000000E+00  0.00000000000E+00  0.27152426497E+03  0.27152426497E+03  0.00000000000E+00 0.  1.
         21   -1    0    0  503  502 -0.00000000000E+00 -0.00000000000E+00 -0.58260900441E+02  0.58260900441E+02  0.00000000000E+00 0.  1.
         21    1    1    2  503  501 -0.12336104003E+01  0.39549946140E+02 -0.49888155631E+02  0.63675333580E+02  0.00000000000E+00 0.  1.
         21    1    1    2  504  502  0.12336104003E+01 -0.39549946140E+02  0.26315152016E+03  0.26610983183E+03  0.00000000000E+00 0.  1.
</event>
<event>
 4    1  0.3305068E+006  0.4032949E+02  0.7546771E-02  0.1346566E+00
         21   -1    0    0  504  501  0.00000000000E+00  0.00000000000E+00  0.80009187308E+01  0.80009187308E+01  0.00000000000E+00 0.  1.
         21   -1    0    0  503  502 -0.00000000000E+00 -0.00000000000E+00 -0.24663018813E+03  0.24663018813E+03  0.00000000000E+00 0. -1.
         21    1    1    2  503  501 -0.19585210287E+02  0.35254607099E+02 -0.65940831139E+02  0.77295931297E+02  0.00000000000E+00 0.  1.
         21    1    1    2  504  502  0.19585210287E+02 -0.35254607099E+02 -0.17268843826E+03  0.17733517557E+03  0.00000000000E+00 0. -1.
</event>
<event>
 4    1  0.3305068E+006  0.2932314E+02  0.7546771E-02  0.1425571E+00
         21   -1    0    0  503  501  0.00000000000E+00  0.00000000000E+00  0.11016615904E+03  0.11016615904E+03  0.00000000000E+00 0.  1.
         21   -1    0    0  504  502 -0.00000000000E+00 -0.00000000000E+00 -0.77458460972E+02  0.77458460972E+02  0.00000000000E+00 0. -1.
         21    1    1    2  503  502 -0.22029203169E+01  0.29240278221E+02  0.10531425427E+03  0.10932034981E+03  0.00000000000E+00 0.  1.
         21    1    1    2  504  501  0.22029203169E+01 -0.29240278221E+02 -0.72606556206E+02  0.78304270206E+02  0.00000000000E+00 0. -1.
</event>
<event>
 4    1  0.3305068E+006  0.4570450E+02  0.7546771E-02  0.1317954E+00
         21   -1    0    0  503  501  0.00000000000E+00  0.00000000000E+00  0.17721282460E+03  0.17721282460E+03  0.00000000000E+00 0.  1.
         21   -1    0    0  504  502 -0.00000000000E+00 -0.00000000000E+00 -0.32566024899E+02  0.32566024899E+02  0.00000000000E+00 0. -1.
         21    1    1    2  503  502  0.39436234656E+02 -0.23101608683E+02 -0.11459696081E+02  0.47119269539E+02  0.00000000000E+00 0. -1.
         21    1    1    2  504  501 -0.39436234656E+02  0.23101608683E+02  0.15610649578E+03  0.16265957996E+03  0.00000000000E+00 0.  1.
</event>
<event>
 4    1  0.3305068E+006  0.2252281E+02  0.7546771E-02  0.1498579E+00
         21   -1    0    0  504  501  0.00000000000E+00  0.00000000000E+00  0.79139948753E+00  0.79139948753E+00  0.00000000000E+00 0.  1.
         21   -1    0    0  503  502 -0.00000000000E+00 -0.00000000000E+00 -0.64293618205E+03  0.64293618205E+03  0.00000000000E+00 0.  1.
         21    1    1    2  503  501 -0.16044620050E+02 -0.15806551862E+02 -0.33879370633E+03  0.33954153260E+03  0.00000000000E+00 0.  1.
         21    1    1    2  504  502  0.16044620050E+02  0.15806551862E+02 -0.30335107624E+03  0.30418604894E+03  0.00000000000E+00 0.  1.
</event>
<event>
 4    1  0.3305068E+006  0.2273386E+02  0.7546771E-02  0.1495867E+00
         21   -1    0    0  504  501  0.00000000000E+00  0.00000000000E+00  0.12670608084E+03  0.12670608084E+03  0.00000000000E+00 0.  1.
         21   -1    0    0  503  502 -0.00000000000E+00 -0.00000000000E+00 -0.46857686776E+01  0.46857686776E+01  0.00000000000E+00 0.  1.
         21    1    1    2  503  501  0.22692806234E+02  0.13655602354E+01  0.84651721614E+02  0.87651253166E+02  0.00000000000E+00 0.  1.
         21    1    1    2  504  502 -0.22692806234E+02 -0.13655602354E+01  0.37368590546E+02  0.43740596348E+02  0.00000000000E+00 0.  1.
</event>
<event>
 4    1  0.3305068E+006  0.2175796E+02  0.7546771E-02  0.1508713E+00
         21   -1    0    0  503  501  0.00000000000E+00  0.00000000000E+00  0.14260040807E+04  0.14260040807E+04  0.00000000000E+00 0.  1.
         21   -1    0    0  501  502 -0.00000000000E+00 -0.00000000000E+00 -0.10235830496E+02  0.10235830496E+02  0.00000000000E+00 0.  1.
         21    1    1    2  503  504  0.21530721983E+02  0.31363555553E+01  0.14142625579E+04  0.14144299175E+04  0.00000000000E+00 0.  1.
         21    1    1    2  504  502 -0.21530721983E+02 -0.31363555553E+01  0.15056922461E+01  0.21809993682E+02  0.00000000000E+00 0.  1.
</event>
<event>
 4    1  0.3305068E+006  0.2800539E+02  0.7546771E-02  0.1437762E+00
         21   -1    0    0  504  501  0.00000000000E+00  0.00000000000E+00  0.14968594579E+02  0.14968594579E+02  0.00000000000E+00 0.  1.
         21   -1    0    0  503  502 -0.00000000000E+00 -0.00000000000E+00 -0.78288978110E+02  0.78288978110E+02  0.00000000000E+00 0.  1.
         21    1    1    2  503  501 -0.18939480027E+02 -0.20630025401E+02 -0.48443970423E+01  0.28421295439E+02  0.00000000000E+00 0.  1.
         21    1    1    2  504  502  0.18939480027E+02  0.20630025401E+02 -0.58475986489E+02  0.64836277250E+02  0.00000000000E+00 0.  1.
</event>
<event>
 4    1  0.3305068E+006  0.2390548E+02  0.7546771E-02  0.1481431E+00
         21   -1    0    0  504  501  0.00000000000E+00  0.00000000000E+00  0.52715215021E+02  0.52715215021E+02  0.00000000000E+00 0. -1.
         21   -1    0    0  503  502 -0.00000000000E+00 -0.00000000000E+00 -0.11690829479E+02  0.11690829479E+02  0.00000000000E+00 0.  1.
         21    1    1    2  503  501  0.56883538192E+01  0.23218837179E+02  0.29195938895E+02  0.37734263171E+02  0.00000000000E+00 0. -1.
         21    1    1    2  504  502 -0.56883538192E+01 -0.23218837179E+02  0.11828446647E+02  0.26671781328E+02  0.00000000000E+00 0.  1.
</event>
<event>
 4    1  0.3305068E+006  0.4185699E+02  0.7546771E-02  0.1337935E+00
         21   -1    0    0  503  501  0.00000000000E+00  0.00000000000E+00  0.87656134775E+02  0.87656134775E+02  0.00000000000E+00 0.  1.
         21   -1    0    0  501  502 -0.00000000000E+00 -0.00000000000E+00 -0.47675437459E+02  0.47675437459E+02  0.00000000000E+00 0.  1.
         21    1    1    2  503  504 -0.40192823768E+02  0.11685233558E+02  0.71556985915E+02  0.82899999994E+02  0.00000000000E+00 0.  1.
         21    1    1    2  504  502  0.40192823768E+02 -0.11685233558E+02 -0.31576288600E+02  0.52431572239E+02  0.00000000000E+00 0.  1.
</event>
<event>
 4    1  0.3305068E+006  0.3544663E+02  0.7546771E-02  0.1377450E+00
         21   -1    0    0  503  501  0.00000000000E+00  0.00000000000E+00  0.19313414242E+02  0.19313414242E+02  0.00000000000E+00 0. -1.
         21   -1    0    0  504  502 -0.00000000000E+00 -0.00000000000E+00 -0.67522962994E+02  0.67522962994E+02  0.00000000000E+00 0. -1.
         21    1    1    2  503  502  0.24253578881E+02 -0.25850093599E+02 -0.15806612220E+02  0.38811240865E+02  0.00000000000E+00 0. -1.
         21    1    1    2  504  501 -0.24253578881E+02  0.25850093599E+02 -0.32402936531E+02  0.48025136371E+02  0.00000000000E+00 0. -1.
</event>
<event>
 4    1  0.3305068E+006  0.2759799E+02  0.7546771E-02  0.1441692E+00
         21   -1    0    0  504  501  0.00000000000E+00  0.00000000000E+00  0.69212299338E+02  0.69212299338E+02  0.00000000000E+00 0. -1.
         21   -1    0    0  503  502 -0.00000000000E+00 -0.00000000000E+00 -0.12955214550E+02  0.12955214550E+02  0.00000000000E+00 0. -1.
         21    1    1    2  503  501 -0.12645432646E+02 -0.24530429561E+02  0.44070482775E+02  0.51998619148E+02  0.00000000000E+00 0. -1.
         21    1    1    2  504  502  0.12645432646E+02  0.24530429561E+02  0.12186602012E+02  0.30168894740E+02  0.00000000000E+00 0. -1.
</event>
<event>
 4    1  0.3305068E+006  0.2561609E+02  0.7546771E-02  0.1462028E+00
         21   -1    0    0  503  501  0.00000000000E+00  0.00000000000E+00  0.11489798558E+03  0.11489798558E+03  0.00000000000E+00 0. -1.
         21   -1    0    0  504  502 -0.00000000000E+00 -0.00000000000E+00 -0.15590987531E+02  0.15590987531E+02  0.00000000000E+00 0.  1.
         21    1    1    2  503  502 -0.21987629461E+02  0.13142619637E+02 -0.22844552375E+01  0.25717757211E+02  0.00000000000E+00 0.  1.
         21    1    1    2  504  501  0.21987629461E+02 -0.13142619637E+02  0.10159145328E+03  0.10477121590E+03  0.00000000000E+00 0. -1.
</event>
<event>
 4    1  0.3305068E+006  0.2303105E+02  0.7546771E-02  0.1492109E+00
         21   -1    0    0  504  501  0.00000000000E+00  0.00000000000E+00  0.71925858991E+02  0.71925858991E+02  0.00000000000E+00 0.  1.
         21   -1    0    0  503  502 -0.00000000000E+00 -0.00000000000E+00 -0.99351372621E+01  0.99351372621E+01  0.00000000000E+00 0. -1.
         21    1    1    2  503  501 -0.15394366948E+02  0.17130169592E+02  0.51774137748E+02  0.56665603178E+02  0.00000000000E+00 0.  1.
         21    1    1    2  504  502  0.15394366948E+02 -0.17130169592E+02  0.10216583980E+02  0.25195393075E+02  0.00000000000E+00 0. -1.
</event>
<event>
 4    1  0.3305068E+006  0.2071483E+02  0.7546771E-02  0.1523376E+00
         21   -1    0    0  504  501  0.00000000000E+00  0.00000000000E+00  0.15945751424E+03  0.15945751424E+03  0.00000000000E+00 0.  1.
         21   -1    0    0  503  502 -0.00000000000E+00 -0.00000000000E+00 -0.80937551094E+01  0.80937551094E+01  0.00000000000E+00 0. -1.
         21    1    1    2  503  501 -0.98147455155E+00 -0.20691565336E+02  0.72356813727E+01  0.21942179775E+02  0.00000000000E+00 0. -1.
         21    1    1    2  504  502  0.98147455155E+00  0.20691565336E+02  0.14412807776E+03  0.14560908958E+03  0.00000000000E+00 0.  1.
</event>
<event>
 4    1  0.3305068E+006  0.2152197E+02  0.7546771E-02  0.1511941E+00
         21   -1    0    0  503  501  0.00000000000E+00  0.00000000000E+00  0.20984003332E+01  0.20984003332E+01  0.00000000000E+00 0.  1.
         21   -1    0    0  504  502 -0.00000000000E+00 -0.00000000000E+00 -0.40917667072E+03  0.40917667072E+03  0.00000000000E+00 0. -1.
         21    1    1    2  503  502  0.14898440867E+01  0.21470343811E+02 -0.34309006669E+03  0.34376443847E+03  0.00000000000E+00 0. -1.
         21    1    1    2  504  501 -0.14898440867E+01 -0.21470343811E+02 -0.63988203697E+02  0.67510632579E+02  0.00000000000E+00 0.  1.
</event>
<event>
 4    1  0.3305068E+006  0.2407529E+02  0.7546771E-02  0.1479420E+00
         21   -1    0    0  504  501  0.00000000000E+00  0.00000000000E+00  0.40942805960E+01  0.40942805960E+01  0.00000000000E+00 0. -1.
         21   -1    0    0  503  502 -0.00000000000E+00 -0.00000000000E+00 -0.26226900289E+03  0.26226900289E+03  0.00000000000E+00 0.  1.
         21    1    1    2  503  501  0.24052892625E+02  0.10383448533E+01 -0.38737806013E+02  0.45609619801E+02  0.00000000000E+00 0. -1.
         21    1    1    2  504  502 -0.24052892625E+02 -0.10383448533E+01 -0.21943691628E+03  0.22075366369E+03  0.00000000000E+00 0.  1.
</event>
<event>
 4    1  0.3305068E+006  0.2377561E+02  0.7546771E-02  0.1482982E+00
         21   -1    0    0  502  501  0.00000000000E+00  0.00000000000E+00  0.28337408096E+03  0.28337408096E+03  0.00000000000E+00 0. -1.
         21   -1    0    0  503  502 -0.00000000000E+00 -0.00000000000E+00 -0.40010707020E+01  0.40010707020E+01  0.00000000000E+00 0. -1.
         21    1    1    2  503  504  0.32301833637E+01  0.23555159718E+02  0.37938956628E+02  0.44773251657E+02  0.00000000000E+00 0. -1.
         21    1    1    2  504  501 -0.32301833637E+01 -0.23555159718E+02  0.24143405363E+03  0.24260190001E+03  0.00000000000E+00 0. -1.
</event>
<event>
 4    1  0.3305068E+006  0.3459250E+02  0.7546771E-02  0.1383451E+00
         21   -1    0    0  502  501  0.00000000000E+00  0.00000000000E+00  0.15742521486E+02  0.15742521486E+02  0.00000000000E+00 0.  1.
         21   -1    0    0  503  502 -0.00000000000E+00 -0.00000000000E+00 -0.81219069328E+02  0.81219069328E+02  0.00000000000E+00 0. -1.
         21    1    1    2  503  504  0.17525661796E+02 -0.29824359805E+02 -0.45012172438E+02  0.56769154712E+02  0.00000000000E+00 0. -1.
         21    1    1    2  504  501 -0.17525661796E+02  0.29824359805E+02 -0.20464375403E+02  0.40192436102E+02  0.00000000000E+00 0.  1.
</event>
<event>
 4    1  0.3305068E+006  0.6348958E+02  0.7546771E-02  0.1248416E+00
         21   -1    0    0  503  501  0.00000000000E+00  0.00000000000E+00  0.20334267456E+03  0.20334267456E+03  0.00000000000E+00 0.  1.
         21   -1    0    0  504  502 -0.00000000000E+00 -0.00000000000E+00 -0.72006044860E+02  0.72006044860E+02  0.00000000000E+00 0. -1.
         21    1    1    2  503  502  0.43316944058E+02 -0.46417334461E+02  0.18286949108E+03  0.19357731621E+03  0.00000000000E+00 0.  1.
         21    1    1    2  504  501 -0.43316944058E+02  0.46417334461E+02 -0.51532861383E+02  0.81771403212E+02  0.00000000000E+00 0. -1.
</event>
<event>
 4    1  0.3305068E+006  0.2511052E+02  0.7546771E-02  0.1467571E+00
         21   -1    0    0  502  501  0.00000000000E+00  0.00000000000E+00  0.53099445267E+02  0.53099445267E+02  0.00000000000E+00 0.  1.
         21   -1    0    0  503  502 -0.00000000000E+00 -0.00000000000E+00 -0.11235877839E+03  0.11235877839E+03  0.00000000000E+00 0.  1.
         21    1    1    2  503  504  0.16749144273E+02  0.18708403794E+02 -0.10786511145E+03  0.11074935880E+03  0.00000000000E+00 0.  1.
         21    1    1    2  504  501 -0.16749144273E+02 -0.18708403794E+02  0.48605778331E+02  0.54708864854E+02  0.00000000000E+00 0.  1.
</event>
<event>
 4    1  0.3305068E+006  0.2891844E+02  0.7546771E-02  0.1429234E+00
         21   -1    0    0  504  501  0.00000000000E+00  0.00000000000E+00  0.32299447660E+02  0.32299447660E+02  0.00000000000E+00 0.  1.
         21   -1    0    0  501  502 -0.00000000000E+00 -0.00000000000E+00 -0.27033692140E+02  0.27033692140E+02  0.00000000000E+00 0.  1.
         21    1    1    2  503  502 -0.22278091771E+02  0.18438083153E+02 -0.34654796731E+01  0.29125346911E+02  0.00000000000E+00 0.  1.
         21    1    1    2  504  503  0.22278091771E+02 -0.18438083153E+02  0.87312351929E+01  0.30207792890E+02  0.00000000000E+00 0.  1.
</event>
<event>
 4    1  0.3305068E+006  0.2044720E+02  0.7546771E-02  0.1527306E+00
         21   -1    0    0  504  501  0.00000000000E+00  0.00000000000E+00  0.19480323881E+03  0.19480323881E+03  0.00000000000E+00 0.  1.
         21   -1    0    0  503  502 -0.00000000000E+00 -0.00000000000E+00 -0.98537935768E+01  0.98537935768E+01  0.00000000000E+00 0. -1.
         21    1    1    2  503  501 -0.13221154677E+02  0.15597724448E+02  0.18297588810E+03  0.18411481082E+03  0.00000000000E+00 0.  1.
         21    1    1    2  504  502  0.13221154677E+02 -0.15597724448E+02  0.19735571333E+01  0.20542221562E+02  0.00000000000E+00 0. -1.
</event>
<event>
 4    1  0.3305068E+006  0.3072946E+02  0.7546771E-02  0.1413361E+00
         21   -1    0    0  502  501  0.00000000000E+00  0.00000000000E+00  0.12597550852E+02  0.12597550852E+02  0.00000000000E+00 0.  1.
         21   -1    0    0  504  502 -0.00000000000E+00 -0.00000000000E+00 -0.45119340856E+03  0.45119340856E+03  0.00000000000E+00 0. -1.
         21    1    1    2  503  501 -0.17010409996E+02  0.25591903824E+02 -0.75397584917E+01  0.31640915721E+02  0.00000000000E+00 0.  1.
         21    1    1    2  504  503  0.17010409996E+02 -0.25591903824E+02 -0.43105609922E+03  0.43215004369E+03  0.00000000000E+00 0. -1.
</event>
<event>
 4    1  0.3305068E+006  0.2404665E+02  0.7546771E-02  0.1479758E+00
         21   -1    0    0  503  501  0.00000000000E+00  0.00000000000E+00  0.15161727444E+01  0.15161727444E+01  0.00000000000E+00 0. -1.
         21   -1    0    0  501  502 -0.00000000000E+00 -0.00000000000E+00 -0.57356907215E+03  0.57356907215E+03  0.00000000000E+00 0. -1.
         21    1    1    2  503  504  0.23178107946E+02 -0.64044258948E+01 -0.11958128641E+03  0.12197510163E+03  0.00000000000E+00 0. -1.
         21    1    1    2  504  502 -0.23178107946E+02  0.64044258948E+01 -0.45247161300E+03  0.45311014327E+03  0.00000000000E+00 0. -1.
</event>
<event>
 4    1  0.3305068E+006  0.7840713E+02  0.7546771E-02  0.1207595E+00
         21   -1    0    0  503  501  0.00000000000E+00  0.00000000000E+00  0.26973704059E+02  0.26973704059E+02  0.00000000000E+00 0.  1.
         21   -1    0    0  504  502 -0.00000000000E+00 -0.00000000000E+00 -0.35335947956E+03  0.35335947956E+03  0.00000000000E+00 0.  1.
         21    1    1    2  503  502 -0.78155390501E+02  0.62779702578E+01 -0.27649911914E+03  0.28740118451E+03  0.00000000000E+00 0.  1.
         21    1    1    2  504  501  0.78155390501E+02 -0.62779702578E+01 -0.49886656366E+02  0.92931999109E+02  0.00000000000E+00 0.  1.
</event>
<event>
 4    1  0.3305068E+006  0.2261982E+02  0.7546771E-02  0.1497328E+00
         21   -1    0    0  504  501  0.00000000000E+00  0.00000000000E+00  0.12291846227E+03  0.12291846227E+03  0.00000000000E+00 0. -1.
         21   -1    0    0  503  502 -0.00000000000E+00 -0.00000000000E+00 -0.11657504072E+03  0.11657504072E+03  0.00000000000E+00 0.  1.
         21    1    1    2  503  501 -0.11713035788E+02 -0.19350996803E+02 -0.11441769778E+03  0.11663218188E+03  0.00000000000E+00 0.  1.
         21    1    1    2  504  502  0.11713035788E+02  0.19350996803E+02  0.12076111933E+03  0.12286132112E+03  0.00000000000E+00 0. -1.
</event>
<event>
 4    1  0.3305068E+006  0.2266907E+02  0.7546771E-02  0.1496696E+00
         21   -1    0    0  504  501  0.00000000000E+00  0.00000000000E+00  0.39123592825E+01  0.39123592825E+01  0.00000000000E+00 0.  1.
         21   -1    0    0  501  502 -0.00000000000E+00 -0.00000000000E+00 -0.45950922653E+03  0.45950922653E+03  0.00000000000E+00 0.  1.
         21    1    1    2  503  502  0.22233626848E+02 -0.44218485675E+01 -0.42361151698E+03  0.42421763781E+03  0.00000000000E+00 0.  1.
         21    1    1    2  504  503 -0.22233626848E+02  0.44218485675E+01 -0.31985350267E+02  0.39203948006E+02  0.00000000000E+00 0.  1.
</event>
<event>
 4    1  0.3305068E+006  0.2627358E+02  0.7546771E-02  0.1455045E+00
         21   -1    0    0  503  501  0.00000000000E+00  0.00000000000E+00  0.27751327527E+03  0.27751327527E+03  0.00000000000E+00 0.  1.
         21   -1    0    0  504  502 -0.00000000000E+00 -0.00000000000E+00 -0.24960255796E+01  0.24960255796E+01  0.00000000000E+00 0.  1.
         21    1    1    2  503  502  0.25992449726E+02  0.38332509855E+01  0.14571348654E+03  0.14806323451E+03  0.00000000000E+00 0.  1.
         21    1    1    2  504  501 -0.25992449726E+02 -0.38332509855E+01  0.12930376315E+03  0.13194606633E+03  0.00000000000E+00 0.  1.
</event>
<event>
 4    1  0.3305068E+006  0.2029273E+02  0.7546771E-02  0.1529607E+00
         21   -1    0    0  504  501  0.00000000000E+00  0.00000000000E+00  0.58105628054E+02  0.58105628054E+02  0.00000000000E+00 0.  1.
         21   -1    0    0  503  502 -0.00000000000E+00 -0.00000000000E+00 -0.15736528597E+02  0.15736528597E+02  0.00000000000E+00 0. -1.
         21    1    1    2  503  501  0.20074891809E+02  0.29653862160E+01  0.48557148873E+02  0.52626908547E+02  0.00000000000E+00 0.  1.
         21    1    1    2  504  502 -0.20074891809E+02 -0.29653862160E+01 -0.61880494156E+01  0.21215248104E+02  0.00000000000E+00 0. -1.
</event>
<event>
 4    1  0.3305068E+006  0.2493372E+02  0.7546771E-02  0.1469546E+00
         21   -1    0    0  503  501  0.00000000000E+00  0.00000000000E+00  0.97291878796E+02  0.97291878796E+02  0.00000000000E+00 0. -1.
         21   -1    0    0  504  502 -0.00000000000E+00 -0.00000000000E+00 -0.13397860491E+03  0.13397860491E+03  0.00000000000E+00 0.  1.
         21    1    1    2  503  502  0.66366178502E+01  0.24034265805E+02 -0.13118737289E+03  0.13353582828E+03  0.00000000000E+00 0.  1.
         21    1    1    2  504  501 -0.66366178502E+01 -0.24034265805E+02  0.94500646777E+02  0.97734655422E+02  0.00000000000E+00 0. -1.
</event>
<event>
 4    1  0.3305068E+006  0.2025653E+02  0.7546771E-02  0.1530150E+00
         21   -1    0    0  503  501  0.00000000000E+00  0.00000000000E+00  0.84638288491E+02  0.84638288491E+02  0.00000000000E+00 0. -1.
         21   -1    0    0  504  502 -0.00000000000E+00 -0.00000000000E+00 -0.48666324450E+01  0.48666324450E+01  0.00000000000E+00 0. -1.
         21    1    1    2  503  502 -0.20202043671E+02 -0.14847313595E+01  0.42654418008E+02  0.47219978519E+02  0.00000000000E+00 0. -1.
         21    1    1    2  504  501  0.20202043671E+02  0.14847313595E+01  0.37117238037E+02  0.42284942417E+02  0.00000000000E+00 0. -1.
</event>
<event>
 4    1  0.3305068E+006  0.2128164E+02  0.7546771E-02  0.1515282E+00
         21   -1    0    0  504  501  0.00000000000E+00  0.00000000000E+00  0.39588699259E+02  0.39588699259E+02  0.00000000000E+00 0.  1.
         21   -1    0    0  503  502 -0.00000000000E+00 -0.00000000000E+00 -0.80677520316E+02  0.80677520316E+02  0.00000000000E+00 0.  1.
         21    1    1    2  503  501 -0.20610668496E+02 -0.53017437843E+01  0.35162244647E+02  0.41100992587E+02  0.00000000000E+00 0.  1.
         21    1    1    2  504  502  0.20610668496E+02  0.53017437843E+01 -0.76251065704E+02  0.79165226988E+02  0.00000000000E+00 0.  1.
</event>
<event>
 4    1  0.3305068E+006  0.2060636E+02  0.7546771E-02  0.1524960E+00
         21   -1    0    0  504  501  0.00000000000E+00  0.00000000000E+00  0.15189335776E+02  0.15189335776E+02  0.00000000000E+00 0. -1.
         21   -1    0    0  503  502 -0.00000000000E+00 -0.00000000000E+00 -0.29613946020E+02  0.29613946020E+02  0.00000000000E+00 0. -1.
         21    1    1    2  503  501 -0.15584694103E+02  0.13481077720E+02 -0.12513955204E+02  0.24108530059E+02  0.00000000000E+00 0. -1.
         21    1    1    2  504  502  0.15584694103E+02 -0.13481077720E+02 -0.19106550402E+01  0.20694751737E+02  0.00000000000E+00 0. -1.
</event>
<event>
 4    1  0.3305068E+006  0.3466770E+02  0.7546771E-02  0.1382914E+00
         21   -1    0    0  503  501  0.00000000000E+00  0.00000000000E+00  0.78301590818E+01  0.78301590818E+01  0.00000000000E+00 0.  1.
         21   -1    0    0  504  502 -0.00000000000E+00 -0.00000000000E+00 -0.15349609204E+03  0.15349609204E+03  0.00000000000E+00 0.  1.
         21    1    1    2  503  502  0.26696302738E+02  0.22116891817E+02 -0.72316168100E+02  0.80196494014E+02  0.00000000000E+00 0.  1.
         21    1    1    2  504  501 -0.26696302738E+02 -0.22116891817E+02 -0.73349764855E+02  0.81129757105E+02  0.00000000000E+00 0.  1.
</event>
<event>
 4    1  0.3305068E+006  0.2639759E+02  0.7546771E-02  0.1453755E+00
         21   -1    0    0  502  501  0.00000000000E+00  0.00000000000E+00  0.17342919290E+03  0.17342919290E+03  0.00000000000E+00 0.  1.
         21   -1    0    0  504  502 -0.00000000000E+00 -0.00000000000E+00 -0.41207381553E+01  0.41207381553E+01  0.00000000000E+00 0.  1.
         21    1    1    2  503  501  0.25361072395E+02 -0.73245464772E+01  0.98673845461E+02  0.10214382386E+03  0.00000000000E+00 0.  1.
         21    1    1    2  504  503 -0.25361072395E+02  0.73245464772E+01  0.70634609288E+02  0.75406107202E+02  0.00000000000E+00 0.  1.
</event>
<event>
 4    1  0.3305068E+006  0.2935207E+02  0.7546771E-02  0.1425312E+00
         21   -1    0    0  503  501  0.00000000000E+00  0.00000000000E+00  0.16376951302E+03  0.16376951302E+03  0.00000000000E+00 0.  1.
         21   -1    0    0  504  502 -0.00000000000E+00 -0.00000000000E+00 -0.53697753738E+01  0.53697753738E+01  0.00000000000E+00 0.  1.
         21    1    1    2  503  502  0.28753393578E+02 -0.58980065566E+01  0.91252374709E+02  0.95856872543E+02  0.00000000000E+00 0.  1.
         21    1    1    2  504  501 -0.28753393578E+02  0.58980065566E+01  0.67147362941E+02  0.73282415855E+02  0.00000000000E+00 0.  1.
</event>
<event>
 4    1  0.3305068E+006  0.6691242E+02  0.7546771E-02  0.1237997E+00
         21   -1    0    0  504  501  0.00000000000E+00  0.00000000000E+00  0.88188568487E+02  0.88188568487E+02  0.00000000000E+00 0. -1.
         21   -1    0    0  501  502 -0.00000000000E+00 -0.00000000000E+00 -0.15047618042E+03  0.15047618042E+03  0.00000000000E+00 0. -1.
         21    1    1    2  503  502  0.66878906489E+02  0.21175485863E+01 -0.12828131464E+03  0.14468368198E+03  0.00000000000E+00 0. -1.
         21    1    1    2  504  503 -0.66878906489E+02 -0.21175485863E+01  0.65993702704E+02  0.93981066932E+02  0.00000000000E+00 0. -1.
</event>
<event>
 4    1  0.3305068E+006  0.3499663E+02  0.7546771E-02  0.1380587E+00
         21   -1    0    0  503  501  0.00000000000E+00  0.00000000000E+00  0.82862075005E+01  0.82862075005E+01  0.00000000000E+00 0. -1.
         21   -1    0    0  501  502 -0.00000000000E+00 -0.00000000000E+00 -0.99267100079E+03  0.99267100079E+03  0.00000000000E+00 0. -1.
         21    1    1    2  503  504  0.11207138029E+02 -0.33153646671E+02 -0.30475143303E+02  0.46405803406E+02  0.00000000000E+00 0. -1.
         21    1    1    2  504  502 -0.11207138029E+02  0.33153646671E+02 -0.95390964999E+03  0.95455140489E+03  0.00000000000E+00 0. -1.
</event>
<event>
 4    1  0.3305068E+006  0.2057587E+02  0.7546771E-02  0.1525407E+00
         21   -1    0    0  503  501  0.00000000000E+00  0.00000000000E+00  0.15860771357E+02  0.15860771357E+02  0.00000000000E+00 0.  1.
         21   -1    0    0  504  502 -0.00000000000E+00 -0.00000000000E+00 -0.73604969154E+02  0.73604969154E+02  0.00000000000E+00 0.  1.
         21    1    1    2  503  502  0.18153021906E+02 -0.96868059952E+01  0.68400952349E+01  0.21683019106E+02  0.00000000000E+00 0.  1.
         21    1    1    2  504  501 -0.18153021906E+02  0.96868059952E+01 -0.64584293031E+02  0.67782721405E+02  0.00000000000E+00 0.  1.
</event>
<event>
 4    1  0.3305068E+006  0.2584119E+02  0.7546771E-02  0.1459609E+00
         21   -1    0    0  502  501  0.00000000000E+00  0.00000000000E+00  0.42441045639E+01  0.42441045639E+01  0.00000000000E+00 0. -1.
         21   -1    0    0  504  502 -0.00000000000E+00 -0.00000000000E+00 -0.49833916832E+03  0.49833916832E+03  0.00000000000E+00 0. -1.
         21    1    1    2  503  501 -0.17078401315E+01 -0.25784688799E+02 -0.39177319124E+02  0.46932176895E+02  0.00000000000E+00 0. -1.
         21    1    1    2  504  503  0.17078401315E+01  0.25784688799E+02 -0.45491774464E+03  0.45565109599E+03  0.00000000000E+00 0. -1.
</event>
<event>
 4    1  0.3305068E+006  0.2862884E+02  0.7546771E-02  0.1431898E+00
         21   -1    0    0  503  501  0.00000000000E+00  0.00000000000E+00  0.86765333059E+02  0.86765333059E+02  0.00000000000E+00 0. -1.
         21   -1    0    0  501  502 -0.00000000000E+00 -0.00000000000E+00 -0.85064361462E+02  0.85064361462E+02  0.00000000000E+00 0. -1.
         21    1    1    2  503  504 -0.21223215132E+02 -0.19214203540E+02  0.81854622589E+02  0.86716721094E+02  0.00000000000E+00 0. -1.
         21    1    1    2  504  502  0.21223215132E+02  0.19214203540E+02 -0.80153650991E+02  0.85112973426E+02  0.00000000000E+00 0. -1.
</event>
<event>
 4    1  0.3305068E+006  0.3579195E+02  0.7546771E-02  0.1375079E+00
         21   -1    0    0  504  501  0.00000000000E+00  0.00000000000E+00  0.12775204804E+02  0.12775204804E+02  0.00000000000E+00 0.  1.
         21   -1    0    0  501  502 -0.00000000000E+00 -0.00000000000E+00 -0.37432079715E+03  0.37432079715E+03  0.00000000000E+00 0. -1.
         21    1    1    2  503  502  0.26226231845E+02 -0.24356692551E+02 -0.34637893096E+03  0.34822324380E+03  0.00000000000E+00 0. -1.
         21    1    1    2  504  503 -0.26226231845E+02  0.24356692551E+02 -0.15166661383E+02  0.38872758152E+02  0.00000000000E+00 0.  1.
</event>
<event>
 4    1  0.3305068E+006  0.2697598E+02  0.7546771E-02  0.1447850E+00
         21   -1    0    0  502  501  0.00000000000E+00  0.00000000000E+00  0.17530912128E+02  0.17530912128E+02  0.00000000000E+00 0.  1.
         21   -1    0    0  504  502 -0.00000000000E+00 -0.00000000000E+00 -0.47609783641E+02  0.47609783641E+02  0.00000000000E+00 0.  1.
         21    1    1    2  503  501 -0.27061661681E+01  0.26839894342E+02 -0.33809685271E+01  0.27187022857E+02  0.00000000000E+00 0.  1.
         21    1    1    2  504  503  0.27061661681E+01 -0.26839894342E+02 -0.26697902986E+02  0.37953672912E+02  0.00000000000E+00 0.  1.
</event>
<event>
 4    1  0.3305068E+006  0.2645047E+02  0.7546771E-02  0.1453208E+00
         21   -1    0    0  504  501  0.00000000000E+00  0.00000000000E+00  0.12221510857E+03  0.12221510857E+03  0.00000000000E+00 0.  1.
         21   -1    0    0  501  502 -0.00000000000E+00 -0.00000000000E+00 -0.10682910429E+02  0.10682910429E+02  0.00000000000E+00 0.  1.
         21    1    1    2  503  502  0.14093143991E+02  0.22383264158E+02  0.10495889412E+02  0.28456825481E+02  0.00000000000E+00 0.  1.
         21    1    1    2  504  503 -0.14093143991E+02 -0.22383264158E+02  0.10103630873E+03  0.10444119352E+03  0.00000000000E+00 0.  1.
</event>
<event>
 4    1  0.3305068E+006  0.2394242E+02  0.7546771E-02  0.1480991E+00
         21   -1    0    0  504  501  0.00000000000E+00  0.00000000000E+00  0.66898663535E+02  0.66898663535E+02  0.00000000000E+00 0. -1.
         21   -1    0    0  503  502 -0.00000000000E+00 -0.00000000000E+00 -0.92685937039E+02  0.92685937039E+02  0.00000000000E+00 0. -1.
         21    1    1    2  503  501 -0.23909424719E+02 -0.12564741550E+01  0.63120852103E+02  0.67509120035E+02  0.00000000000E+00 0. -1.
         21    1    1    2  504  502  0.23909424719E+02  0.12564741550E+01 -0.88908125607E+02  0.92075480540E+02  0.00000000000E+00 0. -1.
</event>
<event>
 4    1  0.3305068E+006  0.2248104E+02  0.7546771E-02  0.1499120E+00
         21   -1    0    0  504  501  0.00000000000E+00  0.00000000000E+00  0.20207190471E+02  0.20207190471E+02  0.00000000000E+00 0. -1.
         21   -1    0    0  503  502 -0.00000000000E+00 -0.00000000000E+00 -0.25059056860E+02  0.25059056860E+02  0.00000000000E+00 0.  1.
         21    1    1    2  503  501  0.19549523782E+02  0.11100143854E+02 -0.14322505327E+01  0.22526615709E+02  0.00000000000E+00 0. -1.
         21    1    1    2  504  502 -0.19549523782E+02 -0.11100143854E+02 -0.34196158570E+01  0.22739631622E+02  0.00000000000E+00 0.  1.
</event>
<event>
 4    1  0.3305068E+006  0.2253437E+02  0.7546771E-02  0.1498429E+00
         21   -1    0    0  504  501  0.00000000000E+00  0.00000000000E+00  0.58675325202E+01  0.58675325202E+01  0.00000000000E+00 0. -1.
         21   -1    0    0  501  502 -0.00000000000E+00 -0.00000000000E+00 -0.75603966798E+03  0.75603966798E+03  0.00000000000E+00 0. -1.
         21    1    1    2  503  502  0.50935271909E+01  0.21951168710E+02 -0.73357337375E+03  0.73391940464E+03  0.00000000000E+00 0. -1.
         21    1    1    2  504  503 -0.50935271909E+01 -0.21951168710E+02 -0.16598761708E+02  0.27987795862E+02  0.00000000000E+00 0. -1.
</event>
<event>
 4    1  0.3305068E+006  0.3051908E+02  0.7546771E-02  0.1415138E+00
         21   -1    0    0  504  501  0.00000000000E+00  0.00000000000E+00  0.90006353152E+02  0.90006353152E+02  0.00000000000E+00 0. -1.
         21   -1    0    0  503  502 -0.00000000000E+00 -0.00000000000E+00 -0.18800720908E+02  0.18800720908E+02  0.00000000000E+00 0. -1.
         21    1    1    2  503  501 -0.47994803132E+01  0.30139332634E+02 -0.87509619170E+00  0.30531625837E+02  0.00000000000E+00 0. -1.
         21    1    1    2  504  502  0.47994803132E+01 -0.30139332634E+02  0.72080728435E+02  0.78275448224E+02  0.00000000000E+00 0. -1.
</event>
<event>
 4    1  0.3305068E+006  0.3080866E+02  0.7546771E-02  0.1412697E+00
         21   -1    0    0  503  501  0.00000000000E+00  0.00000000000E+00  0.23132452228E+03  0.23132452228E+03  0.00000000000E+00 0. -1.
         21   -1    0    0  504  502 -0.00000000000E+00 -0.00000000000E+00 -0.44838616621E+01  0.44838616621E+01  0.00000000000E+00 0. -1.
         21    1    1    2  503  502 -0.30385593037E+02 -0.50881258142E+01  0.14777347725E+03  0.15095089886E+03  0.00000000000E+00 0. -1.
         21    1    1    2  504  501  0.30385593037E+02  0.50881258142E+01  0.79067183373E+02  0.84857485086E+02  0.00000000000E+00 0. -1.
</event>
<event>
 4    1  0.3305068E+006  0.2203927E+02  0.7546771E-02  0.1504928E+00
         21   -1    0    0  504  501  0.00000000000E+00  0.00000000000E+00  0.76725243950E+02  0.76725243950E+02  0.00000000000E+00 0. -1.
         21   -1    0    0  503  502 -0.00000000000E+00 -0.00000000000E+00 -0.91595305930E+01  0.91595305930E+01  0.00000000000E+00 0. -1.
         21    1    1    2  503  501 -0.21556082628E+02 -0.45896451815E+01  0.57647118426E+02  0.61716446787E+02  0.00000000000E+00 0. -1.
         21    1    1    2  504  502  0.21556082628E+02  0.45896451815E+01  0.99185949311E+01  0.24168327757E+02  0.00000000000E+00 0. -1.
</event>
<event>
 4    1  0.3305068E+006  0.3454932E+02  0.7546771E-02  0.1383760E+00
         21   -1    0    0  504  501  0.00000000000E+00  0.00000000000E+00  0.54145383395E+02  0.54145383395E+02  0.00000000000E+00 0. -1.
         21   -1    0    0  503  502 -0.00000000000E+00 -0.00000000000E+00 -0.46718311070E+02  0.46718311070E+02  0.00000000000E+00 0. -1.
         21    1    1    2  503  501  0.18170444410E+02 -0.29385204662E+02  0.40363345705E+02  0.53130546577E+02  0.00000000000E+00 0. -1.
         21    1    1    2  504  502 -0.18170444410E+02  0.29385204662E+02 -0.32936273380E+02  0.47733147887E+02  0.00000000000E+00 0. -1.
</event>
<event>
 4    1  0.3305068E+006  0.2127927E+02  0.7546771E-02  0.1515315E+00
         21   -1    0    0  504  501  0.00000000000E+00  0.00000000000E+00  0.15585558177E+03  0.15585558177E+03  0.00000000000E+00 0.  1.
         21   -1    0    0  501  502 -0.00000000000E+00 -0.00000000000E+00 -0.43051462743E+03  0.43051462743E+03  0.00000000000E+00 0. -1.
         21    1    1    2  503  502 -0.19156774445E+02  0.92641893632E+01 -0.42952368247E+03  0.43005046334E+03  0.00000000000E+00 0. -1.
         21    1    1    2  504  503  0.19156774445E+02 -0.92641893632E+01  0.15486463681E+03  0.15631974586E+03  0.00000000000E+00 0.  1.
</event>
<event>
 4    1  0.3305068E+006  0.3660486E+02  0.7546771E-02  0.1369618E+00
         21   -1    0    0  504  501  0.00000000000E+00  0.00000000000E+00  0.16808018504E+03  0.16808018504E+03  0.00000000000E+00 0.  1.
         21   -1    0    0  501  502 -0.00000000000E+00 -0.00000000000E+00 -0.12122132422E+02  0.12122132422E+02  0.00000000000E+00 0.  1.
         21    1    1    2  503  502  0.36568907218E+02 -0.16219346980E+01  0.25258718289E+02  0.44473795620E+02  0.00000000000E+00 0.  1.
         21    1    1    2  504  503 -0.36568907218E+02  0.16219346980E+01  0.13069933433E+03  0.13572852185E+03  0.00000000000E+00 0.  1.
</event>
<event>
 4    1  0.3305068E+006  0.2511774E+02  0.7546771E-02  0.1467491E+00
         21   -1    0    0  502  501  0.00000000000E+00  0.00000000000E+00  0.66962164835E+02  0.66962164835E+02  0.00000000000E+00 0.  1.
         21   -1    0    0  504  502 -0.00000000000E+00 -0.00000000000E+00 -0.10377187395E+02  0.10377187395E+02  0.00000000000E+00 0.  1.
         21    1    1    2  503  501  0.22190861606E+02  0.11767174549E+02  0.40026107149E+02  0.47254523479E+02  0.00000000000E+00 0.  1.
         21    1    1    2  504  503 -0.22190861606E+02 -0.11767174549E+02  0.16558870291E+02  0.30084828751E+02  0.00000000000E+00 0.  1.
</event>
<event>
 4    1  0.3305068E+006  0.2146396E+02  0.7546771E-02  0.1512743E+00
         21   -1    0    0  503  501  0.00000000000E+00  0.00000000000E+00  0.93603426460E+02  0.93603426460E+02  0.00000000000E+00 0. -1.
         21   -1    0    0  504  502 -0.00000000000E+00 -0.00000000000E+00 -0.87038726056E+01  0.87038726056E+01  0.00000000000E+00 0. -1.
         21    1    1    2  503  502  0.14024082390E+02  0.16248902509E+02  0.76169391974E+02  0.79135819913E+02  0.00000000000E+00 0. -1.
         21    1    1    2  504  501 -0.14024082390E+02 -0.16248902509E+02  0.87301618806E+01  0.23171479153E+02  0.00000000000E+00 0. -1.
</event>
<event>
 4    1  0.3305068E+006  0.2021901E+02  0.7546771E-02  0.1530714E+00
         21   -1    0    0  504  501  0.00000000000E+00  0.00000000000E+00  0.38278393832E+02  0.38278393832E+02  0.00000000000E+00 0.  1.
         21   -1    0    0  503  502 -0.00000000000E+00 -0.00000000000E+00 -0.30205749761E+02  0.30205749761E+02  0.00000000000E+00 0.  1.
         21    1    1    2  503  501 -0.14036244954E+02  0.14553081651E+02 -0.23494583939E+02  0.30996835845E+02  0.00000000000E+00 0.  1.
         21    1    1    2  504  502  0.14036244954E+02 -0.14553081651E+02  0.31567228010E+02  0.37487307748E+02  0.00000000000E+00 0.  1.
</event>
<event>
 4    1  0.3305068E+006  0.2202826E+02  0.7546771E-02  0.1505075E+00
         21   -1    0    0  503  501  0.00000000000E+00  0.00000000000E+00  0.73255771857E+01  0.73255771857E+01  0.00000000000E+00 0.  1.
         21   -1    0    0  504  502 -0.00000000000E+00 -0.00000000000E+00 -0.15127310089E+03  0.15127310089E+03  0.00000000000E+00 0.  1.
         21    1    1    2  503  502  0.18234948333E+02  0.12358426077E+02 -0.12519432175E+02  0.25337328544E+02  0.00000000000E+00 0.  1.
         21    1    1    2  504  501 -0.18234948333E+02 -0.12358426077E+02 -0.13142809153E+03  0.13326134953E+03  0.00000000000E+00 0.  1.
</event>
<event>
 4    1  0.3305068E+006  0.2788041E+02  0.7546771E-02  0.1438959E+00
         21   -1    0    0  504  501  0.00000000000E+00  0.00000000000E+00  0.70490619534E+02  0.70490619534E+02  0.00000000000E+00 0.  1.
         21   -1    0    0  503  502 -0.00000000000E+00 -0.00000000000E+00 -0.14404515940E+03  0.14404515940E+03  0.00000000000E+00 0. -1.
         21    1    1    2  503  501  0.27880321479E+02  0.68396177075E-01  0.66302983173E+02  0.71926369166E+02  0.00000000000E+00 0.  1.
         21    1    1    2  504  502 -0.27880321479E+02 -0.68396177075E-01 -0.13985752304E+03  0.14260940977E+03  0.00000000000E+00 0. -1.
</event>
<event>
 4    1  0.3305068E+006  0.4162735E+02  0.7546771E-02  0.1339205E+00
         21   -1    0    0  504  501  0.00000000000E+00  0.00000000000E+00  0.47004258970E+03  0.47004258970E+03  0.00000000000E+00 0.  1.
         21   -1    0    0  501  502 -0.00000000000E+00 -0.00000000000E+00 -0.15178899403E+02  0.15178899403E+02  0.00000000000E+00 0.  1.
         21    1    1    2  503  502  0.40417325304E+02 -0.99637588964E+01  0.16328919063E+02  0.44715436639E+02  0.00000000000E+00 0.  1.
         21    1    1    2  504  503 -0.40417325304E+02  0.99637588964E+01  0.43853477123E+03  0.44050605246E+03  0.00000000000E+00 0.  1.
</event>
<event>
 4    1  0.3305068E+006  0.2750372E+02  0.7546771E-02  0.1442613E+00
         21   -1    0    0  504  501  0.00000000000E+00  0.00000000000E+00  0.20198935110E+03  0.20198935110E+03  0.00000000000E+00 0. -1.
         21   -1    0    0  503  502 -0.00000000000E+00 -0.00000000000E+00 -0.36929982480E+02  0.36929982480E+02  0.00000000000E+00 0. -1.
         21    1    1    2  503  501 -0.25663664514E+02 -0.98909618821E+01  0.19577034456E+03  0.19769289975E+03  0.00000000000E+00 0. -1.
         21    1    1    2  504  502  0.25663664514E+02  0.98909618821E+01 -0.30710975938E+02  0.41226433830E+02  0.00000000000E+00 0. -1.
</event>
<event>
 4    1  0.3305068E+006  0.2646605E+02  0.7546771E-02  0.1453047E+00
         21   -1    0    0  503  501  0.00000000000E+00  0.00000000000E+00  0.15057968144E+02  0.15057968144E+02  0.00000000000E+00 0.  1.
         21   -1    0    0  501  502 -0.00000000000E+00 -0.00000000000E+00 -0.35417319338E+03  0.35417319338E+03  0.00000000000E+00 0. -1.
         21    1    1    2  503  504  0.11919144634E+02  0.23630185281E+02  0.25077011435E+01  0.26584586328E+02  0.00000000000E+00 0.  1.
         21    1    1    2  504  502 -0.11919144634E+02 -0.23630185281E+02 -0.34162292638E+03  0.34264657519E+03  0.00000000000E+00 0. -1.
</event>
<event>
 4    1  0.3305068E+006  0.5896672E+02  0.7546771E-02  0.1263384E+00
         21   -1    0    0  502  501  0.00000000000E+00  0.00000000000E+00  0.14446855118E+03  0.14446855118E+03  0.00000000000E+00 0. -1.
         21   -1    0    0  503  502 -0.00000000000E+00 -0.00000000000E+00 -0.84365272353E+02  0.84365272353E+02  0.00000000000E+00 0. -1.
         21    1    1    2  503  504 -0.57509888349E+01 -0.58685605500E+02 -0.66677443853E+02  0.89010986312E+02  0.00000000000E+00 0. -1.
         21    1    1    2  504  501  0.57509888349E+01  0.58685605500E+02  0.12678072268E+03  0.13982283722E+03  0.00000000000E+00 0. -1.
</event>
<event>
 4    1  0.3305068E+006  0.3883158E+02  0.7546771E-02  0.1355472E+00
         21   -1    0    0  504  501  0.00000000000E+00  0.00000000000E+00  0.15789426772E+03  0.15789426772E+03  0.00000000000E+00 0. -1.
         21   -1    0    0  503  502 -0.00000000000E+00 -0.00000000000E+00 -0.99790895495E+01  0.99790895495E+01  0.00000000000E+00 0. -1.
         21    1    1    2  503  501  0.29947057940E+02 -0.24719740971E+02  0.56552545756E+02  0.68600891426E+02  0.00000000000E+00 0. -1.
         21    1    1    2  504  502 -0.29947057940E+02  0.24719740971E+02  0.91362632410E+02  0.99272465839E+02  0.00000000000E+00 0. -1.
</event>
<event>
 4    1  0.3305068E+006  0.2295823E+02  0.7546771E-02  0.1493023E+00
         21   -1    0    0  503  501  0.00000000000E+00  0.00000000000E+00  0.49396153923E+03  0.49396153923E+03  0.00000000000E+00 0. -1.
         21   -1    0    0  501  502 -0.00000000000E+00 -0.00000000000E+00 -0.72555061575E+02  0.72555061575E+02  0.00000000000E+00 0.  1.
         21    1    1    2  503  504 -0.18542482831E+02  0.13537234455E+02  0.49187092311E+03  0.49240642297E+03  0.00000000000E+00 0. -1.
         21    1    1    2  504  502  0.18542482831E+02 -0.13537234455E+02 -0.70464445450E+02  0.74110177835E+02  0.00000000000E+00 0.  1.
</event>
<event>
 4    1  0.3305068E+006  0.2564020E+02  0.7546771E-02  0.1461767E+00
         21   -1    0    0  502  501  0.00000000000E+00  0.00000000000E+00  0.29200766674E+03  0.29200766674E+03  0.00000000000E+00 0. -1.
         21   -1    0    0  504  502 -0.00000000000E+00 -0.00000000000E+00 -0.70216735959E+01  0.70216735959E+01  0.00000000000E+00 0.  1.
         21    1    1    2  503  501  0.22170055090E+02  0.12880550440E+02  0.26572856982E+03  0.26696271789E+03  0.00000000000E+00 0. -1.
         21    1    1    2  504  503 -0.22170055090E+02 -0.12880550440E+02  0.19257423326E+02  0.32066622452E+02  0.00000000000E+00 0.  1.
</event>
<event>
 4    1  0.3305068E+006  0.2194070E+02  0.7546771E-02  0.1506246E+00
         21   -1    0    0  503  501  0.00000000000E+00  0.00000000000E+00  0.20744022278E+03  0.20744022278E+03  0.00000000000E+00 0. -1.
         21   -1    0    0  504  502 -0.00000000000E+00 -0.00000000000E+00 -0.59158192557E+02  0.59158192557E+02  0.00000000000E+00 0. -1.
         21    1    1    2  503  502 -0.85867279500E+01  0.20190646402E+02 -0.56517525690E+02  0.60626931385E+02  0.00000000000E+00 0. -1.
         21    1    1    2  504  501  0.85867279500E+01 -0.20190646402E+02  0.20479955591E+03  0.20597148395E+03  0.00000000000E+00 0. -1.
</event>
<event>
 4    1  0.3305068E+006  0.2419234E+02  0.7546771E-02  0.1478045E+00
         21   -1    0    0  503  501  0.00000000000E+00  0.00000000000E+00  0.69324602237E+01  0.69324602237E+01  0.00000000000E+00 0.  1.
         21   -1    0    0  504  502 -0.00000000000E+00 -0.00000000000E+00 -0.11336716381E+03  0.11336716381E+03  0.00000000000E+00 0.  1.
         21    1    1    2  503  502  0.69178238277E+01  0.23182165745E+02 -0.22825279830E+02  0.33260524567E+02  0.00000000000E+00 0.  1.
         21    1    1    2  504  501 -0.69178238277E+01 -0.23182165745E+02 -0.83609423758E+02  0.87039099469E+02  0.00000000000E+00 0.  1.
</event>
<event>
 4    1  0.3305068E+006  0.2013493E+02  0.7546771E-02  0.1531983E+00
         21   -1    0    0  503  501  0.00000000000E+00  0.00000000000E+00  0.40952665919E+01  0.40952665919E+01  0.00000000000E+00 0.  1.
         21   -1    0    0  501  502 -0.00000000000E+00 -0.00000000000E+00 -0.93525340123E+03  0.93525340123E+03  0.00000000000E+00 0.  1.
         21    1    1    2  503  504 -0.79327407394E+01  0.18506401140E+02 -0.21457205714E+02  0.29424937313E+02  0.00000000000E+00 0.  1.
         21    1    1    2  504  502  0.79327407394E+01 -0.18506401140E+02 -0.90970092892E+03  0.90992373051E+03  0.00000000000E+00 0.  1.
</event>
<event>
 4    1  0.3305068E+006  0.2977503E+02  0.7546771E-02  0.1421562E+00
         21   -1    0    0  504  501  0.00000000000E+00  0.00000000000E+00  0.79121797022E+02  0.79121797022E+02  0.00000000000E+00 0. -1.
         21   -1    0    0  503  502 -0.00000000000E+00 -0.00000000000E+00 -0.11990117306E+02  0.11990117306E+02  0.00000000000E+00 0. -1.
         21    1    1    2  503  501  0.29251012854E+02  0.55615299979E+01  0.45223905194E+02  0.54145673603E+02  0.00000000000E+00 0. -1.
         21    1    1    2  504  502 -0.29251012854E+02 -0.55615299979E+01  0.21907774522E+02  0.36966240726E+02  0.00000000000E+00 0. -1.
</event>
<event>
 4    1  0.3305068E+006  0.2087191E+02  0.7546771E-02  0.1521102E+00
         21   -1    0    0  503  501  0.00000000000E+00  0.00000000000E+00  0.13402959191E+02  0.13402959191E+02  0.00000000000E+00 0.  1.
         21   -1    0    0  504  502 -0.00000000000E+00 -0.00000000000E+00 -0.54682627887E+03  0.54682627887E+03  0.00000000000E+00 0.  1.
         21    1    1    2  503  502  0.19592987689E+02  0.71938408482E+01  0.49505148623E+01  0.21450969911E+02  0.00000000000E+00 0.  1.
         21    1    1    2  504  501 -0.19592987689E+02 -0.71938408482E+01 -0.53837383454E+03  0.53877826815E+03  0.00000000000E+00 0.  1.
</event>
<event>
 4    1  0.3305068E+006  0.2029473E+02  0.7546771E-02  0.1529577E+00
         21   -1    0    0  503  501  0.00000000000E+00  0.00000000000E+00  0.89077485324E+03  0.89077485324E+03  0.00000000000E+00 0. -1.
         21   -1    0    0  504  502 -0.00000000000E+00 -0.00000000000E+00 -0.53038554125E+01  0.53038554125E+01  0.00000000000E+00 0.  1.
         21    1    1    2  503  502  0.18492693605E+02  0.83604113230E+01  0.87079999043E+03  0.87103645132E+03  0.00000000000E+00 0. -1.
         21    1    1    2  504  501 -0.18492693605E+02 -0.83604113230E+01  0.14671007396E+02  0.25042257332E+02  0.00000000000E+00 0.  1.
</event>
<event>
 4    1  0.3305068E+006  0.2960730E+02  0.7546771E-02  0.1423040E+00
         21   -1    0    0  503  501  0.00000000000E+00  0.00000000000E+00  0.33864478853E+03  0.33864478853E+03  0.00000000000E+00 0.  1.
         21   -1    0    0  504  502 -0.00000000000E+00 -0.00000000000E+00 -0.13085885854E+02  0.13085885854E+02  0.00000000000E+00 0.  1.
         21    1    1    2  503  502 -0.18503318251E+02  0.23113182373E+02  0.52656335926E+01  0.30071895232E+02  0.00000000000E+00 0.  1.
         21    1    1    2  504  501  0.18503318251E+02 -0.23113182373E+02  0.32029326908E+03  0.32165877915E+03  0.00000000000E+00 0.  1.
</event>
<event>
 4    1  0.3305068E+006  0.2000296E+02  0.7546771E-02  0.1533990E+00
         21   -1    0    0  503  501  0.00000000000E+00  0.00000000000E+00  0.61510123797E+03  0.61510123797E+03  0.00000000000E+00 0.  1.
         21   -1    0    0  504  502 -0.00000000000E+00 -0.00000000000E+00 -0.11680483587E+01  0.11680483587E+01  0.00000000000E+00 0.  1.
         21    1    1    2  503  502 -0.15389165819E+02  0.12778573482E+02  0.51207761196E+03  0.51246814441E+03  0.00000000000E+00 0.  1.
         21    1    1    2  504  501  0.15389165819E+02 -0.12778573482E+02  0.10185557765E+03  0.10380114192E+03  0.00000000000E+00 0.  1.
</event>
<event>
 4    1  0.3305068E+006  0.2544598E+02  0.7546771E-02  0.1463876E+00
         21   -1    0    0  502  501  0.00000000000E+00  0.00000000000E+00  0.14272470529E+02  0.14272470529E+02  0.00000000000E+00 0. -1.
         21   -1    0    0  503  502 -0.00000000000E+00 -0.00000000000E+00 -0.10737719769E+03  0.10737719769E+03  0.00000000000E+00 0. -1.
         21    1    1    2  503  504 -0.45322213590E+01 -0.25039108070E+02 -0.92775217286E+02  0.96201553552E+02  0.00000000000E+00 0. -1.
         21    1    1    2  504  501  0.45322213590E+01  0.25039108070E+02 -0.32950987532E+00  0.25448114668E+02  0.00000000000E+00 0. -1.
</event>
<event>
 4    1  0.3305068E+006  0.2143468E+02  0.7546771E-02  0.1513148E+00
         21   -1    0    0  504  501  0.00000000000E+00  0.00000000000E+00  0.66769270418E+02  0.66769270418E+02  0.00000000000E+00 0. -1.
         21   -1    0    0  501  502 -0.00000000000E+00 -0.00000000000E+00 -0.25603820232E+03  0.25603820232E+03  0.00000000000E+00 0. -1.
         21    1    1    2  503  502  0.41486542681E+01  0.21029361047E+02 -0.25385454818E+03  0.25475787915E+03  0.00000000000E+00 0. -1.
         21    1    1    2  504  503 -0.41486542681E+01 -0.21029361047E+02  0.64585616274E+02  0.68049593590E+02  0.00000000000E+00 0. -1.
</event>
<event>
 4    1  0.3305068E+006  0.3163408E+02  0.7546771E-02  0.1405908E+00
         21   -1    0    0  502  501  0.00000000000E+00  0.00000000000E+00  0.16560180378E+02  0.16560180378E+02  0.00000000000E+00 0.  1.
         21   -1    0    0  503  502 -0.00000000000E+00 -0.00000000000E+00 -0.11717558362E+03  0.11717558362E+03  0.00000000000E+00 0.  1.
         21    1    1    2  503  504 -0.90077777611E+01  0.30324499464E+02 -0.96841534036E+02  0.10187736767E+03  0.00000000000E+00 0.  1.
         21    1    1    2  504  501  0.90077777611E+01 -0.30324499464E+02 -0.37738692030E+01  0.31858396329E+02  0.00000000000E+00 0.  1.
</event>
<event>
 4    1  0.3305068E+006  0.2113248E+02  0.7546771E-02  0.1517382E+00
         21   -1    0    0  503  501  0.00000000000E+00  0.00000000000E+00  0.15112118212E+03  0.15112118212E+03  0.00000000000E+00 0.  1.
         21   -1    0    0  504  502 -0.00000000000E+00 -0.00000000000E+00 -0.51775404860E+01  0.51775404860E+01  0.00000000000E+00 0. -1.
         21    1    1    2  503  502  0.19786445263E+02  0.74214749250E+01  0.12417259027E+03  0.12595798458E+03  0.00000000000E+00 0.  1.
         21    1    1    2  504  501 -0.19786445263E+02 -0.74214749250E+01  0.21771051364E+02  0.30340738022E+02  0.00000000000E+00 0. -1.
</event>
<event>
 4    1  0.3305068E+006  0.2387209E+02  0.7546771E-02  0.1481828E+00
         21   -1    0    0  503  501  0.00000000000E+00  0.00000000000E+00  0.50011583008E+02  0.50011583008E+02  0.00000000000E+00 0.  1.
         21   -1    0    0  504  502 -0.00000000000E+00 -0.00000000000E+00 -0.17639551668E+03  0.17639551668E+03  0.00000000000E+00 0.  1.
         21    1    1    2  503  502  0.23574621128E+02  0.37568263919E+01 -0.17267808817E+03  0.17432039077E+03  0.00000000000E+00 0.  1.
         21    1    1    2  504  501 -0.23574621128E+02 -0.37568263919E+01  0.46294154493E+02  0.52086708919E+02  0.00000000000E+00 0.  1.
</event>
<event>
 4    1  0.3305068E+006  0.2589127E+02  0.7546771E-02  0.1459075E+00
         21   -1    0    0  504  501  0.00000000000E+00  0.00000000000E+00  0.73727918695E+01  0.73727918695E+01  0.00000000000E+00 0. -1.
         21   -1    0    0  503  502 -0.00000000000E+00 -0.00000000000E+00 -0.78422459253E+03  0.78422459253E+03  0.00000000000E+00 0. -1.
         21    1    1    2  503  501  0.13080653193E+02  0.22344002953E+02 -0.16278356374E+02  0.30583375258E+02  0.00000000000E+00 0. -1.
         21    1    1    2  504  502 -0.13080653193E+02 -0.22344002953E+02 -0.76057344429E+03  0.76101400914E+03  0.00000000000E+00 0. -1.
</event>
<event>
 4    1  0.3305068E+006  0.2305863E+02  0.7546771E-02  0.1491763E+00
         21   -1    0    0  503  501  0.00000000000E+00  0.00000000000E+00  0.13081158534E+01  0.13081158534E+01  0.00000000000E+00 0. -1.
         21   -1    0    0  504  502 -0.00000000000E+00 -0.00000000000E+00 -0.40684285934E+03  0.40684285934E+03  0.00000000000E+00 0. -1.
         21    1    1    2  503  502  0.10195581337E+02 -0.20682131730E+02 -0.19653009770E+03  0.19787819423E+03  0.00000000000E+00 0. -1.
         21    1    1    2  504  501 -0.10195581337E+02  0.20682131730E+02 -0.20900464578E+03  0.21027278096E+03  0.00000000000E+00 0. -1.
</event>
<event>
 4    1  0.3305068E+006  0.3888888E+02  0.7546771E-02  0.1355123E+00
         21   -1    0    0  503  501  0.00000000000E+00  0.00000000000E+00  0.31631776520E+03  0.31631776520E+03  0.00000000000E+00 0.  1.
         21   -1    0    0  504  502 -0.00000000000E+00 -0.00000000000E+00 -0.22308183521E+02  0.22308183521E+02  0.00000000000E+00 0. -1.
         21    1    1    2  503  502 -0.38888876735E+02  0.17999847024E-01 -0.30718270030E+01  0.39010013828E+02  0.00000000000E+00 0. -1.
         21    1    1    2  504  501  0.38888876735E+02 -0.17999847024E-01  0.29708140868E+03  0.29961593489E+03  0.00000000000E+00 0.  1.
</event>
<event>
 4    1  0.3305068E+006  0.2790528E+02  0.7546771E-02  0.1438720E+00
         21   -1    0    0  503  501  0.00000000000E+00  0.00000000000E+00  0.38198098313E+01  0.38198098313E+01  0.00000000000E+00 0.  1.
         21   -1    0    0  504  502 -0.00000000000E+00 -0.00000000000E+00 -0.44840765486E+03  0.44840765486E+03  0.00000000000E+00 0. -1.
         21    1    1    2  503  502  0.19329795810E+01  0.27838254591E+02 -0.38927703572E+03  0.39027594772E+03  0.00000000000E+00 0. -1.
         21    1    1    2  504  501 -0.19329795810E+01 -0.27838254591E+02 -0.55310809304E+02  0.61951516968E+02  0.00000000000E+00 0.  1.
</event>
<event>
 4    1  0.3305068E+006  0.2495808E+02  0.7546771E-02  0.1469273E+00
         21   -1    0    0  503  501  0.00000000000E+00  0.00000000000E+00  0.21632625801E+02  0.21632625801E+02  0.00000000000E+00 0.  1.
         21   -1    0    0  504  502 -0.00000000000E+00 -0.00000000000E+00 -0.41902837081E+02  0.41902837081E+02  0.00000000000E+00 0.  1.
         21    1    1    2  503  502  0.23054286042E+02  0.95606410521E+01 -0.27902928506E+02  0.37436337714E+02  0.00000000000E+00 0.  1.
         21    1    1    2  504  501 -0.23054286042E+02 -0.95606410521E+01  0.76327172260E+01  0.26099125167E+02  0.00000000000E+00 0.  1.
</event>
<event>
 4    1  0.3305068E+006  0.2307467E+02  0.7546771E-02  0.1491563E+00
         21   -1    0    0  504  501  0.00000000000E+00  0.00000000000E+00  0.40950997836E+02  0.40950997836E+02  0.00000000000E+00 0. -1.
         21   -1    0    0  503  502 -0.00000000000E+00 -0.00000000000E+00 -0.81390552684E+02  0.81390552684E+02  0.00000000000E+00 0.  1.
         21    1    1    2  503  501 -0.22765329894E+02 -0.37656538842E+01 -0.76292163803E+02  0.79705298770E+02  0.00000000000E+00 0.  1.
         21    1    1    2  504  502  0.22765329894E+02  0.37656538842E+01  0.35852608955E+02  0.42636251749E+02  0.00000000000E+00 0. -1.
</event>
<event>
 4    1  0.3305068E+006  0.3024187E+02  0.7546771E-02  0.1417506E+00
         21   -1    0    0  502  501  0.00000000000E+00  0.00000000000E+00  0.94120464219E+01  0.94120464219E+01  0.00000000000E+00 0. -1.
         21   -1    0    0  504  502 -0.00000000000E+00 -0.00000000000E+00 -0.15821890421E+03  0.15821890421E+03  0.00000000000E+00 0. -1.
         21    1    1    2  503  501  0.27162150840E+02 -0.13296175516E+02 -0.22339955060E+02  0.37598461586E+02  0.00000000000E+00 0. -1.
         21    1    1    2  504  503 -0.27162150840E+02  0.13296175516E+02 -0.12646690273E+03  0.13003248905E+03  0.00000000000E+00 0. -1.
</event>
<event>
 4    1  0.3305068E+006  0.2476135E+02  0.7546771E-02  0.1471491E+00
         21   -1    0    0  503  501  0.00000000000E+00  0.00000000000E+00  0.14209921099E+02  0.14209921099E+02  0.00000000000E+00 0. -1.
         21   -1    0    0  504  502 -0.00000000000E+00 -0.00000000000E+00 -0.34238799264E+03  0.34238799264E+03  0.00000000000E+00 0. -1.
         21    1    1    2  503  502 -0.96120401797E+01  0.22819579511E+02  0.25971543315E+01  0.24897183297E+02  0.00000000000E+00 0. -1.
         21    1    1    2  504  501  0.96120401797E+01 -0.22819579511E+02 -0.33077522587E+03  0.33170073044E+03  0.00000000000E+00 0. -1.
</event>
<event>
 4    1  0.3305068E+006  0.2802516E+02  0.7546771E-02  0.1437573E+00
         21   -1    0    0  503  501  0.00000000000E+00  0.00000000000E+00  0.17011434801E+02  0.17011434801E+02  0.00000000000E+00 0. -1.
         21   -1    0    0  504  502 -0.00000000000E+00 -0.00000000000E+00 -0.66133487349E+02  0.66133487349E+02  0.00000000000E+00 0. -1.
         21    1    1    2  503  502 -0.37973582595E+01 -0.27766696746E+02 -0.17198373933E+01  0.28077877744E+02  0.00000000000E+00 0. -1.
         21    1    1    2  504  501  0.37973582595E+01  0.27766696746E+02 -0.47402215156E+02  0.55067044406E+02  0.00000000000E+00 0. -1.
</event>
<event>
 4    1  0.3305068E+006  0.2570936E+02  0.7546771E-02  0.1461022E+00
         21   -1    0    0  503  501  0.00000000000E+00  0.00000000000E+00  0.28358289483E+01  0.28358289483E+01  0.00000000000E+00 0. -1.
         21   -1    0    0  504  502 -0.00000000000E+00 -0.00000000000E+00 -0.29297092210E+03  0.29297092210E+03  0.00000000000E+00 0. -1.
         21    1    1    2  503  502 -0.10609477366E+02  0.23418157506E+02 -0.21194062459E+03  0.21349426096E+03  0.00000000000E+00 0. -1.
         21    1    1    2  504  501  0.10609477366E+02 -0.23418157506E+02 -0.78194468558E+02  0.82312490085E+02  0.00000000000E+00 0. -1.
</event>
<event>
 4    1  0.3305068E+006  0.3602936E+02  0.7546771E-02  0.1373467E+00
         21   -1    0    0  503  501  0.00000000000E+00  0.00000000000E+00  0.13008733236E+03  0.13008733236E+03  0.00000000000E+00 0.  1.
         21   -1    0    0  501  502 -0.00000000000E+00 -0.00000000000E+00 -0.24186494199E+04  0.24186494199E+04  0.00000000000E+00 0. -1.
         21    1    1    2  503  504 -0.35799468647E+02 -0.40636103464E+01  0.12745573868E+03  0.13245029334E+03  0.00000000000E+00 0.  1.
         21    1    1    2  504  502  0.35799468647E+02  0.40636103464E+01 -0.24160178263E+04  0.24162864589E+04  0.00000000000E+00 0. -1.
</event>
<event>
 4    1  0.3305068E+006  0.2904430E+02  0.7546771E-02  0.1428087E+00
         21   -1    0    0  503  501  0.00000000000E+00  0.00000000000E+00  0.24285674567E+02  0.24285674567E+02  0.00000000000E+00 0.  1.
         21   -1    0    0  504  502 -0.00000000000E+00 -0.00000000000E+00 -0.43127970449E+02  0.43127970449E+02  0.00000000000E+00 0.  1.
         21    1    1    2  503  502  0.21535184684E+02  0.19488636153E+02  0.54480451541E+01  0.29550842873E+02  0.00000000000E+00 0.  1.
         21    1    1    2  504  501 -0.21535184684E+02 -0.19488636153E+02 -0.24290341036E+02  0.37862802144E+02  0.00000000000E+00 0.  1.
</event>
<event>
 4    1  0.3305068E+006  0.2635205E+02  0.7546771E-02  0.1454228E+00
         21   -1    0    0  503  501  0.00000000000E+00  0.00000000000E+00  0.68305668467E+02  0.68305668467E+02  0.00000000000E+00 0.  1.
         21   -1    0    0  504  502 -0.00000000000E+00 -0.00000000000E+00 -0.16899418321E+02  0.16899418321E+02  0.00000000000E+00 0.  1.
         21    1    1    2  503  502 -0.46831082926E+01  0.25932587508E+02 -0.11874964876E+01  0.26378793491E+02  0.00000000000E+00 0.  1.
         21    1    1    2  504  501  0.46831082926E+01 -0.25932587508E+02  0.52593746634E+02  0.58826293297E+02  0.00000000000E+00 0.  1.
</event>
<event>
 4    1  0.3305068E+006  0.2513788E+02  0.7546771E-02  0.1467267E+00
         21   -1    0    0  503  501  0.00000000000E+00  0.00000000000E+00  0.13436289114E+03  0.13436289114E+03  0.00000000000E+00 0.  1.
         21   -1    0    0  504  502 -0.00000000000E+00 -0.00000000000E+00 -0.11257862910E+02  0.11257862910E+02  0.00000000000E+00 0.  1.
         21    1    1    2  503  502  0.20579670711E+02 -0.14435727452E+02  0.11711044006E+03  0.11977799566E+03  0.00000000000E+00 0.  1.
         21    1    1    2  504  501 -0.20579670711E+02  0.14435727452E+02  0.59945881664E+01  0.25842758385E+02  0.00000000000E+00 0.  1.
</event>
<event>
 4    1  0.3305068E+006  0.4056027E+02  0.7546771E-02  0.1345234E+00
         21   -1    0    0  504  501  0.00000000000E+00  0.00000000000E+00  0.92421626474E+02  0.92421626474E+02  0.00000000000E+00 0. -1.
         21   -1    0    0  503  502 -0.00000000000E+00 -0.00000000000E+00 -0.17815353336E+02  0.17815353336E+02  0.00000000000E+00 0. -1.
         21    1    1    2  503  501  0.29752578484E+02 -0.27566633334E+02  0.35702390438E+02  0.54035135632E+02  0.00000000000E+00 0. -1.
         21    1    1    2  504  502 -0.29752578484E+02  0.27566633334E+02  0.38903882701E+02  0.56201844178E+02  0.00000000000E+00 0. -1.
</event>
<event>
 4    1  0.3305068E+006  0.2420896E+02  0.7546771E-02  0.1477851E+00
         21   -1    0    0  502  501  0.00000000000E+00  0.00000000000E+00  0.11920641433E+03  0.11920641433E+03  0.00000000000E+00 0. -1.
         21   -1    0    0  503  502 -0.00000000000E+00 -0.00000000000E+00 -0.51126037415E+01  0.51126037415E+01  0.00000000000E+00 0. -1.
         21    1    1    2  503  504  0.88958187602E+01  0.22515287979E+02  0.69221982589E+02  0.73333189333E+02  0.00000000000E+00 0. -1.
         21    1    1    2  504  501 -0.88958187602E+01 -0.22515287979E+02  0.44871828004E+02  0.50985828743E+02  0.00000000000E+00 0. -1.
</event>
<event>
 4    1  0.3305068E+006  0.3459953E+02  0.7546771E-02  0.1383401E+00
         21   -1    0    0  504  501  0.00000000000E+00  0.00000000000E+00  0.66414844987E+03  0.66414844987E+03  0.00000000000E+00 0. -1.
         21   -1    0    0  501  502 -0.00000000000E+00 -0.00000000000E+00 -0.28902919462E+01  0.28902919462E+01  0.00000000000E+00 0. -1.
         21    1    1    2  503  502  0.13950301513E+02  0.31662541034E+02  0.12602081273E+03  0.13068424793E+03  0.00000000000E+00 0. -1.
         21    1    1    2  504  503 -0.13950301513E+02 -0.31662541034E+02  0.53523734520E+03  0.53635449389E+03  0.00000000000E+00 0. -1.
</event>
<event>
 4    1  0.3305068E+006  0.4557885E+02  0.7546771E-02  0.1318570E+00
         21   -1    0    0  504  501  0.00000000000E+00  0.00000000000E+00  0.27510342951E+03  0.27510342951E+03  0.00000000000E+00 0.  1.
         21   -1    0    0  503  502 -0.00000000000E+00 -0.00000000000E+00 -0.97268915446E+02  0.97268915446E+02  0.00000000000E+00 0.  1.
         21    1    1    2  503  501  0.45506377977E+02  0.25692049849E+01 -0.89895653604E+02  0.10079017704E+03  0.00000000000E+00 0.  1.
         21    1    1    2  504  502 -0.45506377977E+02 -0.25692049849E+01  0.26773016767E+03  0.27158216792E+03  0.00000000000E+00 0.  1.
</event>
<event>
 4    1  0.3305068E+006  0.3778013E+02  0.7546771E-02  0.1362009E+00
         21   -1    0    0  503  501  0.00000000000E+00  0.00000000000E+00  0.28142911551E+02  0.28142911551E+02  0.00000000000E+00 0.  1.
         21   -1    0    0  501  502 -0.00000000000E+00 -0.00000000000E+00 -0.17548630711E+03  0.17548630711E+03  0.00000000000E+00 0. -1.
         21    1    1    2  503  504  0.13409144070E+02 -0.35320428946E+02  0.12178541498E+02  0.39694517489E+02  0.00000000000E+00 0.  1.
         21    1    1    2  504  502 -0.13409144070E+02  0.35320428946E+02 -0.15952193705E+03  0.16393470117E+03  0.00000000000E+00 0. -1.
</event>
<event>
 4    1  0.3305068E+006  0.2596122E+02  0.7546771E-02  0.1458331E+00
         21   -1    0    0  504  501  0.00000000000E+00  0.00000000000E+00  0.38196769788E+02  0.38196769788E+02  0.00000000000E+00 0.  1.
         21   -1    0    0  503  502 -0.00000000000E+00 -0.00000000000E+00 -0.18261591658E+02  0.18261591658E+02  0.00000000000E+00 0.  1.
         21    1    1    2  503  501 -0.24753393192E+02  0.78265388659E+01  0.15154376385E+02  0.30060610585E+02  0.00000000000E+00 0.  1.
         21    1    1    2  504  502  0.24753393192E+02 -0.78265388659E+01  0.47808017451E+01  0.26397750860E+02  0.00000000000E+00 0.  1.
</event>
<event>
 4    1  0.3305068E+006  0.3083935E+02  0.7546771E-02  0.1412440E+00
         21   -1    0    0  503  501  0.00000000000E+00  0.00000000000E+00  0.10156887138E+02  0.10156887138E+02  0.00000000000E+00 0. -1.
         21   -1    0    0  504  502 -0.00000000000E+00 -0.00000000000E+00 -0.94475979441E+02  0.94475979441E+02  0.00000000000E+00 0. -1.
         21    1    1    2  503  502 -0.30706067809E+02 -0.28641037619E+01 -0.37230995005E+02  0.48344727528E+02  0.00000000000E+00 0. -1.
         21    1    1    2  504  501  0.30706067809E+02  0.28641037619E+01 -0.47088097298E+02  0.56288139051E+02  0.00000000000E+00 0. -1.
</event>
<event>
 4    1  0.3305068E+006  0.2297386E+02  0.7546771E-02  0.1492827E+00
         21   -1    0    0  503  501  0.00000000000E+00  0.00000000000E+00  0.90102090659E+01  0.90102090659E+01  0.00000000000E+00 0. -1.
         21   -1    0    0  501  502 -0.00000000000E+00 -0.00000000000E+00 -0.58036209867E+03  0.58036209867E+03  0.00000000000E+00 0. -1.
         21    1    1    2  503  504  0.13788267510E+02 -0.18376120655E+02 -0.62570845818E+01  0.23810695889E+02  0.00000000000E+00 0. -1.
         21    1    1    2  504  502 -0.13788267510E+02  0.18376120655E+02 -0.56509480502E+03  0.56556161184E+03  0.00000000000E+00 0. -1.
</event>
<event>
 4    1  0.3305068E+006  0.2691296E+02  0.7546771E-02  0.1448484E+00
         21   -1    0    0  503  501  0.00000000000E+00  0.00000000000E+00  0.32563128375E+01  0.32563128375E+01  0.00000000000E+00 0. -1.
         21   -1    0    0  504  502 -0.00000000000E+00 -0.00000000000E+00 -0.12564453184E+04  0.12564453184E+04  0.00000000000E+00 0. -1.
         21    1    1    2  503  502  0.17369578321E+02 -0.20557362634E+02 -0.11979797404E+04  0.11982820060E+04  0.00000000000E+00 0. -1.
         21    1    1    2  504  501 -0.17369578321E+02  0.20557362634E+02 -0.55209265213E+02  0.61419625323E+02  0.00000000000E+00 0. -1.
</event>
<event>
 4    1  0.3305068E+006  0.3089689E+02  0.7546771E-02  0.1411959E+00
         21   -1    0    0  504  501  0.00000000000E+00  0.00000000000E+00  0.44700808755E+02  0.44700808755E+02  0.00000000000E+00 0.  1.
         21   -1    0    0  503  502 -0.00000000000E+00 -0.00000000000E+00 -0.31764559073E+02  0.31764559073E+02  0.00000000000E+00 0.  1.
         21    1    1    2  503  501 -0.30893780380E+02  0.43848291280E+00 -0.15417781084E+02  0.34530072501E+02  0.00000000000E+00 0.  1.
         21    1    1    2  504  502  0.30893780380E+02 -0.43848291280E+00  0.28354030766E+02  0.41935295326E+02  0.00000000000E+00 0.  1.
</event>
<event>
 4    1  0.3305068E+006  0.2803843E+02  0.7546771E-02  0.1437447E+00
         21   -1    0    0  503  501  0.00000000000E+00  0.00000000000E+00  0.20126795917E+03  0.20126795917E+03  0.00000000000E+00 0. -1.
         21   -1    0    0  504  502 -0.00000000000E+00 -0.00000000000E+00 -0.39699621914E+01  0.39699621914E+01  0.00000000000E+00 0. -1.
         21    1    1    2  503  502 -0.27704044411E+02 -0.43173480619E+01  0.85623914478E+02  0.90097770792E+02  0.00000000000E+00 0. -1.
         21    1    1    2  504  501  0.27704044411E+02  0.43173480619E+01  0.11167408250E+03  0.11514015057E+03  0.00000000000E+00 0. -1.
</event>
<event>
 4    1  0.3305068E+006  0.4321539E+02  0.7546771E-02  0.1330608E+00
         21   -1    0    0  504  501  0.00000000000E+00  0.00000000000E+00  0.67829952995E+02  0.67829952995E+02  0.00000000000E+00 0. -1.
         21   -1    0    0  501  502 -0.00000000000E+00 -0.00000000000E+00 -0.51499112147E+02  0.51499112147E+02  0.00000000000E+00 0.  1.
         21    1    1    2  503  502 -0.26057478807E+02 -0.34475755982E+02 -0.32536426428E+02  0.54094260296E+02  0.00000000000E+00 0.  1.
         21    1    1    2  504  503  0.26057478807E+02  0.34475755982E+02  0.48867267276E+02  0.65234804846E+02  0.00000000000E+00 0. -1.
</event>
<event>
 4    1  0.3305068E+006  0.6052104E+02  0.7546771E-02  0.1258072E+00
         21   -1    0    0  503  501  0.00000000000E+00  0.00000000000E+00  0.78008431351E+02  0.78008431351E+02  0.00000000000E+00 0.  1.
         21   -1    0    0  504  502 -0.00000000000E+00 -0.00000000000E+00 -0.63741507885E+02  0.63741507885E+02  0.00000000000E+00 0. -1.
         21    1    1    2  503  502 -0.29890826678E+02  0.52624470898E+02  0.43506261274E+02  0.74535838540E+02  0.00000000000E+00 0.  1.
         21    1    1    2  504  501  0.29890826678E+02 -0.52624470898E+02 -0.29239337809E+02  0.67214100696E+02  0.00000000000E+00 0. -1.
</event>
<event>
 4    1  0.3305068E+006  0.3248926E+02  0.7546771E-02  0.1399129E+00
         21   -1    0    0  504  501  0.00000000000E+00  0.00000000000E+00  0.16593850270E+03  0.16593850270E+03  0.00000000000E+00 0. -1.
         21   -1    0    0  501  502 -0.00000000000E+00 -0.00000000000E+00 -0.16007325019E+03  0.16007325019E+03  0.00000000000E+00 0. -1.
         21    1    1    2  503  502  0.28621161635E+02 -0.15374700245E+02 -0.15680159578E+03  0.16013211028E+03  0.00000000000E+00 0. -1.
         21    1    1    2  504  503 -0.28621161635E+02  0.15374700245E+02  0.16266684829E+03  0.16587964262E+03  0.00000000000E+00 0. -1.
</event>
<event>
 4    1  0.3305068E+006  0.2008965E+02  0.7546771E-02  0.1532670E+00
         21   -1    0    0  504  501  0.00000000000E+00  0.00000000000E+00  0.32538112661E+01  0.32538112661E+01  0.00000000000E+00 0. -1.
         21   -1    0    0  503  502 -0.00000000000E+00 -0.00000000000E+00 -0.13533730021E+03  0.13533730021E+03  0.00000000000E+00 0.  1.
         21    1    1    2  503  501  0.19992930975E+01 -0.19989922208E+02 -0.46018489367E+02  0.50212503686E+02  0.00000000000E+00 0. -1.
         21    1    1    2  504  502 -0.19992930975E+01  0.19989922208E+02 -0.86064999577E+02  0.88378607790E+02  0.00000000000E+00 0.  1.
</event>
<event>
 4    1  0.3305068E+006  0.3478431E+02  0.7546771E-02  0.1382086E+00
         21   -1    0    0  504  501  0.00000000000E+00  0.00000000000E+00  0.17678521826E+02  0.17678521826E+02  0.00000000000E+00 0.  1.
         21   -1    0    0  501  502 -0.00000000000E+00 -0.00000000000E+00 -0.18762437940E+03  0.18762437940E+03  0.00000000000E+00 0.  1.
         21    1    1    2  503  502 -0.83110365757E+01  0.33776843921E+02 -0.16678680795E+03  0.17037543197E+03  0.00000000000E+00 0.  1.
         21    1    1    2  504  503  0.83110365757E+01 -0.33776843921E+02 -0.31590496313E+01  0.34927469258E+02  0.00000000000E+00 0.  1.
</event>
<event>
 4    1  0.3305068E+006  0.3035634E+02  0.7546771E-02  0.1416525E+00
         21   -1    0    0  503  501  0.00000000000E+00  0.00000000000E+00  0.35209763233E+03  0.35209763233E+03  0.00000000000E+00 0. -1.
         21   -1    0    0  501  502 -0.00000000000E+00 -0.00000000000E+00 -0.70560110015E+02  0.70560110015E+02  0.00000000000E+00 0. -1.
         21    1    1    2  503  504 -0.12515457166E+02  0.27656295978E+02  0.34814132814E+03  0.34946228943E+03  0.00000000000E+00 0. -1.
         21    1    1    2  504  502  0.12515457166E+02 -0.27656295978E+02 -0.66603805831E+02  0.73195452909E+02  0.00000000000E+00 0. -1.
</event>
<event>
 4    1  0.3305068E+006  0.3028161E+02  0.7546771E-02  0.1417165E+00
         21   -1    0    0  504  501  0.00000000000E+00  0.00000000000E+00  0.33451145327E+03  0.33451145327E+03  0.00000000000E+00 0. -1.
         21   -1    0    0  503  502 -0.00000000000E+00 -0.00000000000E+00 -0.50306612492E+02  0.50306612492E+02  0.00000000000E+00 0.  1.
         21    1    1    2  503  501  0.26466729722E+02  0.14713530376E+02  0.32919578119E+03  0.33058559876E+03  0.00000000000E+00 0. -1.
         21    1    1    2  504  502 -0.26466729722E+02 -0.14713530376E+02 -0.44990940407E+02  0.54232467001E+02  0.00000000000E+00 0.  1.
</event>
<event>
 4    1  0.3305068E+006  0.2564030E+02  0.7546771E-02  0.1461766E+00
         21   -1    0    0  503  501  0.00000000000E+00  0.00000000000E+00  0.10945553655E+03  0.10945553655E+03  0.00000000000E+00 0.  1.
         21   -1    0    0  504  502 -0.00000000000E+00 -0.00000000000E+00 -0.36436951591E+02  0.36436951591E+02  0.00000000000E+00 0.  1.
         21    1    1    2  503  502 -0.22783320340E+02 -0.11762021198E+02 -0.30154099925E+02  0.39581492780E+02  0.00000000000E+00 0.  1.
         21    1    1    2  504  501  0.22783320340E+02  0.11762021198E+02  0.10317268488E+03  0.10631099536E+03  0.00000000000E+00 0.  1.
</event>
<event>
 4    1  0.3305068E+006  0.2258990E+02  0.7546771E-02  0.1497713E+00
         21   -1    0    0  503  501  0.00000000000E+00  0.00000000000E+00  0.20078104686E+02  0.20078104686E+02  0.00000000000E+00 0. -1.
         21   -1    0    0  501  502 -0.00000000000E+00 -0.00000000000E+00 -0.31928302353E+02  0.31928302353E+02  0.00000000000E+00 0. -1.
         21    1    1    2  503  504  0.16680765650E+02 -0.15233365289E+02  0.58187140305E+01  0.23327254310E+02  0.00000000000E+00 0. -1.
         21    1    1    2  504  502 -0.16680765650E+02  0.15233365289E+02 -0.17668911697E+02  0.28679152729E+02  0.00000000000E+00 0. -1.
</event>
<event>
 4    1  0.3305068E+006  0.2573402E+02  0.7546771E-02  0.1460757E+00
         21   -1    0    0  502  501  0.00000000000E+00  0.00000000000E+00  0.26178888235E+02  0.26178888235E+02  0.00000000000E+00 0.  1.
         21   -1    0    0  503  502 -0.00000000000E+00 -0.00000000000E+00 -0.21734479850E+03  0.21734479850E+03  0.00000000000E+00 0.  1.
         21    1    1    2  503  504  0.22587062805E+02 -0.12331446097E+02 -0.21003974823E+03  0.21161033955E+03  0.00000000000E+00 0.  1.
         21    1    1    2  504  501 -0.22587062805E+02  0.12331446097E+02  0.18873837963E+02  0.31913347184E+02  0.00000000000E+00 0.  1.
</event>
<event>
 4    1  0.3305068E+006  0.2351247E+02  0.7546771E-02  0.1486161E+00
         21   -1    0    0  503  501  0.00000000000E+00  0.00000000000E+00  0.13967115861E+02  0.13967115861E+02  0.00000000000E+00 0. -1.
         21   -1    0    0  504  502 -0.00000000000E+00 -0.00000000000E+00 -0.77481074711E+02  0.77481074711E+02  0.00000000000E+00 0. -1.
         21    1    1    2  503  502  0.45144605595E+01 -0.23075003459E+02  0.22208896062E+00  0.23513516587E+02  0.00000000000E+00 0. -1.
         21    1    1    2  504  501 -0.45144605595E+01  0.23075003459E+02 -0.63736047811E+02  0.67934673984E+02  0.00000000000E+00 0. -1.
</event>
<event>
 4    1  0.3305068E+006  0.2917503E+02  0.7546771E-02  0.1426903E+00
         21   -1    0    0  504  501  0.00000000000E+00  0.00000000000E+00  0.63024406667E+01  0.63024406667E+01  0.00000000000E+00 0. -1.
         21   -1    0    0  503  502 -0.00000000000E+00 -0.00000000000E+00 -0.18836925770E+03  0.18836925770E+03  0.00000000000E+00 0. -1.
         21    1    1    2  503  501  0.10096808434E+02  0.27372187480E+02 -0.14281621373E+03  0.14576574732E+03  0.00000000000E+00 0. -1.
         21    1    1    2  504  502 -0.10096808434E+02 -0.27372187480E+02 -0.39250603306E+02  0.48905951048E+02  0.00000000000E+00 0. -1.
</event>
<event>
 4    1  0.3305068E+006  0.2892159E+02  0.7546771E-02  0.1429205E+00
         21   -1    0    0  504  501  0.00000000000E+00  0.00000000000E+00  0.55518188527E+02  0.55518188527E+02  0.00000000000E+00 0.  1.
         21   -1    0    0  501  502 -0.00000000000E+00 -0.00000000000E+00 -0.10322582606E+03  0.10322582606E+03  0.00000000000E+00 0. -1.
         21    1    1    2  503  502  0.21545389663E+02 -0.19293893173E+02 -0.97205083481E+02  0.10141640096E+03  0.00000000000E+00 0. -1.
         21    1    1    2  504  503 -0.21545389663E+02  0.19293893173E+02  0.49497445944E+02  0.57327613629E+02  0.00000000000E+00 0.  1.
</event>
<event>
 4    1  0.3305068E+006  0.2276009E+02  0.7546771E-02  0.1495533E+00
         21   -1    0    0  503  501  0.00000000000E+00  0.00000000000E+00  0.12808104451E+02  0.12808104451E+02  0.00000000000E+00 0.  1.
         21   -1    0    0  504  502 -0.00000000000E+00 -0.00000000000E+00 -0.18777638508E+03  0.18777638508E+03  0.00000000000E+00 0.  1.
         21    1    1    2  503  502  0.21263762715E+02  0.81162966731E+01  0.13530307239E+01  0.22800275626E+02  0.00000000000E+00 0.  1.
         21    1    1    2  504  501 -0.21263762715E+02 -0.81162966731E+01 -0.17632131136E+03  0.17778421391E+03  0.00000000000E+00 0.  1.
</event>
<event>
 4    1  0.3305068E+006  0.3030055E+02  0.7546771E-02  0.1417002E+00
         21   -1    0    0  502  501  0.00000000000E+00  0.00000000000E+00  0.98519751711E+02  0.98519751711E+02  0.00000000000E+00 0.  1.
         21   -1    0    0  503  502 -0.00000000000E+00 -0.00000000000E+00 -0.11466324323E+02  0.11466324323E+02  0.00000000000E+00 0.  1.
         21    1    1    2  503  504 -0.44204349980E+01 -0.29976375550E+02  0.19729496069E+02  0.36157659656E+02  0.00000000000E+00 0.  1.
         21    1    1    2  504  501  0.44204349980E+01  0.29976375550E+02  0.67323931318E+02  0.73828416377E+02  0.00000000000E+00 0.  1.
</event>
<event>
 4    1  0.3305068E+006  0.2385488E+02  0.7546771E-02  0.1482034E+00
         21   -1    0    0  503  501  0.00000000000E+00  0.00000000000E+00  0.78535033763E+02  0.78535033763E+02  0.00000000000E+00 0. -1.
         21   -1    0    0  504  502 -0.00000000000E+00 -0.00000000000E+00 -0.21485379644E+02  0.21485379644E+02  0.00000000000E+00 0.  1.
         21    1    1    2  503  502 -0.21057972842E+02 -0.11207911871E+02 -0.12188302093E+02  0.26788247734E+02  0.00000000000E+00 0.  1.
         21    1    1    2  504  501  0.21057972842E+02  0.11207911871E+02  0.69237956212E+02  0.73232165673E+02  0.00000000000E+00 0. -1.
</event>
<event>
 4    1  0.3305068E+006  0.2305764E+02  0.7546771E-02  0.1491776E+00
         21   -1    0    0  503  501  0.00000000000E+00  0.00000000000E+00  0.10280057576E+02  0.10280057576E+02  0.00000000000E+00 0.  1.
         21   -1    0    0  504  502 -0.00000000000E+00 -0.00000000000E+00 -0.67142390774E+02  0.67142390774E+02  0.00000000000E+00 0. -1.
         21    1    1    2  503  502 -0.61308504831E+01  0.22227625893E+02 -0.98764083175E+01  0.25083821913E+02  0.00000000000E+00 0.  1.
         21    1    1    2  504  501  0.61308504831E+01 -0.22227625893E+02 -0.46985924880E+02  0.52338626437E+02  0.00000000000E+00 0. -1.
</event>
<event>
 4    1  0.3305068E+006  0.2806500E+02  0.7546771E-02  0.1437194E+00
         21   -1    0    0  502  501  0.00000000000E+00  0.00000000000E+00  0.72328131255E+02  0.72328131255E+02  0.00000000000E+00 0. -1.
         21   -1    0    0  504  502 -0.00000000000E+00 -0.00000000000E+00 -0.20915484590E+03  0.20915484590E+03  0.00000000000E+00 0.  1.
         21    1    1    2  503  501  0.26267142203E+02  0.98833985507E+01  0.68615226560E+02  0.74132945728E+02  0.00000000000E+00 0. -1.
         21    1    1    2  504  503 -0.26267142203E+02 -0.98833985507E+01 -0.20544194120E+03  0.20735003142E+03  0.00000000000E+00 0.  1.
</event>
<event>
 4    1  0.3305068E+006  0.3487937E+02  0.7546771E-02  0.1381413E+00
         21   -1    0    0  502  501  0.00000000000E+00  0.00000000000E+00  0.16714402049E+03  0.16714402049E+03  0.00000000000E+00 0.  1.
         21   -1    0    0  504  502 -0.00000000000E+00 -0.00000000000E+00 -0.22452925909E+02  0.22452925909E+02  0.00000000000E+00 0. -1.
         21    1    1    2  503  501 -0.34657308268E+02  0.39295532132E+01  0.15027828317E+03  0.15427291660E+03  0.00000000000E+00 0.  1.
         21    1    1    2  504  503  0.34657308268E+02 -0.39295532132E+01 -0.55871885868E+01  0.35324029798E+02  0.00000000000E+00 0. -1.
</event>
<event>
 4    1  0.3305068E+006  0.2267073E+02  0.7546771E-02  0.1496675E+00
         21   -1    0    0  502  501  0.00000000000E+00  0.00000000000E+00  0.27655400202E+02  0.27655400202E+02  0.00000000000E+00 0. -1.
         21   -1    0    0  503  502 -0.00000000000E+00 -0.00000000000E+00 -0.21317905834E+02  0.21317905834E+02  0.00000000000E+00 0. -1.
         21    1    1    2  503  504 -0.18758664033E+02  0.12730849124E+02 -0.55994157382E+01  0.23351990329E+02  0.00000000000E+00 0. -1.
         21    1    1    2  504  501  0.18758664033E+02 -0.12730849124E+02  0.11936910106E+02  0.25621315708E+02  0.00000000000E+00 0. -1.
</event>
<event>
 4    1  0.3305068E+006  0.8164312E+02  0.7546771E-02  0.1200084E+00
         21   -1    0    0  502  501  0.00000000000E+00  0.00000000000E+00  0.28421122889E+02  0.28421122889E+02  0.00000000000E+00 0. -1.
         21   -1    0    0  504  502 -0.00000000000E+00 -0.00000000000E+00 -0.55315217241E+03  0.55315217241E+03  0.00000000000E+00 0.  1.
         21    1    1    2  503  501 -0.34353171474E+02  0.74063879407E+02 -0.41671628294E+02  0.91663096324E+02  0.00000000000E+00 0. -1.
         21    1    1    2  504  503  0.34353171474E+02 -0.74063879407E+02 -0.48305942123E+03  0.48991019898E+03  0.00000000000E+00 0.  1.
</event>
<event>
 4    1  0.3305068E+006  0.2692695E+02  0.7546771E-02  0.1448343E+00
         21   -1    0    0  504  501  0.00000000000E+00  0.00000000000E+00  0.72506113287E+03  0.72506113287E+03  0.00000000000E+00 0.  1.
         21   -1    0    0  501  502 -0.00000000000E+00 -0.00000000000E+00 -0.34169632219E+02  0.34169632219E+02  0.00000000000E+00 0. -1.
         21    1    1    2  503  502  0.20877961403E+02  0.17005042440E+02 -0.28573522713E+02  0.39262029251E+02  0.00000000000E+00 0. -1.
         21    1    1    2  504  503 -0.20877961403E+02 -0.17005042440E+02  0.71946502336E+03  0.71996873584E+03  0.00000000000E+00 0.  1.
</event>
<event>
 4    1  0.3305068E+006  0.2358968E+02  0.7546771E-02  0.1485223E+00
         21   -1    0    0  503  501  0.00000000000E+00  0.00000000000E+00  0.38076293131E+02  0.38076293131E+02  0.00000000000E+00 0.  1.
         21   -1    0    0  501  502 -0.00000000000E+00 -0.00000000000E+00 -0.49265922530E+02  0.49265922530E+02  0.00000000000E+00 0.  1.
         21    1    1    2  503  504  0.16304372744E+02 -0.17048182529E+02  0.31030407052E+02  0.38978959195E+02  0.00000000000E+00 0.  1.
         21    1    1    2  504  502 -0.16304372744E+02  0.17048182529E+02 -0.42220036451E+02  0.48363256466E+02  0.00000000000E+00 0.  1.
</event>
<event>
 4    1  0.3305068E+006  0.3804072E+02  0.7546771E-02  0.1360366E+00
         21   -1    0    0  503  501  0.00000000000E+00  0.00000000000E+00  0.72612908487E+02  0.72612908487E+02  0.00000000000E+00 0. -1.
         21   -1    0    0  504  502 -0.00000000000E+00 -0.00000000000E+00 -0.22533825931E+03  0.22533825931E+03  0.00000000000E+00 0.  1.
         21    1    1    2  503  502 -0.37724432802E+02  0.48952799367E+01  0.65872733341E+02  0.76067822328E+02  0.00000000000E+00 0. -1.
         21    1    1    2  504  501  0.37724432802E+02 -0.48952799367E+01 -0.21859808417E+03  0.22188334547E+03  0.00000000000E+00 0.  1.
</event>
<event>
 4    1  0.3305068E+006  0.2032499E+02  0.7546771E-02  0.1529124E+00
         21   -1    0    0  503  501  0.00000000000E+00  0.00000000000E+00  0.25946683912E+03  0.25946683912E+03  0.00000000000E+00 0.  1.
         21   -1    0    0  501  502 -0.00000000000E+00 -0.00000000000E+00 -0.34984646322E+02  0.34984646322E+02  0.00000000000E+00 0.  1.
         21    1    1    2  503  504  0.17087302290E+01 -0.20253037300E+02  0.25607775147E+03  0.25688308640E+03  0.00000000000E+00 0.  1.
         21    1    1    2  504  502 -0.17087302290E+01  0.20253037300E+02 -0.31595558673E+02  0.37568399044E+02  0.00000000000E+00 0.  1.
</event>
<event>
 4    1  0.3305068E+006  0.4908733E+02  0.7546771E-02  0.1302179E+00
         21   -1    0    0  502  501  0.00000000000E+00  0.00000000000E+00  0.27024264208E+02  0.27024264208E+02  0.00000000000E+00 0.  1.
         21   -1    0    0  503  502 -0.00000000000E+00 -0.00000000000E+00 -0.81504618002E+03  0.81504618002E+03  0.00000000000E+00 0. -1.
         21    1    1    2  503  504  0.35811017432E+02  0.33572863404E+02 -0.79134947698E+03  0.79287045653E+03  0.00000000000E+00 0. -1.
         21    1    1    2  504  501 -0.35811017432E+02 -0.33572863404E+02  0.33275611594E+01  0.49199987703E+02  0.00000000000E+00 0.  1.
</event>
<event>
 4    1  0.3305068E+006  0.2096819E+02  0.7546771E-02  0.1519719E+00
         21   -1    0    0  502  501  0.00000000000E+00  0.00000000000E+00  0.18878049271E+02  0.18878049271E+02  0.00000000000E+00 0. -1.
         21   -1    0    0  504  502 -0.00000000000E+00 -0.00000000000E+00 -0.37747871816E+02  0.37747871816E+02  0.00000000000E+00 0. -1.
         21    1    1    2  503  501  0.32845397088E+01 -0.20709343719E+02  0.80875428553E+01  0.22473839632E+02  0.00000000000E+00 0. -1.
         21    1    1    2  504  503 -0.32845397088E+01  0.20709343719E+02 -0.26957365400E+02  0.34152081455E+02  0.00000000000E+00 0. -1.
</event>
<event>
 4    1  0.3305068E+006  0.4583334E+02  0.7546771E-02  0.1317324E+00
         21   -1    0    0  503  501  0.00000000000E+00  0.00000000000E+00  0.71635321805E+01  0.71635321805E+01  0.00000000000E+00 0. -1.
         21   -1    0    0  501  502 -0.00000000000E+00 -0.00000000000E+00 -0.61004862427E+03  0.61004862427E+03  0.00000000000E+00 0. -1.
         21    1    1    2  503  504  0.45809746234E+02  0.14705033648E+01 -0.79052724926E+02  0.91378490622E+02  0.00000000000E+00 0. -1.
         21    1    1    2  504  502 -0.45809746234E+02 -0.14705033648E+01 -0.52383236717E+03  0.52583366583E+03  0.00000000000E+00 0. -1.
</event>
<event>
 4    1  0.3305068E+006  0.2100610E+02  0.7546771E-02  0.1519178E+00
         21   -1    0    0  504  501  0.00000000000E+00  0.00000000000E+00  0.10616445634E+03  0.10616445634E+03  0.00000000000E+00 0.  1.
         21   -1    0    0  501  502 -0.00000000000E+00 -0.00000000000E+00 -0.69517404828E+01  0.69517404828E+01  0.00000000000E+00 0.  1.
         21    1    1    2  503  502 -0.19840373245E+02 -0.69004356428E+01  0.13741474582E+02  0.25101484941E+02  0.00000000000E+00 0.  1.
         21    1    1    2  504  503  0.19840373245E+02  0.69004356428E+01  0.85471241278E+02  0.88014711884E+02  0.00000000000E+00 0.  1.
</event>
<event>
 4    1  0.3305068E+006  0.2666635E+02  0.7546771E-02  0.1450989E+00
         21   -1    0    0  503  501  0.00000000000E+00  0.00000000000E+00  0.50035112413E+03  0.50035112413E+03  0.00000000000E+00 0.  1.
         21   -1    0    0  504  502 -0.00000000000E+00 -0.00000000000E+00 -0.72342786593E+03  0.72342786593E+03  0.00000000000E+00 0.  1.
         21    1    1    2  503  502 -0.11875559373E+02 -0.23876037256E+02 -0.72282653520E+03  0.72331825226E+03  0.00000000000E+00 0.  1.
         21    1    1    2  504  501  0.11875559373E+02  0.23876037256E+02  0.49974979340E+03  0.50046073779E+03  0.00000000000E+00 0.  1.
</event>
<event>
 4    1  0.3305068E+006  0.2781293E+02  0.7546771E-02  0.1439609E+00
         21   -1    0    0  504  501  0.00000000000E+00  0.00000000000E+00  0.18905680433E+03  0.18905680433E+03  0.00000000000E+00 0.  1.
         21   -1    0    0  503  502 -0.00000000000E+00 -0.00000000000E+00 -0.42404089440E+01  0.42404089440E+01  0.00000000000E+00 0.  1.
         21    1    1    2  503  501 -0.26875974957E+02  0.71582911538E+01  0.11050890396E+03  0.11395515353E+03  0.00000000000E+00 0.  1.
         21    1    1    2  504  502  0.26875974957E+02 -0.71582911538E+01  0.74307491434E+02  0.79342059750E+02  0.00000000000E+00 0.  1.
</event>
<event>
 4    1  0.3305068E+006  0.2030606E+02  0.7546771E-02  0.1529407E+00
         21   -1    0    0  504  501  0.00000000000E+00  0.00000000000E+00  0.37619215993E+01  0.37619215993E+01  0.00000000000E+00 0.  1.
         21   -1    0    0  503  502 -0.00000000000E+00 -0.00000000000E+00 -0.40401476688E+03  0.40401476688E+03  0.00000000000E+00 0. -1.
         21    1    1    2  503  501  0.20298439081E+02  0.55619923671E+00 -0.26078912882E+02  0.33052166099E+02  0.00000000000E+00 0.  1.
         21    1    1    2  504  502 -0.20298439081E+02 -0.55619923671E+00 -0.37417393240E+03  0.37472452238E+03  0.00000000000E+00 0. -1.
</event>
<event>
 4    1  0.3305068E+006  0.2921004E+02  0.7546771E-02  0.1426588E+00
         21   -1    0    0  503  501  0.00000000000E+00  0.00000000000E+00  0.50028053472E+03  0.50028053472E+03  0.00000000000E+00 0. -1.
         21   -1    0    0  504  502 -0.00000000000E+00 -0.00000000000E+00 -0.27745932896E+01  0.27745932896E+01  0.00000000000E+00 0. -1.
         21    1    1    2  503  502 -0.28066701956E+02  0.80923734971E+01  0.40488593590E+03  0.40593823096E+03  0.00000000000E+00 0. -1.
         21    1    1    2  504  501  0.28066701956E+02 -0.80923734971E+01  0.92620005524E+02  0.97116897041E+02  0.00000000000E+00 0. -1.
</event>
<event>
 4    1  0.3305068E+006  0.2491796E+02  0.7546771E-02  0.1469723E+00
         21   -1    0    0  503  501  0.00000000000E+00  0.00000000000E+00  0.49586552693E+03  0.49586552693E+03  0.00000000000E+00 0.  1.
         21   -1    0    0  504  502 -0.00000000000E+00 -0.00000000000E+00 -0.12837091299E+01  0.12837091299E+01  0.00000000000E+00 0.  1.
         21    1    1    2  503  502 -0.24917701832E+02  0.11393833336E+00  0.20832442454E+03  0.20980936754E+03  0.00000000000E+00 0.  1.
         21    1    1    2  504  501  0.24917701832E+02 -0.11393833336E+00  0.28625739326E+03  0.28733986853E+03  0.00000000000E+00 0.  1.
</event>
<event>
 4    1  0.3305068E+006  0.2463977E+02  0.7546771E-02  0.1472874E+00
         21   -1    0    0  504  501  0.00000000000E+00  0.00000000000E+00  0.20753062258E+04  0.20753062258E+04  0.00000000000E+00 0.  1.
         21   -1    0    0  503  502 -0.00000000000E+00 -0.00000000000E+00 -0.30496580449E+00  0.30496580449E+00  0.00000000000E+00 0.  1.
         21    1    1    2  503  501  0.19024091783E+02  0.15658940684E+02  0.12469513604E+04  0.12471947778E+04  0.00000000000E+00 0.  1.
         21    1    1    2  504  502 -0.19024091783E+02 -0.15658940684E+02  0.82804989959E+03  0.82841641383E+03  0.00000000000E+00 0.  1.
</event>
<event>
 4    1  0.3305068E+006  0.2235256E+02  0.7546771E-02  0.1500792E+00
         21   -1    0    0  502  501  0.00000000000E+00  0.00000000000E+00  0.21881253328E+03  0.21881253328E+03  0.00000000000E+00 0.  1.
         21   -1    0    0  503  502 -0.00000000000E+00 -0.00000000000E+00 -0.89404347008E+02  0.89404347008E+02  0.00000000000E+00 0.  1.
         21    1    1    2  503  504  0.22271306254E+02  0.19041384842E+01 -0.87423641228E+02  0.90235967724E+02  0.00000000000E+00 0.  1.
         21    1    1    2  504  501 -0.22271306254E+02 -0.19041384842E+01  0.21683182750E+03  0.21798091257E+03  0.00000000000E+00 0.  1.
</event>
<event>
 4    1  0.3305068E+006  0.2064311E+02  0.7546771E-02  0.1524422E+00
         21   -1    0    0  502  501  0.00000000000E+00  0.00000000000E+00  0.14189262915E+01  0.14189262915E+01  0.00000000000E+00 0.  1.
         21   -1    0    0  504  502 -0.00000000000E+00 -0.00000000000E+00 -0.44689582428E+03  0.44689582428E+03  0.00000000000E+00 0.  1.
         21    1    1    2  503  501  0.29116198764E+01 -0.20436743659E+02 -0.94365147321E+02  0.96596682399E+02  0.00000000000E+00 0.  1.
         21    1    1    2  504  503 -0.29116198764E+01  0.20436743659E+02 -0.35111175066E+03  0.35171806817E+03  0.00000000000E+00 0.  1.
</event>
<event>
 4    1  0.3305068E+006  0.2416783E+02  0.7546771E-02  0.1478332E+00
         21   -1    0    0  504  501  0.00000000000E+00  0.00000000000E+00  0.80823796785E+01  0.80823796785E+01  0.00000000000E+00 0. -1.
         21   -1    0    0  503  502 -0.00000000000E+00 -0.00000000000E+00 -0.10441215809E+03  0.10441215809E+03  0.00000000000E+00 0.  1.
         21    1    1    2  503  501 -0.23613346231E+02  0.51472283971E+01 -0.79374480124E+02  0.82972237377E+02  0.00000000000E+00 0.  1.
         21    1    1    2  504  502  0.23613346231E+02 -0.51472283971E+01 -0.16955298289E+02  0.29522300393E+02  0.00000000000E+00 0. -1.
</event>
<event>
 4    1  0.3305068E+006  0.2645557E+02  0.7546771E-02  0.1453155E+00
         21   -1    0    0  503  501  0.00000000000E+00  0.00000000000E+00  0.40956084048E+02  0.40956084048E+02  0.00000000000E+00 0.  1.
         21   -1    0    0  504  502 -0.00000000000E+00 -0.00000000000E+00 -0.72856963126E+02  0.72856963126E+02  0.00000000000E+00 0. -1.
         21    1    1    2  503  502 -0.25658809988E+02 -0.64438148829E+01 -0.65737791977E+02  0.70861516878E+02  0.00000000000E+00 0. -1.
         21    1    1    2  504  501  0.25658809988E+02  0.64438148829E+01  0.33836912899E+02  0.42951530296E+02  0.00000000000E+00 0.  1.
</event>
<event>
 4    1  0.3305068E+006  0.3526443E+02  0.7546771E-02  0.1378714E+00
         21   -1    0    0  503  501  0.00000000000E+00  0.00000000000E+00  0.40546509515E+02  0.40546509515E+02  0.00000000000E+00 0. -1.
         21   -1    0    0  501  502 -0.00000000000E+00 -0.00000000000E+00 -0.10394161827E+04  0.10394161827E+04  0.00000000000E+00 0. -1.
         21    1    1    2  503  504 -0.13050417099E+02  0.32760743360E+02  0.32520139050E+02  0.47970190074E+02  0.00000000000E+00 0. -1.
         21    1    1    2  504  502  0.13050417099E+02 -0.32760743360E+02 -0.10313898122E+04  0.10319925021E+04  0.00000000000E+00 0. -1.
</event>
<event>
 4    1  0.3305068E+006  0.3247180E+02  0.7546771E-02  0.1399265E+00
         21   -1    0    0  503  501  0.00000000000E+00  0.00000000000E+00  0.18800764218E+03  0.18800764218E+03  0.00000000000E+00 0.  1.
         21   -1    0    0  504  502 -0.00000000000E+00 -0.00000000000E+00 -0.73086493005E+01  0.73086493005E+01  0.00000000000E+00 0.  1.
         21    1    1    2  503  502  0.25517021443E+02 -0.20082310445E+02  0.43246421313E+02  0.54080223119E+02  0.00000000000E+00 0.  1.
         21    1    1    2  504  501 -0.25517021443E+02  0.20082310445E+02  0.13745257157E+03  0.14123606836E+03  0.00000000000E+00 0.  1.
</event>
<event>
 4    1  0.3305068E+006  0.2330956E+02  0.7546771E-02  0.1488647E+00
         21   -1    0    0  504  501  0.00000000000E+00  0.00000000000E+00  0.30739247579E+02  0.30739247579E+02  0.00000000000E+00 0. -1.
         21   -1    0    0  501  502 -0.00000000000E+00 -0.00000000000E+00 -0.43156025504E+02  0.43156025504E+02  0.00000000000E+00 0. -1.
         21    1    1    2  503  502  0.12200162629E+02 -0.19861808815E+02 -0.34598629097E+02  0.41718108214E+02  0.00000000000E+00 0. -1.
         21    1    1    2  504  503 -0.12200162629E+02  0.19861808815E+02  0.22181851172E+02  0.32177164869E+02  0.00000000000E+00 0. -1.
</event>
<event>
 4    1  0.3305068E+006  0.3184320E+02  0.7546771E-02  0.1404228E+00
         21   -1    0    0  504  501  0.00000000000E+00  0.00000000000E+00  0.10395355112E+04  0.10395355112E+04  0.00000000000E+00 0.  1.
         21   -1    0    0  503  502 -0.00000000000E+00 -0.00000000000E+00 -0.14996628169E+03  0.14996628169E+03  0.00000000000E+00 0. -1.
         21    1    1    2  503  501 -0.31529801255E+02  0.44565983327E+01  0.10375981366E+04  0.10380866451E+04  0.00000000000E+00 0.  1.
         21    1    1    2  504  502  0.31529801255E+02 -0.44565983327E+01 -0.14802890712E+03  0.15141514778E+03  0.00000000000E+00 0. -1.
</event>
<event>
 4    1  0.3305068E+006  0.2467306E+02  0.7546771E-02  0.1472494E+00
         21   -1    0    0  502  501  0.00000000000E+00  0.00000000000E+00  0.88400190867E+02  0.88400190867E+02  0.00000000000E+00 0. -1.
         21   -1    0    0  503  502 -0.00000000000E+00 -0.00000000000E+00 -0.61323021375E+02  0.61323021375E+02  0.00000000000E+00 0.  1.
         21    1    1    2  503  504  0.23863777171E+02 -0.62673815547E+01 -0.56994505351E+02  0.62105825593E+02  0.00000000000E+00 0.  1.
         21    1    1    2  504  501 -0.23863777171E+02  0.62673815547E+01  0.84071674843E+02  0.87617386650E+02  0.00000000000E+00 0. -1.
</event>
<event>
 4    1  0.3305068E+006  0.2903021E+02  0.7546771E-02  0.1428215E+00
         21   -1    0    0  503  501  0.00000000000E+00  0.00000000000E+00  0.53297654188E+03  0.53297654188E+03  0.00000000000E+00 0. -1.
         21   -1    0    0  504  502 -0.00000000000E+00 -0.00000000000E+00 -0.21944438316E+01  0.21944438316E+01  0.00000000000E+00 0. -1.
         21    1    1    2  503  502 -0.40963617754E+01 -0.28739746231E+02  0.40684328765E+03  0.40787769478E+03  0.00000000000E+00 0. -1.
         21    1    1    2  504  501  0.40963617754E+01  0.28739746231E+02  0.12393881040E+03  0.12729329093E+03  0.00000000000E+00 0. -1.
</event>
<event>
 4    1  0.3305068E+006  0.4385547E+02  0.7546771E-02  0.1327262E+00
         21   -1    0    0  504  501  0.00000000000E+00  0.00000000000E+00  0.34687620899E+02  0.34687620899E+02  0.00000000000E+00 0.  1.
         21   -1    0    0  503  502 -0.00000000000E+00 -0.00000000000E+00 -0.40269985142E+03  0.40269985142E+03  0.00000000000E+00 0. -1.
         21    1    1    2  503  501 -0.20585033229E+02 -0.38724138334E+02 -0.38708693928E+03  0.38956334663E+03  0.00000000000E+00 0. -1.
         21    1    1    2  504  502  0.20585033229E+02  0.38724138334E+02  0.19074708760E+02  0.47824125680E+02  0.00000000000E+00 0.  1.
</event>
<event>
 4    1  0.3305068E+006  0.2309702E+02  0.7546771E-02  0.1491283E+00
         21   -1    0    0  502  501  0.00000000000E+00  0.00000000000E+00  0.30529164129E+03  0.30529164129E+03  0.00000000000E+00 0. -1.
         21   -1    0    0  503  502 -0.00000000000E+00 -0.00000000000E+00 -0.10179963952E+02  0.10179963952E+02  0.00000000000E+00 0. -1.
         21    1    1    2  503  504 -0.22402265228E+02  0.56223342079E+01  0.39948249024E+01  0.23439939320E+02  0.00000000000E+00 0. -1.
         21    1    1    2  504  501  0.22402265228E+02 -0.56223342079E+01  0.29111685244E+03  0.29203166593E+03  0.00000000000E+00 0. -1.
</event>
<event>
 4    1  0.3305068E+006  0.3246905E+02  0.7546771E-02  0.1399287E+00
         21   -1    0    0  504  501  0.00000000000E+00  0.00000000000E+00  0.13623492261E+02  0.13623492261E+02  0.00000000000E+00 0.  1.
         21   -1    0    0  503  502 -0.00000000000E+00 -0.00000000000E+00 -0.28264333596E+03  0.28264333596E+03  0.00000000000E+00 0. -1.
         21    1    1    2  503  501  0.21066120188E+02 -0.24707444128E+02 -0.26074649692E+03  0.26276029927E+03  0.00000000000E+00 0. -1.
         21    1    1    2  504  502 -0.21066120188E+02  0.24707444128E+02 -0.82733467699E+01  0.33506528944E+02  0.00000000000E+00 0.  1.
</event>
<event>
 4    1  0.3305068E+006  0.3124454E+02  0.7546771E-02  0.1409081E+00
         21   -1    0    0  504  501  0.00000000000E+00  0.00000000000E+00  0.80776270631E+02  0.80776270631E+02  0.00000000000E+00 0.  1.
         21   -1    0    0  503  502 -0.00000000000E+00 -0.00000000000E+00 -0.21601906766E+02  0.21601906766E+02  0.00000000000E+00 0. -1.
         21    1    1    2  503  501 -0.97465836638E+01 -0.29685444708E+02  0.63562840263E+02  0.70826945317E+02  0.00000000000E+00 0.  1.
         21    1    1    2  504  502  0.97465836638E+01  0.29685444708E+02 -0.43884763983E+01  0.31551232080E+02  0.00000000000E+00 0. -1.
</event>
<event>
 4    1  0.3305068E+006  0.2237595E+02  0.7546771E-02  0.1500487E+00
         21   -1    0    0  503  501  0.00000000000E+00  0.00000000000E+00  0.42324952558E+03  0.42324952558E+03  0.00000000000E+00 0.  1.
         21   -1    0    0  504  502 -0.00000000000E+00 -0.00000000000E+00 -0.95139174220E+01  0.95139174220E+01  0.00000000000E+00 0. -1.
         21    1    1    2  503  502 -0.19521031719E+02  0.10936758005E+02  0.43847975561E+01  0.22801530752E+02  0.00000000000E+00 0. -1.
         21    1    1    2  504  501  0.19521031719E+02 -0.10936758005E+02  0.40935081060E+03  0.40996191225E+03  0.00000000000E+00 0.  1.
</event>
<event>
 4    1  0.3305068E+006  0.2365645E+02  0.7546771E-02  0.1484416E+00
         21   -1    0    0  503  501  0.00000000000E+00  0.00000000000E+00  0.94238516494E+02  0.94238516494E+02  0.00000000000E+00 0.  1.
         21   -1    0    0  501  502 -0.00000000000E+00 -0.00000000000E+00 -0.86820257343E+02  0.86820257343E+02  0.00000000000E+00 0.  1.
         21    1    1    2  503  504 -0.19417495462E+02  0.13512530940E+02  0.91087623868E+02  0.94109419530E+02  0.00000000000E+00 0.  1.
         21    1    1    2  504  502  0.19417495462E+02 -0.13512530940E+02 -0.83669364716E+02  0.86949354307E+02  0.00000000000E+00 0.  1.
</event>
<event>
 4    1  0.3305068E+006  0.2783226E+02  0.7546771E-02  0.1439422E+00
         21   -1    0    0  504  501  0.00000000000E+00  0.00000000000E+00  0.87479857455E+02  0.87479857455E+02  0.00000000000E+00 0.  1.
         21   -1    0    0  503  502 -0.00000000000E+00 -0.00000000000E+00 -0.51267249854E+02  0.51267249854E+02  0.00000000000E+00 0.  1.
         21    1    1    2  503  501  0.15479804835E+01  0.27789174228E+02  0.81204881317E+02  0.85842106204E+02  0.00000000000E+00 0.  1.
         21    1    1    2  504  502 -0.15479804835E+01 -0.27789174228E+02 -0.44992273716E+02  0.52905001106E+02  0.00000000000E+00 0.  1.
</event>
<event>
 4    1  0.3305068E+006  0.2130906E+02  0.7546771E-02  0.1514898E+00
         21   -1    0    0  504  501  0.00000000000E+00  0.00000000000E+00  0.38418419250E+03  0.38418419250E+03  0.00000000000E+00 0. -1.
         21   -1    0    0  501  502 -0.00000000000E+00 -0.00000000000E+00 -0.42822765238E+02  0.42822765238E+02  0.00000000000E+00 0. -1.
         21    1    1    2  503  502  0.13784322680E+02 -0.16250182185E+02 -0.39855765889E+02  0.45194668352E+02  0.00000000000E+00 0. -1.
         21    1    1    2  504  503 -0.13784322680E+02  0.16250182185E+02  0.38121719316E+03  0.38181228939E+03  0.00000000000E+00 0. -1.
</event>
<event>
 4    1  0.3305068E+006  0.2648707E+02  0.7546771E-02  0.1452830E+00
         21   -1    0    0  504  501  0.00000000000E+00  0.00000000000E+00  0.15952695702E+03  0.15952695702E+03  0.00000000000E+00 0. -1.
         21   -1    0    0  501  502 -0.00000000000E+00 -0.00000000000E+00 -0.52662804329E+01  0.52662804329E+01  0.00000000000E+00 0. -1.
         21    1    1    2  503  502  0.25933225895E+02  0.53882018222E+01  0.43669124334E+02  0.51074037870E+02  0.00000000000E+00 0. -1.
         21    1    1    2  504  503 -0.25933225895E+02 -0.53882018222E+01  0.11059155225E+03  0.11371919958E+03  0.00000000000E+00 0. -1.
</event>
<event>
 4    1  0.3305068E+006  0.2161333E+02  0.7546771E-02  0.1510685E+00
         21   -1    0    0  503  501  0.00000000000E+00  0.00000000000E+00  0.79833897913E+01  0.79833897913E+01  0.00000000000E+00 0. -1.
         21   -1    0    0  501  502 -0.00000000000E+00 -0.00000000000E+00 -0.74505324458E+02  0.74505324458E+02  0.00000000000E+00 0. -1.
         21    1    1    2  503  504  0.14958494113E+02 -0.15600618094E+02 -0.14152743878E+02  0.25834782568E+02  0.00000000000E+00 0. -1.
         21    1    1    2  504  502 -0.14958494113E+02  0.15600618094E+02 -0.52369190789E+02  0.56653931682E+02  0.00000000000E+00 0. -1.
</event>
<event>
 4    1  0.3305068E+006  0.2578637E+02  0.7546771E-02  0.1460195E+00
         21   -1    0    0  503  501  0.00000000000E+00  0.00000000000E+00  0.13582149977E+03  0.13582149977E+03  0.00000000000E+00 0. -1.
         21   -1    0    0  504  502 -0.00000000000E+00 -0.00000000000E+00 -0.91492519028E+01  0.91492519028E+01  0.00000000000E+00 0.  1.
         21    1    1    2  503  502 -0.80494319000E+01  0.24497832003E+02  0.13912447745E+02  0.29300056809E+02  0.00000000000E+00 0.  1.
         21    1    1    2  504  501  0.80494319000E+01 -0.24497832003E+02  0.11275980013E+03  0.11567069487E+03  0.00000000000E+00 0. -1.
</event>
<event>
 4    1  0.3305068E+006  0.2301082E+02  0.7546771E-02  0.1492362E+00
         21   -1    0    0  503  501  0.00000000000E+00  0.00000000000E+00  0.12689779837E+01  0.12689779837E+01  0.00000000000E+00 0. -1.
         21   -1    0    0  504  502 -0.00000000000E+00 -0.00000000000E+00 -0.43701147326E+03  0.43701147326E+03  0.00000000000E+00 0. -1.
         21    1    1    2  503  502  0.36965971780E+01  0.22711954418E+02 -0.26445572228E+03  0.26545494298E+03  0.00000000000E+00 0. -1.
         21    1    1    2  504  501 -0.36965971780E+01 -0.22711954418E+02 -0.17128677299E+03  0.17282550826E+03  0.00000000000E+00 0. -1.
</event>
<event>
 4    1  0.3305068E+006  0.3543164E+02  0.7546771E-02  0.1377554E+00
         21   -1    0    0  502  501  0.00000000000E+00  0.00000000000E+00  0.13981121948E+03  0.13981121948E+03  0.00000000000E+00 0. -1.
         21   -1    0    0  503  502 -0.00000000000E+00 -0.00000000000E+00 -0.51156182117E+02  0.51156182117E+02  0.00000000000E+00 0. -1.
         21    1    1    2  503  504  0.14390151372E+02 -0.32377839210E+02 -0.42372189563E+02  0.55234078038E+02  0.00000000000E+00 0. -1.
         21    1    1    2  504  501 -0.14390151372E+02  0.32377839210E+02  0.13102722692E+03  0.13573332356E+03  0.00000000000E+00 0. -1.
</event>
<event>
 4    1  0.3305068E+006  0.2191822E+02  0.7546771E-02  0.1506548E+00
         21   -1    0    0  503  501  0.00000000000E+00  0.00000000000E+00  0.34011888130E+03  0.34011888130E+03  0.00000000000E+00 0. -1.
         21   -1    0    0  501  502 -0.00000000000E+00 -0.00000000000E+00 -0.40395491525E+01  0.40395491525E+01  0.00000000000E+00 0. -1.
         21    1    1    2  503  504 -0.21833394175E+02 -0.19264467818E+01  0.30681056637E+03  0.30759247705E+03  0.00000000000E+00 0. -1.
         21    1    1    2  504  502  0.21833394175E+02  0.19264467818E+01  0.29268765774E+02  0.36565953404E+02  0.00000000000E+00 0. -1.
</event>
<event>
 4    1  0.3305068E+006  0.3663970E+02  0.7546771E-02  0.1369388E+00
         21   -1    0    0  503  501  0.00000000000E+00  0.00000000000E+00  0.61476362841E+01  0.61476362841E+01  0.00000000000E+00 0.  1.
         21   -1    0    0  504  502 -0.00000000000E+00 -0.00000000000E+00 -0.25613615854E+03  0.25613615854E+03  0.00000000000E+00 0.  1.
         21    1    1    2  503  502 -0.31739982195E+02  0.18304123899E+02 -0.17535010289E+03  0.17913717091E+03  0.00000000000E+00 0.  1.
         21    1    1    2  504  501  0.31739982195E+02 -0.18304123899E+02 -0.74638419375E+02  0.83146623914E+02  0.00000000000E+00 0.  1.
</event>
<event>
 4    1  0.3305068E+006  0.2012025E+02  0.7546771E-02  0.1532205E+00
         21   -1    0    0  503  501  0.00000000000E+00  0.00000000000E+00  0.27941534567E+02  0.27941534567E+02  0.00000000000E+00 0.  1.
         21   -1    0    0  504  502 -0.00000000000E+00 -0.00000000000E+00 -0.23905502114E+02  0.23905502114E+02  0.00000000000E+00 0.  1.
         21    1    1    2  503  502 -0.53124149040E+01 -0.19406252342E+02  0.18288735084E+02  0.27190112413E+02  0.00000000000E+00 0.  1.
         21    1    1    2  504  501  0.53124149040E+01  0.19406252342E+02 -0.14252702631E+02  0.24656924268E+02  0.00000000000E+00 0.  1.
</event>
<event>
 4    1  0.3305068E+006  0.2000706E+02  0.7546771E-02  0.1533928E+00
         21   -1    0    0  504  501  0.00000000000E+00  0.00000000000E+00  0.94650978069E+02  0.94650978069E+02  0.00000000000E+00 0.  1.
         21   -1    0    0  503  502 -0.00000000000E+00 -0.00000000000E+00 -0.17149023671E+02  0.17149023671E+02  0.00000000000E+00 0. -1.
         21    1    1    2  503  501 -0.15311898573E+02 -0.12877428146E+02 -0.97692878245E+01  0.22264801328E+02  0.00000000000E+00 0. -1.
         21    1    1    2  504  502  0.15311898573E+02  0.12877428146E+02  0.87271242223E+02  0.89535200412E+02  0.00000000000E+00 0.  1.
</event>
<event>
 4    1  0.3305068E+006  0.2062693E+02  0.7546771E-02  0.1524658E+00
         21   -1    0    0  504  501  0.00000000000E+00  0.00000000000E+00  0.25804919392E+03  0.25804919392E+03  0.00000000000E+00 0.  1.
         21   -1    0    0  501  502 -0.00000000000E+00 -0.00000000000E+00 -0.43934397250E+02  0.43934397250E+02  0.00000000000E+00 0. -1.
         21    1    1    2  503  502 -0.14840086573E+02 -0.14326279063E+02 -0.41074050056E+02  0.45962463264E+02  0.00000000000E+00 0. -1.
         21    1    1    2  504  503  0.14840086573E+02  0.14326279063E+02  0.25518884673E+03  0.25602112791E+03  0.00000000000E+00 0.  1.
</event>
<event>
 4    1  0.3305068E+006  0.3272634E+02  0.7546771E-02  0.1397293E+00
         21   -1    0    0  503  501  0.00000000000E+00  0.00000000000E+00  0.24828315471E+02  0.24828315471E+02  0.00000000000E+00 0.  1.
         21   -1    0    0  504  502 -0.00000000000E+00 -0.00000000000E+00 -0.12765700065E+03  0.12765700065E+03  0.00000000000E+00 0.  1.
         21    1    1    2  503  502 -0.53287103934E+01 -0.32289602148E+02  0.10623405345E+02  0.34407416388E+02  0.00000000000E+00 0.  1.
         21    1    1    2  504  501  0.53287103934E+01  0.32289602148E+02 -0.11345209052E+03  0.11807789973E+03  0.00000000000E+00 0.  1.
</event>
<event>
 4    1  0.3305068E+006  0.2187444E+02  0.7546771E-02  0.1507137E+00
         21   -1    0    0  503  501  0.00000000000E+00  0.00000000000E+00  0.26611709574E+01  0.26611709574E+01  0.00000000000E+00 0.  1.
         21   -1    0    0  504  502 -0.00000000000E+00 -0.00000000000E+00 -0.17982898983E+03  0.17982898983E+03  0.00000000000E+00 0.  1.
         21    1    1    2  503  502  0.17266437816E+02  0.13429865823E+02 -0.89643335624E+02  0.92273608322E+02  0.00000000000E+00 0.  1.
         21    1    1    2  504  501 -0.17266437816E+02 -0.13429865823E+02 -0.87524483246E+02  0.90216552463E+02  0.00000000000E+00 0.  1.
</event>
<event>
 4    1  0.3305068E+006  0.3500129E+02  0.7546771E-02  0.1380554E+00
         21   -1    0    0  502  501  0.00000000000E+00  0.00000000000E+00  0.14747971240E+02  0.14747971240E+02  0.00000000000E+00 0.  1.
         21   -1    0    0  504  502 -0.00000000000E+00 -0.00000000000E+00 -0.95916695901E+03  0.95916695901E+03  0.00000000000E+00 0. -1.
         21    1    1    2  503  501 -0.33791574243E+02  0.91224778920E+01 -0.68158894743E+01  0.35658749867E+02  0.00000000000E+00 0.  1.
         21    1    1    2  504  503  0.33791574243E+02 -0.91224778920E+01 -0.93760309830E+03  0.93825618038E+03  0.00000000000E+00 0. -1.
</event>
<event>
 4    1  0.3305068E+006  0.5117811E+02  0.7546771E-02  0.1293144E+00
         21   -1    0    0  503  501  0.00000000000E+00  0.00000000000E+00  0.11028735480E+02  0.11028735480E+02  0.00000000000E+00 0. -1.
         21   -1    0    0  504  502 -0.00000000000E+00 -0.00000000000E+00 -0.46088630839E+03  0.46088630839E+03  0.00000000000E+00 0.  1.
         21    1    1    2  503  502  0.51101396959E+02 -0.28010818134E+01 -0.38920560764E+03  0.39255598817E+03  0.00000000000E+00 0.  1.
         21    1    1    2  504  501 -0.51101396959E+02  0.28010818134E+01 -0.60651965274E+02  0.79359055703E+02  0.00000000000E+00 0. -1.
</event>
<event>
 4    1  0.3305068E+006  0.2591769E+02  0.7546771E-02  0.1458794E+00
         21   -1    0    0  502  501  0.00000000000E+00  0.00000000000E+00  0.11270996216E+02  0.11270996216E+02  0.00000000000E+00 0.  1.
         21   -1    0    0  503  502 -0.00000000000E+00 -0.00000000000E+00 -0.28707450160E+03  0.28707450160E+03  0.00000000000E+00 0.  1.
         21    1    1    2  503  504  0.25813015390E+02 -0.23269575532E+01 -0.27069030964E+03  0.27192824463E+03  0.00000000000E+00 0.  1.
         21    1    1    2  504  501 -0.25813015390E+02  0.23269575532E+01 -0.51131957400E+01  0.26417253182E+02  0.00000000000E+00 0.  1.
</event>
<event>
 4    1  0.3305068E+006  0.2725065E+02  0.7546771E-02  0.1445106E+00
         21   -1    0    0  502  501  0.00000000000E+00  0.00000000000E+00  0.47677791446E+01  0.47677791446E+01  0.00000000000E+00 0.  1.
         21   -1    0    0  504  502 -0.00000000000E+00 -0.00000000000E+00 -0.22656379275E+03  0.22656379275E+03  0.00000000000E+00 0.  1.
         21    1    1    2  503  501  0.27149422197E+02  0.23466663017E+01 -0.46234677503E+02  0.53667898899E+02  0.00000000000E+00 0.  1.
         21    1    1    2  504  503 -0.27149422197E+02 -0.23466663017E+01 -0.17556133610E+03  0.17766367299E+03  0.00000000000E+00 0.  1.
</event>
<event>
 4    1  0.3305068E+006  0.2082190E+02  0.7546771E-02  0.1521823E+00
         21   -1    0    0  504  501  0.00000000000E+00  0.00000000000E+00  0.61626331267E+02  0.61626331267E+02  0.00000000000E+00 0.  1.
         21   -1    0    0  503  502 -0.00000000000E+00 -0.00000000000E+00 -0.71757357172E+01  0.71757357172E+01  0.00000000000E+00 0.  1.
         21    1    1    2  503  501 -0.18213068324E+02  0.10091371580E+02  0.32040116643E+02  0.38211525913E+02  0.00000000000E+00 0.  1.
         21    1    1    2  504  502  0.18213068324E+02 -0.10091371580E+02  0.22410478907E+02  0.30590541071E+02  0.00000000000E+00 0.  1.
</event>
<event>
 4    1  0.3305068E+006  0.2393572E+02  0.7546771E-02  0.1481071E+00
         21   -1    0    0  504  501  0.00000000000E+00  0.00000000000E+00  0.18134435673E+02  0.18134435673E+02  0.00000000000E+00 0.  1.
         21   -1    0    0  503  502 -0.00000000000E+00 -0.00000000000E+00 -0.32936123119E+02  0.32936123119E+02  0.00000000000E+00 0. -1.
         21    1    1    2  503  501  0.18585742325E+02  0.15082733888E+02 -0.22439878574E+01  0.24040677212E+02  0.00000000000E+00 0.  1.
         21    1    1    2  504  502 -0.18585742325E+02 -0.15082733888E+02 -0.12557699589E+02  0.27029881580E+02  0.00000000000E+00 0. -1.
</event>
<event>
 4    1  0.3305068E+006  0.2227665E+02  0.7546771E-02  0.1501787E+00
         21   -1    0    0  504  501  0.00000000000E+00  0.00000000000E+00  0.92042240147E+02  0.92042240147E+02  0.00000000000E+00 0.  1.
         21   -1    0    0  503  502 -0.00000000000E+00 -0.00000000000E+00 -0.89189919316E+01  0.89189919316E+01  0.00000000000E+00 0.  1.
         21    1    1    2  503  501 -0.11412323498E+02 -0.19131330365E+02  0.98149933525E+01  0.24343028235E+02  0.00000000000E+00 0.  1.
         21    1    1    2  504  502  0.11412323498E+02  0.19131330365E+02  0.73308254863E+02  0.76618203844E+02  0.00000000000E+00 0.  1.
</event>
<event>
 4    1  0.3305068E+006  0.2225198E+02  0.7546771E-02  0.1502111E+00
         21   -1    0    0  504  501  0.00000000000E+00  0.00000000000E+00  0.12654857065E+02  0.12654857065E+02  0.00000000000E+00 0. -1.
         21   -1    0    0  503  502 -0.00000000000E+00 -0.00000000000E+00 -0.11737736876E+04  0.11737736876E+04  0.00000000000E+00 0.  1.
         21    1    1    2  503  501  0.18226614703E+02 -0.12764841066E+02  0.26837656574E+01  0.22413238255E+02  0.00000000000E+00 0. -1.
         21    1    1    2  504  502 -0.18226614703E+02  0.12764841066E+02 -0.11638025962E+04  0.11640153064E+04  0.00000000000E+00 0.  1.
</event>
<event>
 4    1  0.3305068E+006  0.2920569E+02  0.7546771E-02  0.1426627E+00
         21   -1    0    0  503  501  0.00000000000E+00  0.00000000000E+00  0.21845481496E+02  0.21845481496E+02  0.00000000000E+00 0. -1.
         21   -1    0    0  504  502 -0.00000000000E+00 -0.00000000000E+00 -0.23552809233E+03  0.23552809233E+03  0.00000000000E+00 0. -1.
         21    1    1    2  503  502 -0.14624155947E+02 -0.25280549356E+02  0.10695645170E+02  0.31102555176E+02  0.00000000000E+00 0. -1.
         21    1    1    2  504  501  0.14624155947E+02  0.25280549356E+02 -0.22437825600E+03  0.22627101865E+03  0.00000000000E+00 0. -1.
</event>
<event>
 4    1  0.3305068E+006  0.3181226E+02  0.7546771E-02  0.1404475E+00
         21   -1    0    0  503  501  0.00000000000E+00  0.00000000000E+00  0.10044509602E+03  0.10044509602E+03  0.00000000000E+00 0.  1.
         21   -1    0    0  504  502 -0.00000000000E+00 -0.00000000000E+00 -0.11994342528E+02  0.11994342528E+02  0.00000000000E+00 0. -1.
         21    1    1    2  503  502  0.35928047107E+01 -0.31608722725E+02  0.66712659393E+02  0.73909393999E+02  0.00000000000E+00 0.  1.
         21    1    1    2  504  501 -0.35928047107E+01  0.31608722725E+02  0.21738094100E+02  0.38530044551E+02  0.00000000000E+00 0. -1.
</event>
<event>
 4    1  0.3305068E+006  0.2544176E+02  0.7546771E-02  0.1463922E+00
         21   -1    0    0  504  501  0.00000000000E+00  0.00000000000E+00  0.39968594056E+02  0.39968594056E+02  0.00000000000E+00 0. -1.
         21   -1    0    0  503  502 -0.00000000000E+00 -0.00000000000E+00 -0.98265317454E+02  0.98265317454E+02  0.00000000000E+00 0.  1.
         21    1    1    2  503  501  0.39711112171E+01 -0.25129932978E+02  0.34016865882E+02  0.42478587785E+02  0.00000000000E+00 0. -1.
         21    1    1    2  504  502 -0.39711112171E+01  0.25129932978E+02 -0.92313589281E+02  0.95755323725E+02  0.00000000000E+00 0.  1.
</event>
<event>
 4    1  0.3305068E+006  0.2127719E+02  0.7546771E-02  0.1515344E+00
         21   -1    0    0  503  501  0.00000000000E+00  0.00000000000E+00  0.24792808559E+02  0.24792808559E+02  0.00000000000E+00 0.  1.
         21   -1    0    0  501  502 -0.00000000000E+00 -0.00000000000E+00 -0.41298249100E+02  0.41298249100E+02  0.00000000000E+00 0.  1.
         21    1    1    2  503  504 -0.11685517377E+02  0.17781099050E+02  0.16428738076E+02  0.26881633778E+02  0.00000000000E+00 0.  1.
         21    1    1    2  504  502  0.11685517377E+02 -0.17781099050E+02 -0.32934178617E+02  0.39209423880E+02  0.00000000000E+00 0.  1.
</event>
<event>
 4    1  0.3305068E+006  0.3817012E+02  0.7546771E-02  0.1359556E+00
         21   -1    0    0  502  501  0.00000000000E+00  0.00000000000E+00  0.32079976635E+02  0.32079976635E+02  0.00000000000E+00 0. -1.
         21   -1    0    0  504  502 -0.00000000000E+00 -0.00000000000E+00 -0.81545614094E+02  0.81545614094E+02  0.00000000000E+00 0.  1.
         21    1    1    2  503  501  0.36315807256E+02  0.11752460445E+02  0.13083121233E+02  0.40350046398E+02  0.00000000000E+00 0. -1.
         21    1    1    2  504  503 -0.36315807256E+02 -0.11752460445E+02 -0.62548758691E+02  0.73275544331E+02  0.00000000000E+00 0.  1.
</event>
<event>
 4    1  0.3305068E+006  0.2783838E+02  0.7546771E-02  0.1439363E+00
         21   -1    0    0  504  501  0.00000000000E+00  0.00000000000E+00  0.71141133366E+01  0.71141133366E+01  0.00000000000E+00 0.  1.
         21   -1    0    0  503  502 -0.00000000000E+00 -0.00000000000E+00 -0.16382877458E+03  0.16382877458E+03  0.00000000000E+00 0.  1.
         21    1    1    2  503  501 -0.26749723769E+02  0.77089409482E+01 -0.28882109509E+02  0.40114233658E+02  0.00000000000E+00 0.  1.
         21    1    1    2  504  502  0.26749723769E+02 -0.77089409482E+01 -0.12783255174E+03  0.13082865426E+03  0.00000000000E+00 0.  1.
</event>
<event>
 4    1  0.3305068E+006  0.2741890E+02  0.7546771E-02  0.1443445E+00
         21   -1    0    0  502  501  0.00000000000E+00  0.00000000000E+00  0.85310160829E+01  0.85310160829E+01  0.00000000000E+00 0. -1.
         21   -1    0    0  503  502 -0.00000000000E+00 -0.00000000000E+00 -0.25309930655E+03  0.25309930655E+03  0.00000000000E+00 0. -1.
         21    1    1    2  503  504 -0.14558780557E+02 -0.23234410696E+02 -0.22789796198E+03  0.22954144943E+03  0.00000000000E+00 0. -1.
         21    1    1    2  504  501  0.14558780557E+02  0.23234410696E+02 -0.16670328492E+02  0.32088873208E+02  0.00000000000E+00 0. -1.
</event>
<event>
 4    1  0.3305068E+006  0.3029335E+02  0.7546771E-02  0.1417064E+00
         21   -1    0    0  503  501  0.00000000000E+00  0.00000000000E+00  0.47207135972E+03  0.47207135972E+03  0.00000000000E+00 0. -1.
         21   -1    0    0  504  502 -0.00000000000E+00 -0.00000000000E+00 -0.20136428961E+01  0.20136428961E+01  0.00000000000E+00 0.  1.
         21    1    1    2  503  502  0.27586927087E+01  0.30167473182E+02  0.19093228920E+03  0.19332052629E+03  0.00000000000E+00 0.  1.
         21    1    1    2  504  501 -0.27586927087E+01 -0.30167473182E+02  0.27912542762E+03  0.28076447633E+03  0.00000000000E+00 0. -1.
</event>
<event>
 4    1  0.3305068E+006  0.2018990E+02  0.7546771E-02  0.1531152E+00
         21   -1    0    0  504  501  0.00000000000E+00  0.00000000000E+00  0.29432263462E+02  0.29432263462E+02  0.00000000000E+00 0. -1.
         21   -1    0    0  503  502 -0.00000000000E+00 -0.00000000000E+00 -0.43389877727E+03  0.43389877727E+03  0.00000000000E+00 0.  1.
         21    1    1    2  503  501  0.15304984459E+02  0.13167747066E+02  0.25704953095E+02  0.32686032578E+02  0.00000000000E+00 0. -1.
         21    1    1    2  504  502 -0.15304984459E+02 -0.13167747066E+02 -0.43017146690E+03  0.43064500815E+03  0.00000000000E+00 0.  1.
</event>
<event>
 4    1  0.3305068E+006  0.5619869E+02  0.7546771E-02  0.1273325E+00
         21   -1    0    0  504  501  0.00000000000E+00  0.00000000000E+00  0.60405420631E+02  0.60405420631E+02  0.00000000000E+00 0.  1.
         21   -1    0    0  503  502 -0.00000000000E+00 -0.00000000000E+00 -0.30519079406E+03  0.30519079406E+03  0.00000000000E+00 0. -1.
         21    1    1    2  503  501 -0.55917817618E+02 -0.56115923040E+01 -0.28879733081E+03  0.29421453155E+03  0.00000000000E+00 0. -1.
         21    1    1    2  504  502  0.55917817618E+02  0.56115923040E+01  0.44011957379E+02  0.71381683139E+02  0.00000000000E+00 0.  1.
</event>
<event>
 4    1  0.3305068E+006  0.3307561E+02  0.7546771E-02  0.1394621E+00
         21   -1    0    0  504  501  0.00000000000E+00  0.00000000000E+00  0.97182590052E+01  0.97182590052E+01  0.00000000000E+00 0. -1.
         21   -1    0    0  503  502 -0.00000000000E+00 -0.00000000000E+00 -0.11291086243E+03  0.11291086243E+03  0.00000000000E+00 0. -1.
         21    1    1    2  503  501  0.26839999406E+02 -0.19329005061E+02 -0.54959282169E+02  0.64144514195E+02  0.00000000000E+00 0. -1.
         21    1    1    2  504  502 -0.26839999406E+02  0.19329005061E+02 -0.48233321258E+02  0.58484607243E+02  0.00000000000E+00 0. -1.
</event>
<event>
 4    1  0.3305068E+006  0.2895302E+02  0.7546771E-02  0.1428918E+00
         21   -1    0    0  504  501  0.00000000000E+00  0.00000000000E+00  0.83098423104E+03  0.83098423104E+03  0.00000000000E+00 0. -1.
         21   -1    0    0  501  502 -0.00000000000E+00 -0.00000000000E+00 -0.10282643212E+01  0.10282643212E+01  0.00000000000E+00 0. -1.
         21    1    1    2  503  502 -0.92300002169E+01  0.27442384720E+02  0.35770776255E+03  0.35887758466E+03  0.00000000000E+00 0. -1.
         21    1    1    2  504  503  0.92300002169E+01 -0.27442384720E+02  0.47224820417E+03  0.47313491070E+03  0.00000000000E+00 0. -1.
</event>
<event>
 4    1  0.3305068E+006  0.2015427E+02  0.7546771E-02  0.1531690E+00
         21   -1    0    0  504  501  0.00000000000E+00  0.00000000000E+00  0.37076413288E+02  0.37076413288E+02  0.00000000000E+00 0. -1.
         21   -1    0    0  503  502 -0.00000000000E+00 -0.00000000000E+00 -0.26878891268E+03  0.26878891268E+03  0.00000000000E+00 0. -1.
         21    1    1    2  503  501 -0.11578109948E+02 -0.16496730557E+02 -0.26563978638E+03  0.26640324858E+03  0.00000000000E+00 0. -1.
         21    1    1    2  504  502  0.11578109948E+02  0.16496730557E+02  0.33927286988E+02  0.39462077383E+02  0.00000000000E+00 0. -1.
</event>
<event>
 4    1  0.3305068E+006  0.3246584E+02  0.7546771E-02  0.1399312E+00
         21   -1    0    0  503  501  0.00000000000E+00  0.00000000000E+00  0.31203628090E+01  0.31203628090E+01  0.00000000000E+00 0.  1.
         21   -1    0    0  504  502 -0.00000000000E+00 -0.00000000000E+00 -0.56238127749E+03  0.56238127749E+03  0.00000000000E+00 0. -1.
         21    1    1    2  503  502  0.10440376617E+02 -0.30741324200E+02 -0.10094717527E+03  0.10603943923E+03  0.00000000000E+00 0.  1.
         21    1    1    2  504  501 -0.10440376617E+02  0.30741324200E+02 -0.45831373941E+03  0.45946220107E+03  0.00000000000E+00 0. -1.
</event>
<event>
 4    1  0.3305068E+006  0.3933814E+02  0.7546771E-02  0.1352409E+00
         21   -1    0    0  503  501  0.00000000000E+00  0.00000000000E+00  0.11017083297E+03  0.11017083297E+03  0.00000000000E+00 0. -1.
         21   -1    0    0  504  502 -0.00000000000E+00 -0.00000000000E+00 -0.15056120551E+02  0.15056120551E+02  0.00000000000E+00 0. -1.
         21    1    1    2  503  502  0.22921891877E+02 -0.31969923406E+02  0.63773220347E+02  0.74930052470E+02  0.00000000000E+00 0. -1.
         21    1    1    2  504  501 -0.22921891877E+02  0.31969923406E+02  0.31341492068E+02  0.50296901046E+02  0.00000000000E+00 0. -1.
</event>
<event>
 4    1  0.3305068E+006  0.2978410E+02  0.7546771E-02  0.1421482E+00
         21   -1    0    0  504  501  0.00000000000E+00  0.00000000000E+00  0.70734911132E+03  0.70734911132E+03  0.00000000000E+00 0. -1.
         21   -1    0    0  501  502 -0.00000000000E+00 -0.00000000000E+00 -0.29198539771E+01  0.29198539771E+01  0.00000000000E+00 0. -1.
         21    1    1    2  503  502 -0.23553057537E+02 -0.18230359135E+02  0.83978914252E+02  0.89104155641E+02  0.00000000000E+00 0. -1.
         21    1    1    2  504  503  0.23553057537E+02  0.18230359135E+02  0.62045034309E+03  0.62116480965E+03  0.00000000000E+00 0. -1.
</event>
<event>
 4    1  0.3305068E+006  0.2147810E+02  0.7546771E-02  0.1512547E+00
         21   -1    0    0  503  501  0.00000000000E+00  0.00000000000E+00  0.28078521568E+03  0.28078521568E+03  0.00000000000E+00 0.  1.
         21   -1    0    0  504  502 -0.00000000000E+00 -0.00000000000E+00 -0.16731927415E+01  0.16731927415E+01  0.00000000000E+00 0.  1.
         21    1    1    2  503  502 -0.12740335997E+02 -0.17291398959E+02  0.15855156880E+03  0.15999971440E+03  0.00000000000E+00 0.  1.
         21    1    1    2  504  501  0.12740335997E+02  0.17291398959E+02  0.12056045414E+03  0.12245869402E+03  0.00000000000E+00 0.  1.
</event>
<event>
 4    1  0.3305068E+006  0.2606681E+02  0.7546771E-02  0.1457214E+00
         21   -1    0    0  503  501  0.00000000000E+00  0.00000000000E+00  0.83223346537E+01  0.83223346537E+01  0.00000000000E+00 0.  1.
         21   -1    0    0  504  502 -0.00000000000E+00 -0.00000000000E+00 -0.92476995017E+02  0.92476995017E+02  0.00000000000E+00 0. -1.
         21    1    1    2  503  502 -0.24094608445E+02 -0.99462674549E+01 -0.59326241777E+02  0.64800319103E+02  0.00000000000E+00 0.  1.
         21    1    1    2  504  501  0.24094608445E+02  0.99462674549E+01 -0.24828418587E+02  0.35999010568E+02  0.00000000000E+00 0. -1.
</event>
<event>
 4    1  0.3305068E+006  0.2041080E+02  0.7546771E-02  0.1527846E+00
         21   -1    0    0  504  501  0.00000000000E+00  0.00000000000E+00  0.67373491869E+01  0.67373491869E+01  0.00000000000E+00 0. -1.
         21   -1    0    0  501  502 -0.00000000000E+00 -0.00000000000E+00 -0.22179738566E+03  0.22179738566E+03  0.00000000000E+00 0. -1.
         21    1    1    2  503  502 -0.17356138033E+02  0.10740820479E+02 -0.20457064627E+03  0.20558635672E+03  0.00000000000E+00 0. -1.
         21    1    1    2  504  503  0.17356138033E+02 -0.10740820479E+02 -0.10489390201E+02  0.22948378130E+02  0.00000000000E+00 0. -1.
</event>
<event>
 4    1  0.3305068E+006  0.2126519E+02  0.7546771E-02  0.1515512E+00
         21   -1    0    0  502  501  0.00000000000E+00  0.00000000000E+00  0.18243389301E+03  0.18243389301E+03  0.00000000000E+00 0.  1.
         21   -1    0    0  503  502 -0.00000000000E+00 -0.00000000000E+00 -0.49738368049E+01  0.49738368049E+01  0.00000000000E+00 0.  1.
         21    1    1    2  503  504 -0.21253020418E+02 -0.71932298228E+00  0.22362685325E+02  0.30859325938E+02  0.00000000000E+00 0.  1.
         21    1    1    2  504  501  0.21253020418E+02  0.71932298228E+00  0.15509737088E+03  0.15654840388E+03  0.00000000000E+00 0.  1.
</event>
<event>
 4    1  0.3305068E+006  0.4387399E+02  0.7546771E-02  0.1327167E+00
         21   -1    0    0  504  501  0.00000000000E+00  0.00000000000E+00  0.18918897411E+03  0.18918897411E+03  0.00000000000E+00 0. -1.
         21   -1    0    0  503  502 -0.00000000000E+00 -0.00000000000E+00 -0.25533453726E+03  0.25533453726E+03  0.00000000000E+00 0. -1.
         21    1    1    2  503  501  0.17566855077E+02  0.40203641477E+02  0.18471558937E+03  0.18985461844E+03  0.00000000000E+00 0. -1.
         21    1    1    2  504  502 -0.17566855077E+02 -0.40203641477E+02 -0.25086115252E+03  0.25466889294E+03  0.00000000000E+00 0. -1.
</event>
<event>
 4    1  0.3305068E+006  0.2084970E+02  0.7546771E-02  0.1521422E+00
         21   -1    0    0  504  501  0.00000000000E+00  0.00000000000E+00  0.60716941934E+01  0.60716941934E+01  0.00000000000E+00 0. -1.
         21   -1    0    0  503  502 -0.00000000000E+00 -0.00000000000E+00 -0.43144969650E+03  0.43144969650E+03  0.00000000000E+00 0.  1.
         21    1    1    2  503  501  0.16604333678E+02 -0.12609763036E+02 -0.41247594138E+03  0.41300255718E+03  0.00000000000E+00 0.  1.
         21    1    1    2  504  502 -0.16604333678E+02  0.12609763036E+02 -0.12902060930E+02  0.24518833516E+02  0.00000000000E+00 0. -1.
</event>
<event>
 4    1  0.3305068E+006  0.1032776E+03  0.7546771E-02  0.1158247E+00
         21   -1    0    0  503  501  0.00000000000E+00  0.00000000000E+00  0.30229737699E+04  0.30229737699E+04  0.00000000000E+00 0.  1.
         21   -1    0    0  504  502 -0.00000000000E+00 -0.00000000000E+00 -0.35477688125E+01  0.35477688125E+01  0.00000000000E+00 0.  1.
         21    1    1    2  503  502 -0.10198665777E+03  0.16278510440E+02  0.16215175227E+04  0.16248031710E+04  0.00000000000E+00 0.  1.
         21    1    1    2  504  501  0.10198665777E+03 -0.16278510440E+02  0.13979084784E+04  0.14017183676E+04  0.00000000000E+00 0.  1.
</event>
<event>
 4    1  0.3305068E+006  0.2098287E+02  0.7546771E-02  0.1519509E+00
         21   -1    0    0  504  501  0.00000000000E+00  0.00000000000E+00  0.22685416604E+02  0.22685416604E+02  0.00000000000E+00 0.  1.
         21   -1    0    0  501  502 -0.00000000000E+00 -0.00000000000E+00 -0.33091272133E+02  0.33091272133E+02  0.00000000000E+00 0.  1.
         21    1    1    2  503  502  0.19542137572E+02  0.76410645972E+01 -0.23136188948E+02  0.31234023886E+02  0.00000000000E+00 0.  1.
         21    1    1    2  504  503 -0.19542137572E+02 -0.76410645972E+01  0.12730333419E+02  0.24542664852E+02  0.00000000000E+00 0.  1.
</event>
<event>
 4    1  0.3305068E+006  0.6327273E+02  0.7546771E-02  0.1249101E+00
         21   -1    0    0  502  501  0.00000000000E+00  0.00000000000E+00  0.15569168787E+03  0.15569168787E+03  0.00000000000E+00 0. -1.
         21   -1    0    0  503  502 -0.00000000000E+00 -0.00000000000E+00 -0.60604467484E+02  0.60604467484E+02  0.00000000000E+00 0. -1.
         21    1    1    2  503  504  0.12259302387E+02 -0.62073728923E+02 -0.34514325634E+02  0.72074107635E+02  0.00000000000E+00 0. -1.
         21    1    1    2  504  501 -0.12259302387E+02  0.62073728923E+02  0.12960154602E+03  0.14422204772E+03  0.00000000000E+00 0. -1.
</event>
<event>
 4    1  0.3305068E+006  0.2448394E+02  0.7546771E-02  0.1474660E+00
         21   -1    0    0  503  501  0.00000000000E+00  0.00000000000E+00  0.10037093439E+02  0.10037093439E+02  0.00000000000E+00 0. -1.
         21   -1    0    0  504  502 -0.00000000000E+00 -0.00000000000E+00 -0.73087323084E+02  0.73087323084E+02  0.00000000000E+00 0. -1.
         21    1    1    2  503  502  0.23146774212E+02 -0.79806091913E+01 -0.13753699651E+02  0.28082512950E+02  0.00000000000E+00 0. -1.
         21    1    1    2  504  501 -0.23146774212E+02  0.79806091913E+01 -0.49296529994E+02  0.55041903573E+02  0.00000000000E+00 0. -1.
</event>
<event>
 4    1  0.3305068E+006  0.2693726E+02  0.7546771E-02  0.1448239E+00
         21   -1    0    0  503  501  0.00000000000E+00  0.00000000000E+00  0.28684898526E+02  0.28684898526E+02  0.00000000000E+00 0. -1.
         21   -1    0    0  504  502 -0.00000000000E+00 -0.00000000000E+00 -0.48102611434E+02  0.48102611434E+02  0.00000000000E+00 0. -1.
         21    1    1    2  503  502 -0.15219826463E+02  0.22225499111E+02  0.16727751804E+02  0.31708573111E+02  0.00000000000E+00 0. -1.
         21    1    1    2  504  501  0.15219826463E+02 -0.22225499111E+02 -0.36145464711E+02  0.45078936850E+02  0.00000000000E+00 0. -1.
</event>
<event>
 4    1  0.3305068E+006  0.8539210E+02  0.7546771E-02  0.1191854E+00
         21   -1    0    0  504  501  0.00000000000E+00  0.00000000000E+00  0.45006280689E+03  0.45006280689E+03  0.00000000000E+00 0. -1.
         21   -1    0    0  503  502 -0.00000000000E+00 -0.00000000000E+00 -0.64694050250E+02  0.64694050250E+02  0.00000000000E+00 0.  1.
         21    1    1    2  503  501  0.66664633522E+02  0.53363255106E+02 -0.30146983501E+02  0.90557445703E+02  0.00000000000E+00 0.  1.
         21    1    1    2  504  502 -0.66664633522E+02 -0.53363255106E+02  0.41551574014E+03  0.42419941144E+03  0.00000000000E+00 0. -1.
</event>
<event>
 4    1  0.3305068E+006  0.2137046E+02  0.7546771E-02  0.1514041E+00
         21   -1    0    0  504  501  0.00000000000E+00  0.00000000000E+00  0.72486396357E+01  0.72486396357E+01  0.00000000000E+00 0. -1.
         21   -1    0    0  503  502 -0.00000000000E+00 -0.00000000000E+00 -0.16685461403E+03  0.16685461403E+03  0.00000000000E+00 0.  1.
         21    1    1    2  503  501 -0.15934320894E+02 -0.14240577562E+02 -0.11125981429E+02  0.24093237525E+02  0.00000000000E+00 0. -1.
         21    1    1    2  504  502  0.15934320894E+02  0.14240577562E+02 -0.14847999296E+03  0.15001001614E+03  0.00000000000E+00 0.  1.
</event>
<event>
 4    1  0.3305068E+006  0.2240085E+02  0.7546771E-02  0.1500162E+00
         21   -1    0    0  504  501  0.00000000000E+00  0.00000000000E+00  0.18141740406E+02  0.18141740406E+02  0.00000000000E+00 0. -1.
         21   -1    0    0  503  502 -0.00000000000E+00 -0.00000000000E+00 -0.29087286255E+02  0.29087286255E+02  0.00000000000E+00 0. -1.
         21    1    1    2  503  501 -0.15950604142E+02 -0.15728200378E+02 -0.24154387898E+00  0.22402151751E+02  0.00000000000E+00 0. -1.
         21    1    1    2  504  502  0.15950604142E+02  0.15728200378E+02 -0.10704001970E+02  0.24826874910E+02  0.00000000000E+00 0. -1.
</event>
<event>
 4    1  0.3305068E+006  0.6267710E+02  0.7546771E-02  0.1250998E+00
         21   -1    0    0  503  501  0.00000000000E+00  0.00000000000E+00  0.26013135121E+03  0.26013135121E+03  0.00000000000E+00 0. -1.
         21   -1    0    0  504  502 -0.00000000000E+00 -0.00000000000E+00 -0.15693924474E+02  0.15693924474E+02  0.00000000000E+00 0. -1.
         21    1    1    2  503  502  0.26556808798E+01 -0.62620814892E+02  0.14900982059E+03  0.16165502075E+03  0.00000000000E+00 0. -1.
         21    1    1    2  504  501 -0.26556808798E+01  0.62620814892E+02  0.95427606139E+02  0.11417025494E+03  0.00000000000E+00 0. -1.
</event>
<event>
 4    1  0.3305068E+006  0.2503570E+02  0.7546771E-02  0.1468404E+00
         21   -1    0    0  502  501  0.00000000000E+00  0.00000000000E+00  0.14035054786E+02  0.14035054786E+02  0.00000000000E+00 0. -1.
         21   -1    0    0  503  502 -0.00000000000E+00 -0.00000000000E+00 -0.10385165281E+03  0.10385165281E+03  0.00000000000E+00 0. -1.
         21    1    1    2  503  504  0.33756767601E+01 -0.24807080530E+02 -0.89408642661E+02  0.92847680749E+02  0.00000000000E+00 0. -1.
         21    1    1    2  504  501 -0.33756767601E+01  0.24807080530E+02 -0.40795536650E+00  0.25039026850E+02  0.00000000000E+00 0. -1.
</event>
<event>
 4    1  0.3305068E+006  0.2319928E+02  0.7546771E-02  0.1490011E+00
         21   -1    0    0  504  501  0.00000000000E+00  0.00000000000E+00  0.79602387874E+02  0.79602387874E+02  0.00000000000E+00 0. -1.
         21   -1    0    0  503  502 -0.00000000000E+00 -0.00000000000E+00 -0.12699995971E+02  0.12699995971E+02  0.00000000000E+00 0. -1.
         21    1    1    2  503  501 -0.17352477471E+02  0.15397990816E+02  0.18916443581E+01  0.23276273626E+02  0.00000000000E+00 0. -1.
         21    1    1    2  504  502  0.17352477471E+02 -0.15397990816E+02  0.65010747545E+02  0.69026110219E+02  0.00000000000E+00 0. -1.
</event>
<event>
 4    1  0.3305068E+006  0.2068517E+02  0.7546771E-02  0.1523808E+00
         21   -1    0    0  502  501  0.00000000000E+00  0.00000000000E+00  0.38356758128E+03  0.38356758128E+03  0.00000000000E+00 0. -1.
         21   -1    0    0  503  502 -0.00000000000E+00 -0.00000000000E+00 -0.18418205948E+01  0.18418205948E+01  0.00000000000E+00 0.  1.
         21    1    1    2  503  504  0.32855361014E+01 -0.20422570444E+02  0.69851068257E+02  0.72849487765E+02  0.00000000000E+00 0.  1.
         21    1    1    2  504  501 -0.32855361014E+01  0.20422570444E+02  0.31187469242E+03  0.31255991411E+03  0.00000000000E+00 0. -1.
</event>
<event>
 4    1  0.3305068E+006  0.2636364E+02  0.7546771E-02  0.1454107E+00
         21   -1    0    0  503  501  0.00000000000E+00  0.00000000000E+00  0.34320411012E+02  0.34320411012E+02  0.00000000000E+00 0. -1.
         21   -1    0    0  504  502 -0.00000000000E+00 -0.00000000000E+00 -0.40723653186E+02  0.40723653186E+02  0.00000000000E+00 0. -1.
         21    1    1    2  503  502  0.20050493634E+02  0.17117798836E+02  0.23402215680E+02  0.35252021654E+02  0.00000000000E+00 0. -1.
         21    1    1    2  504  501 -0.20050493634E+02 -0.17117798836E+02 -0.29805457854E+02  0.39792042544E+02  0.00000000000E+00 0. -1.
</event>
<event>
 4    1  0.3305068E+006  0.2058372E+02  0.7546771E-02  0.1525292E+00
         21   -1    0    0  503  501  0.00000000000E+00  0.00000000000E+00  0.15432494351E+02  0.15432494351E+02  0.00000000000E+00 0. -1.
         21   -1    0    0  504  502 -0.00000000000E+00 -0.00000000000E+00 -0.53023274486E+03  0.53023274486E+03  0.00000000000E+00 0. -1.
         21    1    1    2  503  502 -0.58422054091E+01 -0.19737223174E+02 -0.52307550961E+03  0.52348035121E+03  0.00000000000E+00 0. -1.
         21    1    1    2  504  501  0.58422054091E+01  0.19737223174E+02  0.82752591007E+01  0.22184888007E+02  0.00000000000E+00 0. -1.
</event>
<event>
 4    1  0.3305068E+006  0.2418102E+02  0.7546771E-02  0.1478178E+00
         21   -1    0    0  503  501  0.00000000000E+00  0.00000000000E+00  0.71901892453E+03  0.71901892453E+03  0.00000000000E+00 0.  1.
         21   -1    0    0  504  502 -0.00000000000E+00 -0.00000000000E+00 -0.93884196989E+01  0.93884196989E+01  0.00000000000E+00 0. -1.
         21    1    1    2  503  502  0.41302139334E+01 -0.23825679829E+02  0.70288810646E+03  0.70330392569E+03  0.00000000000E+00 0.  1.
         21    1    1    2  504  501 -0.41302139334E+01  0.23825679829E+02  0.67423983667E+01  0.25103418536E+02  0.00000000000E+00 0. -1.
</event>
<event>
 4    1  0.3305068E+006  0.2074167E+02  0.7546771E-02  0.1522985E+00
         21   -1    0    0  503  501  0.00000000000E+00  0.00000000000E+00  0.61955160431E+01  0.61955160431E+01  0.00000000000E+00 0. -1.
         21   -1    0    0  504  502 -0.00000000000E+00 -0.00000000000E+00 -0.71065376766E+02  0.71065376766E+02  0.00000000000E+00 0. -1.
         21    1    1    2  503  502 -0.16645461381E+02 -0.12375201103E+02 -0.38277045464E+02  0.43535608373E+02  0.00000000000E+00 0. -1.
         21    1    1    2  504  501  0.16645461381E+02  0.12375201103E+02 -0.26592815258E+02  0.33725284436E+02  0.00000000000E+00 0. -1.
</event>
<event>
 4    1  0.3305068E+006  0.2213825E+02  0.7546771E-02  0.1503612E+00
         21   -1    0    0  503  501  0.00000000000E+00  0.00000000000E+00  0.12612561454E+03  0.12612561454E+03  0.00000000000E+00 0.  1.
         21   -1    0    0  504  502 -0.00000000000E+00 -0.00000000000E+00 -0.16820286110E+03  0.16820286110E+03  0.00000000000E+00 0. -1.
         21    1    1    2  503  502 -0.19140827538E+02 -0.11123434207E+02  0.12441578651E+03  0.12637005183E+03  0.00000000000E+00 0.  1.
         21    1    1    2  504  501  0.19140827538E+02  0.11123434207E+02 -0.16649303307E+03  0.16795842381E+03  0.00000000000E+00 0. -1.
</event>
<event>
 4    1  0.3305068E+006  0.2770165E+02  0.7546771E-02  0.1440684E+00
         21   -1    0    0  504  501  0.00000000000E+00  0.00000000000E+00  0.53487894935E+02  0.53487894935E+02  0.00000000000E+00 0.  1.
         21   -1    0    0  503  502 -0.00000000000E+00 -0.00000000000E+00 -0.15492871976E+02  0.15492871976E+02  0.00000000000E+00 0.  1.
         21    1    1    2  503  501 -0.10421820120E+02 -0.25666453128E+02  0.96168299723E+01  0.29323447436E+02  0.00000000000E+00 0.  1.
         21    1    1    2  504  502  0.10421820120E+02  0.25666453128E+02  0.28378192987E+02  0.39657319476E+02  0.00000000000E+00 0.  1.
</event>
<event>
 4    1  0.3305068E+006  0.2032122E+02  0.7546771E-02  0.1529181E+00
         21   -1    0    0  503  501  0.00000000000E+00  0.00000000000E+00  0.43086293830E+03  0.43086293830E+03  0.00000000000E+00 0. -1.
         21   -1    0    0  504  502 -0.00000000000E+00 -0.00000000000E+00 -0.47332842708E+01  0.47332842708E+01  0.00000000000E+00 0.  1.
         21    1    1    2  503  502  0.20255244572E+02  0.16361369886E+01  0.40756631238E+03  0.40807260489E+03  0.00000000000E+00 0. -1.
         21    1    1    2  504  501 -0.20255244572E+02 -0.16361369886E+01  0.18563341649E+02  0.27523617678E+02  0.00000000000E+00 0.  1.
</event>
<event>
 4    1  0.3305068E+006  0.2689232E+02  0.7546771E-02  0.1448693E+00
         21   -1    0    0  504  501  0.00000000000E+00  0.00000000000E+00  0.88754836093E+01  0.88754836093E+01  0.00000000000E+00 0.  1.
         21   -1    0    0  503  502 -0.00000000000E+00 -0.00000000000E+00 -0.81506909933E+02  0.81506909933E+02  0.00000000000E+00 0. -1.
         21    1    1    2  503  501  0.18183190694E+02  0.19813345785E+02 -0.35534559726E+02  0.44563460705E+02  0.00000000000E+00 0.  1.
         21    1    1    2  504  502 -0.18183190694E+02 -0.19813345785E+02 -0.37096866597E+02  0.45818932837E+02  0.00000000000E+00 0. -1.
</event>
<event>
 4    1  0.3305068E+006  0.2783949E+02  0.7546771E-02  0.1439353E+00
         21   -1    0    0  504  501  0.00000000000E+00  0.00000000000E+00  0.66051358500E+02  0.66051358500E+02  0.00000000000E+00 0. -1.
         21   -1    0    0  503  502 -0.00000000000E+00 -0.00000000000E+00 -0.14682508239E+02  0.14682508239E+02  0.00000000000E+00 0. -1.
         21    1    1    2  503  501  0.27339710454E+02  0.52513968842E+01  0.75944644349E+01  0.28856763973E+02  0.00000000000E+00 0. -1.
         21    1    1    2  504  502 -0.27339710454E+02 -0.52513968842E+01  0.43774385825E+02  0.51877102766E+02  0.00000000000E+00 0. -1.
</event>
<event>
 4    1  0.3305068E+006  0.5466191E+02  0.7546771E-02  0.1279134E+00
         21   -1    0    0  504  501  0.00000000000E+00  0.00000000000E+00  0.11854881411E+03  0.11854881411E+03  0.00000000000E+00 0.  1.
         21   -1    0    0  503  502 -0.00000000000E+00 -0.00000000000E+00 -0.16832916269E+03  0.16832916269E+03  0.00000000000E+00 0.  1.
         21    1    1    2  503  501  0.13953719740E+02  0.52850901638E+02  0.10737492904E+03  0.12048775658E+03  0.00000000000E+00 0.  1.
         21    1    1    2  504  502 -0.13953719740E+02 -0.52850901638E+02 -0.15715527763E+03  0.16639022022E+03  0.00000000000E+00 0.  1.
</event>
<event>
 4    1  0.3305068E+006  0.2184302E+02  0.7546771E-02  0.1507561E+00
         21   -1    0    0  503  501  0.00000000000E+00  0.00000000000E+00  0.14959148683E+02  0.14959148683E+02  0.00000000000E+00 0. -1.
         21   -1    0    0  501  502 -0.00000000000E+00 -0.00000000000E+00 -0.43454642908E+02  0.43454642908E+02  0.00000000000E+00 0. -1.
         21    1    1    2  503  504 -0.19676072670E+02  0.94852278199E+01  0.81642868886E+00  0.21858269335E+02  0.00000000000E+00 0. -1.
         21    1    1    2  504  502  0.19676072670E+02 -0.94852278199E+01 -0.29311922914E+02  0.36555522256E+02  0.00000000000E+00 0. -1.
</event>
<event>
 4    1  0.3305068E+006  0.2396271E+02  0.7546771E-02  0.1480751E+00
         21   -1    0    0  503  501  0.00000000000E+00  0.00000000000E+00  0.16002709436E+02  0.16002709436E+02  0.00000000000E+00 0. -1.
         21   -1    0    0  504  502 -0.00000000000E+00 -0.00000000000E+00 -0.77634210749E+03  0.77634210749E+03  0.00000000000E+00 0. -1.
         21    1    1    2  503  502  0.21518923238E+02  0.10542654273E+02 -0.76707835289E+03  0.76745254647E+03  0.00000000000E+00 0. -1.
         21    1    1    2  504  501 -0.21518923238E+02 -0.10542654273E+02  0.67389548285E+01  0.24892270459E+02  0.00000000000E+00 0. -1.
</event>
<event>
 4    1  0.3305068E+006  0.6354577E+02  0.7546771E-02  0.1248239E+00
         21   -1    0    0  504  501  0.00000000000E+00  0.00000000000E+00  0.33874732692E+03  0.33874732692E+03  0.00000000000E+00 0. -1.
         21   -1    0    0  503  502 -0.00000000000E+00 -0.00000000000E+00 -0.38208162868E+02  0.38208162868E+02  0.00000000000E+00 0.  1.
         21    1    1    2  503  501  0.34215789377E+01  0.63453582892E+02  0.30660498289E+03  0.31312087110E+03  0.00000000000E+00 0. -1.
         21    1    1    2  504  502 -0.34215789377E+01 -0.63453582892E+02 -0.60658188437E+01  0.63834618684E+02  0.00000000000E+00 0.  1.
</event>
<event>
 4    1  0.3305068E+006  0.2092203E+02  0.7546771E-02  0.1520381E+00
         21   -1    0    0  503  501  0.00000000000E+00  0.00000000000E+00  0.51256966111E+03  0.51256966111E+03  0.00000000000E+00 0.  1.
         21   -1    0    0  501  502 -0.00000000000E+00 -0.00000000000E+00 -0.28144156794E+03  0.28144156794E+03  0.00000000000E+00 0.  1.
         21    1    1    2  503  504 -0.50396918571E+01  0.20305980229E+02  0.51196687537E+03  0.51239419669E+03  0.00000000000E+00 0.  1.
         21    1    1    2  504  502  0.50396918571E+01 -0.20305980229E+02 -0.28083878220E+03  0.28161703236E+03  0.00000000000E+00 0.  1.
</event>
<event>
 4    1  0.3305068E+006  0.2067274E+02  0.7546771E-02  0.1523989E+00
         21   -1    0    0  504  501  0.00000000000E+00  0.00000000000E+00  0.21512652834E+02  0.21512652834E+02  0.00000000000E+00 0. -1.
         21   -1    0    0  503  502 -0.00000000000E+00 -0.00000000000E+00 -0.20024049814E+02  0.20024049814E+02  0.00000000000E+00 0.  1.
         21    1    1    2  503  501 -0.12445725825E+02 -0.16506547609E+02 -0.11030235311E+01  0.20702146415E+02  0.00000000000E+00 0.  1.
         21    1    1    2  504  502  0.12445725825E+02  0.16506547609E+02  0.25916265513E+01  0.20834556233E+02  0.00000000000E+00 0. -1.
</event>
<event>
 4    1  0.3305068E+006  0.2036362E+02  0.7546771E-02  0.1528548E+00
         21   -1    0    0  504  501  0.00000000000E+00  0.00000000000E+00  0.15146827076E+02  0.15146827076E+02  0.00000000000E+00 0. -1.
         21   -1    0    0  503  502 -0.00000000000E+00 -0.00000000000E+00 -0.43321239517E+02  0.43321239517E+02  0.00000000000E+00 0.  1.
         21    1    1    2  503  501 -0.67157971412E+01 -0.19224331137E+02 -0.31822495158E+02  0.37780259885E+02  0.00000000000E+00 0.  1.
         21    1    1    2  504  502  0.67157971412E+01  0.19224331137E+02  0.36480827158E+01  0.20687806708E+02  0.00000000000E+00 0. -1.
</event>
<event>
 4    1  0.3305068E+006  0.2045434E+02  0.7546771E-02  0.1527200E+00
         21   -1    0    0  503  501  0.00000000000E+00  0.00000000000E+00  0.25128574368E+03  0.25128574368E+03  0.00000000000E+00 0. -1.
         21   -1    0    0  504  502 -0.00000000000E+00 -0.00000000000E+00 -0.38962771710E+02  0.38962771710E+02  0.00000000000E+00 0. -1.
         21    1    1    2  503  502  0.95050186764E+01 -0.18111730744E+02 -0.35828193235E+02  0.41255782638E+02  0.00000000000E+00 0. -1.
         21    1    1    2  504  501 -0.95050186764E+01  0.18111730744E+02  0.24815116521E+03  0.24899273276E+03  0.00000000000E+00 0. -1.
</event>
<event>
 4    1  0.3305068E+006  0.2552404E+02  0.7546771E-02  0.1463025E+00
         21   -1    0    0  503  501  0.00000000000E+00  0.00000000000E+00  0.76938462623E+02  0.76938462623E+02  0.00000000000E+00 0. -1.
         21   -1    0    0  501  502 -0.00000000000E+00 -0.00000000000E+00 -0.94122578778E+02  0.94122578778E+02  0.00000000000E+00 0. -1.
         21    1    1    2  503  504  0.16596868613E+02 -0.19391255076E+02  0.73000538431E+02  0.77334050924E+02  0.00000000000E+00 0. -1.
         21    1    1    2  504  502 -0.16596868613E+02  0.19391255076E+02 -0.90184654586E+02  0.93726990477E+02  0.00000000000E+00 0. -1.
</event>
<event>
 4    1  0.3305068E+006  0.2375185E+02  0.7546771E-02  0.1483267E+00
         21   -1    0    0  502  501  0.00000000000E+00  0.00000000000E+00  0.76715082970E+02  0.76715082970E+02  0.00000000000E+00 0. -1.
         21   -1    0    0  503  502 -0.00000000000E+00 -0.00000000000E+00 -0.14487234429E+03  0.14487234429E+03  0.00000000000E+00 0. -1.
         21    1    1    2  503  504 -0.15594220750E+02  0.17915654424E+02 -0.14202373407E+03  0.14399615076E+03  0.00000000000E+00 0. -1.
         21    1    1    2  504  501  0.15594220750E+02 -0.17915654424E+02  0.73866472745E+02  0.77591276507E+02  0.00000000000E+00 0. -1.
</event>
<event>
 4    1  0.3305068E+006  0.2002455E+02  0.7546771E-02  0.1533661E+00
         21   -1    0    0  503  501  0.00000000000E+00  0.00000000000E+00  0.34311794065E+01  0.34311794065E+01  0.00000000000E+00 0.  1.
         21   -1    0    0  501  502 -0.00000000000E+00 -0.00000000000E+00 -0.14766249319E+03  0.14766249319E+03  0.00000000000E+00 0.  1.
         21    1    1    2  503  504 -0.15079115424E+02 -0.13175851856E+02 -0.37613761746E+02  0.42611945119E+02  0.00000000000E+00 0.  1.
         21    1    1    2  504  502  0.15079115424E+02  0.13175851856E+02 -0.10661755204E+03  0.10848172748E+03  0.00000000000E+00 0.  1.
</event>
<event>
 4    1  0.3305068E+006  0.2938065E+02  0.7546771E-02  0.1425056E+00
         21   -1    0    0  503  501  0.00000000000E+00  0.00000000000E+00  0.58484035858E+01  0.58484035858E+01  0.00000000000E+00 0. -1.
         21   -1    0    0  501  502 -0.00000000000E+00 -0.00000000000E+00 -0.38330410030E+03  0.38330410030E+03  0.00000000000E+00 0.  1.
         21    1    1    2  503  504  0.10119228613E+02 -0.27583032953E+02 -0.36146318497E+02  0.46580884872E+02  0.00000000000E+00 0. -1.
         21    1    1    2  504  502 -0.10119228613E+02  0.27583032953E+02 -0.34130937822E+03  0.34257161901E+03  0.00000000000E+00 0.  1.
</event>
<event>
 4    1  0.3305068E+006  0.5274281E+02  0.7546771E-02  0.1286699E+00
         21   -1    0    0  504  501  0.00000000000E+00  0.00000000000E+00  0.73625917551E+02  0.73625917551E+02  0.00000000000E+00 0. -1.
         21   -1    0    0  503  502 -0.00000000000E+00 -0.00000000000E+00 -0.27030203597E+03  0.27030203597E+03  0.00000000000E+00 0.  1.
         21    1    1    2  503  501 -0.31777603064E+02  0.42094982264E+02  0.61155127250E+02  0.80757372278E+02  0.00000000000E+00 0. -1.
         21    1    1    2  504  502  0.31777603064E+02 -0.42094982264E+02 -0.25783124567E+03  0.26317058125E+03  0.00000000000E+00 0.  1.
</event>
<event>
 4    1  0.3305068E+006  0.2719171E+02  0.7546771E-02  0.1445692E+00
         21   -1    0    0  503  501  0.00000000000E+00  0.00000000000E+00  0.21525737436E+01  0.21525737436E+01  0.00000000000E+00 0.  1.
         21   -1    0    0  504  502 -0.00000000000E+00 -0.00000000000E+00 -0.53319659923E+03  0.53319659923E+03  0.00000000000E+00 0. -1.
         21    1    1    2  503  502  0.11308889615E+02  0.24728489335E+02 -0.42518484031E+03  0.42605344453E+03  0.00000000000E+00 0. -1.
         21    1    1    2  504  501 -0.11308889615E+02 -0.24728489335E+02 -0.10585918517E+03  0.10929572844E+03  0.00000000000E+00 0.  1.
</event>
<event>
 4    1  0.3305068E+006  0.4171903E+02  0.7546771E-02  0.1338696E+00
         21   -1    0    0  503  501  0.00000000000E+00  0.00000000000E+00  0.26449173907E+03  0.26449173907E+03  0.00000000000E+00 0.  1.
         21   -1    0    0  504  502 -0.00000000000E+00 -0.00000000000E+00 -0.64170730626E+02  0.64170730626E+02  0.00000000000E+00 0.  1.
         21    1    1    2  503  502  0.33092514388E+02  0.25403991637E+02 -0.55517116864E+02  0.69445140683E+02  0.00000000000E+00 0.  1.
         21    1    1    2  504  501 -0.33092514388E+02 -0.25403991637E+02  0.25583812531E+03  0.25921732901E+03  0.00000000000E+00 0.  1.
</event>
<event>
 4    1  0.3305068E+006  0.2764988E+02  0.7546771E-02  0.1441187E+00
         21   -1    0    0  504  501  0.00000000000E+00  0.00000000000E+00  0.12091377983E+01  0.12091377983E+01  0.00000000000E+00 0. -1.
         21   -1    0    0  503  502 -0.00000000000E+00 -0.00000000000E+00 -0.64056856910E+03  0.64056856910E+03  0.00000000000E+00 0. -1.
         21    1    1    2  503  501  0.16051185274E+02  0.22513886118E+02 -0.28318172816E+03  0.28452839363E+03  0.00000000000E+00 0. -1.
         21    1    1    2  504  502 -0.16051185274E+02 -0.22513886118E+02 -0.35617770314E+03  0.35724931327E+03  0.00000000000E+00 0. -1.
</event>
<event>
 4    1  0.3305068E+006  0.2319039E+02  0.7546771E-02  0.1490121E+00
         21   -1    0    0  504  501  0.00000000000E+00  0.00000000000E+00  0.39486825743E+02  0.39486825743E+02  0.00000000000E+00 0.  1.
         21   -1    0    0  501  502 -0.00000000000E+00 -0.00000000000E+00 -0.25315588838E+02  0.25315588838E+02  0.00000000000E+00 0.  1.
         21    1    1    2  503  502  0.22907243120E+02  0.36128230918E+01 -0.14937858317E+02  0.27585030165E+02  0.00000000000E+00 0.  1.
         21    1    1    2  504  503 -0.22907243120E+02 -0.36128230918E+01  0.29109095222E+02  0.37217384416E+02  0.00000000000E+00 0.  1.
</event>
<event>
 4    1  0.3305068E+006  0.2089942E+02  0.7546771E-02  0.1520706E+00
         21   -1    0    0  503  501  0.00000000000E+00  0.00000000000E+00  0.62444366568E+01  0.62444366568E+01  0.00000000000E+00 0. -1.
         21   -1    0    0  504  502 -0.00000000000E+00 -0.00000000000E+00 -0.20337824828E+03  0.20337824828E+03  0.00000000000E+00 0. -1.
         21    1    1    2  503  502  0.90754456816E+01  0.18826099721E+02 -0.13671691647E+02  0.24974004435E+02  0.00000000000E+00 0. -1.
         21    1    1    2  504  501 -0.90754456816E+01 -0.18826099721E+02 -0.18346211997E+03  0.18464868050E+03  0.00000000000E+00 0. -1.
</event>
<event>
 4    1  0.3305068E+006  0.2111028E+02  0.7546771E-02  0.1517696E+00
         21   -1    0    0  503  501  0.00000000000E+00  0.00000000000E+00  0.78965275115E+01  0.78965275115E+01  0.00000000000E+00 0.  1.
         21   -1    0    0  504  502 -0.00000000000E+00 -0.00000000000E+00 -0.67875176264E+02  0.67875176264E+02  0.00000000000E+00 0. -1.
         21    1    1    2  503  502 -0.19834192934E+01 -0.21016895714E+02 -0.45542888764E+02  0.50197595306E+02  0.00000000000E+00 0. -1.
         21    1    1    2  504  501  0.19834192934E+01  0.21016895714E+02 -0.14435759989E+02  0.25574108470E+02  0.00000000000E+00 0.  1.
</event>
<event>
 4    1  0.3305068E+006  0.2046981E+02  0.7546771E-02  0.1526971E+00
         21   -1    0    0  504  501  0.00000000000E+00  0.00000000000E+00  0.44824453278E+02  0.44824453278E+02  0.00000000000E+00 0.  1.
         21   -1    0    0  503  502 -0.00000000000E+00 -0.00000000000E+00 -0.41397815741E+02  0.41397815741E+02  0.00000000000E+00 0.  1.
         21    1    1    2  503  501  0.17339198343E+02  0.10879577123E+02 -0.36219438540E+02  0.41603614335E+02  0.00000000000E+00 0.  1.
         21    1    1    2  504  502 -0.17339198343E+02 -0.10879577123E+02  0.39646076076E+02  0.44618654684E+02  0.00000000000E+00 0.  1.
</event>
<event>
 4    1  0.3305068E+006  0.3770155E+02  0.7546771E-02  0.1362508E+00
         21   -1    0    0  504  501  0.00000000000E+00  0.00000000000E+00  0.36888043510E+03  0.36888043510E+03  0.00000000000E+00 0.  1.
         21   -1    0    0  503  502 -0.00000000000E+00 -0.00000000000E+00 -0.58303002202E+01  0.58303002202E+01  0.00000000000E+00 0.  1.
         21    1    1    2  503  501  0.27269256935E+02  0.26034482602E+02  0.29062491293E+03  0.29306014174E+03  0.00000000000E+00 0.  1.
         21    1    1    2  504  502 -0.27269256935E+02 -0.26034482602E+02  0.72425221941E+02  0.81650593576E+02  0.00000000000E+00 0.  1.
</event>
<event>
 4    1  0.3305068E+006  0.2779003E+02  0.7546771E-02  0.1439830E+00
         21   -1    0    0  503  501  0.00000000000E+00  0.00000000000E+00  0.72045097304E+02  0.72045097304E+02  0.00000000000E+00 0.  1.
         21   -1    0    0  504  502 -0.00000000000E+00 -0.00000000000E+00 -0.33257366444E+02  0.33257366444E+02  0.00000000000E+00 0.  1.
         21    1    1    2  503  502  0.27788652890E+02 -0.27686900779E+00 -0.23949358803E+02  0.36685932903E+02  0.00000000000E+00 0.  1.
         21    1    1    2  504  501 -0.27788652890E+02  0.27686900779E+00  0.62737089662E+02  0.68616530845E+02  0.00000000000E+00 0.  1.
</event>
<event>
 4    1  0.3305068E+006  0.2058220E+02  0.7546771E-02  0.1525314E+00
         21   -1    0    0  504  501  0.00000000000E+00  0.00000000000E+00  0.14877712647E+02  0.14877712647E+02  0.00000000000E+00 0. -1.
         21   -1    0    0  503  502 -0.00000000000E+00 -0.00000000000E+00 -0.28503708916E+02  0.28503708916E+02  0.00000000000E+00 0. -1.
         21    1    1    2  503  501  0.13037699781E+02 -0.15926251469E+02 -0.61120230866E+01  0.21470536268E+02  0.00000000000E+00 0. -1.
         21    1    1    2  504  502 -0.13037699781E+02  0.15926251469E+02 -0.75139731825E+01  0.21910885295E+02  0.00000000000E+00 0. -1.
</event>
<event>
 4    1  0.3305068E+006  0.2829088E+02  0.7546771E-02  0.1435055E+00
         21   -1    0    0  504  501  0.00000000000E+00  0.00000000000E+00  0.56295385861E+02  0.56295385861E+02  0.00000000000E+00 0. -1.
         21   -1    0    0  503  502 -0.00000000000E+00 -0.00000000000E+00 -0.67581619190E+02  0.67581619190E+02  0.00000000000E+00 0.  1.
         21    1    1    2  503  501  0.22085476651E+02 -0.17680650171E+02 -0.60682240252E+02  0.66953027948E+02  0.00000000000E+00 0.  1.
         21    1    1    2  504  502 -0.22085476651E+02  0.17680650171E+02  0.49396006922E+02  0.56923977103E+02  0.00000000000E+00 0. -1.
</event>
<event>
 4    1  0.3305068E+006  0.3230200E+02  0.7546771E-02  0.1400592E+00
         21   -1    0    0  503  501  0.00000000000E+00  0.00000000000E+00  0.16751607503E+02  0.16751607503E+02  0.00000000000E+00 0.  1.
         21   -1    0    0  501  502 -0.00000000000E+00 -0.00000000000E+00 -0.10698395096E+03  0.10698395096E+03  0.00000000000E+00 0. -1.
         21    1    1    2  503  504  0.32156386616E+02  0.30636811440E+01 -0.51271582991E+01  0.32706376971E+02  0.00000000000E+00 0.  1.
         21    1    1    2  504  502 -0.32156386616E+02 -0.30636811440E+01 -0.85105185155E+02  0.91029181489E+02  0.00000000000E+00 0. -1.
</event>
<event>
 4    1  0.3305068E+006  0.2083445E+02  0.7546771E-02  0.1521642E+00
         21   -1    0    0  503  501  0.00000000000E+00  0.00000000000E+00  0.84894782285E+01  0.84894782285E+01  0.00000000000E+00 0. -1.
         21   -1    0    0  504  502 -0.00000000000E+00 -0.00000000000E+00 -0.72619141363E+02  0.72619141363E+02  0.00000000000E+00 0. -1.
         21    1    1    2  503  502  0.17641282425E+02 -0.11084189694E+02 -0.54125189655E+02  0.57996640092E+02  0.00000000000E+00 0. -1.
         21    1    1    2  504  501 -0.17641282425E+02  0.11084189694E+02 -0.10004473479E+02  0.23111979499E+02  0.00000000000E+00 0. -1.
</event>
<event>
 4    1  0.3305068E+006  0.2172854E+02  0.7546771E-02  0.1509112E+00
         21   -1    0    0  503  501  0.00000000000E+00  0.00000000000E+00  0.16810255327E+03  0.16810255327E+03  0.00000000000E+00 0. -1.
         21   -1    0    0  504  502 -0.00000000000E+00 -0.00000000000E+00 -0.38007384732E+02  0.38007384732E+02  0.00000000000E+00 0. -1.
         21    1    1    2  503  502 -0.11731838629E+02 -0.18289157829E+02 -0.34126661561E+02  0.40456870380E+02  0.00000000000E+00 0. -1.
         21    1    1    2  504  501  0.11731838629E+02  0.18289157829E+02  0.16422183010E+03  0.16565306762E+03  0.00000000000E+00 0. -1.
</event>
<event>
 4    1  0.3305068E+006  0.3058347E+02  0.7546771E-02  0.1414593E+00
         21   -1    0    0  503  501  0.00000000000E+00  0.00000000000E+00  0.44049870655E+01  0.44049870655E+01  0.00000000000E+00 0. -1.
         21   -1    0    0  504  502 -0.00000000000E+00 -0.00000000000E+00 -0.34254690356E+03  0.34254690356E+03  0.00000000000E+00 0. -1.
         21    1    1    2  503  502  0.18673881790E+02 -0.24220548974E+02 -0.62116583155E+02  0.69237408650E+02  0.00000000000E+00 0. -1.
         21    1    1    2  504  501 -0.18673881790E+02  0.24220548974E+02 -0.27602533334E+03  0.27771448198E+03  0.00000000000E+00 0. -1.
</event>
<event>
 4    1  0.3305068E+006  0.2198350E+02  0.7546771E-02  0.1505673E+00
         21   -1    0    0  504  501  0.00000000000E+00  0.00000000000E+00  0.51390899603E+01  0.51390899603E+01  0.00000000000E+00 0. -1.
         21   -1    0    0  503  502 -0.00000000000E+00 -0.00000000000E+00 -0.94552895785E+02  0.94552895785E+02  0.00000000000E+00 0. -1.
         21    1    1    2  503  501 -0.12413115241E+02  0.18143561804E+02 -0.41031702791E+02  0.46549703531E+02  0.00000000000E+00 0. -1.
         21    1    1    2  504  502  0.12413115241E+02 -0.18143561804E+02 -0.48382103034E+02  0.53142282214E+02  0.00000000000E+00 0. -1.
</event>
<event>
 4    1  0.3305068E+006  0.2683324E+02  0.7546771E-02  0.1449290E+00
         21   -1    0    0  502  501  0.00000000000E+00  0.00000000000E+00  0.29157159397E+02  0.29157159397E+02  0.00000000000E+00 0.  1.
         21   -1    0    0  504  502 -0.00000000000E+00 -0.00000000000E+00 -0.33455241679E+02  0.33455241679E+02  0.00000000000E+00 0.  1.
         21    1    1    2  503  501  0.20287515446E+02  0.17562448965E+02  0.13871143014E+02  0.30206481178E+02  0.00000000000E+00 0.  1.
         21    1    1    2  504  503 -0.20287515446E+02 -0.17562448965E+02 -0.18169225296E+02  0.32405919898E+02  0.00000000000E+00 0.  1.
</event>
<event>
 4    1  0.3305068E+006  0.2099933E+02  0.7546771E-02  0.1519274E+00
         21   -1    0    0  503  501  0.00000000000E+00  0.00000000000E+00  0.71069464619E+02  0.71069464619E+02  0.00000000000E+00 0. -1.
         21   -1    0    0  501  502 -0.00000000000E+00 -0.00000000000E+00 -0.16765779542E+02  0.16765779542E+02  0.00000000000E+00 0. -1.
         21    1    1    2  503  504 -0.20643890103E+02  0.38472678241E+01  0.62007965939E+02  0.65467239962E+02  0.00000000000E+00 0. -1.
         21    1    1    2  504  502  0.20643890103E+02 -0.38472678241E+01 -0.77042808623E+01  0.22368004200E+02  0.00000000000E+00 0. -1.
</event>
<event>
 4    1  0.3305068E+006  0.2010771E+02  0.7546771E-02  0.1532396E+00
         21   -1    0    0  504  501  0.00000000000E+00  0.00000000000E+00  0.22433568141E+02  0.22433568141E+02  0.00000000000E+00 0.  1.
         21   -1    0    0  503  502 -0.00000000000E+00 -0.00000000000E+00 -0.20696650337E+02  0.20696650337E+02  0.00000000000E+00 0.  1.
         21    1    1    2  503  501  0.45456557211E+01 -0.19587159563E+02 -0.68824986462E+01  0.21252966694E+02  0.00000000000E+00 0.  1.
         21    1    1    2  504  502 -0.45456557211E+01  0.19587159563E+02  0.86194164495E+01  0.21877251784E+02  0.00000000000E+00 0.  1.
</event>
<event>
 4    1  0.3305068E+006  0.2163392E+02  0.7546771E-02  0.1510403E+00
         21   -1    0    0  503  501  0.00000000000E+00  0.00000000000E+00  0.39723688969E+02  0.39723688969E+02  0.00000000000E+00 0.  1.
         21   -1    0    0  504  502 -0.00000000000E+00 -0.00000000000E+00 -0.15615026313E+02  0.15615026313E+02  0.00000000000E+00 0.  1.
         21    1    1    2  503  502  0.21626050904E+02 -0.58352469335E+00  0.25763011907E+02  0.33641631371E+02  0.00000000000E+00 0.  1.
         21    1    1    2  504  501 -0.21626050904E+02  0.58352469335E+00 -0.16543492512E+01  0.21697083910E+02  0.00000000000E+00 0.  1.
</event>
<event>
 4    1  0.3305068E+006  0.2515629E+02  0.7546771E-02  0.1467063E+00
         21   -1    0    0  504  501  0.00000000000E+00  0.00000000000E+00  0.23437781016E+02  0.23437781016E+02  0.00000000000E+00 0. -1.
         21   -1    0    0  503  502 -0.00000000000E+00 -0.00000000000E+00 -0.10592266103E+03  0.10592266103E+03  0.00000000000E+00 0. -1.
         21    1    1    2  503  501 -0.12739196260E+02 -0.21692203320E+02 -0.97073479828E+02  0.10028010417E+03  0.00000000000E+00 0. -1.
         21    1    1    2  504  502  0.12739196260E+02  0.21692203320E+02  0.14588599817E+02  0.29080337874E+02  0.00000000000E+00 0. -1.
</event>
<event>
 4    1  0.3305068E+006  0.3398174E+02  0.7546771E-02  0.1387867E+00
         21   -1    0    0  504  501  0.00000000000E+00  0.00000000000E+00  0.39299385552E+03  0.39299385552E+03  0.00000000000E+00 0.  1.
         21   -1    0    0  503  502 -0.00000000000E+00 -0.00000000000E+00 -0.51688420879E+02  0.51688420879E+02  0.00000000000E+00 0. -1.
         21    1    1    2  503  501  0.19062090370E+02 -0.28131746726E+02 -0.45276177439E+02  0.56609987693E+02  0.00000000000E+00 0. -1.
         21    1    1    2  504  502 -0.19062090370E+02  0.28131746726E+02  0.38658161208E+03  0.38807228871E+03  0.00000000000E+00 0.  1.
</event>
<event>
 4    1  0.3305068E+006  0.2048973E+02  0.7546771E-02  0.1526676E+00
         21   -1    0    0  503  501  0.00000000000E+00  0.00000000000E+00  0.59920110001E+03  0.59920110001E+03  0.00000000000E+00 0.  1.
         21   -1    0    0  504  502 -0.00000000000E+00 -0.00000000000E+00 -0.70666283049E+00  0.70666283049E+00  0.00000000000E+00 0.  1.
         21    1    1    2  503  502  0.40364466730E+01  0.20088204257E+02  0.32692123070E+03  0.32756269618E+03  0.00000000000E+00 0.  1.
         21    1    1    2  504  501 -0.40364466730E+01 -0.20088204257E+02  0.27157320649E+03  0.27234506666E+03  0.00000000000E+00 0.  1.
</event>
<event>
 4    1  0.3305068E+006  0.2449550E+02  0.7546771E-02  0.1474527E+00
         21   -1    0    0  504  501  0.00000000000E+00  0.00000000000E+00  0.14469369114E+01  0.14469369114E+01  0.00000000000E+00 0.  1.
         21   -1    0    0  501  502 -0.00000000000E+00 -0.00000000000E+00 -0.90911684478E+03  0.90911684478E+03  0.00000000000E+00 0.  1.
         21    1    1    2  503  502 -0.16311792045E+02  0.18274428758E+02 -0.78958945010E+03  0.78996932157E+03  0.00000000000E+00 0.  1.
         21    1    1    2  504  503  0.16311792045E+02 -0.18274428758E+02 -0.11808045777E+03  0.12059446013E+03  0.00000000000E+00 0.  1.
</event>
<event>
 4    1  0.3305068E+006  0.2081790E+02  0.7546771E-02  0.1521881E+00
         21   -1    0    0  503  501  0.00000000000E+00  0.00000000000E+00  0.29716968840E+02  0.29716968840E+02  0.00000000000E+00 0.  1.
         21   -1    0    0  501  502 -0.00000000000E+00 -0.00000000000E+00 -0.35232936009E+02  0.35232936009E+02  0.00000000000E+00 0.  1.
         21    1    1    2  503  504 -0.12844392142E+02 -0.16383121090E+02  0.22103411529E+02  0.30363561507E+02  0.00000000000E+00 0.  1.
         21    1    1    2  504  502  0.12844392142E+02  0.16383121090E+02 -0.27619378697E+02  0.34586343342E+02  0.00000000000E+00 0.  1.
</event>
<event>
 4    1  0.3305068E+006  0.3058395E+02  0.7546771E-02  0.1414588E+00
         21   -1    0    0  503  501  0.00000000000E+00  0.00000000000E+00  0.30494521709E+03  0.30494521709E+03  0.00000000000E+00 0.  1.
         21   -1    0    0  504  502 -0.00000000000E+00 -0.00000000000E+00 -0.31782271818E+01  0.31782271818E+01  0.00000000000E+00 0.  1.
         21    1    1    2  503  502 -0.14899099675E+02  0.26709454362E+02  0.17965715002E+03  0.18224178905E+03  0.00000000000E+00 0.  1.
         21    1    1    2  504  501  0.14899099675E+02 -0.26709454362E+02  0.12210983989E+03  0.12588165522E+03  0.00000000000E+00 0.  1.
</event>
<event>
 4    1  0.3305068E+006  0.3443853E+02  0.7546771E-02  0.1384554E+00
         21   -1    0    0  502  501  0.00000000000E+00  0.00000000000E+00  0.56766663310E+02  0.56766663310E+02  0.00000000000E+00 0. -1.
         21   -1    0    0  503  502 -0.00000000000E+00 -0.00000000000E+00 -0.49823609040E+02  0.49823609040E+02  0.00000000000E+00 0. -1.
         21    1    1    2  503  504 -0.25541439176E+02 -0.23100806073E+02 -0.37140116180E+02  0.50649783674E+02  0.00000000000E+00 0. -1.
         21    1    1    2  504  501  0.25541439176E+02  0.23100806073E+02  0.44083170450E+02  0.55940488676E+02  0.00000000000E+00 0. -1.
</event>
<event>
 4    1  0.3305068E+006  0.5409464E+02  0.7546771E-02  0.1281333E+00
         21   -1    0    0  502  501  0.00000000000E+00  0.00000000000E+00  0.33439905925E+03  0.33439905925E+03  0.00000000000E+00 0. -1.
         21   -1    0    0  504  502 -0.00000000000E+00 -0.00000000000E+00 -0.12025028159E+02  0.12025028159E+02  0.00000000000E+00 0. -1.
         21    1    1    2  503  501  0.51466183425E+02  0.16657204038E+02  0.25157177722E+03  0.25732195704E+03  0.00000000000E+00 0. -1.
         21    1    1    2  504  503 -0.51466183425E+02 -0.16657204038E+02  0.70802253871E+02  0.89102130367E+02  0.00000000000E+00 0. -1.
</event>
<event>
 4    1  0.3305068E+006  0.2518010E+02  0.7546771E-02  0.1466799E+00
         21   -1    0    0  503  501  0.00000000000E+00  0.00000000000E+00  0.98579403628E+01  0.98579403628E+01  0.00000000000E+00 0.  1.
         21   -1    0    0  504  502 -0.00000000000E+00 -0.00000000000E+00 -0.88787797747E+02  0.88787797747E+02  0.00000000000E+00 0. -1.
         21    1    1    2  503  502  0.13923426685E+02 -0.20980362042E+02 -0.65358498327E+02  0.70041207198E+02  0.00000000000E+00 0. -1.
         21    1    1    2  504  501 -0.13923426685E+02  0.20980362042E+02 -0.13571359057E+02  0.28604530912E+02  0.00000000000E+00 0.  1.
</event>
<event>
 4    1  0.3305068E+006  0.3553064E+02  0.7546771E-02  0.1376871E+00
         21   -1    0    0  504  501  0.00000000000E+00  0.00000000000E+00  0.53627834063E+02  0.53627834063E+02  0.00000000000E+00 0. -1.
         21   -1    0    0  501  502 -0.00000000000E+00 -0.00000000000E+00 -0.42267185842E+02  0.42267185842E+02  0.00000000000E+00 0.  1.
         21    1    1    2  503  502  0.11199480825E+02  0.33719401397E+02 -0.26234670317E+02  0.44166552141E+02  0.00000000000E+00 0.  1.
         21    1    1    2  504  503 -0.11199480825E+02 -0.33719401397E+02  0.37595318538E+02  0.51728467765E+02  0.00000000000E+00 0. -1.
</event>
<event>
 4    1  0.3305068E+006  0.2600128E+02  0.7546771E-02  0.1457907E+00
         21   -1    0    0  504  501  0.00000000000E+00  0.00000000000E+00  0.19607851811E+01  0.19607851811E+01  0.00000000000E+00 0. -1.
         21   -1    0    0  503  502 -0.00000000000E+00 -0.00000000000E+00 -0.34751956600E+03  0.34751956600E+03  0.00000000000E+00 0. -1.
         21    1    1    2  503  501 -0.23969830653E+02 -0.10075404139E+02 -0.18825502173E+03  0.19004215258E+03  0.00000000000E+00 0. -1.
         21    1    1    2  504  502  0.23969830653E+02  0.10075404139E+02 -0.15730375909E+03  0.15943819860E+03  0.00000000000E+00 0. -1.
</event>
<event>
 4    1  0.3305068E+006  0.2029889E+02  0.7546771E-02  0.1529515E+00
         21   -1    0    0  504  501  0.00000000000E+00  0.00000000000E+00  0.11200493245E+02  0.11200493245E+02  0.00000000000E+00 0.  1.
         21   -1    0    0  501  502 -0.00000000000E+00 -0.00000000000E+00 -0.72659253688E+02  0.72659253688E+02  0.00000000000E+00 0.  1.
         21    1    1    2  503  502 -0.16572874149E+02  0.11721123906E+02 -0.60190600918E+02  0.63521282592E+02  0.00000000000E+00 0.  1.
         21    1    1    2  504  503  0.16572874149E+02 -0.11721123906E+02 -0.12681595243E+01  0.20338464341E+02  0.00000000000E+00 0.  1.
</event>
<event>
 4    1  0.3305068E+006  0.2802550E+02  0.7546771E-02  0.1437570E+00
         21   -1    0    0  504  501  0.00000000000E+00  0.00000000000E+00  0.54022008868E+01  0.54022008868E+01  0.00000000000E+00 0. -1.
         21   -1    0    0  503  502 -0.00000000000E+00 -0.00000000000E+00 -0.99092210942E+03  0.99092210942E+03  0.00000000000E+00 0. -1.
         21    1    1    2  503  501  0.16698324899E+02  0.22507655772E+02 -0.95292740834E+03  0.95333943283E+03  0.00000000000E+00 0. -1.
         21    1    1    2  504  502 -0.16698324899E+02 -0.22507655772E+02 -0.32592500190E+02  0.42984877474E+02  0.00000000000E+00 0. -1.
</event>
<event>
 4    1  0.3305068E+006  0.2658919E+02  0.7546771E-02  0.1451779E+00
         21   -1    0    0  503  501  0.00000000000E+00  0.00000000000E+00  0.16331807049E+01  0.16331807049E+01  0.00000000000E+00 0.  1.
         21   -1    0    0  504  502 -0.00000000000E+00 -0.00000000000E+00 -0.54545313018E+03  0.54545313018E+03  0.00000000000E+00 0.  1.
         21    1    1    2  503  502 -0.21842229638E+02  0.15162526665E+02 -0.39617474780E+03  0.39706600963E+03  0.00000000000E+00 0.  1.
         21    1    1    2  504  501  0.21842229638E+02 -0.15162526665E+02 -0.14764520167E+03  0.15002030125E+03  0.00000000000E+00 0.  1.
</event>
<event>
 4    1  0.3305068E+006  0.2161699E+02  0.7546771E-02  0.1510635E+00
         21   -1    0    0  504  501  0.00000000000E+00  0.00000000000E+00  0.37433579150E+02  0.37433579150E+02  0.00000000000E+00 0.  1.
         21   -1    0    0  503  502 -0.00000000000E+00 -0.00000000000E+00 -0.17094343855E+02  0.17094343855E+02  0.00000000000E+00 0.  1.
         21    1    1    2  503  501 -0.21577331409E+02 -0.13087690354E+01 -0.39903736586E+01  0.21982201643E+02  0.00000000000E+00 0.  1.
         21    1    1    2  504  502  0.21577331409E+02  0.13087690354E+01  0.24329608954E+02  0.32545721362E+02  0.00000000000E+00 0.  1.
</event>
<event>
 4    1  0.3305068E+006  0.2245529E+02  0.7546771E-02  0.1499454E+00
         21   -1    0    0  504  501  0.00000000000E+00  0.00000000000E+00  0.30230557775E+02  0.30230557775E+02  0.00000000000E+00 0. -1.
         21   -1    0    0  503  502 -0.00000000000E+00 -0.00000000000E+00 -0.24840933512E+02  0.24840933512E+02  0.00000000000E+00 0. -1.
         21    1    1    2  503  501  0.18370810566E+02 -0.12913306180E+02 -0.13088119912E+02  0.25991133876E+02  0.00000000000E+00 0. -1.
         21    1    1    2  504  502 -0.18370810566E+02  0.12913306180E+02  0.18477744175E+02  0.29080357411E+02  0.00000000000E+00 0. -1.
</event>
<event>
 4    1  0.3305068E+006  0.2364691E+02  0.7546771E-02  0.1484531E+00
         21   -1    0    0  503  501  0.00000000000E+00  0.00000000000E+00  0.31482995747E+02  0.31482995747E+02  0.00000000000E+00 0.  1.
         21   -1    0    0  504  502 -0.00000000000E+00 -0.00000000000E+00 -0.18914396407E+02  0.18914396407E+02  0.00000000000E+00 0. -1.
         21    1    1    2  503  502 -0.79764600971E+01  0.22261011109E+02  0.12506285194E+02  0.26750396270E+02  0.00000000000E+00 0.  1.
         21    1    1    2  504  501  0.79764600971E+01 -0.22261011109E+02  0.62314144863E-01  0.23646995884E+02  0.00000000000E+00 0. -1.
</event>
<event>
 4    1  0.3305068E+006  0.4203009E+02  0.7546771E-02  0.1336983E+00
         21   -1    0    0  504  501  0.00000000000E+00  0.00000000000E+00  0.61635985972E+02  0.61635985972E+02  0.00000000000E+00 0. -1.
         21   -1    0    0  503  502 -0.00000000000E+00 -0.00000000000E+00 -0.37129678225E+02  0.37129678225E+02  0.00000000000E+00 0. -1.
         21    1    1    2  503  501  0.86994900568E+01  0.41119914457E+02 -0.11331621536E+02  0.43530841237E+02  0.00000000000E+00 0. -1.
         21    1    1    2  504  502 -0.86994900568E+01 -0.41119914457E+02  0.35837929283E+02  0.55234822960E+02  0.00000000000E+00 0. -1.
</event>
<event>
 4    1  0.3305068E+006  0.2044140E+02  0.7546771E-02  0.1527392E+00
         21   -1    0    0  504  501  0.00000000000E+00  0.00000000000E+00  0.19046941250E+02  0.19046941250E+02  0.00000000000E+00 0.  1.
         21   -1    0    0  501  502 -0.00000000000E+00 -0.00000000000E+00 -0.43436579587E+03  0.43436579587E+03  0.00000000000E+00 0.  1.
         21    1    1    2  503  502  0.32159711372E+01  0.20186837303E+02 -0.42856664198E+03  0.42905386316E+03  0.00000000000E+00 0.  1.
         21    1    1    2  504  503 -0.32159711372E+01 -0.20186837303E+02  0.13247787363E+02  0.24358873961E+02  0.00000000000E+00 0.  1.
</event>
<event>
 4    1  0.3305068E+006  0.2285745E+02  0.7546771E-02  0.1494296E+00
         21   -1    0    0  504  501  0.00000000000E+00  0.00000000000E+00  0.66683445411E+01  0.66683445411E+01  0.00000000000E+00 0. -1.
         21   -1    0    0  501  502 -0.00000000000E+00 -0.00000000000E+00 -0.13168059516E+03  0.13168059516E+03  0.00000000000E+00 0. -1.
         21    1    1    2  503  502  0.22739006027E+02  0.23239423922E+01 -0.10652857411E+03  0.10895320191E+03  0.00000000000E+00 0. -1.
         21    1    1    2  504  503 -0.22739006027E+02 -0.23239423922E+01 -0.18483676509E+02  0.29395737797E+02  0.00000000000E+00 0. -1.
</event>
<event>
 4    1  0.3305068E+006  0.2296145E+02  0.7546771E-02  0.1492983E+00
         21   -1    0    0  502  501  0.00000000000E+00  0.00000000000E+00  0.39303331527E+02  0.39303331527E+02  0.00000000000E+00 0.  1.
         21   -1    0    0  503  502 -0.00000000000E+00 -0.00000000000E+00 -0.13549845900E+02  0.13549845900E+02  0.00000000000E+00 0.  1.
         21    1    1    2  503  504 -0.12063436390E+02  0.19537191816E+02  0.10234038510E+02  0.25138892295E+02  0.00000000000E+00 0.  1.
         21    1    1    2  504  501  0.12063436390E+02 -0.19537191816E+02  0.15519447116E+02  0.27714285132E+02  0.00000000000E+00 0.  1.
</event>
<event>
 4    1  0.3305068E+006  0.2287898E+02  0.7546771E-02  0.1494023E+00
         21   -1    0    0  503  501  0.00000000000E+00  0.00000000000E+00  0.55626683937E+02  0.55626683937E+02  0.00000000000E+00 0. -1.
         21   -1    0    0  504  502 -0.00000000000E+00 -0.00000000000E+00 -0.35973976277E+03  0.35973976277E+03  0.00000000000E+00 0.  1.
         21    1    1    2  503  502 -0.18434056125E+02 -0.13551143213E+02  0.52892412695E+02  0.57628597313E+02  0.00000000000E+00 0. -1.
         21    1    1    2  504  501  0.18434056125E+02  0.13551143213E+02 -0.35700549152E+03  0.35773784939E+03  0.00000000000E+00 0.  1.
</event>
<event>
 4    1  0.3305068E+006  0.2008852E+02  0.7546771E-02  0.1532687E+00
         21   -1    0    0  504  501  0.00000000000E+00  0.00000000000E+00  0.17856179211E+02  0.17856179211E+02  0.00000000000E+00 0. -1.
         21   -1    0    0  503  502 -0.00000000000E+00 -0.00000000000E+00 -0.50704608648E+02  0.50704608648E+02  0.00000000000E+00 0. -1.
         21    1    1    2  503  501  0.80401934278E+01  0.18409341930E+02 -0.41946015850E+02  0.46508244713E+02  0.00000000000E+00 0. -1.
         21    1    1    2  504  502 -0.80401934278E+01 -0.18409341930E+02  0.90975864128E+01  0.22052543145E+02  0.00000000000E+00 0. -1.
</event>
<event>
 4    1  0.3305068E+006  0.2164437E+02  0.7546771E-02  0.1510260E+00
         21   -1    0    0  504  501  0.00000000000E+00  0.00000000000E+00  0.20360697797E+03  0.20360697797E+03  0.00000000000E+00 0. -1.
         21   -1    0    0  503  502 -0.00000000000E+00 -0.00000000000E+00 -0.59790868037E+02  0.59790868037E+02  0.00000000000E+00 0. -1.
         21    1    1    2  503  501  0.15767464957E+02  0.14827865576E+02  0.20104807268E+03  0.20220980707E+03  0.00000000000E+00 0. -1.
         21    1    1    2  504  502 -0.15767464957E+02 -0.14827865576E+02 -0.57231962746E+02  0.61188038933E+02  0.00000000000E+00 0. -1.
</event>
<event>
 4    1  0.3305068E+006  0.2108707E+02  0.7546771E-02  0.1518025E+00
         21   -1    0    0  502  501  0.00000000000E+00  0.00000000000E+00  0.25780656182E+01  0.25780656182E+01  0.00000000000E+00 0. -1.
         21   -1    0    0  504  502 -0.00000000000E+00 -0.00000000000E+00 -0.27442859363E+03  0.27442859363E+03  0.00000000000E+00 0. -1.
         21    1    1    2  503  501  0.12655014479E+02  0.16867579584E+02 -0.51507031077E+02  0.55656436132E+02  0.00000000000E+00 0. -1.
         21    1    1    2  504  503 -0.12655014479E+02 -0.16867579584E+02 -0.22034349694E+03  0.22135022312E+03  0.00000000000E+00 0. -1.
</event>
<event>
 4    1  0.3305068E+006  0.2484704E+02  0.7546771E-02  0.1470522E+00
         21   -1    0    0  503  501  0.00000000000E+00  0.00000000000E+00  0.40894538989E+02  0.40894538989E+02  0.00000000000E+00 0.  1.
         21   -1    0    0  501  502 -0.00000000000E+00 -0.00000000000E+00 -0.54939754304E+02  0.54939754304E+02  0.00000000000E+00 0. -1.
         21    1    1    2  503  504 -0.24022234512E+02 -0.63488186419E+01  0.33783347629E+02  0.41936735997E+02  0.00000000000E+00 0.  1.
         21    1    1    2  504  502  0.24022234512E+02  0.63488186419E+01 -0.47828562944E+02  0.53897557295E+02  0.00000000000E+00 0. -1.
</event>
<event>
 4    1  0.3305068E+006  0.2922865E+02  0.7546771E-02  0.1426420E+00
         21   -1    0    0  504  501  0.00000000000E+00  0.00000000000E+00  0.43077336847E+02  0.43077336847E+02  0.00000000000E+00 0.  1.
         21   -1    0    0  503  502 -0.00000000000E+00 -0.00000000000E+00 -0.31408015053E+03  0.31408015053E+03  0.00000000000E+00 0. -1.
         21    1    1    2  503  501  0.98968047606E+01 -0.27502131262E+02  0.37347372416E+02  0.47425100894E+02  0.00000000000E+00 0.  1.
         21    1    1    2  504  502 -0.98968047606E+01  0.27502131262E+02 -0.30835018610E+03  0.30973238649E+03  0.00000000000E+00 0. -1.
</event>
<event>
 4    1  0.3305068E+006  0.2232187E+02  0.7546771E-02  0.1501194E+00
         21   -1    0    0  504  501  0.00000000000E+00  0.00000000000E+00  0.57905364350E+00  0.57905364350E+00  0.00000000000E+00 0.  1.
         21   -1    0    0  503  502 -0.00000000000E+00 -0.00000000000E+00 -0.13477310644E+04  0.13477310644E+04  0.00000000000E+00 0. -1.
         21    1    1    2  503  501 -0.97397604368E+01 -0.20084889822E+02 -0.26822308680E+03  0.26915031121E+03  0.00000000000E+00 0.  1.
         21    1    1    2  504  502  0.97397604368E+01  0.20084889822E+02 -0.10789289239E+04  0.10791598068E+04  0.00000000000E+00 0. -1.
</event>
<event>
 4    1  0.3305068E+006  0.3002401E+02  0.7546771E-02  0.1419388E+00
         21   -1    0    0  503  501  0.00000000000E+00  0.00000000000E+00  0.53272884719E+03  0.53272884719E+03  0.00000000000E+00 0.  1.
         21   -1    0    0  501  502 -0.00000000000E+00 -0.00000000000E+00 -0.24092641294E+01  0.24092641294E+01  0.00000000000E+00 0.  1.
         21    1    1    2  503  504  0.14035100608E+02 -0.26541607257E+02  0.41114101533E+03  0.41223582504E+03  0.00000000000E+00 0.  1.
         21    1    1    2  504  502 -0.14035100608E+02  0.26541607257E+02  0.11917856773E+03  0.12290228628E+03  0.00000000000E+00 0.  1.
</event>
<event>
 4    1  0.3305068E+006  0.2571840E+02  0.7546771E-02  0.1460925E+00
         21   -1    0    0  504  501  0.00000000000E+00  0.00000000000E+00  0.16541070163E+02  0.16541070163E+02  0.00000000000E+00 0.  1.
         21   -1    0    0  503  502 -0.00000000000E+00 -0.00000000000E+00 -0.54898796965E+02  0.54898796965E+02  0.00000000000E+00 0.  1.
         21    1    1    2  503  501 -0.25481447472E+02  0.34831168751E+01 -0.37794879252E+02  0.45715305600E+02  0.00000000000E+00 0.  1.
         21    1    1    2  504  502  0.25481447472E+02 -0.34831168751E+01 -0.56284755016E+00  0.25724561528E+02  0.00000000000E+00 0.  1.
</event>
<event>
 4    1  0.3305068E+006  0.3137213E+02  0.7546771E-02  0.1408036E+00
         21   -1    0    0  504  501  0.00000000000E+00  0.00000000000E+00  0.24652947654E+03  0.24652947654E+03  0.00000000000E+00 0. -1.
         21   -1    0    0  503  502 -0.00000000000E+00 -0.00000000000E+00 -0.42689463424E+01  0.42689463424E+01  0.00000000000E+00 0. -1.
         21    1    1    2  503  501  0.30846690376E+02  0.57177053589E+01  0.89205617629E+02  0.94561369905E+02  0.00000000000E+00 0. -1.
         21    1    1    2  504  502 -0.30846690376E+02 -0.57177053589E+01  0.15305491256E+03  0.15623705297E+03  0.00000000000E+00 0. -1.
</event>
<event>
 4    1  0.3305068E+006  0.2632765E+02  0.7546771E-02  0.1454481E+00
         21   -1    0    0  503  501  0.00000000000E+00  0.00000000000E+00  0.37329251787E+01  0.37329251787E+01  0.00000000000E+00 0. -1.
         21   -1    0    0  504  502 -0.00000000000E+00 -0.00000000000E+00 -0.25916138761E+03  0.25916138761E+03  0.00000000000E+00 0. -1.
         21    1    1    2  503  502 -0.23131328879E+02 -0.12573253426E+02 -0.57723194425E+02  0.63443772366E+02  0.00000000000E+00 0. -1.
         21    1    1    2  504  501  0.23131328879E+02  0.12573253426E+02 -0.19770526801E+03  0.19945054042E+03  0.00000000000E+00 0. -1.
</event>
<event>
 4    1  0.3305068E+006  0.2197366E+02  0.7546771E-02  0.1505804E+00
         21   -1    0    0  502  501  0.00000000000E+00  0.00000000000E+00  0.20548995387E+02  0.20548995387E+02  0.00000000000E+00 0. -1.
         21   -1    0    0  503  502 -0.00000000000E+00 -0.00000000000E+00 -0.66071948654E+02  0.66071948654E+02  0.00000000000E+00 0. -1.
         21    1    1    2  503  504 -0.21928688765E+02  0.14051475981E+01 -0.57527971512E+02  0.61581728922E+02  0.00000000000E+00 0. -1.
         21    1    1    2  504  501  0.21928688765E+02 -0.14051475981E+01  0.12005018245E+02  0.25039215119E+02  0.00000000000E+00 0. -1.
</event>
<event>
 4    1  0.3305068E+006  0.2131550E+02  0.7546771E-02  0.1514808E+00
         21   -1    0    0  504  501  0.00000000000E+00  0.00000000000E+00  0.35786997241E+02  0.35786997241E+02  0.00000000000E+00 0. -1.
         21   -1    0    0  503  502 -0.00000000000E+00 -0.00000000000E+00 -0.10340151705E+03  0.10340151705E+03  0.00000000000E+00 0. -1.
         21    1    1    2  503  501  0.16287135445E+02 -0.13750622928E+02  0.31374620815E+02  0.37930426351E+02  0.00000000000E+00 0. -1.
         21    1    1    2  504  502 -0.16287135445E+02  0.13750622928E+02 -0.98989140627E+02  0.10125808794E+03  0.00000000000E+00 0. -1.
</event>
<event>
 4    1  0.3305068E+006  0.3879323E+02  0.7546771E-02  0.1355706E+00
         21   -1    0    0  504  501  0.00000000000E+00  0.00000000000E+00  0.39942826796E+01  0.39942826796E+01  0.00000000000E+00 0.  1.
         21   -1    0    0  503  502 -0.00000000000E+00 -0.00000000000E+00 -0.49922331414E+03  0.49922331414E+03  0.00000000000E+00 0. -1.
         21    1    1    2  503  501 -0.34603202833E+02 -0.17536624591E+02 -0.37222901188E+03  0.37424504290E+03  0.00000000000E+00 0. -1.
         21    1    1    2  504  502  0.34603202833E+02  0.17536624591E+02 -0.12300001958E+03  0.12897255392E+03  0.00000000000E+00 0.  1.
</event>
<event>
 4    1  0.3305068E+006  0.2291201E+02  0.7546771E-02  0.1493606E+00
         21   -1    0    0  504  501  0.00000000000E+00  0.00000000000E+00  0.12707175101E+03  0.12707175101E+03  0.00000000000E+00 0.  1.
         21   -1    0    0  503  502 -0.00000000000E+00 -0.00000000000E+00 -0.28281278592E+02  0.28281278592E+02  0.00000000000E+00 0. -1.
         21    1    1    2  503  501 -0.22881962250E+02 -0.11730580224E+01  0.12117456343E+03  0.12332167321E+03  0.00000000000E+00 0.  1.
         21    1    1    2  504  502  0.22881962250E+02  0.11730580224E+01 -0.22384091014E+02  0.32031356388E+02  0.00000000000E+00 0. -1.
</event>
<event>
 4    1  0.3305068E+006  0.3296303E+02  0.7546771E-02  0.1395478E+00
         21   -1    0    0  503  501  0.00000000000E+00  0.00000000000E+00  0.30444374250E+01  0.30444374250E+01  0.00000000000E+00 0.  1.
         21   -1    0    0  501  502 -0.00000000000E+00 -0.00000000000E+00 -0.56657860733E+03  0.56657860733E+03  0.00000000000E+00 0.  1.
         21    1    1    2  503  504 -0.19505502082E+02 -0.26572475922E+02 -0.10850478934E+03  0.11340128041E+03  0.00000000000E+00 0.  1.
         21    1    1    2  504  502  0.19505502082E+02  0.26572475922E+02 -0.45502938056E+03  0.45622176435E+03  0.00000000000E+00 0.  1.
</event>
<event>
 4    1  0.3305068E+006  0.2117112E+02  0.7546771E-02  0.1516836E+00
         21   -1    0    0  502  501  0.00000000000E+00  0.00000000000E+00  0.30810220715E+03  0.30810220715E+03  0.00000000000E+00 0.  1.
         21   -1    0    0  504  502 -0.00000000000E+00 -0.00000000000E+00 -0.11197954069E+02  0.11197954069E+02  0.00000000000E+00 0. -1.
         21    1    1    2  503  501 -0.20846403396E+02 -0.36937396550E+01  0.29737121551E+03  0.29812389382E+03  0.00000000000E+00 0.  1.
         21    1    1    2  504  503  0.20846403396E+02  0.36937396550E+01 -0.46696243521E+00  0.21176267402E+02  0.00000000000E+00 0. -1.
</event>
<event>
 4    1  0.3305068E+006  0.2164795E+02  0.7546771E-02  0.1510211E+00
         21   -1    0    0  502  501  0.00000000000E+00  0.00000000000E+00  0.49721026406E+02  0.49721026406E+02  0.00000000000E+00 0.  1.
         21   -1    0    0  504  502 -0.00000000000E+00 -0.00000000000E+00 -0.10947810353E+02  0.10947810353E+02  0.00000000000E+00 0. -1.
         21    1    1    2  503  501 -0.10779484211E+02 -0.18773292208E+02  0.30699075896E+02  0.37564172306E+02  0.00000000000E+00 0.  1.
         21    1    1    2  504  503  0.10779484211E+02  0.18773292208E+02  0.80741401568E+01  0.23104664452E+02  0.00000000000E+00 0. -1.
</event>
<event>
 4    1  0.3305068E+006  0.2686822E+02  0.7546771E-02  0.1448936E+00
         21   -1    0    0  503  501  0.00000000000E+00  0.00000000000E+00  0.64079411550E+03  0.64079411550E+03  0.00000000000E+00 0. -1.
         21   -1    0    0  504  502 -0.00000000000E+00 -0.00000000000E+00 -0.32458275725E+01  0.32458275725E+01  0.00000000000E+00 0. -1.
         21    1    1    2  503  502 -0.25321258203E+02 -0.89852771822E+01  0.57897675684E+03  0.57959985014E+03  0.00000000000E+00 0. -1.
         21    1    1    2  504  501  0.25321258203E+02  0.89852771822E+01  0.58571531088E+02  0.64440092932E+02  0.00000000000E+00 0. -1.
</event>
<event>
 4    1  0.3305068E+006  0.3233711E+02  0.7546771E-02  0.1400317E+00
         21   -1    0    0  503  501  0.00000000000E+00  0.00000000000E+00  0.54643666160E+02  0.54643666160E+02  0.00000000000E+00 0. -1.
         21   -1    0    0  501  502 -0.00000000000E+00 -0.00000000000E+00 -0.86100518840E+02  0.86100518840E+02  0.00000000000E+00 0.  1.
         21    1    1    2  503  504  0.14748452811E+02  0.28777975280E+02  0.46332509969E+02  0.56501240708E+02  0.00000000000E+00 0. -1.
         21    1    1    2  504  502 -0.14748452811E+02 -0.28777975280E+02 -0.77789362649E+02  0.84242944291E+02  0.00000000000E+00 0.  1.
</event>
<event>
 4    1  0.3305068E+006  0.1024019E+03  0.7546771E-02  0.1159710E+00
         21   -1    0    0  504  501  0.00000000000E+00  0.00000000000E+00  0.21989276027E+04  0.21989276027E+04  0.00000000000E+00 0.  1.
         21   -1    0    0  501  502 -0.00000000000E+00 -0.00000000000E+00 -0.28122253141E+02  0.28122253141E+02  0.00000000000E+00 0.  1.
         21    1    1    2  503  502  0.97999656244E+02 -0.29701977711E+02  0.70671769003E+02  0.12442121619E+03  0.00000000000E+00 0.  1.
         21    1    1    2  504  503 -0.97999656244E+02  0.29701977711E+02  0.21001335806E+04  0.21026286397E+04  0.00000000000E+00 0.  1.
</event>
<event>
 4    1  0.3305068E+006  0.2107965E+02  0.7546771E-02  0.1518131E+00
         21   -1    0    0  504  501  0.00000000000E+00  0.00000000000E+00  0.37889455623E+02  0.37889455623E+02  0.00000000000E+00 0.  1.
         21   -1    0    0  501  502 -0.00000000000E+00 -0.00000000000E+00 -0.18471739456E+02  0.18471739456E+02  0.00000000000E+00 0.  1.
         21    1    1    2  503  502  0.17357998428E+02  0.11960421954E+02 -0.73190015663E+01  0.22314111828E+02  0.00000000000E+00 0.  1.
         21    1    1    2  504  503 -0.17357998428E+02 -0.11960421954E+02  0.26736717734E+02  0.34047083251E+02  0.00000000000E+00 0.  1.
</event>
<event>
 4    1  0.3305068E+006  0.2450933E+02  0.7546771E-02  0.1474368E+00
         21   -1    0    0  503  501  0.00000000000E+00  0.00000000000E+00  0.62505405672E+01  0.62505405672E+01  0.00000000000E+00 0.  1.
         21   -1    0    0  504  502 -0.00000000000E+00 -0.00000000000E+00 -0.20422178911E+03  0.20422178911E+03  0.00000000000E+00 0.  1.
         21    1    1    2  503  502  0.12068125691E+02  0.21332312052E+02 -0.17555601570E+03  0.17725862981E+03  0.00000000000E+00 0.  1.
         21    1    1    2  504  501 -0.12068125691E+02 -0.21332312052E+02 -0.22415232841E+02  0.33213699861E+02  0.00000000000E+00 0.  1.
</event>
<event>
 4    1  0.3305068E+006  0.2161439E+02  0.7546771E-02  0.1510671E+00
         21   -1    0    0  503  501  0.00000000000E+00  0.00000000000E+00  0.12763053515E+03  0.12763053515E+03  0.00000000000E+00 0. -1.
         21   -1    0    0  504  502 -0.00000000000E+00 -0.00000000000E+00 -0.78597723144E+02  0.78597723144E+02  0.00000000000E+00 0. -1.
         21    1    1    2  503  502  0.19931191248E+02  0.83623946138E+01  0.12520081155E+03  0.12705284429E+03  0.00000000000E+00 0. -1.
         21    1    1    2  504  501 -0.19931191248E+02 -0.83623946138E+01 -0.76167999546E+02  0.79175414006E+02  0.00000000000E+00 0. -1.
</event>
<event>
 4    1  0.3305068E+006  0.3520005E+02  0.7546771E-02  0.1379162E+00
         21   -1    0    0  502  501  0.00000000000E+00  0.00000000000E+00  0.14731261028E+03  0.14731261028E+03  0.00000000000E+00 0.  1.
         21   -1    0    0  504  502 -0.00000000000E+00 -0.00000000000E+00 -0.62727922863E+02  0.62727922863E+02  0.00000000000E+00 0.  1.
         21    1    1    2  503  501 -0.10294169362E+02 -0.33661159351E+02  0.14001838756E+03  0.14437517940E+03  0.00000000000E+00 0.  1.
         21    1    1    2  504  503  0.10294169362E+02  0.33661159351E+02 -0.55433700139E+02  0.65665353748E+02  0.00000000000E+00 0.  1.
</event>
<event>
 4    1  0.3305068E+006  0.4289365E+02  0.7546771E-02  0.1332315E+00
         21   -1    0    0  504  501  0.00000000000E+00  0.00000000000E+00  0.15834459748E+03  0.15834459748E+03  0.00000000000E+00 0.  1.
         21   -1    0    0  501  502 -0.00000000000E+00 -0.00000000000E+00 -0.74018201359E+02  0.74018201359E+02  0.00000000000E+00 0.  1.
         21    1    1    2  503  502 -0.42589021814E+02  0.51030157800E+01 -0.64510056080E+02  0.77468786518E+02  0.00000000000E+00 0.  1.
         21    1    1    2  504  503  0.42589021814E+02 -0.51030157800E+01  0.14883645220E+03  0.15489401232E+03  0.00000000000E+00 0.  1.
</event>
<event>
 4    1  0.3305068E+006  0.3761649E+02  0.7546771E-02  0.1363049E+00
         21   -1    0    0  504  501  0.00000000000E+00  0.00000000000E+00  0.35418364265E+02  0.35418364265E+02  0.00000000000E+00 0.  1.
         21   -1    0    0  501  502 -0.00000000000E+00 -0.00000000000E+00 -0.10003000381E+03  0.10003000381E+03  0.00000000000E+00 0. -1.
         21    1    1    2  503  502 -0.33701461820E+02  0.16709639537E+02 -0.84791381030E+02  0.92760869332E+02  0.00000000000E+00 0. -1.
         21    1    1    2  504  503  0.33701461820E+02 -0.16709639537E+02  0.20179741487E+02  0.42687498740E+02  0.00000000000E+00 0.  1.
</event>
<event>
 4    1  0.3305068E+006  0.2011396E+02  0.7546771E-02  0.1532301E+00
         21   -1    0    0  503  501  0.00000000000E+00  0.00000000000E+00  0.26565488566E+03  0.26565488566E+03  0.00000000000E+00 0. -1.
         21   -1    0    0  504  502 -0.00000000000E+00 -0.00000000000E+00 -0.15231416469E+01  0.15231416469E+01  0.00000000000E+00 0. -1.
         21    1    1    2  503  502 -0.20103591544E+02 -0.64563509138E+00  0.13045572572E+03  0.13199722577E+03  0.00000000000E+00 0. -1.
         21    1    1    2  504  501  0.20103591544E+02  0.64563509138E+00  0.13367601830E+03  0.13518080154E+03  0.00000000000E+00 0. -1.
</event>
<event>
 4    1  0.3305068E+006  0.2102499E+02  0.7546771E-02  0.1518908E+00
         21   -1    0    0  503  501  0.00000000000E+00  0.00000000000E+00  0.10824057926E+04  0.10824057926E+04  0.00000000000E+00 0. -1.
         21   -1    0    0  501  502 -0.00000000000E+00 -0.00000000000E+00 -0.89300872633E+01  0.89300872633E+01  0.00000000000E+00 0. -1.
         21    1    1    2  503  504 -0.37680003169E+01  0.20684590130E+02  0.10697823777E+04  0.10699889653E+04  0.00000000000E+00 0. -1.
         21    1    1    2  504  502  0.37680003169E+01 -0.20684590130E+02  0.36933276444E+01  0.21346914632E+02  0.00000000000E+00 0. -1.
</event>
<event>
 4    1  0.3305068E+006  0.2158352E+02  0.7546771E-02  0.1511094E+00
         21   -1    0    0  503  501  0.00000000000E+00  0.00000000000E+00  0.19315178343E+01  0.19315178343E+01  0.00000000000E+00 0. -1.
         21   -1    0    0  504  502 -0.00000000000E+00 -0.00000000000E+00 -0.42046064062E+03  0.42046064062E+03  0.00000000000E+00 0. -1.
         21    1    1    2  503  502 -0.21086188519E+02 -0.46066346275E+01 -0.71357416771E+02  0.74550180128E+02  0.00000000000E+00 0. -1.
         21    1    1    2  504  501  0.21086188519E+02  0.46066346275E+01 -0.34717170601E+03  0.34784197832E+03  0.00000000000E+00 0. -1.
</event>
<event>
 4    1  0.3305068E+006  0.2128482E+02  0.7546771E-02  0.1515237E+00
         21   -1    0    0  503  501  0.00000000000E+00  0.00000000000E+00  0.14521658921E+02  0.14521658921E+02  0.00000000000E+00 0.  1.
         21   -1    0    0  501  502 -0.00000000000E+00 -0.00000000000E+00 -0.25701463001E+03  0.25701463001E+03  0.00000000000E+00 0.  1.
         21    1    1    2  503  504  0.15821575045E+02  0.14238018424E+02  0.60150443883E+01  0.22118412342E+02  0.00000000000E+00 0.  1.
         21    1    1    2  504  502 -0.15821575045E+02 -0.14238018424E+02 -0.24850801547E+03  0.24941787659E+03  0.00000000000E+00 0.  1.
</event>
<event>
 4    1  0.3305068E+006  0.3135025E+02  0.7546771E-02  0.1408215E+00
         21   -1    0    0  503  501  0.00000000000E+00  0.00000000000E+00  0.14134186427E+02  0.14134186427E+02  0.00000000000E+00 0.  1.
         21   -1    0    0  504  502 -0.00000000000E+00 -0.00000000000E+00 -0.69677053058E+02  0.69677053058E+02  0.00000000000E+00 0. -1.
         21    1    1    2  503  502  0.28113239863E+02  0.13873854873E+02 -0.25887536890E+02  0.40657135547E+02  0.00000000000E+00 0. -1.
         21    1    1    2  504  501 -0.28113239863E+02 -0.13873854873E+02 -0.29655329741E+02  0.43154103938E+02  0.00000000000E+00 0.  1.
</event>
<event>
 4    1  0.3305068E+006  0.2003269E+02  0.7546771E-02  0.1533537E+00
         21   -1    0    0  503  501  0.00000000000E+00  0.00000000000E+00  0.58414831397E+01  0.58414831397E+01  0.00000000000E+00 0.  1.
         21   -1    0    0  504  502 -0.00000000000E+00 -0.00000000000E+00 -0.84828624110E+02  0.84828624110E+02  0.00000000000E+00 0. -1.
         21    1    1    2  503  502  0.13078811464E+02  0.15174098077E+02 -0.19725483303E+02  0.28114111285E+02  0.00000000000E+00 0.  1.
         21    1    1    2  504  501 -0.13078811464E+02 -0.15174098077E+02 -0.59261657667E+02  0.62555995965E+02  0.00000000000E+00 0. -1.
</event>
<event>
 4    1  0.3305068E+006  0.2443568E+02  0.7546771E-02  0.1475216E+00
         21   -1    0    0  504  501  0.00000000000E+00  0.00000000000E+00  0.14702846281E+04  0.14702846281E+04  0.00000000000E+00 0. -1.
         21   -1    0    0  501  502 -0.00000000000E+00 -0.00000000000E+00 -0.95206368501E+00  0.95206368501E+00  0.00000000000E+00 0.  1.
         21    1    1    2  503  502  0.24365191209E+02 -0.18546982191E+01  0.17761387243E+03  0.17928689335E+03  0.00000000000E+00 0.  1.
         21    1    1    2  504  503 -0.24365191209E+02  0.18546982191E+01  0.12917186920E+04  0.12919497985E+04  0.00000000000E+00 0. -1.
</event>
<event>
 4    1  0.3305068E+006  0.2201359E+02  0.7546771E-02  0.1505270E+00
         21   -1    0    0  502  501  0.00000000000E+00  0.00000000000E+00  0.59070912236E+02  0.59070912236E+02  0.00000000000E+00 0.  1.
         21   -1    0    0  504  502 -0.00000000000E+00 -0.00000000000E+00 -0.27961618403E+02  0.27961618403E+02  0.00000000000E+00 0.  1.
         21    1    1    2  503  501 -0.67853429376E+01  0.20941756887E+02  0.52134455313E+02  0.56591514303E+02  0.00000000000E+00 0.  1.
         21    1    1    2  504  503  0.67853429376E+01 -0.20941756887E+02 -0.21025161480E+02  0.30441016336E+02  0.00000000000E+00 0.  1.
</event>
<event>
 4    1  0.3305068E+006  0.2453849E+02  0.7546771E-02  0.1474033E+00
         21   -1    0    0  503  501  0.00000000000E+00  0.00000000000E+00  0.14432476243E+03  0.14432476243E+03  0.00000000000E+00 0. -1.
         21   -1    0    0  504  502 -0.00000000000E+00 -0.00000000000E+00 -0.72258242743E+01  0.72258242743E+01  0.00000000000E+00 0. -1.
         21    1    1    2  503  502  0.31105063734E+01 -0.24340548064E+02  0.19288976952E+02  0.31212211741E+02  0.00000000000E+00 0. -1.
         21    1    1    2  504  501 -0.31105063734E+01  0.24340548064E+02  0.11780996120E+03  0.12033837496E+03  0.00000000000E+00 0. -1.
</event>
<event>
 4    1  0.3305068E+006  0.2224860E+02  0.7546771E-02  0.1502155E+00
         21   -1    0    0  504  501  0.00000000000E+00  0.00000000000E+00  0.99606918240E+00  0.99606918240E+00  0.00000000000E+00 0.  1.
         21   -1    0    0  501  502 -0.00000000000E+00 -0.00000000000E+00 -0.49717820049E+03  0.49717820049E+03  0.00000000000E+00 0.  1.
         21    1    1    2  503  502 -0.16560879671E+02  0.14857237283E+02 -0.24279768035E+03  0.24381491714E+03  0.00000000000E+00 0.  1.
         21    1    1    2  504  503  0.16560879671E+02 -0.14857237283E+02 -0.25338445096E+03  0.25435935254E+03  0.00000000000E+00 0.  1.
</event>
<event>
 4    1  0.3305068E+006  0.4407695E+02  0.7546771E-02  0.1326120E+00
         21   -1    0    0  503  501  0.00000000000E+00  0.00000000000E+00  0.12282298073E+02  0.12282298073E+02  0.00000000000E+00 0.  1.
         21   -1    0    0  504  502 -0.00000000000E+00 -0.00000000000E+00 -0.21038053579E+03  0.21038053579E+03  0.00000000000E+00 0.  1.
         21    1    1    2  503  502 -0.44058683366E+02  0.12687168483E+01 -0.43591034583E+02  0.61991576189E+02  0.00000000000E+00 0.  1.
         21    1    1    2  504  501  0.44058683366E+02 -0.12687168483E+01 -0.15450720314E+03  0.16067125768E+03  0.00000000000E+00 0.  1.
</event>
<event>
 4    1  0.3305068E+006  0.2818411E+02  0.7546771E-02  0.1436063E+00
         21   -1    0    0  502  501  0.00000000000E+00  0.00000000000E+00  0.36266671921E+02  0.36266671921E+02  0.00000000000E+00 0.  1.
         21   -1    0    0  504  502 -0.00000000000E+00 -0.00000000000E+00 -0.38058745286E+02  0.38058745286E+02  0.00000000000E+00 0.  1.
         21    1    1    2  503  501 -0.22720288153E+02 -0.16677307700E+02  0.23316785647E+02  0.36578908934E+02  0.00000000000E+00 0.  1.
         21    1    1    2  504  503  0.22720288153E+02  0.16677307700E+02 -0.25108859013E+02  0.37746508273E+02  0.00000000000E+00 0.  1.
</event>
<event>
 4    1  0.3305068E+006  0.2562443E+02  0.7546771E-02  0.1461938E+00
         21   -1    0    0  504  501  0.00000000000E+00  0.00000000000E+00  0.13769845686E+02  0.13769845686E+02  0.00000000000E+00 0.  1.
         21   -1    0    0  503  502 -0.00000000000E+00 -0.00000000000E+00 -0.32425905459E+03  0.32425905459E+03  0.00000000000E+00 0. -1.
         21    1    1    2  503  501  0.74548988379E+01  0.24516035925E+02  0.84849414932E+00  0.25638476485E+02  0.00000000000E+00 0.  1.
         21    1    1    2  504  502 -0.74548988379E+01 -0.24516035925E+02 -0.31133770305E+03  0.31239042379E+03  0.00000000000E+00 0. -1.
</event>
<event>
 4    1  0.3305068E+006  0.2235010E+02  0.7546771E-02  0.1500824E+00
         21   -1    0    0  502  501  0.00000000000E+00  0.00000000000E+00  0.28078131347E+03  0.28078131347E+03  0.00000000000E+00 0.  1.
         21   -1    0    0  503  502 -0.00000000000E+00 -0.00000000000E+00 -0.66992570476E+01  0.66992570476E+01  0.00000000000E+00 0. -1.
         21    1    1    2  503  504  0.18583838380E+02  0.12416430438E+02  0.13856424401E+02  0.26296906490E+02  0.00000000000E+00 0. -1.
         21    1    1    2  504  501 -0.18583838380E+02 -0.12416430438E+02  0.26022563203E+03  0.26118366403E+03  0.00000000000E+00 0.  1.
</event>
<event>
 4    1  0.3305068E+006  0.3869486E+02  0.7546771E-02  0.1356308E+00
         21   -1    0    0  504  501  0.00000000000E+00  0.00000000000E+00  0.34423164002E+03  0.34423164002E+03  0.00000000000E+00 0.  1.
         21   -1    0    0  503  502 -0.00000000000E+00 -0.00000000000E+00 -0.45598761700E+01  0.45598761700E+01  0.00000000000E+00 0.  1.
         21    1    1    2  503  501  0.35277239036E+02  0.15899957784E+02  0.20728033421E+03  0.21086116096E+03  0.00000000000E+00 0.  1.
         21    1    1    2  504  502 -0.35277239036E+02 -0.15899957784E+02  0.13239142964E+03  0.13793035523E+03  0.00000000000E+00 0.  1.
</event>
<event>
 4    1  0.3305068E+006  0.3609078E+02  0.7546771E-02  0.1373053E+00
         21   -1    0    0  503  501  0.00000000000E+00  0.00000000000E+00  0.16759147355E+02  0.16759147355E+02  0.00000000000E+00 0.  1.
         21   -1    0    0  504  502 -0.00000000000E+00 -0.00000000000E+00 -0.10584396278E+03  0.10584396278E+03  0.00000000000E+00 0. -1.
         21    1    1    2  503  502  0.24895419068E+02  0.26129722526E+02 -0.76140869522E+02  0.84261357107E+02  0.00000000000E+00 0. -1.
         21    1    1    2  504  501 -0.24895419068E+02 -0.26129722526E+02 -0.12943945906E+02  0.38341753031E+02  0.00000000000E+00 0.  1.
</event>
<event>
 4    1  0.3305068E+006  0.2042703E+02  0.7546771E-02  0.1527605E+00
         21   -1    0    0  503  501  0.00000000000E+00  0.00000000000E+00  0.10688230453E+01  0.10688230453E+01  0.00000000000E+00 0.  1.
         21   -1    0    0  504  502 -0.00000000000E+00 -0.00000000000E+00 -0.40171295577E+03  0.40171295577E+03  0.00000000000E+00 0.  1.
         21    1    1    2  503  502 -0.20045376825E+02  0.39302114217E+01 -0.23412516730E+03  0.23501459030E+03  0.00000000000E+00 0.  1.
         21    1    1    2  504  501  0.20045376825E+02 -0.39302114217E+01 -0.16651896542E+03  0.16776718851E+03  0.00000000000E+00 0.  1.
</event>
<event>
 4    1  0.3305068E+006  0.2371434E+02  0.7546771E-02  0.1483718E+00
         21   -1    0    0  504  501  0.00000000000E+00  0.00000000000E+00  0.59774291704E+02  0.59774291704E+02  0.00000000000E+00 0. -1.
         21   -1    0    0  501  502 -0.00000000000E+00 -0.00000000000E+00 -0.10688820621E+03  0.10688820621E+03  0.00000000000E+00 0.  1.
         21    1    1    2  503  502 -0.20894843599E+02  0.11214961012E+02 -0.10313636826E+03  0.10582759705E+03  0.00000000000E+00 0.  1.
         21    1    1    2  504  503  0.20894843599E+02 -0.11214961012E+02  0.56022453750E+02  0.60834900869E+02  0.00000000000E+00 0. -1.
</event>
<event>
 4    1  0.3305068E+006  0.2659226E+02  0.7546771E-02  0.1451747E+00
         21   -1    0    0  502  501  0.00000000000E+00  0.00000000000E+00  0.44252588331E+01  0.44252588331E+01  0.00000000000E+00 0. -1.
         21   -1    0    0  504  502 -0.00000000000E+00 -0.00000000000E+00 -0.17740429212E+03  0.17740429212E+03  0.00000000000E+00 0. -1.
         21    1    1    2  503  501 -0.88685375406E+01  0.25069850542E+02 -0.57848793286E+02  0.63668133701E+02  0.00000000000E+00 0. -1.
         21    1    1    2  504  503  0.88685375406E+01 -0.25069850542E+02 -0.11513024000E+03  0.11816141725E+03  0.00000000000E+00 0. -1.
</event>
<event>
 4    1  0.3305068E+006  0.2640792E+02  0.7546771E-02  0.1453648E+00
         21   -1    0    0  502  501  0.00000000000E+00  0.00000000000E+00  0.40591443075E+01  0.40591443075E+01  0.00000000000E+00 0.  1.
         21   -1    0    0  503  502 -0.00000000000E+00 -0.00000000000E+00 -0.47857033465E+03  0.47857033465E+03  0.00000000000E+00 0. -1.
         21    1    1    2  503  504 -0.65982740847E+01 -0.25570319183E+02 -0.43045892134E+03  0.43126820125E+03  0.00000000000E+00 0. -1.
         21    1    1    2  504  501  0.65982740847E+01  0.25570319183E+02 -0.44052269005E+02  0.51361277715E+02  0.00000000000E+00 0.  1.
</event>
<event>
 4    1  0.3305068E+006  0.3243055E+02  0.7546771E-02  0.1399587E+00
         21   -1    0    0  504  501  0.00000000000E+00  0.00000000000E+00  0.10099795604E+03  0.10099795604E+03  0.00000000000E+00 0. -1.
         21   -1    0    0  501  502 -0.00000000000E+00 -0.00000000000E+00 -0.16403124948E+03  0.16403124948E+03  0.00000000000E+00 0. -1.
         21    1    1    2  503  502 -0.21004049125E+01 -0.32362463921E+02 -0.15975595355E+03  0.16301443330E+03  0.00000000000E+00 0. -1.
         21    1    1    2  504  503  0.21004049125E+01  0.32362463921E+02  0.96722660102E+02  0.10201477221E+03  0.00000000000E+00 0. -1.
</event>
<event>
 4    1  0.3305068E+006  0.2538831E+02  0.7546771E-02  0.1464506E+00
         21   -1    0    0  503  501  0.00000000000E+00  0.00000000000E+00  0.83518668269E+01  0.83518668269E+01  0.00000000000E+00 0.  1.
         21   -1    0    0  504  502 -0.00000000000E+00 -0.00000000000E+00 -0.80019967929E+02  0.80019967929E+02  0.00000000000E+00 0. -1.
         21    1    1    2  503  502 -0.24541290827E+02  0.65031870366E+01 -0.27504488981E+02  0.37430780265E+02  0.00000000000E+00 0. -1.
         21    1    1    2  504  501  0.24541290827E+02 -0.65031870366E+01 -0.44163612120E+02  0.50941054491E+02  0.00000000000E+00 0.  1.
</event>
<event>
 4    1  0.3305068E+006  0.2669017E+02  0.7546771E-02  0.1450745E+00
         21   -1    0    0  504  501  0.00000000000E+00  0.00000000000E+00  0.77254388810E+02  0.77254388810E+02  0.00000000000E+00 0.  1.
         21   -1    0    0  501  502 -0.00000000000E+00 -0.00000000000E+00 -0.31549766407E+03  0.31549766407E+03  0.00000000000E+00 0. -1.
         21    1    1    2  503  502  0.20896276401E+02  0.16604545270E+02 -0.31260664774E+03  0.31374397444E+03  0.00000000000E+00 0. -1.
         21    1    1    2  504  503 -0.20896276401E+02 -0.16604545270E+02  0.74363372480E+02  0.79008078432E+02  0.00000000000E+00 0.  1.
</event>
<event>
 4    1  0.3305068E+006  0.2812327E+02  0.7546771E-02  0.1436640E+00
         21   -1    0    0  503  501  0.00000000000E+00  0.00000000000E+00  0.15912834600E+04  0.15912834600E+04  0.00000000000E+00 0. -1.
         21   -1    0    0  501  502 -0.00000000000E+00 -0.00000000000E+00 -0.52330699904E+00  0.52330699904E+00  0.00000000000E+00 0. -1.
         21    1    1    2  503  504 -0.11142053260E+02 -0.25821944420E+02  0.97372335162E+03  0.97412939780E+03  0.00000000000E+00 0. -1.
         21    1    1    2  504  502  0.11142053260E+02  0.25821944420E+02  0.61703680138E+03  0.61767736920E+03  0.00000000000E+00 0. -1.
</event>
<event>
 4    1  0.3305068E+006  0.2130943E+02  0.7546771E-02  0.1514893E+00
         21   -1    0    0  502  501  0.00000000000E+00  0.00000000000E+00  0.51241442035E+02  0.51241442035E+02  0.00000000000E+00 0. -1.
         21   -1    0    0  503  502 -0.00000000000E+00 -0.00000000000E+00 -0.72705815188E+02  0.72705815188E+02  0.00000000000E+00 0. -1.
         21    1    1    2  503  504  0.17799591347E+02 -0.11716067111E+02 -0.68806278726E+02  0.72030519037E+02  0.00000000000E+00 0. -1.
         21    1    1    2  504  501 -0.17799591347E+02  0.11716067111E+02  0.47341905573E+02  0.51916738186E+02  0.00000000000E+00 0. -1.
</event>
<event>
 4    1  0.3305068E+006  0.2093415E+02  0.7546771E-02  0.1520207E+00
         21   -1    0    0  504  501  0.00000000000E+00  0.00000000000E+00  0.37568026711E+03  0.37568026711E+03  0.00000000000E+00 0.  1.
         21   -1    0    0  503  502 -0.00000000000E+00 -0.00000000000E+00 -0.12773496206E+01  0.12773496206E+01  0.00000000000E+00 0.  1.
         21    1    1    2  503  501 -0.10627849411E+02  0.18035730437E+02  0.24271954179E+03  0.24362063690E+03  0.00000000000E+00 0.  1.
         21    1    1    2  504  502  0.10627849411E+02 -0.18035730437E+02  0.13168337570E+03  0.13333697984E+03  0.00000000000E+00 0.  1.
</event>
<event>
 4    1  0.3305068E+006  0.3384722E+02  0.7546771E-02  0.1388854E+00
         21   -1    0    0  504  501  0.00000000000E+00  0.00000000000E+00  0.26975823731E+02  0.26975823731E+02  0.00000000000E+00 0.  1.
         21   -1    0    0  503  502 -0.00000000000E+00 -0.00000000000E+00 -0.18526942752E+03  0.18526942752E+03  0.00000000000E+00 0.  1.
         21    1    1    2  503  501  0.11710729659E+01  0.33826955614E+02 -0.17231570206E+03  0.17560847222E+03  0.00000000000E+00 0.  1.
         21    1    1    2  504  502 -0.11710729659E+01 -0.33826955614E+02  0.14022098272E+02  0.36636779033E+02  0.00000000000E+00 0.  1.
</event>
<event>
 4    1  0.3305068E+006  0.2585311E+02  0.7546771E-02  0.1459482E+00
         21   -1    0    0  504  501  0.00000000000E+00  0.00000000000E+00  0.69338949417E+03  0.69338949417E+03  0.00000000000E+00 0.  1.
         21   -1    0    0  503  502 -0.00000000000E+00 -0.00000000000E+00 -0.17542012847E+01  0.17542012847E+01  0.00000000000E+00 0.  1.
         21    1    1    2  503  501  0.19810199666E+02  0.16611427593E+02  0.57910497898E+03  0.57968177495E+03  0.00000000000E+00 0.  1.
         21    1    1    2  504  502 -0.19810199666E+02 -0.16611427593E+02  0.11253031391E+03  0.11546192050E+03  0.00000000000E+00 0.  1.
</event>
<event>
 4    1  0.3305068E+006  0.2789552E+02  0.7546771E-02  0.1438814E+00
         21   -1    0    0  502  501  0.00000000000E+00  0.00000000000E+00  0.15262776171E+04  0.15262776171E+04  0.00000000000E+00 0. -1.
         21   -1    0    0  504  502 -0.00000000000E+00 -0.00000000000E+00 -0.63678838044E+01  0.63678838044E+01  0.00000000000E+00 0.  1.
         21    1    1    2  503  501  0.54355428460E+01 -0.27360832415E+02  0.14949600318E+04  0.14952202703E+04  0.00000000000E+00 0. -1.
         21    1    1    2  504  503 -0.54355428460E+01  0.27360832415E+02  0.24949701552E+02  0.37425230581E+02  0.00000000000E+00 0.  1.
</event>
<event>
 4    1  0.3305068E+006  0.2415633E+02  0.7546771E-02  0.1478467E+00
         21   -1    0    0  502  501  0.00000000000E+00  0.00000000000E+00  0.48366468761E+01  0.48366468761E+01  0.00000000000E+00 0. -1.
         21   -1    0    0  503  502 -0.00000000000E+00 -0.00000000000E+00 -0.93903621089E+03  0.93903621089E+03  0.00000000000E+00 0. -1.
         21    1    1    2  503  504 -0.56298067733E+00  0.24149773415E+02 -0.90767715971E+03  0.90799854337E+03  0.00000000000E+00 0. -1.
         21    1    1    2  504  501  0.56298067733E+00 -0.24149773415E+02 -0.26522404299E+02  0.35874314391E+02  0.00000000000E+00 0. -1.
</event>
<event>
 4    1  0.3305068E+006  0.2140457E+02  0.7546771E-02  0.1513566E+00
         21   -1    0    0  504  501  0.00000000000E+00  0.00000000000E+00  0.44311836809E+02  0.44311836809E+02  0.00000000000E+00 0. -1.
         21   -1    0    0  503  502 -0.00000000000E+00 -0.00000000000E+00 -0.19399163829E+02  0.19399163829E+02  0.00000000000E+00 0. -1.
         21    1    1    2  503  501  0.24855380066E+00 -0.21403131001E+02  0.34226036806E+02  0.40368024364E+02  0.00000000000E+00 0. -1.
         21    1    1    2  504  502 -0.24855380066E+00  0.21403131001E+02 -0.93133638253E+01  0.23342976275E+02  0.00000000000E+00 0. -1.
</event>
<event>
 4    1  0.3305068E+006  0.3149462E+02  0.7546771E-02  0.1407038E+00
         21   -1    0    0  503  501  0.00000000000E+00  0.00000000000E+00  0.80396412127E+01  0.80396412127E+01  0.00000000000E+00 0.  1.
         21   -1    0    0  504  502 -0.00000000000E+00 -0.00000000000E+00 -0.12358103067E+03  0.12358103067E+03  0.00000000000E+00 0.  1.
         21    1    1    2  503  502  0.28598937804E+02  0.13191364454E+02 -0.60441031103E+02  0.68154453857E+02  0.00000000000E+00 0.  1.
         21    1    1    2  504  501 -0.28598937804E+02 -0.13191364454E+02 -0.55100358350E+02  0.63466218021E+02  0.00000000000E+00 0.  1.
</event>
<event>
 4    1  0.3305068E+006  0.2059635E+02  0.7546771E-02  0.1525107E+00
         21   -1    0    0  503  501  0.00000000000E+00  0.00000000000E+00  0.88324298618E+01  0.88324298618E+01  0.00000000000E+00 0. -1.
         21   -1    0    0  504  502 -0.00000000000E+00 -0.00000000000E+00 -0.48992694744E+02  0.48992694744E+02  0.00000000000E+00 0. -1.
         21    1    1    2  503  502  0.12987320827E+02  0.15985590798E+02 -0.24135882877E+02  0.31729331189E+02  0.00000000000E+00 0. -1.
         21    1    1    2  504  501 -0.12987320827E+02 -0.15985590798E+02 -0.16024382005E+02  0.26095793417E+02  0.00000000000E+00 0. -1.
</event>
<event>
 4    1  0.3305068E+006  0.2840927E+02  0.7546771E-02  0.1433943E+00
         21   -1    0    0  502  501  0.00000000000E+00  0.00000000000E+00  0.13195673950E+03  0.13195673950E+03  0.00000000000E+00 0.  1.
         21   -1    0    0  504  502 -0.00000000000E+00 -0.00000000000E+00 -0.13205949487E+03  0.13205949487E+03  0.00000000000E+00 0.  1.
         21    1    1    2  503  501  0.26251321490E+02  0.10860687442E+02  0.12886354181E+03  0.13195794338E+03  0.00000000000E+00 0.  1.
         21    1    1    2  504  503 -0.26251321490E+02 -0.10860687442E+02 -0.12896629718E+03  0.13205829099E+03  0.00000000000E+00 0.  1.
</event>
<event>
 4    1  0.3305068E+006  0.2149957E+02  0.7546771E-02  0.1512250E+00
         21   -1    0    0  504  501  0.00000000000E+00  0.00000000000E+00  0.50280943526E+02  0.50280943526E+02  0.00000000000E+00 0.  1.
         21   -1    0    0  503  502 -0.00000000000E+00 -0.00000000000E+00 -0.10831709773E+02  0.10831709773E+02  0.00000000000E+00 0. -1.
         21    1    1    2  503  501 -0.20061460493E+02 -0.77310696934E+01  0.31609817025E+02  0.38228420946E+02  0.00000000000E+00 0.  1.
         21    1    1    2  504  502  0.20061460493E+02  0.77310696934E+01  0.78394167289E+01  0.22884232353E+02  0.00000000000E+00 0. -1.
</event>
<event>
 4    1  0.3305068E+006  0.2830347E+02  0.7546771E-02  0.1434936E+00
         21   -1    0    0  502  501  0.00000000000E+00  0.00000000000E+00  0.12645791294E+02  0.12645791294E+02  0.00000000000E+00 0. -1.
         21   -1    0    0  503  502 -0.00000000000E+00 -0.00000000000E+00 -0.13018002749E+03  0.13018002749E+03  0.00000000000E+00 0. -1.
         21    1    1    2  503  504  0.24520591394E+02  0.14136014455E+02 -0.10993491056E+03  0.11351991397E+03  0.00000000000E+00 0. -1.
         21    1    1    2  504  501 -0.24520591394E+02 -0.14136014455E+02 -0.75993256347E+01  0.29305904816E+02  0.00000000000E+00 0. -1.
</event>
<event>
 4    1  0.3305068E+006  0.2170195E+02  0.7546771E-02  0.1509474E+00
         21   -1    0    0  504  501  0.00000000000E+00  0.00000000000E+00  0.11495826965E+03  0.11495826965E+03  0.00000000000E+00 0. -1.
         21   -1    0    0  503  502 -0.00000000000E+00 -0.00000000000E+00 -0.92736468707E+01  0.92736468707E+01  0.00000000000E+00 0. -1.
         21    1    1    2  503  501  0.20828464028E+02  0.60950581408E+01  0.99251674251E+02  0.10159660176E+03  0.00000000000E+00 0. -1.
         21    1    1    2  504  502 -0.20828464028E+02 -0.60950581408E+01  0.64329485272E+01  0.22635314760E+02  0.00000000000E+00 0. -1.
</event>
<event>
 4    1  0.3305068E+006  0.2441206E+02  0.7546771E-02  0.1475489E+00
         21   -1    0    0  503  501  0.00000000000E+00  0.00000000000E+00  0.38044382215E+02  0.38044382215E+02  0.00000000000E+00 0. -1.
         21   -1    0    0  504  502 -0.00000000000E+00 -0.00000000000E+00 -0.21007720050E+02  0.21007720050E+02  0.00000000000E+00 0. -1.
         21    1    1    2  503  502 -0.14094961137E+00  0.24411657510E+02  0.23409013153E+02  0.33822045857E+02  0.00000000000E+00 0. -1.
         21    1    1    2  504  501  0.14094961137E+00 -0.24411657510E+02 -0.63723509887E+01  0.25230056407E+02  0.00000000000E+00 0. -1.
</event>
<event>
 4    1  0.3305068E+006  0.2361966E+02  0.7546771E-02  0.1484860E+00
         21   -1    0    0  504  501  0.00000000000E+00  0.00000000000E+00  0.64940106733E+02  0.64940106733E+02  0.00000000000E+00 0.  1.
         21   -1    0    0  501  502 -0.00000000000E+00 -0.00000000000E+00 -0.11120807673E+02  0.11120807673E+02  0.00000000000E+00 0. -1.
         21    1    1    2  503  502  0.20727473778E+02 -0.11325206087E+02  0.87702465944E+01  0.25195350513E+02  0.00000000000E+00 0. -1.
         21    1    1    2  504  503 -0.20727473778E+02  0.11325206087E+02  0.45049052465E+02  0.50865563893E+02  0.00000000000E+00 0.  1.
</event>
<event>
 4    1  0.3305068E+006  0.2188234E+02  0.7546771E-02  0.1507031E+00
         21   -1    0    0  504  501  0.00000000000E+00  0.00000000000E+00  0.77842638338E+01  0.77842638338E+01  0.00000000000E+00 0. -1.
         21   -1    0    0  503  502 -0.00000000000E+00 -0.00000000000E+00 -0.94235725739E+02  0.94235725739E+02  0.00000000000E+00 0.  1.
         21    1    1    2  503  501 -0.13967272528E+02 -0.16844937370E+02 -0.73284383009E+02  0.76481614849E+02  0.00000000000E+00 0.  1.
         21    1    1    2  504  502  0.13967272528E+02  0.16844937370E+02 -0.13167078896E+02  0.25538374724E+02  0.00000000000E+00 0. -1.
</event>
<event>
 4    1  0.3305068E+006  0.2595543E+02  0.7546771E-02  0.1458393E+00
         21   -1    0    0  502  501  0.00000000000E+00  0.00000000000E+00  0.93083481759E+02  0.93083481759E+02  0.00000000000E+00 0. -1.
         21   -1    0    0  503  502 -0.00000000000E+00 -0.00000000000E+00 -0.94572511546E+02  0.94572511546E+02  0.00000000000E+00 0.  1.
         21    1    1    2  503  504 -0.25644328246E+02  0.40065750613E+01 -0.90910840766E+02  0.94543456589E+02  0.00000000000E+00 0.  1.
         21    1    1    2  504  501  0.25644328246E+02 -0.40065750613E+01  0.89421810979E+02  0.93112536716E+02  0.00000000000E+00 0. -1.
</event>
<event>
 4    1  0.3305068E+006  0.3389012E+02  0.7546771E-02  0.1388538E+00
         21   -1    0    0  503  501  0.00000000000E+00  0.00000000000E+00  0.10760357270E+04  0.10760357270E+04  0.00000000000E+00 0. -1.
         21   -1    0    0  501  502 -0.00000000000E+00 -0.00000000000E+00 -0.10789123917E+01  0.10789123917E+01  0.00000000000E+00 0.  1.
         21    1    1    2  503  504 -0.32571537442E+02 -0.93613759949E+01  0.59315518324E+03  0.59412255622E+03  0.00000000000E+00 0. -1.
         21    1    1    2  504  502  0.32571537442E+02  0.93613759949E+01  0.48180163138E+03  0.48299208318E+03  0.00000000000E+00 0.  1.
</event>
<event>
 4    1  0.3305068E+006  0.2083777E+02  0.7546771E-02  0.1521594E+00
         21   -1    0    0  503  501  0.00000000000E+00  0.00000000000E+00  0.13800184838E+03  0.13800184838E+03  0.00000000000E+00 0. -1.
         21   -1    0    0  504  502 -0.00000000000E+00 -0.00000000000E+00 -0.35892339469E+03  0.35892339469E+03  0.00000000000E+00 0. -1.
         21    1    1    2  503  502  0.20743231504E+02 -0.19826928073E+01 -0.35783194964E+03  0.35843816330E+03  0.00000000000E+00 0. -1.
         21    1    1    2  504  501 -0.20743231504E+02  0.19826928073E+01  0.13691040333E+03  0.13848707977E+03  0.00000000000E+00 0. -1.
</event>
<event>
 4    1  0.3305068E+006  0.2141471E+02  0.7546771E-02  0.1513425E+00
         21   -1    0    0  504  501  0.00000000000E+00  0.00000000000E+00  0.98144468890E+03  0.98144468890E+03  0.00000000000E+00 0. -1.
         21   -1    0    0  503  502 -0.00000000000E+00 -0.00000000000E+00 -0.91942304678E+00  0.91942304678E+00  0.00000000000E+00 0.  1.
         21    1    1    2  503  501  0.14723450204E+02 -0.15550242201E+02  0.83471743868E+03  0.83499209125E+03  0.00000000000E+00 0. -1.
         21    1    1    2  504  502 -0.14723450204E+02  0.15550242201E+02  0.14580782717E+03  0.14737202070E+03  0.00000000000E+00 0.  1.
</event>
<event>
 4    1  0.3305068E+006  0.2293960E+02  0.7546771E-02  0.1493258E+00
         21   -1    0    0  503  501  0.00000000000E+00  0.00000000000E+00  0.62868954450E+02  0.62868954450E+02  0.00000000000E+00 0.  1.
         21   -1    0    0  504  502 -0.00000000000E+00 -0.00000000000E+00 -0.83974183490E+01  0.83974183490E+01  0.00000000000E+00 0.  1.
         21    1    1    2  503  502 -0.20609840384E+02  0.10072724263E+02  0.29264697440E+02  0.37183972502E+02  0.00000000000E+00 0.  1.
         21    1    1    2  504  501  0.20609840384E+02 -0.10072724263E+02  0.25206838661E+02  0.34082400298E+02  0.00000000000E+00 0.  1.
</event>
<event>
 4    1  0.3305068E+006  0.2314963E+02  0.7546771E-02  0.1490628E+00
         21   -1    0    0  504  501  0.00000000000E+00  0.00000000000E+00  0.10140457569E+02  0.10140457569E+02  0.00000000000E+00 0. -1.
         21   -1    0    0  503  502 -0.00000000000E+00 -0.00000000000E+00 -0.63976427374E+02  0.63976427374E+02  0.00000000000E+00 0. -1.
         21    1    1    2  503  501  0.20202634412E+02  0.11303059524E+02 -0.42373692454E+02  0.48284939722E+02  0.00000000000E+00 0. -1.
         21    1    1    2  504  502 -0.20202634412E+02 -0.11303059524E+02 -0.11462277351E+02  0.25831945220E+02  0.00000000000E+00 0. -1.
</event>
<event>
 4    1  0.3305068E+006  0.4961041E+02  0.7546771E-02  0.1299870E+00
         21   -1    0    0  504  501  0.00000000000E+00  0.00000000000E+00  0.48196216906E+01  0.48196216906E+01  0.00000000000E+00 0.  1.
         21   -1    0    0  503  502 -0.00000000000E+00 -0.00000000000E+00 -0.10513136656E+04  0.10513136656E+04  0.00000000000E+00 0.  1.
         21    1    1    2  503  501  0.17818405538E+01  0.49578401096E+02 -0.14455883601E+03  0.15283471425E+03  0.00000000000E+00 0.  1.
         21    1    1    2  504  502 -0.17818405538E+01 -0.49578401096E+02 -0.90193520793E+03  0.90329857308E+03  0.00000000000E+00 0.  1.
</event>
<event>
 4    1  0.3305068E+006  0.2375397E+02  0.7546771E-02  0.1483241E+00
         21   -1    0    0  503  501  0.00000000000E+00  0.00000000000E+00  0.23059485139E+02  0.23059485139E+02  0.00000000000E+00 0.  1.
         21   -1    0    0  504  502 -0.00000000000E+00 -0.00000000000E+00 -0.37700796707E+02  0.37700796707E+02  0.00000000000E+00 0.  1.
         21    1    1    2  503  502 -0.79962843300E+01 -0.22367623138E+02 -0.25318389391E+02  0.34717027080E+02  0.00000000000E+00 0.  1.
         21    1    1    2  504  501  0.79962843300E+01  0.22367623138E+02  0.10677077822E+02  0.26043254765E+02  0.00000000000E+00 0.  1.
</event>
<event>
 4    1  0.3305068E+006  0.2030354E+02  0.7546771E-02  0.1529445E+00
         21   -1    0    0  504  501  0.00000000000E+00  0.00000000000E+00  0.17475961737E+03  0.17475961737E+03  0.00000000000E+00 0.  1.
         21   -1    0    0  503  502 -0.00000000000E+00 -0.00000000000E+00 -0.39552663343E+01  0.39552663343E+01  0.00000000000E+00 0.  1.
         21    1    1    2  503  501 -0.93204888349E+01 -0.18037802761E+02  0.28632776798E+02  0.35100851097E+02  0.00000000000E+00 0.  1.
         21    1    1    2  504  502  0.93204888349E+01  0.18037802761E+02  0.14217157424E+03  0.14361403261E+03  0.00000000000E+00 0.  1.
</event>
<event>
 4    1  0.3305068E+006  0.2577961E+02  0.7546771E-02  0.1460268E+00
         21   -1    0    0  503  501  0.00000000000E+00  0.00000000000E+00  0.95548453763E+02  0.95548453763E+02  0.00000000000E+00 0. -1.
         21   -1    0    0  504  502 -0.00000000000E+00 -0.00000000000E+00 -0.23439672407E+03  0.23439672407E+03  0.00000000000E+00 0. -1.
         21    1    1    2  503  502 -0.23413506793E+02  0.10788694538E+02 -0.23193058527E+03  0.23335891800E+03  0.00000000000E+00 0. -1.
         21    1    1    2  504  501  0.23413506793E+02 -0.10788694538E+02  0.93082314957E+02  0.96586259830E+02  0.00000000000E+00 0. -1.
</event>
<event>
 4    1  0.3305068E+006  0.2928237E+02  0.7546771E-02  0.1425937E+00
         21   -1    0    0  503  501  0.00000000000E+00  0.00000000000E+00  0.11009119964E+02  0.11009119964E+02  0.00000000000E+00 0. -1.
         21   -1    0    0  501  502 -0.00000000000E+00 -0.00000000000E+00 -0.46797368458E+03  0.46797368458E+03  0.00000000000E+00 0.  1.
         21    1    1    2  503  504 -0.17491835257E+02  0.23483886305E+02 -0.98268431766E+01  0.30887279962E+02  0.00000000000E+00 0. -1.
         21    1    1    2  504  502  0.17491835257E+02 -0.23483886305E+02 -0.44713772144E+03  0.44809552458E+03  0.00000000000E+00 0.  1.
</event>
<event>
 4    1  0.3305068E+006  0.2407565E+02  0.7546771E-02  0.1479416E+00
         21   -1    0    0  503  501  0.00000000000E+00  0.00000000000E+00  0.21456945350E+03  0.21456945350E+03  0.00000000000E+00 0.  1.
         21   -1    0    0  501  502 -0.00000000000E+00 -0.00000000000E+00 -0.63304990331E+02  0.63304990331E+02  0.00000000000E+00 0. -1.
         21    1    1    2  503  504 -0.22668564322E+02 -0.81100614813E+01  0.21157272166E+03  0.21293814467E+03  0.00000000000E+00 0.  1.
         21    1    1    2  504  502  0.22668564322E+02  0.81100614813E+01 -0.60308258494E+02  0.64936299157E+02  0.00000000000E+00 0. -1.
</event>
<event>
 4    1  0.3305068E+006  0.2572391E+02  0.7546771E-02  0.1460866E+00
         21   -1    0    0  504  501  0.00000000000E+00  0.00000000000E+00  0.33488032264E+02  0.33488032264E+02  0.00000000000E+00 0. -1.
         21   -1    0    0  501  502 -0.00000000000E+00 -0.00000000000E+00 -0.31772095620E+02  0.31772095620E+02  0.00000000000E+00 0.  1.
         21    1    1    2  503  502 -0.19393732518E+02 -0.16899780748E+02 -0.19205526318E+02  0.32102518460E+02  0.00000000000E+00 0.  1.
         21    1    1    2  504  503  0.19393732518E+02  0.16899780748E+02  0.20921462962E+02  0.33157609425E+02  0.00000000000E+00 0. -1.
</event>
<event>
 4    1  0.3305068E+006  0.2016141E+02  0.7546771E-02  0.1531582E+00
         21   -1    0    0  504  501  0.00000000000E+00  0.00000000000E+00  0.28425627095E+03  0.28425627095E+03  0.00000000000E+00 0.  1.
         21   -1    0    0  503  502 -0.00000000000E+00 -0.00000000000E+00 -0.29571497215E+01  0.29571497215E+01  0.00000000000E+00 0. -1.
         21    1    1    2  503  501 -0.19973842947E+02  0.27437546177E+01  0.24384982846E+03  0.24468187802E+03  0.00000000000E+00 0.  1.
         21    1    1    2  504  502  0.19973842947E+02 -0.27437546177E+01  0.37449292770E+02  0.42531542653E+02  0.00000000000E+00 0. -1.
</event>
<event>
 4    1  0.3305068E+006  0.2855297E+02  0.7546771E-02  0.1432602E+00
         21   -1    0    0  504  501  0.00000000000E+00  0.00000000000E+00  0.87444520169E+02  0.87444520169E+02  0.00000000000E+00 0. -1.
         21   -1    0    0  503  502 -0.00000000000E+00 -0.00000000000E+00 -0.40438654038E+02  0.40438654038E+02  0.00000000000E+00 0. -1.
         21    1    1    2  503  501 -0.27583441365E+02  0.73773935742E+01  0.79591247009E+02  0.84557901901E+02  0.00000000000E+00 0. -1.
         21    1    1    2  504  502  0.27583441365E+02 -0.73773935742E+01 -0.32585380878E+02  0.43325272307E+02  0.00000000000E+00 0. -1.
</event>
<event>
 4    1  0.3305068E+006  0.3587598E+02  0.7546771E-02  0.1374507E+00
         21   -1    0    0  504  501  0.00000000000E+00  0.00000000000E+00  0.54356045800E+01  0.54356045800E+01  0.00000000000E+00 0.  1.
         21   -1    0    0  503  502 -0.00000000000E+00 -0.00000000000E+00 -0.32329030180E+03  0.32329030180E+03  0.00000000000E+00 0.  1.
         21    1    1    2  503  501  0.27251190868E+02  0.23333637244E+02 -0.73907292668E+02  0.82154573459E+02  0.00000000000E+00 0.  1.
         21    1    1    2  504  502 -0.27251190868E+02 -0.23333637244E+02 -0.24394740455E+03  0.24657133292E+03  0.00000000000E+00 0.  1.
</event>
<event>
 4    1  0.3305068E+006  0.2299369E+02  0.7546771E-02  0.1492577E+00
         21   -1    0    0  503  501  0.00000000000E+00  0.00000000000E+00  0.66548634834E+01  0.66548634834E+01  0.00000000000E+00 0. -1.
         21   -1    0    0  501  502 -0.00000000000E+00 -0.00000000000E+00 -0.11709864369E+03  0.11709864369E+03  0.00000000000E+00 0.  1.
         21    1    1    2  503  504 -0.22844692969E+02 -0.26133920692E+01 -0.20135167875E+02  0.30563618901E+02  0.00000000000E+00 0. -1.
         21    1    1    2  504  502  0.22844692969E+02  0.26133920692E+01 -0.90308612331E+02  0.93189888272E+02  0.00000000000E+00 0.  1.
</event>
<event>
 4    1  0.3305068E+006  0.2059716E+02  0.7546771E-02  0.1525095E+00
         21   -1    0    0  504  501  0.00000000000E+00  0.00000000000E+00  0.20420344951E+02  0.20420344951E+02  0.00000000000E+00 0. -1.
         21   -1    0    0  503  502 -0.00000000000E+00 -0.00000000000E+00 -0.42769194940E+02  0.42769194940E+02  0.00000000000E+00 0. -1.
         21    1    1    2  503  501  0.67864369931E+01  0.19447036477E+02  0.11482382796E+02  0.23581519660E+02  0.00000000000E+00 0. -1.
         21    1    1    2  504  502 -0.67864369931E+01 -0.19447036477E+02 -0.33831232785E+02  0.39608020230E+02  0.00000000000E+00 0. -1.
</event>
<event>
 4    1  0.3305068E+006  0.4004140E+02  0.7546771E-02  0.1348243E+00
         21   -1    0    0  504  501  0.00000000000E+00  0.00000000000E+00  0.39665290874E+03  0.39665290874E+03  0.00000000000E+00 0. -1.
         21   -1    0    0  501  502 -0.00000000000E+00 -0.00000000000E+00 -0.33664602386E+03  0.33664602386E+03  0.00000000000E+00 0.  1.
         21    1    1    2  503  502 -0.39937641038E+02  0.28807130689E+01 -0.33443819717E+03  0.33682669343E+03  0.00000000000E+00 0.  1.
         21    1    1    2  504  503  0.39937641038E+02 -0.28807130689E+01  0.39444508205E+03  0.39647223917E+03  0.00000000000E+00 0. -1.
</event>
<event>
 4    1  0.3305068E+006  0.2245188E+02  0.7546771E-02  0.1499498E+00
         21   -1    0    0  502  501  0.00000000000E+00  0.00000000000E+00  0.35343327426E+03  0.35343327426E+03  0.00000000000E+00 0. -1.
         21   -1    0    0  504  502 -0.00000000000E+00 -0.00000000000E+00 -0.17739717755E+01  0.17739717755E+01  0.00000000000E+00 0. -1.
         21    1    1    2  503  501 -0.21960036824E+02  0.46737355841E+01  0.25445986201E+03  0.25544844567E+03  0.00000000000E+00 0. -1.
         21    1    1    2  504  503  0.21960036824E+02 -0.46737355841E+01  0.97199440477E+02  0.99758800367E+02  0.00000000000E+00 0. -1.
</event>
<event>
 4    1  0.3305068E+006  0.3192926E+02  0.7546771E-02  0.1403540E+00
         21   -1    0    0  502  501  0.00000000000E+00  0.00000000000E+00  0.16665226962E+03  0.16665226962E+03  0.00000000000E+00 0.  1.
         21   -1    0    0  504  502 -0.00000000000E+00 -0.00000000000E+00 -0.23569626635E+02  0.23569626635E+02  0.00000000000E+00 0.  1.
         21    1    1    2  503  501 -0.27950945708E+02 -0.15434453818E+02  0.15338396452E+03  0.15667200868E+03  0.00000000000E+00 0.  1.
         21    1    1    2  504  503  0.27950945708E+02  0.15434453818E+02 -0.10301321541E+02  0.33549887572E+02  0.00000000000E+00 0.  1.
</event>
<event>
 4    1  0.3305068E+006  0.2268346E+02  0.7546771E-02  0.1496512E+00
         21   -1    0    0  504  501  0.00000000000E+00  0.00000000000E+00  0.38662616751E+01  0.38662616751E+01  0.00000000000E+00 0. -1.
         21   -1    0    0  503  502 -0.00000000000E+00 -0.00000000000E+00 -0.10081564244E+04  0.10081564244E+04  0.00000000000E+00 0. -1.
         21    1    1    2  503  501  0.22135135674E+02  0.49573460465E+01 -0.30714050142E+02  0.38182357015E+02  0.00000000000E+00 0. -1.
         21    1    1    2  504  502 -0.22135135674E+02 -0.49573460465E+01 -0.97357611258E+03  0.97384032905E+03  0.00000000000E+00 0. -1.
</event>
<event>
 4    1  0.3305068E+006  0.2443984E+02  0.7546771E-02  0.1475168E+00
         21   -1    0    0  504  501  0.00000000000E+00  0.00000000000E+00  0.21908537641E+02  0.21908537641E+02  0.00000000000E+00 0.  1.
         21   -1    0    0  503  502 -0.00000000000E+00 -0.00000000000E+00 -0.27950605290E+02  0.27950605290E+02  0.00000000000E+00 0.  1.
         21    1    1    2  503  501  0.17152027017E+02  0.17410156355E+02  0.88737246099E+00  0.24455940075E+02  0.00000000000E+00 0.  1.
         21    1    1    2  504  502 -0.17152027017E+02 -0.17410156355E+02 -0.69294401099E+01  0.25403202856E+02  0.00000000000E+00 0.  1.
</event>
<event>
 4    1  0.3305068E+006  0.2506704E+02  0.7546771E-02  0.1468055E+00
         21   -1    0    0  504  501  0.00000000000E+00  0.00000000000E+00  0.37942729187E+02  0.37942729187E+02  0.00000000000E+00 0. -1.
         21   -1    0    0  501  502 -0.00000000000E+00 -0.00000000000E+00 -0.26725435249E+02  0.26725435249E+02  0.00000000000E+00 0. -1.
         21    1    1    2  503  502  0.13346676287E+02  0.21218455692E+02 -0.14332357896E+02  0.28875129657E+02  0.00000000000E+00 0. -1.
         21    1    1    2  504  503 -0.13346676287E+02 -0.21218455692E+02  0.25549651833E+02  0.35793034779E+02  0.00000000000E+00 0. -1.
</event>
<event>
 4    1  0.3305068E+006  0.2168634E+02  0.7546771E-02  0.1509687E+00
         21   -1    0    0  502  501  0.00000000000E+00  0.00000000000E+00  0.71045666809E+02  0.71045666809E+02  0.00000000000E+00 0.  1.
         21   -1    0    0  504  502 -0.00000000000E+00 -0.00000000000E+00 -0.12499167666E+03  0.12499167666E+03  0.00000000000E+00 0. -1.
         21    1    1    2  503  501  0.13217268540E+00 -0.21685933451E+02  0.68414791180E+02  0.71769637253E+02  0.00000000000E+00 0.  1.
         21    1    1    2  504  503 -0.13217268540E+00  0.21685933451E+02 -0.12236080103E+03  0.12426770621E+03  0.00000000000E+00 0. -1.
</event>
<event>
 4    1  0.3305068E+006  0.2451161E+02  0.7546771E-02  0.1474342E+00
         21   -1    0    0  502  501  0.00000000000E+00  0.00000000000E+00  0.52384076842E+01  0.52384076842E+01  0.00000000000E+00 0. -1.
         21   -1    0    0  504  502 -0.00000000000E+00 -0.00000000000E+00 -0.11545991531E+03  0.11545991531E+03  0.00000000000E+00 0. -1.
         21    1    1    2  503  501  0.24509471412E+02  0.32341277615E+00 -0.60023034128E+02  0.64835047703E+02  0.00000000000E+00 0. -1.
         21    1    1    2  504  503 -0.24509471412E+02 -0.32341277615E+00 -0.50198473499E+02  0.55863275292E+02  0.00000000000E+00 0. -1.
</event>
<event>
 4    1  0.3305068E+006  0.2021433E+02  0.7546771E-02  0.1530784E+00
         21   -1    0    0  503  501  0.00000000000E+00  0.00000000000E+00  0.22099785281E+01  0.22099785281E+01  0.00000000000E+00 0.  1.
         21   -1    0    0  504  502 -0.00000000000E+00 -0.00000000000E+00 -0.49964450256E+03  0.49964450256E+03  0.00000000000E+00 0. -1.
         21    1    1    2  503  502  0.92990789610E+01 -0.17948429377E+02 -0.44787547338E+03  0.44833141608E+03  0.00000000000E+00 0. -1.
         21    1    1    2  504  501 -0.92990789610E+01  0.17948429377E+02 -0.49559050651E+02  0.53523065010E+02  0.00000000000E+00 0.  1.
</event>
<event>
 4    1  0.3305068E+006  0.2088296E+02  0.7546771E-02  0.1520942E+00
         21   -1    0    0  504  501  0.00000000000E+00  0.00000000000E+00  0.31558043576E+03  0.31558043576E+03  0.00000000000E+00 0. -1.
         21   -1    0    0  503  502 -0.00000000000E+00 -0.00000000000E+00 -0.27648246108E+01  0.27648246108E+01  0.00000000000E+00 0. -1.
         21    1    1    2  503  501 -0.11153350160E+02 -0.17655051366E+02  0.26898103336E+03  0.26979046381E+03  0.00000000000E+00 0. -1.
         21    1    1    2  504  502  0.11153350160E+02  0.17655051366E+02  0.43834577788E+02  0.48554796553E+02  0.00000000000E+00 0. -1.
</event>
<event>
 4    1  0.3305068E+006  0.3886606E+02  0.7546771E-02  0.1355262E+00
         21   -1    0    0  504  501  0.00000000000E+00  0.00000000000E+00  0.37204916296E+03  0.37204916296E+03  0.00000000000E+00 0. -1.
         21   -1    0    0  503  502 -0.00000000000E+00 -0.00000000000E+00 -0.22232567733E+02  0.22232567733E+02  0.00000000000E+00 0.  1.
         21    1    1    2  503  501 -0.26977592849E+02  0.27978206841E+02 -0.33248010322E+01  0.39008010406E+02  0.00000000000E+00 0.  1.
         21    1    1    2  504  502  0.26977592849E+02 -0.27978206841E+02  0.35314139626E+03  0.35527372029E+03  0.00000000000E+00 0. -1.
</event>
<event>
 4    1  0.3305068E+006  0.2215279E+02  0.7546771E-02  0.1503420E+00
         21   -1    0    0  502  501  0.00000000000E+00  0.00000000000E+00  0.38952635587E+02  0.38952635587E+02  0.00000000000E+00 0. -1.
         21   -1    0    0  503  502 -0.00000000000E+00 -0.00000000000E+00 -0.19516271681E+02  0.19516271681E+02  0.00000000000E+00 0. -1.
         21    1    1    2  503  504 -0.21691915561E+02  0.44952049255E+01 -0.76870024048E+01  0.23448583625E+02  0.00000000000E+00 0. -1.
         21    1    1    2  504  501  0.21691915561E+02 -0.44952049255E+01  0.27123366311E+02  0.35020323643E+02  0.00000000000E+00 0. -1.
</event>
<event>
 4    1  0.3305068E+006  0.2062672E+02  0.7546771E-02  0.1524662E+00
         21   -1    0    0  503  501  0.00000000000E+00  0.00000000000E+00  0.58003665719E+02  0.58003665719E+02  0.00000000000E+00 0.  1.
         21   -1    0    0  504  502 -0.00000000000E+00 -0.00000000000E+00 -0.13032932757E+03  0.13032932757E+03  0.00000000000E+00 0. -1.
         21    1    1    2  503  502  0.18877029728E+02  0.83137965877E+01  0.55315395925E+02  0.59036044002E+02  0.00000000000E+00 0.  1.
         21    1    1    2  504  501 -0.18877029728E+02 -0.83137965877E+01 -0.12764105777E+03  0.12929694929E+03  0.00000000000E+00 0. -1.
</event>
<event>
 4    1  0.3305068E+006  0.2136485E+02  0.7546771E-02  0.1514119E+00
         21   -1    0    0  502  501  0.00000000000E+00  0.00000000000E+00  0.35210998061E+02  0.35210998061E+02  0.00000000000E+00 0.  1.
         21   -1    0    0  504  502 -0.00000000000E+00 -0.00000000000E+00 -0.13086062057E+02  0.13086062057E+02  0.00000000000E+00 0.  1.
         21    1    1    2  503  501  0.65821923108E+01  0.20325642888E+02  0.13399703203E+02  0.25219220058E+02  0.00000000000E+00 0.  1.
         21    1    1    2  504  503 -0.65821923108E+01 -0.20325642888E+02  0.87252328014E+01  0.23077840061E+02  0.00000000000E+00 0.  1.
</event>
<event>
 4    1  0.3305068E+006  0.2481971E+02  0.7546771E-02  0.1470830E+00
         21   -1    0    0  504  501  0.00000000000E+00  0.00000000000E+00  0.86414238760E+01  0.86414238760E+01  0.00000000000E+00 0.  1.
         21   -1    0    0  503  502 -0.00000000000E+00 -0.00000000000E+00 -0.11715293243E+03  0.11715293243E+03  0.00000000000E+00 0.  1.
         21    1    1    2  503  501  0.11498231657E+02 -0.21995654682E+02 -0.14900624229E+02  0.28949037265E+02  0.00000000000E+00 0.  1.
         21    1    1    2  504  502 -0.11498231657E+02  0.21995654682E+02 -0.93610884328E+02  0.96845319045E+02  0.00000000000E+00 0.  1.
</event>
<event>
 4    1  0.3305068E+006  0.2026996E+02  0.7546771E-02  0.1529948E+00
         21   -1    0    0  502  501  0.00000000000E+00  0.00000000000E+00  0.67925247753E+03  0.67925247753E+03  0.00000000000E+00 0. -1.
         21   -1    0    0  503  502 -0.00000000000E+00 -0.00000000000E+00 -0.74175940427E+00  0.74175940427E+00  0.00000000000E+00 0. -1.
         21    1    1    2  503  504 -0.31922564786E+01 -0.20017009716E+02  0.19320547409E+03  0.19426586524E+03  0.00000000000E+00 0. -1.
         21    1    1    2  504  501  0.31922564786E+01  0.20017009716E+02  0.48530524404E+03  0.48572837170E+03  0.00000000000E+00 0. -1.
</event>
<event>
 4    1  0.3305068E+006  0.2053069E+02  0.7546771E-02  0.1526072E+00
         21   -1    0    0  504  501  0.00000000000E+00  0.00000000000E+00  0.86374539581E+02  0.86374539581E+02  0.00000000000E+00 0.  1.
         21   -1    0    0  501  502 -0.00000000000E+00 -0.00000000000E+00 -0.12891845113E+02  0.12891845113E+02  0.00000000000E+00 0. -1.
         21    1    1    2  503  502 -0.13203965754E+02  0.15721469613E+02 -0.23860041979E+01  0.20668873565E+02  0.00000000000E+00 0. -1.
         21    1    1    2  504  503  0.13203965754E+02 -0.15721469613E+02  0.75868698666E+02  0.78597511129E+02  0.00000000000E+00 0.  1.
</event>
<event>
 4    1  0.3305068E+006  0.2384821E+02  0.7546771E-02  0.1482113E+00
         21   -1    0    0  504  501  0.00000000000E+00  0.00000000000E+00  0.93376764429E+01  0.93376764429E+01  0.00000000000E+00 0.  1.
         21   -1    0    0  503  502 -0.00000000000E+00 -0.00000000000E+00 -0.61300977799E+02  0.61300977799E+02  0.00000000000E+00 0.  1.
         21    1    1    2  503  501  0.20095950885E+02  0.12840952724E+02 -0.28810269471E+02  0.37400119462E+02  0.00000000000E+00 0.  1.
         21    1    1    2  504  502 -0.20095950885E+02 -0.12840952724E+02 -0.23153031886E+02  0.33238534780E+02  0.00000000000E+00 0.  1.
</event>
<event>
 4    1  0.3305068E+006  0.2232514E+02  0.7546771E-02  0.1501151E+00
         21   -1    0    0  503  501  0.00000000000E+00  0.00000000000E+00  0.11700251992E+02  0.11700251992E+02  0.00000000000E+00 0.  1.
         21   -1    0    0  504  502 -0.00000000000E+00 -0.00000000000E+00 -0.50439742712E+02  0.50439742712E+02  0.00000000000E+00 0.  1.
         21    1    1    2  503  502 -0.37201558058E+00 -0.22322042825E+02 -0.71193513525E+01  0.23432822177E+02  0.00000000000E+00 0.  1.
         21    1    1    2  504  501  0.37201558058E+00  0.22322042825E+02 -0.31620139367E+02  0.38707172527E+02  0.00000000000E+00 0.  1.
</event>
<event>
 4    1  0.3305068E+006  0.3012124E+02  0.7546771E-02  0.1418546E+00
         21   -1    0    0  503  501  0.00000000000E+00  0.00000000000E+00  0.21655069660E+02  0.21655069660E+02  0.00000000000E+00 0.  1.
         21   -1    0    0  504  502 -0.00000000000E+00 -0.00000000000E+00 -0.92486152383E+03  0.92486152383E+03  0.00000000000E+00 0.  1.
         21    1    1    2  503  502  0.26044354141E+02  0.15132111469E+02 -0.91401771356E+03  0.91451389814E+03  0.00000000000E+00 0.  1.
         21    1    1    2  504  501 -0.26044354141E+02 -0.15132111469E+02  0.10811259394E+02  0.32002695352E+02  0.00000000000E+00 0.  1.
</event>
<event>
 4    1  0.3305068E+006  0.2646024E+02  0.7546771E-02  0.1453107E+00
         21   -1    0    0  504  501  0.00000000000E+00  0.00000000000E+00  0.11244050674E+03  0.11244050674E+03  0.00000000000E+00 0.  1.
         21   -1    0    0  503  502 -0.00000000000E+00 -0.00000000000E+00 -0.86733523143E+01  0.86733523143E+01  0.00000000000E+00 0.  1.
         21    1    1    2  503  501  0.77743665501E+01  0.25292363086E+02  0.19721231356E+02  0.33001081375E+02  0.00000000000E+00 0.  1.
         21    1    1    2  504  502 -0.77743665501E+01 -0.25292363086E+02  0.84045923066E+02  0.88112777676E+02  0.00000000000E+00 0.  1.
</event>
<event>
 4    1  0.3305068E+006  0.3010269E+02  0.7546771E-02  0.1418706E+00
         21   -1    0    0  504  501  0.00000000000E+00  0.00000000000E+00  0.70288682504E+02  0.70288682504E+02  0.00000000000E+00 0. -1.
         21   -1    0    0  503  502 -0.00000000000E+00 -0.00000000000E+00 -0.42092116269E+03  0.42092116269E+03  0.00000000000E+00 0.  1.
         21    1    1    2  503  501  0.13796918115E+02 -0.26754754286E+02 -0.41713066918E+03  0.41821545523E+03  0.00000000000E+00 0.  1.
         21    1    1    2  504  502 -0.13796918115E+02  0.26754754286E+02  0.66498188993E+02  0.72994389961E+02  0.00000000000E+00 0. -1.
</event>
<event>
 4    1  0.3305068E+006  0.2282151E+02  0.7546771E-02  0.1494752E+00
         21   -1    0    0  502  501  0.00000000000E+00  0.00000000000E+00  0.60155244332E+03  0.60155244332E+03  0.00000000000E+00 0. -1.
         21   -1    0    0  504  502 -0.00000000000E+00 -0.00000000000E+00 -0.65397894066E+02  0.65397894066E+02  0.00000000000E+00 0. -1.
         21    1    1    2  503  501  0.18992032849E+02 -0.12654005153E+02  0.59933766916E+03  0.59977200904E+03  0.00000000000E+00 0. -1.
         21    1    1    2  504  503 -0.18992032849E+02  0.12654005153E+02 -0.63183119905E+02  0.67178328344E+02  0.00000000000E+00 0. -1.
</event>
<event>
 4    1  0.3305068E+006  0.2001942E+02  0.7546771E-02  0.1533739E+00
         21   -1    0    0  503  501  0.00000000000E+00  0.00000000000E+00  0.21660613787E+03  0.21660613787E+03  0.00000000000E+00 0.  1.
         21   -1    0    0  501  502 -0.00000000000E+00 -0.00000000000E+00 -0.19762452651E+01  0.19762452651E+01  0.00000000000E+00 0.  1.
         21    1    1    2  503  504  0.19766158201E+02 -0.31742979156E+01  0.13490982940E+03  0.13638709340E+03  0.00000000000E+00 0.  1.
         21    1    1    2  504  502 -0.19766158201E+02  0.31742979156E+01  0.79720063207E+02  0.82195289738E+02  0.00000000000E+00 0.  1.
</event>
<event>
 4    1  0.3305068E+006  0.3857748E+02  0.7546771E-02  0.1357029E+00
         21   -1    0    0  503  501  0.00000000000E+00  0.00000000000E+00  0.67341630242E+02  0.67341630242E+02  0.00000000000E+00 0. -1.
         21   -1    0    0  504  502 -0.00000000000E+00 -0.00000000000E+00 -0.10743913480E+04  0.10743913480E+04  0.00000000000E+00 0.  1.
         21    1    1    2  503  502 -0.23683268670E+02  0.30452010499E+02 -0.10684896509E+04  0.10691858381E+04  0.00000000000E+00 0.  1.
         21    1    1    2  504  501  0.23683268670E+02 -0.30452010499E+02  0.61439933182E+02  0.72547140176E+02  0.00000000000E+00 0. -1.
</event>
<event>
 4    1  0.3305068E+006  0.2376867E+02  0.7546771E-02  0.1483065E+00
         21   -1    0    0  502  501  0.00000000000E+00  0.00000000000E+00  0.10637696435E+03  0.10637696435E+03  0.00000000000E+00 0.  1.
         21   -1    0    0  503  502 -0.00000000000E+00 -0.00000000000E+00 -0.11456395493E+02  0.11456395493E+02  0.00000000000E+00 0.  1.
         21    1    1    2  503  504  0.23727845184E+02  0.13924988384E+01  0.43088450914E+01  0.24156072448E+02  0.00000000000E+00 0.  1.
         21    1    1    2  504  501 -0.23727845184E+02 -0.13924988384E+01  0.90611723766E+02  0.93677287396E+02  0.00000000000E+00 0.  1.
</event>
<event>
 4    1  0.3305068E+006  0.4536196E+02  0.7546771E-02  0.1319639E+00
         21   -1    0    0  504  501  0.00000000000E+00  0.00000000000E+00  0.64012170135E+02  0.64012170135E+02  0.00000000000E+00 0.  1.
         21   -1    0    0  503  502 -0.00000000000E+00 -0.00000000000E+00 -0.33504547576E+02  0.33504547576E+02  0.00000000000E+00 0.  1.
         21    1    1    2  503  501 -0.61090513218E+01  0.44948717019E+02  0.54339938976E+01  0.45686277583E+02  0.00000000000E+00 0.  1.
         21    1    1    2  504  502  0.61090513218E+01 -0.44948717019E+02  0.25073628661E+02  0.51830440128E+02  0.00000000000E+00 0.  1.
</event>
<event>
 4    1  0.3305068E+006  0.2233629E+02  0.7546771E-02  0.1501005E+00
         21   -1    0    0  503  501  0.00000000000E+00  0.00000000000E+00  0.71655270953E+02  0.71655270953E+02  0.00000000000E+00 0. -1.
         21   -1    0    0  504  502 -0.00000000000E+00 -0.00000000000E+00 -0.69696413704E+01  0.69696413704E+01  0.00000000000E+00 0. -1.
         21    1    1    2  503  502 -0.19397257124E+02  0.11075020674E+02  0.33589044872E+02  0.40337744140E+02  0.00000000000E+00 0. -1.
         21    1    1    2  504  501  0.19397257124E+02 -0.11075020674E+02  0.31096584710E+02  0.38287168183E+02  0.00000000000E+00 0. -1.
</event>
<event>
 4    1  0.3305068E+006  0.2279582E+02  0.7546771E-02  0.1495078E+00
         21   -1    0    0  504  501  0.00000000000E+00  0.00000000000E+00  0.42841986915E+00  0.42841986915E+00  0.00000000000E+00 0.  1.
         21   -1    0    0  503  502 -0.00000000000E+00 -0.00000000000E+00 -0.17685968652E+04  0.17685968652E+04  0.00000000000E+00 0.  1.
         21    1    1    2  503  501 -0.18885881936E+02  0.12766081084E+02 -0.13798669018E+04  0.13800551859E+04  0.00000000000E+00 0.  1.
         21    1    1    2  504  502  0.18885881936E+02 -0.12766081084E+02 -0.38830154350E+03  0.38897009917E+03  0.00000000000E+00 0.  1.
</event>
<event>
 4    1  0.3305068E+006  0.2154306E+02  0.7546771E-02  0.1511651E+00
         21   -1    0    0  503  501  0.00000000000E+00  0.00000000000E+00  0.12132167439E+03  0.12132167439E+03  0.00000000000E+00 0.  1.
         21   -1    0    0  504  502 -0.00000000000E+00 -0.00000000000E+00 -0.23249545297E+02  0.23249545297E+02  0.00000000000E+00 0. -1.
         21    1    1    2  503  502 -0.17427332188E+02  0.12664577522E+02 -0.17035657002E+02  0.27464832795E+02  0.00000000000E+00 0. -1.
         21    1    1    2  504  501  0.17427332188E+02 -0.12664577522E+02  0.11510778609E+03  0.11710638689E+03  0.00000000000E+00 0.  1.
</event>
<event>
 4    1  0.3305068E+006  0.2578776E+02  0.7546771E-02  0.1460181E+00
         21   -1    0    0  504  501  0.00000000000E+00  0.00000000000E+00  0.66754532367E+03  0.66754532367E+03  0.00000000000E+00 0.  1.
         21   -1    0    0  501  502 -0.00000000000E+00 -0.00000000000E+00 -0.13207165660E+01  0.13207165660E+01  0.00000000000E+00 0.  1.
         21    1    1    2  503  502  0.16939668512E+02  0.19443670514E+02  0.16733589261E+03  0.16931128033E+03  0.00000000000E+00 0.  1.
         21    1    1    2  504  503 -0.16939668512E+02 -0.19443670514E+02  0.49888871449E+03  0.49955475990E+03  0.00000000000E+00 0.  1.
</event>
<event>
 4    1  0.3305068E+006  0.2563933E+02  0.7546771E-02  0.1461777E+00
         21   -1    0    0  503  501  0.00000000000E+00  0.00000000000E+00  0.55158801928E+02  0.55158801928E+02  0.00000000000E+00 0. -1.
         21   -1    0    0  504  502 -0.00000000000E+00 -0.00000000000E+00 -0.58919706056E+02  0.58919706056E+02  0.00000000000E+00 0.  1.
         21    1    1    2  503  502 -0.21678282589E+02 -0.13690412713E+02  0.49064478027E+02  0.55359717669E+02  0.00000000000E+00 0. -1.
         21    1    1    2  504  501  0.21678282589E+02  0.13690412713E+02 -0.52825382156E+02  0.58718790316E+02  0.00000000000E+00 0.  1.
</event>
<event>
 4    1  0.3305068E+006  0.2065221E+02  0.7546771E-02  0.1524289E+00
         21   -1    0    0  504  501  0.00000000000E+00  0.00000000000E+00  0.11481955352E+02  0.11481955352E+02  0.00000000000E+00 0. -1.
         21   -1    0    0  501  502 -0.00000000000E+00 -0.00000000000E+00 -0.75164718481E+03  0.75164718481E+03  0.00000000000E+00 0. -1.
         21    1    1    2  503  502 -0.19478006189E+02 -0.68644784455E+01 -0.74209925517E+03  0.74238656932E+03  0.00000000000E+00 0. -1.
         21    1    1    2  504  503  0.19478006189E+02  0.68644784455E+01  0.19340257137E+01  0.20742570836E+02  0.00000000000E+00 0. -1.
</event>
<event>
 4    1  0.3305068E+006  0.2251953E+02  0.7546771E-02  0.1498621E+00
         21   -1    0    0  503  501  0.00000000000E+00  0.00000000000E+00  0.51000263747E+02  0.51000263747E+02  0.00000000000E+00 0.  1.
         21   -1    0    0  504  502 -0.00000000000E+00 -0.00000000000E+00 -0.60785075735E+03  0.60785075735E+03  0.00000000000E+00 0.  1.
         21    1    1    2  503  502  0.20947784798E+02 -0.82655712484E+01 -0.60514515654E+03  0.60556402621E+03  0.00000000000E+00 0.  1.
         21    1    1    2  504  501 -0.20947784798E+02  0.82655712484E+01  0.48294662936E+02  0.53286994888E+02  0.00000000000E+00 0.  1.
</event>
<event>
 4    1  0.3305068E+006  0.4312911E+02  0.7546771E-02  0.1331064E+00
         21   -1    0    0  503  501  0.00000000000E+00  0.00000000000E+00  0.84014225763E+01  0.84014225763E+01  0.00000000000E+00 0. -1.
         21   -1    0    0  504  502 -0.00000000000E+00 -0.00000000000E+00 -0.24782709508E+03  0.24782709508E+03  0.00000000000E+00 0. -1.
         21    1    1    2  503  502 -0.61305717209E+01  0.42691173001E+02 -0.77881323130E+02  0.89025954947E+02  0.00000000000E+00 0. -1.
         21    1    1    2  504  501  0.61305717209E+01 -0.42691173001E+02 -0.16154434937E+03  0.16720256271E+03  0.00000000000E+00 0. -1.
</event>
<event>
 4    1  0.3305068E+006  0.2202913E+02  0.7546771E-02  0.1505063E+00
         21   -1    0    0  503  501  0.00000000000E+00  0.00000000000E+00  0.64467006295E+02  0.64467006295E+02  0.00000000000E+00 0. -1.
         21   -1    0    0  504  502 -0.00000000000E+00 -0.00000000000E+00 -0.96789213783E+01  0.96789213783E+01  0.00000000000E+00 0. -1.
         21    1    1    2  503  502  0.19938491059E+02 -0.93669061933E+01  0.44872200323E+02  0.49987965743E+02  0.00000000000E+00 0. -1.
         21    1    1    2  504  501 -0.19938491059E+02  0.93669061933E+01  0.99158845941E+01  0.24157961930E+02  0.00000000000E+00 0. -1.
</event>
<event>
 4    1  0.3305068E+006  0.2455520E+02  0.7546771E-02  0.1473841E+00
         21   -1    0    0  502  501  0.00000000000E+00  0.00000000000E+00  0.10911269917E+04  0.10911269917E+04  0.00000000000E+00 0.  1.
         21   -1    0    0  504  502 -0.00000000000E+00 -0.00000000000E+00 -0.51593362050E+02  0.51593362050E+02  0.00000000000E+00 0.  1.
         21    1    1    2  503  501  0.13637882710E+02 -0.20419750242E+02  0.10880589198E+04  0.10883359642E+04  0.00000000000E+00 0.  1.
         21    1    1    2  504  503 -0.13637882710E+02  0.20419750242E+02 -0.48525290132E+02  0.54384389554E+02  0.00000000000E+00 0.  1.
</event>
<event>
 4    1  0.3305068E+006  0.2522857E+02  0.7546771E-02  0.1466262E+00
         21   -1    0    0  504  501  0.00000000000E+00  0.00000000000E+00  0.52970986303E+03  0.52970986303E+03  0.00000000000E+00 0. -1.
         21   -1    0    0  501  502 -0.00000000000E+00 -0.00000000000E+00 -0.90449715085E+01  0.90449715085E+01  0.00000000000E+00 0. -1.
         21    1    1    2  503  502  0.21526203004E+02 -0.13156883266E+02  0.94848535437E+01  0.26952614711E+02  0.00000000000E+00 0. -1.
         21    1    1    2  504  503 -0.21526203004E+02  0.13156883266E+02  0.51118003798E+03  0.51180221983E+03  0.00000000000E+00 0. -1.
</event>
<event>
 4    1  0.3305068E+006  0.2124492E+02  0.7546771E-02  0.1515797E+00
         21   -1    0    0  503  501  0.00000000000E+00  0.00000000000E+00  0.25346815915E+02  0.25346815915E+02  0.00000000000E+00 0.  1.
         21   -1    0    0  504  502 -0.00000000000E+00 -0.00000000000E+00 -0.27365060685E+02  0.27365060685E+02  0.00000000000E+00 0.  1.
         21    1    1    2  503  502 -0.19406249402E+02 -0.86454731050E+01 -0.16585582890E+02  0.26952333496E+02  0.00000000000E+00 0.  1.
         21    1    1    2  504  501  0.19406249402E+02  0.86454731050E+01  0.14567338120E+02  0.25759543105E+02  0.00000000000E+00 0.  1.
</event>
<event>
 4    1  0.3305068E+006  0.2931696E+02  0.7546771E-02  0.1425626E+00
         21   -1    0    0  503  501  0.00000000000E+00  0.00000000000E+00  0.72970036638E+01  0.72970036638E+01  0.00000000000E+00 0. -1.
         21   -1    0    0  504  502 -0.00000000000E+00 -0.00000000000E+00 -0.14082679176E+03  0.14082679176E+03  0.00000000000E+00 0. -1.
         21    1    1    2  503  502  0.24229284556E+02 -0.16505326808E+02 -0.36807642575E+02  0.47056206764E+02  0.00000000000E+00 0. -1.
         21    1    1    2  504  501 -0.24229284556E+02  0.16505326808E+02 -0.96722145518E+02  0.10106758866E+03  0.00000000000E+00 0. -1.
</event>
<event>
 4    1  0.3305068E+006  0.2617234E+02  0.7546771E-02  0.1456104E+00
         21   -1    0    0  503  501  0.00000000000E+00  0.00000000000E+00  0.19011664457E+03  0.19011664457E+03  0.00000000000E+00 0. -1.
         21   -1    0    0  501  502 -0.00000000000E+00 -0.00000000000E+00 -0.58429162046E+02  0.58429162046E+02  0.00000000000E+00 0. -1.
         21    1    1    2  503  504  0.55449845496E+00  0.26166464515E+02  0.18622406755E+03  0.18805423332E+03  0.00000000000E+00 0. -1.
         21    1    1    2  504  502 -0.55449845496E+00 -0.26166464515E+02 -0.54536585026E+02  0.60491573298E+02  0.00000000000E+00 0. -1.
</event>
<event>
 4    1  0.3305068E+006  0.3146460E+02  0.7546771E-02  0.1407282E+00
         21   -1    0    0  503  501  0.00000000000E+00  0.00000000000E+00  0.12318288854E+03  0.12318288854E+03  0.00000000000E+00 0.  1.
         21   -1    0    0  501  502 -0.00000000000E+00 -0.00000000000E+00 -0.21418749661E+02  0.21418749661E+02  0.00000000000E+00 0.  1.
         21    1    1    2  503  504  0.27869245917E+02  0.14605684293E+02  0.10803027652E+03  0.11251916071E+03  0.00000000000E+00 0.  1.
         21    1    1    2  504  502 -0.27869245917E+02 -0.14605684293E+02 -0.62661376348E+01  0.32082477499E+02  0.00000000000E+00 0.  1.
</event>
<event>
 4    1  0.3305068E+006  0.2126837E+02  0.7546771E-02  0.1515468E+00
         21   -1    0    0  504  501  0.00000000000E+00  0.00000000000E+00  0.31170234410E+03  0.31170234410E+03  0.00000000000E+00 0. -1.
         21   -1    0    0  501  502 -0.00000000000E+00 -0.00000000000E+00 -0.22809337712E+01  0.22809337712E+01  0.00000000000E+00 0. -1.
         21    1    1    2  503  502  0.18202991366E+02  0.10999755632E+02  0.60024074049E+02  0.63680711240E+02  0.00000000000E+00 0. -1.
         21    1    1    2  504  503 -0.18202991366E+02 -0.10999755632E+02  0.24939733628E+03  0.25030256663E+03  0.00000000000E+00 0. -1.
</event>
<event>
 4    1  0.3305068E+006  0.2003750E+02  0.7546771E-02  0.1533463E+00
         21   -1    0    0  503  501  0.00000000000E+00  0.00000000000E+00  0.43153518974E+01  0.43153518974E+01  0.00000000000E+00 0. -1.
         21   -1    0    0  504  502 -0.00000000000E+00 -0.00000000000E+00 -0.12190466989E+03  0.12190466989E+03  0.00000000000E+00 0. -1.
         21    1    1    2  503  502  0.66980218134E+01  0.18884860106E+02 -0.89503927315E+02  0.91719433286E+02  0.00000000000E+00 0. -1.
         21    1    1    2  504  501 -0.66980218134E+01 -0.18884860106E+02 -0.28085390677E+02  0.34500588501E+02  0.00000000000E+00 0. -1.
</event>
<event>
 4    1  0.3305068E+006  0.3443647E+02  0.7546771E-02  0.1384569E+00
         21   -1    0    0  502  501  0.00000000000E+00  0.00000000000E+00  0.51456969920E+02  0.51456969920E+02  0.00000000000E+00 0. -1.
         21   -1    0    0  503  502 -0.00000000000E+00 -0.00000000000E+00 -0.50030407797E+02  0.50030407797E+02  0.00000000000E+00 0. -1.
         21    1    1    2  503  504  0.34246432525E+02  0.36127987363E+01 -0.36553556008E+02  0.50219845801E+02  0.00000000000E+00 0. -1.
         21    1    1    2  504  501 -0.34246432525E+02 -0.36127987363E+01  0.37980118132E+02  0.51267531916E+02  0.00000000000E+00 0. -1.
</event>
<event>
 4    1  0.3305068E+006  0.2154436E+02  0.7546771E-02  0.1511633E+00
         21   -1    0    0  502  501  0.00000000000E+00  0.00000000000E+00  0.24659519273E+02  0.24659519273E+02  0.00000000000E+00 0.  1.
         21   -1    0    0  503  502 -0.00000000000E+00 -0.00000000000E+00 -0.23600401339E+02  0.23600401339E+02  0.00000000000E+00 0.  1.
         21    1    1    2  503  504  0.15810952802E+02  0.14634662392E+02 -0.10327316765E+02  0.23891694025E+02  0.00000000000E+00 0.  1.
         21    1    1    2  504  501 -0.15810952802E+02 -0.14634662392E+02  0.11386434699E+02  0.24368226587E+02  0.00000000000E+00 0.  1.
</event>
<event>
 4    1  0.3305068E+006  0.4704414E+02  0.7546771E-02  0.1311523E+00
         21   -1    0    0  504  501  0.00000000000E+00  0.00000000000E+00  0.18862925189E+02  0.18862925189E+02  0.00000000000E+00 0. -1.
         21   -1    0    0  503  502 -0.00000000000E+00 -0.00000000000E+00 -0.12187846122E+03  0.12187846122E+03  0.00000000000E+00 0.  1.
         21    1    1    2  503  501 -0.27939303626E+02  0.37848991182E+02 -0.37910483777E+02  0.60418172769E+02  0.00000000000E+00 0. -1.
         21    1    1    2  504  502  0.27939303626E+02 -0.37848991182E+02 -0.65105052259E+02  0.80323213645E+02  0.00000000000E+00 0.  1.
</event>
<event>
 4    1  0.3305068E+006  0.7407829E+02  0.7546771E-02  0.1218305E+00
         21   -1    0    0  502  501  0.00000000000E+00  0.00000000000E+00  0.62935464447E+02  0.62935464447E+02  0.00000000000E+00 0.  1.
         21   -1    0    0  503  502 -0.00000000000E+00 -0.00000000000E+00 -0.12556599796E+03  0.12556599796E+03  0.00000000000E+00 0.  1.
         21    1    1    2  503  504  0.72916397636E+02  0.13068743791E+02 -0.83417467531E+02  0.11156194243E+03  0.00000000000E+00 0.  1.
         21    1    1    2  504  501 -0.72916397636E+02 -0.13068743791E+02  0.20786934022E+02  0.76939519978E+02  0.00000000000E+00 0.  1.
</event>
<event>
 4    1  0.3305068E+006  0.2185717E+02  0.7546771E-02  0.1507370E+00
         21   -1    0    0  503  501  0.00000000000E+00  0.00000000000E+00  0.15087587035E+03  0.15087587035E+03  0.00000000000E+00 0.  1.
         21   -1    0    0  501  502 -0.00000000000E+00 -0.00000000000E+00 -0.50135124962E+02  0.50135124962E+02  0.00000000000E+00 0.  1.
         21    1    1    2  503  504  0.21817204054E+02  0.13212011024E+01  0.14765026315E+03  0.14925929175E+03  0.00000000000E+00 0.  1.
         21    1    1    2  504  502 -0.21817204054E+02 -0.13212011024E+01 -0.46909517762E+02  0.51751703563E+02  0.00000000000E+00 0.  1.
</event>
<event>
 4    1  0.3305068E+006  0.2257435E+02  0.7546771E-02  0.1497913E+00
         21   -1    0    0  502  501  0.00000000000E+00  0.00000000000E+00  0.11670601912E+02  0.11670601912E+02  0.00000000000E+00 0. -1.
         21   -1    0    0  504  502 -0.00000000000E+00 -0.00000000000E+00 -0.11542893759E+03  0.11542893759E+03  0.00000000000E+00 0.  1.
         21    1    1    2  503  501  0.22342995304E+02  0.32236591024E+01 -0.17709942335E+01  0.22643715193E+02  0.00000000000E+00 0. -1.
         21    1    1    2  504  503 -0.22342995304E+02 -0.32236591024E+01 -0.10198734144E+03  0.10445582431E+03  0.00000000000E+00 0.  1.
</event>
<event>
 4    1  0.3305068E+006  0.2215703E+02  0.7546771E-02  0.1503364E+00
         21   -1    0    0  502  501  0.00000000000E+00  0.00000000000E+00  0.55150020609E+02  0.55150020609E+02  0.00000000000E+00 0. -1.
         21   -1    0    0  503  502 -0.00000000000E+00 -0.00000000000E+00 -0.23350777386E+03  0.23350777386E+03  0.00000000000E+00 0.  1.
         21    1    1    2  503  504  0.72183114766E+01 -0.20948272699E+02 -0.23072998634E+03  0.23179141646E+03  0.00000000000E+00 0.  1.
         21    1    1    2  504  501 -0.72183114766E+01  0.20948272699E+02  0.52372233085E+02  0.56866378010E+02  0.00000000000E+00 0. -1.
</event>
<event>
 4    1  0.3305068E+006  0.2705798E+02  0.7546771E-02  0.1447027E+00
         21   -1    0    0  503  501  0.00000000000E+00  0.00000000000E+00  0.27138214437E+02  0.27138214437E+02  0.00000000000E+00 0. -1.
         21   -1    0    0  504  502 -0.00000000000E+00 -0.00000000000E+00 -0.27272832345E+02  0.27272832345E+02  0.00000000000E+00 0. -1.
         21    1    1    2  503  502 -0.39401764520E+01 -0.26769563788E+02 -0.28959986814E+01  0.27212521828E+02  0.00000000000E+00 0. -1.
         21    1    1    2  504  501  0.39401764520E+01  0.26769563788E+02  0.27613807736E+01  0.27198524954E+02  0.00000000000E+00 0. -1.
</event>
<event>
 4    1  0.3305068E+006  0.4303233E+02  0.7546771E-02  0.1331577E+00
         21   -1    0    0  503  501  0.00000000000E+00  0.00000000000E+00  0.72753875445E+02  0.72753875445E+02  0.00000000000E+00 0. -1.
         21   -1    0    0  504  502 -0.00000000000E+00 -0.00000000000E+00 -0.37380019425E+02  0.37380019425E+02  0.00000000000E+00 0. -1.
         21    1    1    2  503  502 -0.29113572457E+02  0.31688820664E+02  0.48792840361E+02  0.65057841393E+02  0.00000000000E+00 0. -1.
         21    1    1    2  504  501  0.29113572457E+02 -0.31688820664E+02 -0.13418984342E+02  0.45076053477E+02  0.00000000000E+00 0. -1.
</event>
<event>
 4    1  0.3305068E+006  0.2618355E+02  0.7546771E-02  0.1455986E+00
         21   -1    0    0  502  501  0.00000000000E+00  0.00000000000E+00  0.71763706345E+02  0.71763706345E+02  0.00000000000E+00 0. -1.
         21   -1    0    0  503  502 -0.00000000000E+00 -0.00000000000E+00 -0.42466472751E+03  0.42466472751E+03  0.00000000000E+00 0.  1.
         21    1    1    2  503  504 -0.24839001485E+02 -0.82826458969E+01 -0.42185692887E+03  0.42266871975E+03  0.00000000000E+00 0.  1.
         21    1    1    2  504  501  0.24839001485E+02  0.82826458969E+01  0.68955907705E+02  0.73759714108E+02  0.00000000000E+00 0. -1.
</event>
<event>
 4    1  0.3305068E+006  0.2431891E+02  0.7546771E-02  0.1476569E+00
         21   -1    0    0  504  501  0.00000000000E+00  0.00000000000E+00  0.30873744064E+01  0.30873744064E+01  0.00000000000E+00 0. -1.
         21   -1    0    0  503  502 -0.00000000000E+00 -0.00000000000E+00 -0.25391946442E+03  0.25391946442E+03  0.00000000000E+00 0. -1.
         21    1    1    2  503  501  0.20935986293E+02  0.12373115918E+02 -0.61732561658E+02  0.66349971276E+02  0.00000000000E+00 0. -1.
         21    1    1    2  504  502 -0.20935986293E+02 -0.12373115918E+02 -0.18909952836E+03  0.19065686755E+03  0.00000000000E+00 0. -1.
</event>
<event>
 4    1  0.3305068E+006  0.2774239E+02  0.7546771E-02  0.1440290E+00
         21   -1    0    0  504  501  0.00000000000E+00  0.00000000000E+00  0.71638392927E+02  0.71638392927E+02  0.00000000000E+00 0.  1.
         21   -1    0    0  503  502 -0.00000000000E+00 -0.00000000000E+00 -0.61934954157E+03  0.61934954157E+03  0.00000000000E+00 0.  1.
         21    1    1    2  503  501  0.94035970705E+01 -0.26100052978E+02 -0.61633991652E+03  0.61696396418E+03  0.00000000000E+00 0.  1.
         21    1    1    2  504  502 -0.94035970705E+01  0.26100052978E+02  0.68628767868E+02  0.74023970323E+02  0.00000000000E+00 0.  1.
</event>
<event>
 4    1  0.3305068E+006  0.2170945E+02  0.7546771E-02  0.1509372E+00
         21   -1    0    0  504  501  0.00000000000E+00  0.00000000000E+00  0.42354628967E+02  0.42354628967E+02  0.00000000000E+00 0.  1.
         21   -1    0    0  503  502 -0.00000000000E+00 -0.00000000000E+00 -0.25936207555E+02  0.25936207555E+02  0.00000000000E+00 0.  1.
         21    1    1    2  503  501  0.92621025627E+01  0.19634499202E+02 -0.17591884169E+02  0.27942342268E+02  0.00000000000E+00 0.  1.
         21    1    1    2  504  502 -0.92621025627E+01 -0.19634499202E+02  0.34010305581E+02  0.40348494254E+02  0.00000000000E+00 0.  1.
</event>
<event>
 4    1  0.3305068E+006  0.3404730E+02  0.7546771E-02  0.1387387E+00
         21   -1    0    0  502  501  0.00000000000E+00  0.00000000000E+00  0.20244404400E+02  0.20244404400E+02  0.00000000000E+00 0. -1.
         21   -1    0    0  503  502 -0.00000000000E+00 -0.00000000000E+00 -0.17680573947E+03  0.17680573947E+03  0.00000000000E+00 0. -1.
         21    1    1    2  503  504  0.32277009068E+02  0.10835750202E+02 -0.15929529906E+03  0.16289325063E+03  0.00000000000E+00 0. -1.
         21    1    1    2  504  501 -0.32277009068E+02 -0.10835750202E+02  0.27339639934E+01  0.34156893242E+02  0.00000000000E+00 0. -1.
</event>
<event>
 4    1  0.3305068E+006  0.2263163E+02  0.7546771E-02  0.1497176E+00
         21   -1    0    0  502  501  0.00000000000E+00  0.00000000000E+00  0.83681111314E+02  0.83681111314E+02  0.00000000000E+00 0. -1.
         21   -1    0    0  504  502 -0.00000000000E+00 -0.00000000000E+00 -0.10614005320E+02  0.10614005320E+02  0.00000000000E+00 0.  1.
         21    1    1    2  503  501 -0.95924081406E+01 -0.20498200230E+02  0.67209676883E+02  0.70917777555E+02  0.00000000000E+00 0. -1.
         21    1    1    2  504  503  0.95924081406E+01  0.20498200230E+02  0.58574291107E+01  0.23377339079E+02  0.00000000000E+00 0.  1.
</event>
<event>
 4    1  0.3305068E+006  0.3341127E+02  0.7546771E-02  0.1392090E+00
         21   -1    0    0  504  501  0.00000000000E+00  0.00000000000E+00  0.32597053784E+01  0.32597053784E+01  0.00000000000E+00 0.  1.
         21   -1    0    0  503  502 -0.00000000000E+00 -0.00000000000E+00 -0.50976271786E+03  0.50976271786E+03  0.00000000000E+00 0.  1.
         21    1    1    2  503  501 -0.31121097496E+02 -0.12156901914E+02 -0.40020370787E+03  0.40159596707E+03  0.00000000000E+00 0.  1.
         21    1    1    2  504  502  0.31121097496E+02  0.12156901914E+02 -0.10629930461E+03  0.11142645617E+03  0.00000000000E+00 0.  1.
</event>
<event>
 4    1  0.3305068E+006  0.2166437E+02  0.7546771E-02  0.1509987E+00
         21   -1    0    0  504  501  0.00000000000E+00  0.00000000000E+00  0.39265142168E+02  0.39265142168E+02  0.00000000000E+00 0.  1.
         21   -1    0    0  503  502 -0.00000000000E+00 -0.00000000000E+00 -0.13523444945E+04  0.13523444945E+04  0.00000000000E+00 0.  1.
         21    1    1    2  503  501  0.54290485052E+01 -0.20973090373E+02 -0.13492625979E+04  0.13494365132E+04  0.00000000000E+00 0.  1.
         21    1    1    2  504  502 -0.54290485052E+01  0.20973090373E+02  0.36183245536E+02  0.42173123491E+02  0.00000000000E+00 0.  1.
</event>
<event>
 4    1  0.3305068E+006  0.2663610E+02  0.7546771E-02  0.1451298E+00
         21   -1    0    0  502  501  0.00000000000E+00  0.00000000000E+00  0.49134795705E+02  0.49134795705E+02  0.00000000000E+00 0. -1.
         21   -1    0    0  504  502 -0.00000000000E+00 -0.00000000000E+00 -0.18904015089E+03  0.18904015089E+03  0.00000000000E+00 0. -1.
         21    1    1    2  503  501  0.25275056674E+02 -0.84055509470E+01  0.44496317849E+02  0.51859464698E+02  0.00000000000E+00 0. -1.
         21    1    1    2  504  503 -0.25275056674E+02  0.84055509470E+01 -0.18440167303E+03  0.18631548190E+03  0.00000000000E+00 0. -1.
</event>
<event>
 4    1  0.3305068E+006  0.2183417E+02  0.7546771E-02  0.1507680E+00
         21   -1    0    0  503  501  0.00000000000E+00  0.00000000000E+00  0.66765313457E+01  0.66765313457E+01  0.00000000000E+00 0. -1.
         21   -1    0    0  504  502 -0.00000000000E+00 -0.00000000000E+00 -0.71461708971E+02  0.71461708971E+02  0.00000000000E+00 0. -1.
         21    1    1    2  503  502 -0.21511286400E+02  0.37410485534E+01 -0.31282117703E+02  0.38148417724E+02  0.00000000000E+00 0. -1.
         21    1    1    2  504  501  0.21511286400E+02 -0.37410485534E+01 -0.33503059923E+02  0.39989822594E+02  0.00000000000E+00 0. -1.
</event>
<event>
 4    1  0.3305068E+006  0.2328737E+02  0.7546771E-02  0.1488921E+00
         21   -1    0    0  503  501  0.00000000000E+00  0.00000000000E+00  0.26728512378E+01  0.26728512378E+01  0.00000000000E+00 0. -1.
         21   -1    0    0  504  502 -0.00000000000E+00 -0.00000000000E+00 -0.49331956195E+03  0.49331956195E+03  0.00000000000E+00 0. -1.
         21    1    1    2  503  502  0.14639936527E+02  0.18110049276E+02 -0.43560608206E+03  0.43622810588E+03  0.00000000000E+00 0. -1.
         21    1    1    2  504  501 -0.14639936527E+02 -0.18110049276E+02 -0.55040628645E+02  0.59764307307E+02  0.00000000000E+00 0. -1.
</event>
<event>
 4    1  0.3305068E+006  0.3265185E+02  0.7546771E-02  0.1397868E+00
         21   -1    0    0  502  501  0.00000000000E+00  0.00000000000E+00  0.18390969157E+03  0.18390969157E+03  0.00000000000E+00 0.  1.
         21   -1    0    0  504  502 -0.00000000000E+00 -0.00000000000E+00 -0.71954360584E+01  0.71954360584E+01  0.00000000000E+00 0. -1.
         21    1    1    2  503  501  0.32594034049E+02 -0.19422384251E+01  0.13048011518E+03  0.13450354569E+03  0.00000000000E+00 0.  1.
         21    1    1    2  504  503 -0.32594034049E+02  0.19422384251E+01  0.46234140330E+02  0.56601581937E+02  0.00000000000E+00 0. -1.
</event>
<event>
 4    1  0.3305068E+006  0.2996179E+02  0.7546771E-02  0.1419929E+00
         21   -1    0    0  503  501  0.00000000000E+00  0.00000000000E+00  0.70941330404E+03  0.70941330404E+03  0.00000000000E+00 0. -1.
         21   -1    0    0  501  502 -0.00000000000E+00 -0.00000000000E+00 -0.22272919336E+01  0.22272919336E+01  0.00000000000E+00 0. -1.
         21    1    1    2  503  504  0.25338012357E+02 -0.15990438359E+02  0.58742274945E+03  0.58818636125E+03  0.00000000000E+00 0. -1.
         21    1    1    2  504  502 -0.25338012357E+02  0.15990438359E+02  0.11976326266E+03  0.12345423472E+03  0.00000000000E+00 0. -1.
</event>
<event>
 4    1  0.3305068E+006  0.2228549E+02  0.7546771E-02  0.1501671E+00
         21   -1    0    0  503  501  0.00000000000E+00  0.00000000000E+00  0.14581509746E+01  0.14581509746E+01  0.00000000000E+00 0. -1.
         21   -1    0    0  504  502 -0.00000000000E+00 -0.00000000000E+00 -0.53976477112E+03  0.53976477112E+03  0.00000000000E+00 0. -1.
         21    1    1    2  503  502 -0.10851465334E+02  0.19465064111E+02 -0.10477194887E+03  0.10711584519E+03  0.00000000000E+00 0. -1.
         21    1    1    2  504  501  0.10851465334E+02 -0.19465064111E+02 -0.43353467128E+03  0.43410707691E+03  0.00000000000E+00 0. -1.
</event>
<event>
 4    1  0.3305068E+006  0.2122494E+02  0.7546771E-02  0.1516077E+00
         21   -1    0    0  502  501  0.00000000000E+00  0.00000000000E+00  0.31274913725E+03  0.31274913725E+03  0.00000000000E+00 0.  1.
         21   -1    0    0  503  502 -0.00000000000E+00 -0.00000000000E+00 -0.43002152778E+01  0.43002152778E+01  0.00000000000E+00 0. -1.
         21    1    1    2  503  504  0.89780702245E+01  0.19232586679E+02  0.24948641191E+02  0.32755653445E+02  0.00000000000E+00 0. -1.
         21    1    1    2  504  501 -0.89780702245E+01 -0.19232586679E+02  0.28350028078E+03  0.28429369908E+03  0.00000000000E+00 0.  1.
</event>
<event>
 4    1  0.3305068E+006  0.4127325E+02  0.7546771E-02  0.1341182E+00
         21   -1    0    0  504  501  0.00000000000E+00  0.00000000000E+00  0.10839394398E+03  0.10839394398E+03  0.00000000000E+00 0. -1.
         21   -1    0    0  503  502 -0.00000000000E+00 -0.00000000000E+00 -0.21677449320E+02  0.21677449320E+02  0.00000000000E+00 0.  1.
         21    1    1    2  503  501 -0.41158083780E+02 -0.30811864054E+01  0.92518153847E+01  0.42297489973E+02  0.00000000000E+00 0.  1.
         21    1    1    2  504  502  0.41158083780E+02  0.30811864054E+01  0.77464679273E+02  0.87773903325E+02  0.00000000000E+00 0. -1.
</event>
<event>
 4    1  0.3305068E+006  0.2219013E+02  0.7546771E-02  0.1502926E+00
         21   -1    0    0  504  501  0.00000000000E+00  0.00000000000E+00  0.10792327753E+02  0.10792327753E+02  0.00000000000E+00 0.  1.
         21   -1    0    0  503  502 -0.00000000000E+00 -0.00000000000E+00 -0.10327609287E+03  0.10327609287E+03  0.00000000000E+00 0. -1.
         21    1    1    2  503  501  0.10966250409E+02 -0.19291012568E+02 -0.36292214657E+01  0.22484951910E+02  0.00000000000E+00 0.  1.
         21    1    1    2  504  502 -0.10966250409E+02  0.19291012568E+02 -0.88854543647E+02  0.91583468709E+02  0.00000000000E+00 0. -1.
</event>
<event>
 4    1  0.3305068E+006  0.2334606E+02  0.7546771E-02  0.1488198E+00
         21   -1    0    0  503  501  0.00000000000E+00  0.00000000000E+00  0.26950585924E+01  0.26950585924E+01  0.00000000000E+00 0.  1.
         21   -1    0    0  504  502 -0.00000000000E+00 -0.00000000000E+00 -0.21010291419E+03  0.21010291419E+03  0.00000000000E+00 0.  1.
         21    1    1    2  503  502  0.79727141875E+01 -0.21942520910E+02 -0.83115732821E+02  0.86332285026E+02  0.00000000000E+00 0.  1.
         21    1    1    2  504  501 -0.79727141875E+01  0.21942520910E+02 -0.12429212278E+03  0.12646568776E+03  0.00000000000E+00 0.  1.
</event>
<event>
 4    1  0.3305068E+006  0.2311112E+02  0.7546771E-02  0.1491107E+00
         21   -1    0    0  502  501  0.00000000000E+00  0.00000000000E+00  0.45172209167E+02  0.45172209167E+02  0.00000000000E+00 0.  1.
         21   -1    0    0  504  502 -0.00000000000E+00 -0.00000000000E+00 -0.10675336523E+04  0.10675336523E+04  0.00000000000E+00 0.  1.
         21    1    1    2  503  501 -0.26809155637E+01 -0.22955098976E+02  0.42082503730E+02  0.48011050785E+02  0.00000000000E+00 0.  1.
         21    1    1    2  504  503  0.26809155637E+01  0.22955098976E+02 -0.10644439469E+04  0.10646948107E+04  0.00000000000E+00 0.  1.
</event>
<event>
 4    1  0.3305068E+006  0.2528692E+02  0.7546771E-02  0.1465619E+00
         21   -1    0    0  503  501  0.00000000000E+00  0.00000000000E+00  0.17758686142E+04  0.17758686142E+04  0.00000000000E+00 0. -1.
         21   -1    0    0  504  502 -0.00000000000E+00 -0.00000000000E+00 -0.26268259342E+03  0.26268259342E+03  0.00000000000E+00 0. -1.
         21    1    1    2  503  502  0.21959506213E+01  0.25191385911E+02  0.17751698025E+04  0.17753498967E+04  0.00000000000E+00 0. -1.
         21    1    1    2  504  501 -0.21959506213E+01 -0.25191385911E+02 -0.26198378177E+03  0.26320131085E+03  0.00000000000E+00 0. -1.
</event>
<event>
 4    1  0.3305068E+006  0.3040673E+02  0.7546771E-02  0.1416094E+00
         21   -1    0    0  504  501  0.00000000000E+00  0.00000000000E+00  0.80769632481E+02  0.80769632481E+02  0.00000000000E+00 0.  1.
         21   -1    0    0  503  502 -0.00000000000E+00 -0.00000000000E+00 -0.13484862676E+02  0.13484862676E+02  0.00000000000E+00 0.  1.
         21    1    1    2  503  501  0.35625270665E+01  0.30197306831E+02  0.51962898600E+02  0.60205579225E+02  0.00000000000E+00 0.  1.
         21    1    1    2  504  502 -0.35625270665E+01 -0.30197306831E+02  0.15321871205E+02  0.34048915932E+02  0.00000000000E+00 0.  1.
</event>
<event>
 4    1  0.3305068E+006  0.4534796E+02  0.7546771E-02  0.1319709E+00
         21   -1    0    0  503  501  0.00000000000E+00  0.00000000000E+00  0.24144650326E+03  0.24144650326E+03  0.00000000000E+00 0. -1.
         21   -1    0    0  501  502 -0.00000000000E+00 -0.00000000000E+00 -0.10740425920E+02  0.10740425920E+02  0.00000000000E+00 0. -1.
         21    1    1    2  503  504  0.31687552194E+02  0.32439733421E+02  0.17272213767E+03  0.17857596174E+03  0.00000000000E+00 0. -1.
         21    1    1    2  504  502 -0.31687552194E+02 -0.32439733421E+02  0.57983939666E+02  0.73610967441E+02  0.00000000000E+00 0. -1.
</event>
<event>
 4    1  0.3305068E+006  0.2444853E+02  0.7546771E-02  0.1475068E+00
         21   -1    0    0  503  501  0.00000000000E+00  0.00000000000E+00  0.11305325155E+02  0.11305325155E+02  0.00000000000E+00 0.  1.
         21   -1    0    0  504  502 -0.00000000000E+00 -0.00000000000E+00 -0.31746838025E+03  0.31746838025E+03  0.00000000000E+00 0.  1.
         21    1    1    2  503  502  0.30112379163E+01  0.24262376512E+02 -0.30315679704E+03  0.30414104304E+03  0.00000000000E+00 0.  1.
         21    1    1    2  504  501 -0.30112379163E+01 -0.24262376512E+02 -0.30062580546E+01  0.24632662367E+02  0.00000000000E+00 0.  1.
</event>
<event>
 4    1  0.3305068E+006  0.3429765E+02  0.7546771E-02  0.1385569E+00
         21   -1    0    0  504  501  0.00000000000E+00  0.00000000000E+00  0.40322541601E+01  0.40322541601E+01  0.00000000000E+00 0.  1.
         21   -1    0    0  501  502 -0.00000000000E+00 -0.00000000000E+00 -0.58859033578E+03  0.58859033578E+03  0.00000000000E+00 0. -1.
         21    1    1    2  503  502 -0.32741141250E+02 -0.10215009526E+02 -0.50271398899E+03  0.50388260883E+03  0.00000000000E+00 0. -1.
         21    1    1    2  504  503  0.32741141250E+02  0.10215009526E+02 -0.81844092632E+02  0.88739981118E+02  0.00000000000E+00 0.  1.
</event>
<event>
 4    1  0.3305068E+006  0.2019577E+02  0.7546771E-02  0.1531064E+00
         21   -1    0    0  502  501  0.00000000000E+00  0.00000000000E+00  0.52455744657E+02  0.52455744657E+02  0.00000000000E+00 0.  1.
         21   -1    0    0  504  502 -0.00000000000E+00 -0.00000000000E+00 -0.13098785122E+03  0.13098785122E+03  0.00000000000E+00 0.  1.
         21    1    1    2  503  501 -0.12417201208E+02  0.15927409149E+02  0.49691777898E+02  0.53638997368E+02  0.00000000000E+00 0.  1.
         21    1    1    2  504  503  0.12417201208E+02 -0.15927409149E+02 -0.12822388447E+03  0.12980459851E+03  0.00000000000E+00 0.  1.
</event>
<event>
 4    1  0.3305068E+006  0.4013129E+02  0.7546771E-02  0.1347718E+00
         21   -1    0    0  502  501  0.00000000000E+00  0.00000000000E+00  0.65860387669E+03  0.65860387669E+03  0.00000000000E+00 0.  1.
         21   -1    0    0  504  502 -0.00000000000E+00 -0.00000000000E+00 -0.17523500623E+03  0.17523500623E+03  0.00000000000E+00 0.  1.
         21    1    1    2  503  501 -0.38020760389E+02 -0.12842990680E+02  0.65568465956E+03  0.65691163288E+03  0.00000000000E+00 0.  1.
         21    1    1    2  504  503  0.38020760389E+02  0.12842990680E+02 -0.17231578910E+03  0.17692725003E+03  0.00000000000E+00 0.  1.
</event>
<event>
 4    1  0.3305068E+006  0.4105110E+02  0.7546771E-02  0.1342434E+00
         21   -1    0    0  503  501  0.00000000000E+00  0.00000000000E+00  0.14959166084E+03  0.14959166084E+03  0.00000000000E+00 0. -1.
         21   -1    0    0  504  502 -0.00000000000E+00 -0.00000000000E+00 -0.10469901505E+03  0.10469901505E+03  0.00000000000E+00 0.  1.
         21    1    1    2  503  502  0.41029124759E+02 -0.13429225964E+01 -0.97664180914E+02  0.10594094937E+03  0.00000000000E+00 0.  1.
         21    1    1    2  504  501 -0.41029124759E+02  0.13429225964E+01  0.14255682670E+03  0.14834972652E+03  0.00000000000E+00 0. -1.
</event>
<event>
 4    1  0.3305068E+006  0.2081284E+02  0.7546771E-02  0.1521954E+00
         21   -1    0    0  502  501  0.00000000000E+00  0.00000000000E+00  0.12586466610E+03  0.12586466610E+03  0.00000000000E+00 0. -1.
         21   -1    0    0  504  502 -0.00000000000E+00 -0.00000000000E+00 -0.47537315019E+01  0.47537315019E+01  0.00000000000E+00 0.  1.
         21    1    1    2  503  501  0.13707766784E+02  0.15661141903E+02  0.94867608089E+02  0.97123824577E+02  0.00000000000E+00 0. -1.
         21    1    1    2  504  503 -0.13707766784E+02 -0.15661141903E+02  0.26243326513E+02  0.33494573028E+02  0.00000000000E+00 0.  1.
</event>
<event>
 4    1  0.3305068E+006  0.2361490E+02  0.7546771E-02  0.1484918E+00
         21   -1    0    0  504  501  0.00000000000E+00  0.00000000000E+00  0.19760861902E+01  0.19760861902E+01  0.00000000000E+00 0. -1.
         21   -1    0    0  503  502 -0.00000000000E+00 -0.00000000000E+00 -0.12589633021E+04  0.12589633021E+04  0.00000000000E+00 0.  1.
         21    1    1    2  503  501  0.62521565165E+01  0.22772223436E+02 -0.11838234169E+04  0.11840589284E+04  0.00000000000E+00 0.  1.
         21    1    1    2  504  502 -0.62521565165E+01 -0.22772223436E+02 -0.73163799058E+02  0.76880459897E+02  0.00000000000E+00 0. -1.
</event>
<event>
 4    1  0.3305068E+006  0.2148225E+02  0.7546771E-02  0.1512490E+00
         21   -1    0    0  502  501  0.00000000000E+00  0.00000000000E+00  0.73097554751E+02  0.73097554751E+02  0.00000000000E+00 0.  1.
         21   -1    0    0  503  502 -0.00000000000E+00 -0.00000000000E+00 -0.10772801276E+02  0.10772801276E+02  0.00000000000E+00 0.  1.
         21    1    1    2  503  504 -0.10001020375E+02  0.19012281491E+02  0.41814412153E+01  0.21885422241E+02  0.00000000000E+00 0.  1.
         21    1    1    2  504  501  0.10001020375E+02 -0.19012281491E+02  0.58143312259E+02  0.61984933786E+02  0.00000000000E+00 0.  1.
</event>
<event>
 4    1  0.3305068E+006  0.2041060E+02  0.7546771E-02  0.1527849E+00
         21   -1    0    0  503  501  0.00000000000E+00  0.00000000000E+00  0.20235702061E+03  0.20235702061E+03  0.00000000000E+00 0.  1.
         21   -1    0    0  501  502 -0.00000000000E+00 -0.00000000000E+00 -0.65110102374E+01  0.65110102374E+01  0.00000000000E+00 0. -1.
         21    1    1    2  503  504 -0.36624801643E+00 -0.20407310932E+02  0.18428257649E+03  0.18540944009E+03  0.00000000000E+00 0.  1.
         21    1    1    2  504  502  0.36624801643E+00  0.20407310932E+02  0.11563433881E+02  0.23458590755E+02  0.00000000000E+00 0. -1.
</event>
<event>
 4    1  0.3305068E+006  0.3066321E+02  0.7546771E-02  0.1413919E+00
         21   -1    0    0  503  501  0.00000000000E+00  0.00000000000E+00  0.20424831202E+03  0.20424831202E+03  0.00000000000E+00 0. -1.
         21   -1    0    0  501  502 -0.00000000000E+00 -0.00000000000E+00 -0.11669690069E+03  0.11669690069E+03  0.00000000000E+00 0.  1.
         21    1    1    2  503  504 -0.24576152504E+02  0.18336993102E+02  0.20105135990E+03  0.20337620782E+03  0.00000000000E+00 0. -1.
         21    1    1    2  504  502  0.24576152504E+02 -0.18336993102E+02 -0.11349994857E+03  0.11756900490E+03  0.00000000000E+00 0.  1.
</event>
<event>
 4    1  0.3305068E+006  0.2478090E+02  0.7546771E-02  0.1471269E+00
         21   -1    0    0  503  501  0.00000000000E+00  0.00000000000E+00  0.78755988320E+02  0.78755988320E+02  0.00000000000E+00 0. -1.
         21   -1    0    0  504  502 -0.00000000000E+00 -0.00000000000E+00 -0.17897321701E+02  0.17897321701E+02  0.00000000000E+00 0. -1.
         21    1    1    2  503  502  0.23511656997E+02 -0.78291029992E+01 -0.58744147451E+01  0.25467658258E+02  0.00000000000E+00 0. -1.
         21    1    1    2  504  501 -0.23511656997E+02  0.78291029992E+01  0.66733081364E+02  0.71185651763E+02  0.00000000000E+00 0. -1.
</event>
<event>
 4    1  0.3305068E+006  0.3263545E+02  0.7546771E-02  0.1397995E+00
         21   -1    0    0  503  501  0.00000000000E+00  0.00000000000E+00  0.81252908446E+02  0.81252908446E+02  0.00000000000E+00 0.  1.
         21   -1    0    0  501  502 -0.00000000000E+00 -0.00000000000E+00 -0.17762325848E+02  0.17762325848E+02  0.00000000000E+00 0.  1.
         21    1    1    2  503  504  0.42842292723E+01  0.32353020781E+02  0.57087535613E+02  0.65757579764E+02  0.00000000000E+00 0.  1.
         21    1    1    2  504  502 -0.42842292723E+01 -0.32353020781E+02  0.64030469855E+01  0.33257654529E+02  0.00000000000E+00 0.  1.
</event>
<event>
 4    1  0.3305068E+006  0.2525126E+02  0.7546771E-02  0.1466012E+00
         21   -1    0    0  503  501  0.00000000000E+00  0.00000000000E+00  0.26471211755E+02  0.26471211755E+02  0.00000000000E+00 0.  1.
         21   -1    0    0  501  502 -0.00000000000E+00 -0.00000000000E+00 -0.31634135662E+03  0.31634135662E+03  0.00000000000E+00 0. -1.
         21    1    1    2  503  504 -0.20512001270E+02 -0.14726986028E+02  0.19816227961E+02  0.32098429933E+02  0.00000000000E+00 0.  1.
         21    1    1    2  504  502  0.20512001270E+02  0.14726986028E+02 -0.30968637283E+03  0.31071413845E+03  0.00000000000E+00 0. -1.
</event>
<event>
 4    1  0.3305068E+006  0.2362696E+02  0.7546771E-02  0.1484772E+00
         21   -1    0    0  503  501  0.00000000000E+00  0.00000000000E+00  0.95731890956E+03  0.95731890956E+03  0.00000000000E+00 0.  1.
         21   -1    0    0  504  502 -0.00000000000E+00 -0.00000000000E+00 -0.37289001099E+01  0.37289001099E+01  0.00000000000E+00 0.  1.
         21    1    1    2  503  502 -0.16813546427E+02 -0.16599336359E+02  0.91815065933E+03  0.91845460777E+03  0.00000000000E+00 0.  1.
         21    1    1    2  504  501  0.16813546427E+02  0.16599336359E+02  0.35439350126E+02  0.42593201903E+02  0.00000000000E+00 0.  1.
</event>
<event>
 4    1  0.3305068E+006  0.2884163E+02  0.7546771E-02  0.1429937E+00
         21   -1    0    0  503  501  0.00000000000E+00  0.00000000000E+00  0.27135161884E+02  0.27135161884E+02  0.00000000000E+00 0.  1.
         21   -1    0    0  501  502 -0.00000000000E+00 -0.00000000000E+00 -0.19006232310E+03  0.19006232310E+03  0.00000000000E+00 0. -1.
         21    1    1    2  503  504 -0.17797572888E+02  0.22695508883E+02  0.17992272055E+02  0.33993552004E+02  0.00000000000E+00 0.  1.
         21    1    1    2  504  502  0.17797572888E+02 -0.22695508883E+02 -0.18091943327E+03  0.18320393298E+03  0.00000000000E+00 0. -1.
</event>
<event>
 4    1  0.3305068E+006  0.2676594E+02  0.7546771E-02  0.1449974E+00
         21   -1    0    0  503  501  0.00000000000E+00  0.00000000000E+00  0.26291009765E+03  0.26291009765E+03  0.00000000000E+00 0. -1.
         21   -1    0    0  501  502 -0.00000000000E+00 -0.00000000000E+00 -0.21231772046E+02  0.21231772046E+02  0.00000000000E+00 0.  1.
         21    1    1    2  503  504 -0.21413657276E+01  0.26680140556E+02  0.25348026111E+03  0.25488950178E+03  0.00000000000E+00 0. -1.
         21    1    1    2  504  502  0.21413657276E+01 -0.26680140556E+02 -0.11801935499E+02  0.29252367918E+02  0.00000000000E+00 0.  1.
</event>
<event>
 4    1  0.3305068E+006  0.2207988E+02  0.7546771E-02  0.1504387E+00
         21   -1    0    0  503  501  0.00000000000E+00  0.00000000000E+00  0.37524521078E+03  0.37524521078E+03  0.00000000000E+00 0.  1.
         21   -1    0    0  501  502 -0.00000000000E+00 -0.00000000000E+00 -0.21071163562E+02  0.21071163562E+02  0.00000000000E+00 0. -1.
         21    1    1    2  503  504 -0.43407938190E+01 -0.21648984710E+02  0.36903900098E+03  0.36969893869E+03  0.00000000000E+00 0.  1.
         21    1    1    2  504  502  0.43407938190E+01  0.21648984710E+02 -0.14864953762E+02  0.26617435645E+02  0.00000000000E+00 0. -1.
</event>
<event>
 4    1  0.3305068E+006  0.2929853E+02  0.7546771E-02  0.1425792E+00
         21   -1    0    0  504  501  0.00000000000E+00  0.00000000000E+00  0.22175257443E+02  0.22175257443E+02  0.00000000000E+00 0.  1.
         21   -1    0    0  503  502 -0.00000000000E+00 -0.00000000000E+00 -0.36075149966E+03  0.36075149966E+03  0.00000000000E+00 0. -1.
         21    1    1    2  503  501 -0.15780735321E+02  0.24685468309E+02  0.11611465235E+02  0.31515552951E+02  0.00000000000E+00 0.  1.
         21    1    1    2  504  502  0.15780735321E+02 -0.24685468309E+02 -0.35018770745E+03  0.35141120415E+03  0.00000000000E+00 0. -1.
</event>
<event>
 4    1  0.3305068E+006  0.2344448E+02  0.7546771E-02  0.1486991E+00
         21   -1    0    0  504  501  0.00000000000E+00  0.00000000000E+00  0.57081276539E+01  0.57081276539E+01  0.00000000000E+00 0.  1.
         21   -1    0    0  501  502 -0.00000000000E+00 -0.00000000000E+00 -0.21273868268E+03  0.21273868268E+03  0.00000000000E+00 0. -1.
         21    1    1    2  503  502 -0.22942558036E+02 -0.48252360667E+01 -0.18432378222E+03  0.18580877419E+03  0.00000000000E+00 0. -1.
         21    1    1    2  504  503  0.22942558036E+02  0.48252360667E+01 -0.22706772805E+02  0.32638036147E+02  0.00000000000E+00 0.  1.
</event>
<event>
 4    1  0.3305068E+006  0.3023679E+02  0.7546771E-02  0.1417550E+00
         21   -1    0    0  504  501  0.00000000000E+00  0.00000000000E+00  0.30682177961E+02  0.30682177961E+02  0.00000000000E+00 0.  1.
         21   -1    0    0  501  502 -0.00000000000E+00 -0.00000000000E+00 -0.23719573270E+03  0.23719573270E+03  0.00000000000E+00 0. -1.
         21    1    1    2  503  502 -0.21422228829E+02  0.21338961610E+02 -0.22850040052E+03  0.23049229099E+03  0.00000000000E+00 0. -1.
         21    1    1    2  504  503  0.21422228829E+02 -0.21338961610E+02  0.21986845779E+02  0.37385619668E+02  0.00000000000E+00 0.  1.
</event>
<event>
 4    1  0.3305068E+006  0.3610616E+02  0.7546771E-02  0.1372949E+00
         21   -1    0    0  503  501  0.00000000000E+00  0.00000000000E+00  0.92707747423E+02  0.92707747423E+02  0.00000000000E+00 0. -1.
         21   -1    0    0  504  502 -0.00000000000E+00 -0.00000000000E+00 -0.55189108870E+02  0.55189108870E+02  0.00000000000E+00 0. -1.
         21    1    1    2  503  502 -0.35752246950E+02 -0.50430078241E+01  0.82595429811E+02  0.90142443475E+02  0.00000000000E+00 0. -1.
         21    1    1    2  504  501  0.35752246950E+02  0.50430078241E+01 -0.45076791258E+02  0.57754412818E+02  0.00000000000E+00 0. -1.
</event>
<event>
 4    1  0.3305068E+006  0.3212294E+02  0.7546771E-02  0.1402003E+00
         21   -1    0    0  503  501  0.00000000000E+00  0.00000000000E+00  0.34840694600E+03  0.34840694600E+03  0.00000000000E+00 0.  1.
         21   -1    0    0  504  502 -0.00000000000E+00 -0.00000000000E+00 -0.77152074495E+02  0.77152074495E+02  0.00000000000E+00 0.  1.
         21    1    1    2  503  502  0.88239304403E+01  0.30887234238E+02 -0.73028013399E+02  0.79780785458E+02  0.00000000000E+00 0.  1.
         21    1    1    2  504  501 -0.88239304403E+01 -0.30887234238E+02  0.34428288491E+03  0.34577823504E+03  0.00000000000E+00 0.  1.
</event>
<event>
 4    1  0.3305068E+006  0.2238194E+02  0.7546771E-02  0.1500408E+00
         21   -1    0    0  503  501  0.00000000000E+00  0.00000000000E+00  0.88332890220E+01  0.88332890220E+01  0.00000000000E+00 0.  1.
         21   -1    0    0  504  502 -0.00000000000E+00 -0.00000000000E+00 -0.68307061221E+02  0.68307061221E+02  0.00000000000E+00 0.  1.
         21    1    1    2  503  502 -0.38854512152E+00  0.22378568504E+02 -0.45628206324E+02  0.50822086812E+02  0.00000000000E+00 0.  1.
         21    1    1    2  504  501  0.38854512152E+00 -0.22378568504E+02 -0.13845565874E+02  0.26318263430E+02  0.00000000000E+00 0.  1.
</event>
<event>
 4    1  0.3305068E+006  0.2160223E+02  0.7546771E-02  0.1510838E+00
         21   -1    0    0  503  501  0.00000000000E+00  0.00000000000E+00  0.79453294674E+02  0.79453294674E+02  0.00000000000E+00 0. -1.
         21   -1    0    0  501  502 -0.00000000000E+00 -0.00000000000E+00 -0.37525414310E+03  0.37525414310E+03  0.00000000000E+00 0. -1.
         21    1    1    2  503  504  0.22316251646E+00 -0.21601080112E+02  0.77667048290E+02  0.80615301609E+02  0.00000000000E+00 0. -1.
         21    1    1    2  504  502 -0.22316251646E+00  0.21601080112E+02 -0.37346789671E+03  0.37409213616E+03  0.00000000000E+00 0. -1.
</event>
<event>
 4    1  0.3305068E+006  0.2476966E+02  0.7546771E-02  0.1471397E+00
         21   -1    0    0  503  501  0.00000000000E+00  0.00000000000E+00  0.41442244904E+03  0.41442244904E+03  0.00000000000E+00 0. -1.
         21   -1    0    0  501  502 -0.00000000000E+00 -0.00000000000E+00 -0.29528606999E+01  0.29528606999E+01  0.00000000000E+00 0. -1.
         21    1    1    2  503  504  0.13805462174E+01  0.24731159637E+02  0.35309770028E+03  0.35396542501E+03  0.00000000000E+00 0. -1.
         21    1    1    2  504  502 -0.13805462174E+01 -0.24731159637E+02  0.58371888065E+02  0.63409884727E+02  0.00000000000E+00 0. -1.
</event>
<event>
 4    1  0.3305068E+006  0.2275368E+02  0.7546771E-02  0.1495615E+00
         21   -1    0    0  502  501  0.00000000000E+00  0.00000000000E+00  0.41081585308E+01  0.41081585308E+01  0.00000000000E+00 0.  1.
         21   -1    0    0  503  502 -0.00000000000E+00 -0.00000000000E+00 -0.34598237681E+03  0.34598237681E+03  0.00000000000E+00 0.  1.
         21    1    1    2  503  504  0.24727145879E+01  0.22618918489E+02 -0.31050736172E+03  0.31133992913E+03  0.00000000000E+00 0.  1.
         21    1    1    2  504  501 -0.24727145879E+01 -0.22618918489E+02 -0.31366856563E+02  0.38750606210E+02  0.00000000000E+00 0.  1.
</event>
<event>
 4    1  0.3305068E+006  0.4422612E+02  0.7546771E-02  0.1325355E+00
         21   -1    0    0  504  501  0.00000000000E+00  0.00000000000E+00  0.11595888593E+03  0.11595888593E+03  0.00000000000E+00 0.  1.
         21   -1    0    0  503  502 -0.00000000000E+00 -0.00000000000E+00 -0.31356504533E+02  0.31356504533E+02  0.00000000000E+00 0.  1.
         21    1    1    2  503  501 -0.40885534471E+02 -0.16861870313E+02 -0.77681515149E+01  0.44903159993E+02  0.00000000000E+00 0.  1.
         21    1    1    2  504  502  0.40885534471E+02  0.16861870313E+02  0.92370532915E+02  0.10241223047E+03  0.00000000000E+00 0.  1.
</event>
<event>
 4    1  0.3305068E+006  0.4431530E+02  0.7546771E-02  0.1324899E+00
         21   -1    0    0  503  501  0.00000000000E+00  0.00000000000E+00  0.23751764178E+03  0.23751764178E+03  0.00000000000E+00 0.  1.
         21   -1    0    0  504  502 -0.00000000000E+00 -0.00000000000E+00 -0.18723929224E+02  0.18723929224E+02  0.00000000000E+00 0.  1.
         21    1    1    2  503  502 -0.18025661626E+02 -0.40483591088E+02  0.20513787926E+03  0.20986994814E+03  0.00000000000E+00 0.  1.
         21    1    1    2  504  501  0.18025661626E+02  0.40483591088E+02  0.13655833299E+02  0.46371622869E+02  0.00000000000E+00 0.  1.
</event>
<event>
 4    1  0.3305068E+006  0.2170303E+02  0.7546771E-02  0.1509460E+00
         21   -1    0    0  502  501  0.00000000000E+00  0.00000000000E+00  0.36145306712E+01  0.36145306712E+01  0.00000000000E+00 0.  1.
         21   -1    0    0  503  502 -0.00000000000E+00 -0.00000000000E+00 -0.14023268145E+03  0.14023268145E+03  0.00000000000E+00 0.  1.
         21    1    1    2  503  504 -0.22447291321E+01 -0.21586629116E+02 -0.87437951682E+02  0.90091158056E+02  0.00000000000E+00 0.  1.
         21    1    1    2  504  501  0.22447291321E+01  0.21586629116E+02 -0.49180199093E+02  0.53756054061E+02  0.00000000000E+00 0.  1.
</event>
<event>
 4    1  0.3305068E+006  0.2778451E+02  0.7546771E-02  0.1439883E+00
         21   -1    0    0  502  501  0.00000000000E+00  0.00000000000E+00  0.46319950030E+01  0.46319950030E+01  0.00000000000E+00 0.  1.
         21   -1    0    0  504  502 -0.00000000000E+00 -0.00000000000E+00 -0.20936034060E+03  0.20936034060E+03  0.00000000000E+00 0.  1.
         21    1    1    2  503  501  0.27344669354E+02 -0.49242184870E+01 -0.54044379705E+02  0.60768197666E+02  0.00000000000E+00 0.  1.
         21    1    1    2  504  503 -0.27344669354E+02  0.49242184870E+01 -0.15068396589E+03  0.15322413793E+03  0.00000000000E+00 0.  1.
</event>
<event>
 4    1  0.3305068E+006  0.4055562E+02  0.7546771E-02  0.1345260E+00
         21   -1    0    0  504  501  0.00000000000E+00  0.00000000000E+00  0.61164375755E+02  0.61164375755E+02  0.00000000000E+00 0.  1.
         21   -1    0    0  503  502 -0.00000000000E+00 -0.00000000000E+00 -0.40809176662E+02  0.40809176662E+02  0.00000000000E+00 0.  1.
         21    1    1    2  503  501  0.37582956410E+02  0.15240717054E+02 -0.19598867369E+02  0.45043020224E+02  0.00000000000E+00 0.  1.
         21    1    1    2  504  502 -0.37582956410E+02 -0.15240717054E+02  0.39954066463E+02  0.56930532192E+02  0.00000000000E+00 0.  1.
</event>
<event>
 4    1  0.3305068E+006  0.2685249E+02  0.7546771E-02  0.1449095E+00
         21   -1    0    0  503  501  0.00000000000E+00  0.00000000000E+00  0.30424868536E+03  0.30424868536E+03  0.00000000000E+00 0. -1.
         21   -1    0    0  504  502 -0.00000000000E+00 -0.00000000000E+00 -0.25663843470E+01  0.25663843470E+01  0.00000000000E+00 0.  1.
         21    1    1    2  503  502 -0.26736693432E+02 -0.24911219749E+01  0.19328221092E+03  0.19513859055E+03  0.00000000000E+00 0. -1.
         21    1    1    2  504  501  0.26736693432E+02  0.24911219749E+01  0.10840009010E+03  0.11167647916E+03  0.00000000000E+00 0.  1.
</event>
<event>
 4    1  0.3305068E+006  0.2248705E+02  0.7546771E-02  0.1499042E+00
         21   -1    0    0  503  501  0.00000000000E+00  0.00000000000E+00  0.22895293404E+01  0.22895293404E+01  0.00000000000E+00 0.  1.
         21   -1    0    0  504  502 -0.00000000000E+00 -0.00000000000E+00 -0.22226595582E+03  0.22226595582E+03  0.00000000000E+00 0.  1.
         21    1    1    2  503  502  0.19680025845E+02  0.10879525540E+02 -0.10106122082E+03  0.10353278634E+03  0.00000000000E+00 0.  1.
         21    1    1    2  504  501 -0.19680025845E+02 -0.10879525540E+02 -0.11891520566E+03  0.12102269882E+03  0.00000000000E+00 0.  1.
</event>
<event>
 4    1  0.3305068E+006  0.2634219E+02  0.7546771E-02  0.1454330E+00
         21   -1    0    0  503  501  0.00000000000E+00  0.00000000000E+00  0.63973650366E+02  0.63973650366E+02  0.00000000000E+00 0.  1.
         21   -1    0    0  504  502 -0.00000000000E+00 -0.00000000000E+00 -0.17407735944E+02  0.17407735944E+02  0.00000000000E+00 0.  1.
         21    1    1    2  503  502 -0.24519431018E+02 -0.96285230497E+01  0.48263739426E+02  0.54984538708E+02  0.00000000000E+00 0.  1.
         21    1    1    2  504  501  0.24519431018E+02  0.96285230497E+01 -0.16978250034E+01  0.26396847602E+02  0.00000000000E+00 0.  1.
</event>
<event>
 4    1  0.3305068E+006  0.2208085E+02  0.7546771E-02  0.1504374E+00
         21   -1    0    0  502  501  0.00000000000E+00  0.00000000000E+00  0.90571306748E+02  0.90571306748E+02  0.00000000000E+00 0. -1.
         21   -1    0    0  504  502 -0.00000000000E+00 -0.00000000000E+00 -0.16136316419E+02  0.16136316419E+02  0.00000000000E+00 0.  1.
         21    1    1    2  503  501 -0.21281013807E+02 -0.58891641618E+01  0.80771725853E+02  0.83735509197E+02  0.00000000000E+00 0. -1.
         21    1    1    2  504  503  0.21281013807E+02  0.58891641618E+01 -0.63367355239E+01  0.22972113971E+02  0.00000000000E+00 0.  1.
</event>
<event>
 4    1  0.3305068E+006  0.2313679E+02  0.7546771E-02  0.1490788E+00
         21   -1    0    0  503  501  0.00000000000E+00  0.00000000000E+00  0.24730216839E+03  0.24730216839E+03  0.00000000000E+00 0.  1.
         21   -1    0    0  504  502 -0.00000000000E+00 -0.00000000000E+00 -0.73021298696E+01  0.73021298696E+01  0.00000000000E+00 0.  1.
         21    1    1    2  503  502 -0.13646852576E+02 -0.18683535284E+02  0.13220489980E+02  0.26647559574E+02  0.00000000000E+00 0.  1.
         21    1    1    2  504  501  0.13646852576E+02  0.18683535284E+02  0.22677954854E+03  0.22795673868E+03  0.00000000000E+00 0.  1.
</event>
<event>
 4    1  0.3305068E+006  0.2079584E+02  0.7546771E-02  0.1522200E+00
         21   -1    0    0  503  501  0.00000000000E+00  0.00000000000E+00  0.38582883761E+03  0.38582883761E+03  0.00000000000E+00 0. -1.
         21   -1    0    0  504  502 -0.00000000000E+00 -0.00000000000E+00 -0.21337044259E+01  0.21337044259E+01  0.00000000000E+00 0. -1.
         21    1    1    2  503  502  0.14290285974E+02 -0.15108103094E+02  0.58200267755E+02  0.61804030767E+02  0.00000000000E+00 0. -1.
         21    1    1    2  504  501 -0.14290285974E+02  0.15108103094E+02  0.32549486543E+03  0.32615851127E+03  0.00000000000E+00 0. -1.
</event>
<event>
 4    1  0.3305068E+006  0.2067644E+02  0.7546771E-02  0.1523935E+00
         21   -1    0    0  503  501  0.00000000000E+00  0.00000000000E+00  0.92523227716E+01  0.92523227716E+01  0.00000000000E+00 0. -1.
         21   -1    0    0  504  502 -0.00000000000E+00 -0.00000000000E+00 -0.46491485685E+02  0.46491485685E+02  0.00000000000E+00 0.  1.
         21    1    1    2  503  502  0.19528517110E+02 -0.67935334547E+01 -0.16436414554E+02  0.26413458704E+02  0.00000000000E+00 0. -1.
         21    1    1    2  504  501 -0.19528517110E+02  0.67935334547E+01 -0.20802748360E+02  0.29330349753E+02  0.00000000000E+00 0.  1.
</event>
<event>
 4    1  0.3305068E+006  0.3293804E+02  0.7546771E-02  0.1395669E+00
         21   -1    0    0  504  501  0.00000000000E+00  0.00000000000E+00  0.14251606867E+03  0.14251606867E+03  0.00000000000E+00 0. -1.
         21   -1    0    0  503  502 -0.00000000000E+00 -0.00000000000E+00 -0.13290408767E+03  0.13290408767E+03  0.00000000000E+00 0. -1.
         21    1    1    2  503  501  0.17526141890E+02 -0.27888142971E+02 -0.12890200650E+03  0.13304375765E+03  0.00000000000E+00 0. -1.
         21    1    1    2  504  502 -0.17526141890E+02  0.27888142971E+02  0.13851398751E+03  0.14237639869E+03  0.00000000000E+00 0. -1.
</event>
<event>
 4    1  0.3305068E+006  0.2131921E+02  0.7546771E-02  0.1514756E+00
         21   -1    0    0  503  501  0.00000000000E+00  0.00000000000E+00  0.63532279423E+02  0.63532279423E+02  0.00000000000E+00 0. -1.
         21   -1    0    0  504  502 -0.00000000000E+00 -0.00000000000E+00 -0.77790607378E+02  0.77790607378E+02  0.00000000000E+00 0. -1.
         21    1    1    2  503  502  0.41603469993E+01  0.20909330464E+02 -0.74463084842E+02  0.77454887462E+02  0.00000000000E+00 0. -1.
         21    1    1    2  504  501 -0.41603469993E+01 -0.20909330464E+02  0.60204756888E+02  0.63867999339E+02  0.00000000000E+00 0. -1.
</event>
<event>
 4    1  0.3305068E+006  0.2548770E+02  0.7546771E-02  0.1463421E+00
         21   -1    0    0  502  501  0.00000000000E+00  0.00000000000E+00  0.81022192152E+01  0.81022192152E+01  0.00000000000E+00 0.  1.
         21   -1    0    0  504  502 -0.00000000000E+00 -0.00000000000E+00 -0.96761183222E+02  0.96761183222E+02  0.00000000000E+00 0.  1.
         21    1    1    2  503  501  0.25404037822E+02  0.20633895784E+01 -0.22623847077E+02  0.34080216707E+02  0.00000000000E+00 0.  1.
         21    1    1    2  504  503 -0.25404037822E+02 -0.20633895784E+01 -0.66035116930E+02  0.70783185730E+02  0.00000000000E+00 0.  1.
</event>
<event>
 4    1  0.3305068E+006  0.2030018E+02  0.7546771E-02  0.1529495E+00
         21   -1    0    0  503  501  0.00000000000E+00  0.00000000000E+00  0.45191935759E+02  0.45191935759E+02  0.00000000000E+00 0.  1.
         21   -1    0    0  504  502 -0.00000000000E+00 -0.00000000000E+00 -0.11403581538E+02  0.11403581538E+02  0.00000000000E+00 0.  1.
         21    1    1    2  503  502 -0.18366117597E+02 -0.86477285607E+01  0.29560515621E+02  0.35859748585E+02  0.00000000000E+00 0.  1.
         21    1    1    2  504  501  0.18366117597E+02  0.86477285607E+01  0.42278386005E+01  0.20735768712E+02  0.00000000000E+00 0.  1.
</event>
<event>
 4    1  0.3305068E+006  0.2515535E+02  0.7546771E-02  0.1467073E+00
         21   -1    0    0  504  501  0.00000000000E+00  0.00000000000E+00  0.91746449641E+02  0.91746449641E+02  0.00000000000E+00 0. -1.
         21   -1    0    0  503  502 -0.00000000000E+00 -0.00000000000E+00 -0.76709532266E+01  0.76709532266E+01  0.00000000000E+00 0. -1.
         21    1    1    2  503  501  0.13968065275E+02 -0.20920913419E+02  0.26250168601E+02  0.36357431392E+02  0.00000000000E+00 0. -1.
         21    1    1    2  504  502 -0.13968065275E+02  0.20920913419E+02  0.57825327813E+02  0.63059971476E+02  0.00000000000E+00 0. -1.
</event>
<event>
 4    1  0.3305068E+006  0.2150834E+02  0.7546771E-02  0.1512129E+00
         21   -1    0    0  504  501  0.00000000000E+00  0.00000000000E+00  0.69464320932E+02  0.69464320932E+02  0.00000000000E+00 0. -1.
         21   -1    0    0  501  502 -0.00000000000E+00 -0.00000000000E+00 -0.18060699648E+02  0.18060699648E+02  0.00000000000E+00 0.  1.
         21    1    1    2  503  502  0.21458104888E+02  0.14690859476E+01 -0.90683939127E+01  0.23341898960E+02  0.00000000000E+00 0.  1.
         21    1    1    2  504  503 -0.21458104888E+02 -0.14690859476E+01  0.60472015197E+02  0.64183121620E+02  0.00000000000E+00 0. -1.
</event>
<event>
 4    1  0.3305068E+006  0.2142431E+02  0.7546771E-02  0.1513292E+00
         21   -1    0    0  504  501  0.00000000000E+00  0.00000000000E+00  0.10548759227E+03  0.10548759227E+03  0.00000000000E+00 0.  1.
         21   -1    0    0  503  502 -0.00000000000E+00 -0.00000000000E+00 -0.44172515276E+02  0.44172515276E+02  0.00000000000E+00 0.  1.
         21    1    1    2  503  501 -0.25505541048E+01  0.21271946475E+02 -0.40391403614E+02  0.45721619820E+02  0.00000000000E+00 0.  1.
         21    1    1    2  504  502  0.25505541048E+01 -0.21271946475E+02  0.10170648061E+03  0.10393848773E+03  0.00000000000E+00 0.  1.
</event>
<event>
 4    1  0.3305068E+006  0.2154973E+02  0.7546771E-02  0.1511559E+00
         21   -1    0    0  502  501  0.00000000000E+00  0.00000000000E+00  0.22683737856E+02  0.22683737856E+02  0.00000000000E+00 0. -1.
         21   -1    0    0  504  502 -0.00000000000E+00 -0.00000000000E+00 -0.67027328125E+03  0.67027328125E+03  0.00000000000E+00 0.  1.
         21    1    1    2  503  501  0.21138647500E+02  0.41890880240E+01  0.17351392061E+02  0.27666978206E+02  0.00000000000E+00 0. -1.
         21    1    1    2  504  503 -0.21138647500E+02 -0.41890880240E+01 -0.66494093545E+03  0.66529004090E+03  0.00000000000E+00 0.  1.
</event>
<event>
 4    1  0.3305068E+006  0.2085186E+02  0.7546771E-02  0.1521390E+00
         21   -1    0    0  503  501  0.00000000000E+00  0.00000000000E+00  0.98936621075E+01  0.98936621075E+01  0.00000000000E+00 0.  1.
         21   -1    0    0  504  502 -0.00000000000E+00 -0.00000000000E+00 -0.57756293779E+02  0.57756293779E+02  0.00000000000E+00 0.  1.
         21    1    1    2  503  502 -0.89934553662E+01 -0.18812702731E+02 -0.73919663220E+01  0.22123317780E+02  0.00000000000E+00 0.  1.
         21    1    1    2  504  501  0.89934553662E+01  0.18812702731E+02 -0.40470665350E+02  0.45526638107E+02  0.00000000000E+00 0.  1.
</event>
<event>
 4    1  0.3305068E+006  0.3034079E+02  0.7546771E-02  0.1416658E+00
         21   -1    0    0  502  501  0.00000000000E+00  0.00000000000E+00  0.15450190227E+02  0.15450190227E+02  0.00000000000E+00 0.  1.
         21   -1    0    0  504  502 -0.00000000000E+00 -0.00000000000E+00 -0.16842833928E+03  0.16842833928E+03  0.00000000000E+00 0.  1.
         21    1    1    2  503  501 -0.18922235943E+02 -0.23717344702E+02 -0.25797833301E+01  0.30450266581E+02  0.00000000000E+00 0.  1.
         21    1    1    2  504  503  0.18922235943E+02  0.23717344702E+02 -0.15039836572E+03  0.15342826293E+03  0.00000000000E+00 0.  1.
</event>
<event>
 4    1  0.3305068E+006  0.3422394E+02  0.7546771E-02  0.1386103E+00
         21   -1    0    0  503  501  0.00000000000E+00  0.00000000000E+00  0.19523703319E+03  0.19523703319E+03  0.00000000000E+00 0. -1.
         21   -1    0    0  504  502 -0.00000000000E+00 -0.00000000000E+00 -0.93118539628E+01  0.93118539628E+01  0.00000000000E+00 0. -1.
         21    1    1    2  503  502  0.28064088226E+02 -0.19587877550E+02  0.15396304247E+03  0.15772094484E+03  0.00000000000E+00 0. -1.
         21    1    1    2  504  501 -0.28064088226E+02  0.19587877550E+02  0.31962136751E+02  0.46827942305E+02  0.00000000000E+00 0. -1.
</event>
<event>
 4    1  0.3305068E+006  0.2069161E+02  0.7546771E-02  0.1523714E+00
         21   -1    0    0  504  501  0.00000000000E+00  0.00000000000E+00  0.58091827268E+03  0.58091827268E+03  0.00000000000E+00 0. -1.
         21   -1    0    0  503  502 -0.00000000000E+00 -0.00000000000E+00 -0.29317285624E+01  0.29317285624E+01  0.00000000000E+00 0. -1.
         21    1    1    2  503  501  0.12222319739E+02 -0.16696032234E+02  0.54157319500E+03  0.54196832761E+03  0.00000000000E+00 0. -1.
         21    1    1    2  504  502 -0.12222319739E+02  0.16696032234E+02  0.36413349124E+02  0.41881673636E+02  0.00000000000E+00 0. -1.
</event>
<event>
 4    1  0.3305068E+006  0.4167691E+02  0.7546771E-02  0.1338930E+00
         21   -1    0    0  504  501  0.00000000000E+00  0.00000000000E+00  0.11154400088E+04  0.11154400088E+04  0.00000000000E+00 0.  1.
         21   -1    0    0  503  502 -0.00000000000E+00 -0.00000000000E+00 -0.24156473739E+01  0.24156473739E+01  0.00000000000E+00 0.  1.
         21    1    1    2  503  501  0.41595240007E+02 -0.26078110507E+01  0.22331949077E+03  0.22717517388E+03  0.00000000000E+00 0.  1.
         21    1    1    2  504  502 -0.41595240007E+02  0.26078110507E+01  0.88970487069E+03  0.89068048232E+03  0.00000000000E+00 0.  1.
</event>
<event>
 4    1  0.3305068E+006  0.3393468E+02  0.7546771E-02  0.1388211E+00
         21   -1    0    0  504  501  0.00000000000E+00  0.00000000000E+00  0.18216193081E+01  0.18216193081E+01  0.00000000000E+00 0. -1.
         21   -1    0    0  503  502 -0.00000000000E+00 -0.00000000000E+00 -0.66500075300E+03  0.66500075300E+03  0.00000000000E+00 0. -1.
         21    1    1    2  503  501  0.11295181718E+02 -0.31999704980E+02 -0.25750140222E+03  0.25972780828E+03  0.00000000000E+00 0. -1.
         21    1    1    2  504  502 -0.11295181718E+02  0.31999704980E+02 -0.40567773147E+03  0.40709456402E+03  0.00000000000E+00 0. -1.
</event>
<event>
 4    1  0.3305068E+006  0.2069822E+02  0.7546771E-02  0.1523617E+00
         21   -1    0    0  503  501  0.00000000000E+00  0.00000000000E+00  0.30462654969E+02  0.30462654969E+02  0.00000000000E+00 0. -1.
         21   -1    0    0  504  502 -0.00000000000E+00 -0.00000000000E+00 -0.23388345664E+02  0.23388345664E+02  0.00000000000E+00 0. -1.
         21    1    1    2  503  502 -0.20349512142E+02  0.37833442437E+01  0.20538418001E+02  0.29158925770E+02  0.00000000000E+00 0. -1.
         21    1    1    2  504  501  0.20349512142E+02 -0.37833442437E+01 -0.13464108696E+02  0.24692074864E+02  0.00000000000E+00 0. -1.
</event>
<event>
 4    1  0.3305068E+006  0.3560628E+02  0.7546771E-02  0.1376350E+00
         21   -1    0    0  503  501  0.00000000000E+00  0.00000000000E+00  0.12399750479E+03  0.12399750479E+03  0.00000000000E+00 0.  1.
         21   -1    0    0  501  502 -0.00000000000E+00 -0.00000000000E+00 -0.17632676270E+02  0.17632676270E+02  0.00000000000E+00 0.  1.
         21    1    1    2  503  504  0.35135264231E+02  0.57723738358E+01  0.99083570639E+02  0.10528704129E+03  0.00000000000E+00 0.  1.
         21    1    1    2  504  502 -0.35135264231E+02 -0.57723738358E+01  0.72812578820E+01  0.36343139774E+02  0.00000000000E+00 0.  1.
</event>
<event>
 4    1  0.3305068E+006  0.2011737E+02  0.7546771E-02  0.1532249E+00
         21   -1    0    0  503  501  0.00000000000E+00  0.00000000000E+00  0.43479202740E+02  0.43479202740E+02  0.00000000000E+00 0.  1.
         21   -1    0    0  504  502 -0.00000000000E+00 -0.00000000000E+00 -0.93768363665E+01  0.93768363665E+01  0.00000000000E+00 0.  1.
         21    1    1    2  503  502  0.54799731006E+01 -0.19356608061E+02  0.19314043763E+02  0.27888002210E+02  0.00000000000E+00 0.  1.
         21    1    1    2  504  501 -0.54799731006E+01  0.19356608061E+02  0.14788322610E+02  0.24968036896E+02  0.00000000000E+00 0.  1.
</event>
<event>
 4    1  0.3305068E+006  0.2213434E+02  0.7546771E-02  0.1503664E+00
         21   -1    0    0  504  501  0.00000000000E+00  0.00000000000E+00  0.52724808091E+03  0.52724808091E+03  0.00000000000E+00 0. -1.
         21   -1    0    0  501  502 -0.00000000000E+00 -0.00000000000E+00 -0.11338297830E+01  0.11338297830E+01  0.00000000000E+00 0.  1.
         21    1    1    2  503  502  0.15480741893E+02  0.15820100516E+02  0.15082731168E+03  0.15244279877E+03  0.00000000000E+00 0.  1.
         21    1    1    2  504  503 -0.15480741893E+02 -0.15820100516E+02  0.37528693944E+03  0.37593911191E+03  0.00000000000E+00 0. -1.
</event>
<event>
 4    1  0.3305068E+006  0.3011327E+02  0.7546771E-02  0.1418615E+00
         21   -1    0    0  504  501  0.00000000000E+00  0.00000000000E+00  0.30358362549E+01  0.30358362549E+01  0.00000000000E+00 0.  1.
         21   -1    0    0  503  502 -0.00000000000E+00 -0.00000000000E+00 -0.36034500299E+03  0.36034500299E+03  0.00000000000E+00 0.  1.
         21    1    1    2  503  501 -0.21596789242E+01  0.30035720688E+02 -0.25380243374E+03  0.25558263654E+03  0.00000000000E+00 0.  1.
         21    1    1    2  504  502  0.21596789242E+01 -0.30035720688E+02 -0.10350673300E+03  0.10779820270E+03  0.00000000000E+00 0.  1.
</event>
<event>
 4    1  0.3305068E+006  0.2021195E+02  0.7546771E-02  0.1530820E+00
         21   -1    0    0  502  501  0.00000000000E+00  0.00000000000E+00  0.23641574939E+02  0.23641574939E+02  0.00000000000E+00 0. -1.
         21   -1    0    0  504  502 -0.00000000000E+00 -0.00000000000E+00 -0.11013759291E+03  0.11013759291E+03  0.00000000000E+00 0.  1.
         21    1    1    2  503  501 -0.17622673227E+02 -0.98976906908E+01  0.18170569890E+02  0.27178898116E+02  0.00000000000E+00 0. -1.
         21    1    1    2  504  503  0.17622673227E+02  0.98976906908E+01 -0.10466658786E+03  0.10660026973E+03  0.00000000000E+00 0.  1.
</event>
<event>
 4    1  0.3305068E+006  0.2781426E+02  0.7546771E-02  0.1439596E+00
         21   -1    0    0  502  501  0.00000000000E+00  0.00000000000E+00  0.58982700108E+02  0.58982700108E+02  0.00000000000E+00 0. -1.
         21   -1    0    0  503  502 -0.00000000000E+00 -0.00000000000E+00 -0.19743608102E+02  0.19743608102E+02  0.00000000000E+00 0. -1.
         21    1    1    2  503  504 -0.27591440993E+02 -0.35136042987E+01 -0.31862999686E+01  0.27996170072E+02  0.00000000000E+00 0. -1.
         21    1    1    2  504  501  0.27591440993E+02  0.35136042987E+01  0.42425391975E+02  0.50730138138E+02  0.00000000000E+00 0. -1.
</event>
<event>
 4    1  0.3305068E+006  0.3091636E+02  0.7546771E-02  0.1411797E+00
         21   -1    0    0  502  501  0.00000000000E+00  0.00000000000E+00  0.37842474413E+02  0.37842474413E+02  0.00000000000E+00 0. -1.
         21   -1    0    0  503  502 -0.00000000000E+00 -0.00000000000E+00 -0.24247109637E+03  0.24247109637E+03  0.00000000000E+00 0.  1.
         21    1    1    2  503  504  0.26303403148E+02  0.16246618079E+02 -0.23497041500E+03  0.23699560659E+03  0.00000000000E+00 0.  1.
         21    1    1    2  504  501 -0.26303403148E+02 -0.16246618079E+02  0.30341793049E+02  0.43317964190E+02  0.00000000000E+00 0. -1.
</event>
<event>
 4    1  0.3305068E+006  0.2042307E+02  0.7546771E-02  0.1527664E+00
         21   -1    0    0  504  501  0.00000000000E+00  0.00000000000E+00  0.69539855056E+02  0.69539855056E+02  0.00000000000E+00 0.  1.
         21   -1    0    0  501  502 -0.00000000000E+00 -0.00000000000E+00 -0.59711854994E+03  0.59711854994E+03  0.00000000000E+00 0.  1.
         21    1    1    2  503  502 -0.17073490208E+02  0.11207036607E+02 -0.59544018743E+03  0.59579033102E+03  0.00000000000E+00 0.  1.
         21    1    1    2  504  503  0.17073490208E+02 -0.11207036607E+02  0.67861492547E+02  0.70868073969E+02  0.00000000000E+00 0.  1.
</event>
<event>
 4    1  0.3305068E+006  0.4175897E+02  0.7546771E-02  0.1338476E+00
         21   -1    0    0  504  501  0.00000000000E+00  0.00000000000E+00  0.10094595060E+04  0.10094595060E+04  0.00000000000E+00 0. -1.
         21   -1    0    0  503  502 -0.00000000000E+00 -0.00000000000E+00 -0.89296339580E+02  0.89296339580E+02  0.00000000000E+00 0.  1.
         21    1    1    2  503  501  0.41517288103E+02 -0.44862589371E+01  0.10041195947E+04  0.10049875482E+04  0.00000000000E+00 0. -1.
         21    1    1    2  504  502 -0.41517288103E+02  0.44862589371E+01 -0.83956428277E+02  0.93768297306E+02  0.00000000000E+00 0.  1.
</event>
<event>
 4    1  0.3305068E+006  0.2108255E+02  0.7546771E-02  0.1518089E+00
         21   -1    0    0  502  501  0.00000000000E+00  0.00000000000E+00  0.21867924487E+02  0.21867924487E+02  0.00000000000E+00 0.  1.
         21   -1    0    0  504  502 -0.00000000000E+00 -0.00000000000E+00 -0.10727324645E+03  0.10727324645E+03  0.00000000000E+00 0. -1.
         21    1    1    2  503  501  0.11339995192E+02  0.17772964050E+02  0.15429771009E+02  0.26125688038E+02  0.00000000000E+00 0.  1.
         21    1    1    2  504  503 -0.11339995192E+02 -0.17772964050E+02 -0.10083509297E+03  0.10301548289E+03  0.00000000000E+00 0. -1.
</event>
<event>
 4    1  0.3305068E+006  0.2164449E+02  0.7546771E-02  0.1510259E+00
         21   -1    0    0  503  501  0.00000000000E+00  0.00000000000E+00  0.74244162515E+02  0.74244162515E+02  0.00000000000E+00 0.  1.
         21   -1    0    0  501  502 -0.00000000000E+00 -0.00000000000E+00 -0.35327542995E+02  0.35327542995E+02  0.00000000000E+00 0. -1.
         21    1    1    2  503  504 -0.20628497803E+02 -0.65535534727E+01  0.69110875247E+02  0.72420971149E+02  0.00000000000E+00 0.  1.
         21    1    1    2  504  502  0.20628497803E+02  0.65535534727E+01 -0.30194255726E+02  0.37150734361E+02  0.00000000000E+00 0. -1.
</event>
<event>
 4    1  0.3305068E+006  0.2021081E+02  0.7546771E-02  0.1530837E+00
         21   -1    0    0  504  501  0.00000000000E+00  0.00000000000E+00  0.69848231278E+02  0.69848231278E+02  0.00000000000E+00 0. -1.
         21   -1    0    0  503  502 -0.00000000000E+00 -0.00000000000E+00 -0.28873566209E+03  0.28873566209E+03  0.00000000000E+00 0.  1.
         21    1    1    2  503  501  0.18700156583E+02 -0.76668678902E+01 -0.28691068170E+03  0.28762165425E+03  0.00000000000E+00 0.  1.
         21    1    1    2  504  502 -0.18700156583E+02  0.76668678902E+01  0.68023250888E+02  0.70962239119E+02  0.00000000000E+00 0. -1.
</event>
<event>
 4    1  0.3305068E+006  0.2128990E+02  0.7546771E-02  0.1515166E+00
         21   -1    0    0  503  501  0.00000000000E+00  0.00000000000E+00  0.10123304783E+03  0.10123304783E+03  0.00000000000E+00 0. -1.
         21   -1    0    0  504  502 -0.00000000000E+00 -0.00000000000E+00 -0.18028046770E+02  0.18028046770E+02  0.00000000000E+00 0.  1.
         21    1    1    2  503  502  0.13675264197E+02  0.16317078028E+02 -0.10095604188E+02  0.23562281514E+02  0.00000000000E+00 0.  1.
         21    1    1    2  504  501 -0.13675264197E+02 -0.16317078028E+02  0.93300605247E+02  0.95698813084E+02  0.00000000000E+00 0. -1.
</event>
<event>
 4    1  0.3305068E+006  0.2087595E+02  0.7546771E-02  0.1521043E+00
         21   -1    0    0  503  501  0.00000000000E+00  0.00000000000E+00  0.24887662827E+01  0.24887662827E+01  0.00000000000E+00 0.  1.
         21   -1    0    0  504  502 -0.00000000000E+00 -0.00000000000E+00 -0.15516071832E+04  0.15516071832E+04  0.00000000000E+00 0.  1.
         21    1    1    2  503  502  0.11802884258E+02  0.17219088437E+02 -0.15064474701E+04  0.15065921098E+04  0.00000000000E+00 0.  1.
         21    1    1    2  504  501 -0.11802884258E+02 -0.17219088437E+02 -0.42670946740E+02  0.47503839625E+02  0.00000000000E+00 0.  1.
</event>
<event>
 4    1  0.3305068E+006  0.2462134E+02  0.7546771E-02  0.1473084E+00
         21   -1    0    0  503  501  0.00000000000E+00  0.00000000000E+00  0.43001514839E+03  0.43001514839E+03  0.00000000000E+00 0.  1.
         21   -1    0    0  504  502 -0.00000000000E+00 -0.00000000000E+00 -0.16480163700E+01  0.16480163700E+01  0.00000000000E+00 0.  1.
         21    1    1    2  503  502 -0.71772548817E+01 -0.23552015225E+02  0.29625138897E+03  0.29727276343E+03  0.00000000000E+00 0.  1.
         21    1    1    2  504  501  0.71772548817E+01  0.23552015225E+02  0.13211574304E+03  0.13439040133E+03  0.00000000000E+00 0.  1.
</event>
<event>
 4    1  0.3305068E+006  0.2146391E+02  0.7546771E-02  0.1512743E+00
         21   -1    0    0  503  501  0.00000000000E+00  0.00000000000E+00  0.94992687760E+03  0.94992687760E+03  0.00000000000E+00 0.  1.
         21   -1    0    0  501  502 -0.00000000000E+00 -0.00000000000E+00 -0.18674951208E+01  0.18674951208E+01  0.00000000000E+00 0. -1.
         21    1    1    2  503  504 -0.16862615628E+02 -0.13279740948E+02  0.88349557042E+03  0.88375625728E+03  0.00000000000E+00 0.  1.
         21    1    1    2  504  502  0.16862615628E+02  0.13279740948E+02  0.64563812058E+02  0.68038115443E+02  0.00000000000E+00 0. -1.
</event>
<event>
 4    1  0.3305068E+006  0.2277952E+02  0.7546771E-02  0.1495285E+00
         21   -1    0    0  504  501  0.00000000000E+00  0.00000000000E+00  0.63185164251E+01  0.63185164251E+01  0.00000000000E+00 0.  1.
         21   -1    0    0  503  502 -0.00000000000E+00 -0.00000000000E+00 -0.87159233118E+02  0.87159233118E+02  0.00000000000E+00 0.  1.
         21    1    1    2  503  501 -0.20526068940E+02 -0.98786156453E+01 -0.29187269552E+02  0.37024360320E+02  0.00000000000E+00 0.  1.
         21    1    1    2  504  502  0.20526068940E+02  0.98786156453E+01 -0.51653447142E+02  0.56453389224E+02  0.00000000000E+00 0.  1.
</event>
<event>
 4    1  0.3305068E+006  0.2548623E+02  0.7546771E-02  0.1463437E+00
         21   -1    0    0  504  501  0.00000000000E+00  0.00000000000E+00  0.36092168600E+02  0.36092168600E+02  0.00000000000E+00 0. -1.
         21   -1    0    0  503  502 -0.00000000000E+00 -0.00000000000E+00 -0.19657189731E+02  0.19657189731E+02  0.00000000000E+00 0.  1.
         21    1    1    2  503  501  0.22813386329E+01 -0.25383922909E+02  0.16318474756E+02  0.30262859524E+02  0.00000000000E+00 0. -1.
         21    1    1    2  504  502 -0.22813386329E+01  0.25383922909E+02  0.11650411350E+00  0.25486498807E+02  0.00000000000E+00 0.  1.
</event>
<event>
 4    1  0.3305068E+006  0.3800337E+02  0.7546771E-02  0.1360601E+00
         21   -1    0    0  504  501  0.00000000000E+00  0.00000000000E+00  0.20449927242E+02  0.20449927242E+02  0.00000000000E+00 0.  1.
         21   -1    0    0  503  502 -0.00000000000E+00 -0.00000000000E+00 -0.10821492154E+03  0.10821492154E+03  0.00000000000E+00 0.  1.
         21    1    1    2  503  501  0.32471019944E+02 -0.19745616449E+02 -0.59660538816E+01  0.38468822494E+02  0.00000000000E+00 0.  1.
         21    1    1    2  504  502 -0.32471019944E+02  0.19745616449E+02 -0.81798940420E+02  0.90196026293E+02  0.00000000000E+00 0.  1.
</event>
<event>
 4    1  0.3305068E+006  0.2060943E+02  0.7546771E-02  0.1524915E+00
         21   -1    0    0  503  501  0.00000000000E+00  0.00000000000E+00  0.78957560308E+02  0.78957560308E+02  0.00000000000E+00 0.  1.
         21   -1    0    0  504  502 -0.00000000000E+00 -0.00000000000E+00 -0.67735934092E+01  0.67735934092E+01  0.00000000000E+00 0.  1.
         21    1    1    2  503  502 -0.80088632234E+01 -0.18989648276E+02  0.16645007459E+02  0.26491600651E+02  0.00000000000E+00 0.  1.
         21    1    1    2  504  501  0.80088632234E+01  0.18989648276E+02  0.55538959440E+02  0.59239553066E+02  0.00000000000E+00 0.  1.
</event>
<event>
 4    1  0.3305068E+006  0.2614154E+02  0.7546771E-02  0.1456427E+00
         21   -1    0    0  503  501  0.00000000000E+00  0.00000000000E+00  0.42857113348E+03  0.42857113348E+03  0.00000000000E+00 0.  1.
         21   -1    0    0  501  502 -0.00000000000E+00 -0.00000000000E+00 -0.75867186732E+02  0.75867186732E+02  0.00000000000E+00 0. -1.
         21    1    1    2  503  504  0.21159014546E+02 -0.15351744678E+02  0.42590652386E+03  0.42670803488E+03  0.00000000000E+00 0.  1.
         21    1    1    2  504  502 -0.21159014546E+02  0.15351744678E+02 -0.73202577117E+02  0.77730285332E+02  0.00000000000E+00 0. -1.
</event>
<event>
 4    1  0.3305068E+006  0.3701920E+02  0.7546771E-02  0.1366898E+00
         21   -1    0    0  503  501  0.00000000000E+00  0.00000000000E+00  0.84058031328E+01  0.84058031328E+01  0.00000000000E+00 0.  1.
         21   -1    0    0  504  502 -0.00000000000E+00 -0.00000000000E+00 -0.23113953165E+03  0.23113953165E+03  0.00000000000E+00 0.  1.
         21    1    1    2  503  502 -0.31437308912E+02  0.19547811589E+02 -0.17638218920E+03  0.18022513142E+03  0.00000000000E+00 0.  1.
         21    1    1    2  504  501  0.31437308912E+02 -0.19547811589E+02 -0.46351539320E+02  0.59320203362E+02  0.00000000000E+00 0.  1.
</event>
<event>
 4    1  0.3305068E+006  0.2785641E+02  0.7546771E-02  0.1439190E+00
         21   -1    0    0  502  501  0.00000000000E+00  0.00000000000E+00  0.14211649503E+01  0.14211649503E+01  0.00000000000E+00 0. -1.
         21   -1    0    0  504  502 -0.00000000000E+00 -0.00000000000E+00 -0.88760267585E+03  0.88760267585E+03  0.00000000000E+00 0. -1.
         21    1    1    2  503  501  0.23329761250E+02 -0.15221757712E+02 -0.16733525506E+03  0.16963804778E+03  0.00000000000E+00 0. -1.
         21    1    1    2  504  503 -0.23329761250E+02  0.15221757712E+02 -0.71884625585E+03  0.71938579303E+03  0.00000000000E+00 0. -1.
</event>
<event>
 4    1  0.3305068E+006  0.2090964E+02  0.7546771E-02  0.1520559E+00
         21   -1    0    0  503  501  0.00000000000E+00  0.00000000000E+00  0.58354821704E+03  0.58354821704E+03  0.00000000000E+00 0.  1.
         21   -1    0    0  504  502 -0.00000000000E+00 -0.00000000000E+00 -0.11795833264E+02  0.11795833264E+02  0.00000000000E+00 0. -1.
         21    1    1    2  503  502 -0.92615850427E+01 -0.18746623315E+02 -0.21871891813E+01  0.21023716126E+02  0.00000000000E+00 0. -1.
         21    1    1    2  504  501  0.92615850427E+01  0.18746623315E+02  0.57393957296E+03  0.57432033418E+03  0.00000000000E+00 0.  1.
</event>
<event>
 4    1  0.3305068E+006  0.2329334E+02  0.7546771E-02  0.1488847E+00
         21   -1    0    0  504  501  0.00000000000E+00  0.00000000000E+00  0.24474548192E+02  0.24474548192E+02  0.00000000000E+00 0.  1.
         21   -1    0    0  501  502 -0.00000000000E+00 -0.00000000000E+00 -0.14898789356E+03  0.14898789356E+03  0.00000000000E+00 0.  1.
         21    1    1    2  503  502  0.23161179864E+02 -0.24777629861E+01 -0.14227541453E+03  0.14416959854E+03  0.00000000000E+00 0.  1.
         21    1    1    2  504  503 -0.23161179864E+02  0.24777629861E+01  0.17762069169E+02  0.29292843209E+02  0.00000000000E+00 0.  1.
</event>
<event>
 4    1  0.3305068E+006  0.2349898E+02  0.7546771E-02  0.1486326E+00
         21   -1    0    0  503  501  0.00000000000E+00  0.00000000000E+00  0.67151697968E+02  0.67151697968E+02  0.00000000000E+00 0.  1.
         21   -1    0    0  504  502 -0.00000000000E+00 -0.00000000000E+00 -0.14261155911E+02  0.14261155911E+02  0.00000000000E+00 0.  1.
         21    1    1    2  503  502  0.23382643715E+02  0.23353893662E+01  0.52932130421E+02  0.57913836874E+02  0.00000000000E+00 0.  1.
         21    1    1    2  504  501 -0.23382643715E+02 -0.23353893662E+01 -0.41588364245E-01  0.23499017005E+02  0.00000000000E+00 0.  1.
</event>
<event>
 4    1  0.3305068E+006  0.2545568E+02  0.7546771E-02  0.1463770E+00
         21   -1    0    0  503  501  0.00000000000E+00  0.00000000000E+00  0.60923766651E+02  0.60923766651E+02  0.00000000000E+00 0. -1.
         21   -1    0    0  504  502 -0.00000000000E+00 -0.00000000000E+00 -0.17207138924E+02  0.17207138924E+02  0.00000000000E+00 0.  1.
         21    1    1    2  503  502  0.13860515221E+02 -0.21351299853E+02  0.45999311702E+02  0.52573078326E+02  0.00000000000E+00 0. -1.
         21    1    1    2  504  501 -0.13860515221E+02  0.21351299853E+02 -0.22826839750E+01  0.25557827250E+02  0.00000000000E+00 0.  1.
</event>
<event>
 4    1  0.3305068E+006  0.2601535E+02  0.7546771E-02  0.1457758E+00
         21   -1    0    0  504  501  0.00000000000E+00  0.00000000000E+00  0.13498920734E+03  0.13498920734E+03  0.00000000000E+00 0.  1.
         21   -1    0    0  503  502 -0.00000000000E+00 -0.00000000000E+00 -0.86990345891E+01  0.86990345891E+01  0.00000000000E+00 0.  1.
         21    1    1    2  503  501 -0.23016781228E+02  0.12125430249E+02  0.10990706808E+03  0.11294406532E+03  0.00000000000E+00 0.  1.
         21    1    1    2  504  502  0.23016781228E+02 -0.12125430249E+02  0.16383104673E+02  0.30744176612E+02  0.00000000000E+00 0.  1.
</event>
<event>
 4    1  0.3305068E+006  0.2051301E+02  0.7546771E-02  0.1526333E+00
         21   -1    0    0  504  501  0.00000000000E+00  0.00000000000E+00  0.23386876708E+03  0.23386876708E+03  0.00000000000E+00 0.  1.
         21   -1    0    0  503  502 -0.00000000000E+00 -0.00000000000E+00 -0.10022780790E+02  0.10022780790E+02  0.00000000000E+00 0.  1.
         21    1    1    2  503  501 -0.11155138230E+01  0.20482658404E+02  0.22238230463E+03  0.22332638241E+03  0.00000000000E+00 0.  1.
         21    1    1    2  504  502  0.11155138230E+01 -0.20482658404E+02  0.14636816570E+01  0.20565165460E+02  0.00000000000E+00 0.  1.
</event>
<event>
 4    1  0.3305068E+006  0.3562308E+02  0.7546771E-02  0.1376235E+00
         21   -1    0    0  504  501  0.00000000000E+00  0.00000000000E+00  0.98087446559E+03  0.98087446559E+03  0.00000000000E+00 0.  1.
         21   -1    0    0  501  502 -0.00000000000E+00 -0.00000000000E+00 -0.16072737004E+01  0.16072737004E+01  0.00000000000E+00 0.  1.
         21    1    1    2  503  502  0.18884811549E+02  0.30205430608E+02  0.27267027990E+03  0.27498742823E+03  0.00000000000E+00 0.  1.
         21    1    1    2  504  503 -0.18884811549E+02 -0.30205430608E+02  0.70659691199E+03  0.70749431106E+03  0.00000000000E+00 0.  1.
</event>
<event>
 4    1  0.3305068E+006  0.2464709E+02  0.7546771E-02  0.1472790E+00
         21   -1    0    0  504  501  0.00000000000E+00  0.00000000000E+00  0.18617117666E+02  0.18617117666E+02  0.00000000000E+00 0.  1.
         21   -1    0    0  503  502 -0.00000000000E+00 -0.00000000000E+00 -0.51598145244E+02  0.51598145244E+02  0.00000000000E+00 0. -1.
         21    1    1    2  503  501 -0.18533358154E+02  0.16247880552E+02  0.47955529611E+01  0.25109287428E+02  0.00000000000E+00 0.  1.
         21    1    1    2  504  502  0.18533358154E+02 -0.16247880552E+02 -0.37776580540E+02  0.45105975482E+02  0.00000000000E+00 0. -1.
</event>
<event>
 4    1  0.3305068E+006  0.8112649E+02  0.7546771E-02  0.1201256E+00
         21   -1    0    0  502  501  0.00000000000E+00  0.00000000000E+00  0.13702875247E+04  0.13702875247E+04  0.00000000000E+00 0. -1.
         21   -1    0    0  503  502 -0.00000000000E+00 -0.00000000000E+00 -0.57677536295E+02  0.57677536295E+02  0.00000000000E+00 0. -1.
         21    1    1    2  503  504 -0.18654600538E+02  0.78952603884E+02 -0.27303531813E+02  0.85597842442E+02  0.00000000000E+00 0. -1.
         21    1    1    2  504  501  0.18654600538E+02 -0.78952603884E+02  0.13399135202E+04  0.13423672185E+04  0.00000000000E+00 0. -1.
</event>
<event>
 4    1  0.3305068E+006  0.3840219E+02  0.7546771E-02  0.1358112E+00
         21   -1    0    0  504  501  0.00000000000E+00  0.00000000000E+00  0.28835724778E+03  0.28835724778E+03  0.00000000000E+00 0.  1.
         21   -1    0    0  503  502 -0.00000000000E+00 -0.00000000000E+00 -0.59108346225E+01  0.59108346225E+01  0.00000000000E+00 0.  1.
         21    1    1    2  503  501  0.11803144123E+02  0.36543317286E+02  0.19523733470E+03  0.19897825285E+03  0.00000000000E+00 0.  1.
         21    1    1    2  504  502 -0.11803144123E+02 -0.36543317286E+02  0.87209078464E+02  0.95289829551E+02  0.00000000000E+00 0.  1.
</event>
<event>
 4    1  0.3305068E+006  0.2010908E+02  0.7546771E-02  0.1532375E+00
         21   -1    0    0  503  501  0.00000000000E+00  0.00000000000E+00  0.18916619015E+01  0.18916619015E+01  0.00000000000E+00 0. -1.
         21   -1    0    0  504  502 -0.00000000000E+00 -0.00000000000E+00 -0.48807510223E+03  0.48807510223E+03  0.00000000000E+00 0. -1.
         21    1    1    2  503  502  0.14158950767E+02 -0.14279321880E+02 -0.59432555806E+02  0.62742358975E+02  0.00000000000E+00 0. -1.
         21    1    1    2  504  501 -0.14158950767E+02  0.14279321880E+02 -0.42675088452E+03  0.42722440515E+03  0.00000000000E+00 0. -1.
</event>
<event>
 4    1  0.3305068E+006  0.2553223E+02  0.7546771E-02  0.1462937E+00
         21   -1    0    0  504  501  0.00000000000E+00  0.00000000000E+00  0.53058507320E+02  0.53058507320E+02  0.00000000000E+00 0.  1.
         21   -1    0    0  503  502 -0.00000000000E+00 -0.00000000000E+00 -0.12445884860E+02  0.12445884860E+02  0.00000000000E+00 0.  1.
         21    1    1    2  503  501 -0.18216803005E+02 -0.17889736373E+02  0.24014622393E+02  0.35051343311E+02  0.00000000000E+00 0.  1.
         21    1    1    2  504  502  0.18216803005E+02  0.17889736373E+02  0.16598000067E+02  0.30453048869E+02  0.00000000000E+00 0.  1.
</event>
<event>
 4    1  0.3305068E+006  0.2473296E+02  0.7546771E-02  0.1471813E+00
         21   -1    0    0  503  501  0.00000000000E+00  0.00000000000E+00  0.29547692456E+02  0.29547692456E+02  0.00000000000E+00 0. -1.
         21   -1    0    0  504  502 -0.00000000000E+00 -0.00000000000E+00 -0.36489777169E+02  0.36489777169E+02  0.00000000000E+00 0.  1.
         21    1    1    2  503  502  0.12744707628E+02  0.21196507220E+02 -0.25189277700E+02  0.35301830008E+02  0.00000000000E+00 0.  1.
         21    1    1    2  504  501 -0.12744707628E+02 -0.21196507220E+02  0.18247192987E+02  0.30735639618E+02  0.00000000000E+00 0. -1.
</event>
<event>
 4    1  0.3305068E+006  0.2033256E+02  0.7546771E-02  0.1529011E+00
         21   -1    0    0  503  501  0.00000000000E+00  0.00000000000E+00  0.99346943051E+02  0.99346943051E+02  0.00000000000E+00 0.  1.
         21   -1    0    0  504  502 -0.00000000000E+00 -0.00000000000E+00 -0.18043651690E+02  0.18043651690E+02  0.00000000000E+00 0. -1.
         21    1    1    2  503  502 -0.19351863269E+02 -0.62384737315E+01  0.92135671053E+02  0.94352504190E+02  0.00000000000E+00 0.  1.
         21    1    1    2  504  501  0.19351863269E+02  0.62384737315E+01 -0.10832379691E+02  0.23038090551E+02  0.00000000000E+00 0. -1.
</event>
<event>
 4    1  0.3305068E+006  0.2473642E+02  0.7546771E-02  0.1471774E+00
         21   -1    0    0  503  501  0.00000000000E+00  0.00000000000E+00  0.27417736129E+02  0.27417736129E+02  0.00000000000E+00 0. -1.
         21   -1    0    0  504  502 -0.00000000000E+00 -0.00000000000E+00 -0.72470071886E+02  0.72470071886E+02  0.00000000000E+00 0.  1.
         21    1    1    2  503  502  0.96002015994E+01 -0.22797515841E+02  0.19021867441E+02  0.31204519548E+02  0.00000000000E+00 0. -1.
         21    1    1    2  504  501 -0.96002015994E+01  0.22797515841E+02 -0.64074203198E+02  0.68683288468E+02  0.00000000000E+00 0.  1.
</event>
<event>
 4    1  0.3305068E+006  0.2015690E+02  0.7546771E-02  0.1531651E+00
         21   -1    0    0  504  501  0.00000000000E+00  0.00000000000E+00  0.15957353302E+02  0.15957353302E+02  0.00000000000E+00 0. -1.
         21   -1    0    0  503  502 -0.00000000000E+00 -0.00000000000E+00 -0.29672680539E+02  0.29672680539E+02  0.00000000000E+00 0. -1.
         21    1    1    2  503  501 -0.12630023774E+02 -0.15709335426E+02 -0.15452468732E+02  0.25398415501E+02  0.00000000000E+00 0. -1.
         21    1    1    2  504  502  0.12630023774E+02  0.15709335426E+02  0.17371414961E+01  0.20231618340E+02  0.00000000000E+00 0. -1.
</event>
<event>
 4    1  0.3305068E+006  0.2265412E+02  0.7546771E-02  0.1496888E+00
         21   -1    0    0  504  501  0.00000000000E+00  0.00000000000E+00  0.63665875171E+02  0.63665875171E+02  0.00000000000E+00 0.  1.
         21   -1    0    0  503  502 -0.00000000000E+00 -0.00000000000E+00 -0.81727962023E+01  0.81727962023E+01  0.00000000000E+00 0.  1.
         21    1    1    2  503  501 -0.11985931504E+02 -0.19223589352E+02  0.31948071514E+02  0.39164884974E+02  0.00000000000E+00 0.  1.
         21    1    1    2  504  502  0.11985931504E+02  0.19223589352E+02  0.23545007455E+02  0.32673786399E+02  0.00000000000E+00 0.  1.
</event>
<event>
 4    1  0.3305068E+006  0.2035850E+02  0.7546771E-02  0.1528624E+00
         21   -1    0    0  504  501  0.00000000000E+00  0.00000000000E+00  0.11037995603E+02  0.11037995603E+02  0.00000000000E+00 0.  1.
         21   -1    0    0  503  502 -0.00000000000E+00 -0.00000000000E+00 -0.89487697218E+03  0.89487697218E+03  0.00000000000E+00 0. -1.
         21    1    1    2  503  501  0.19408768663E+02 -0.61455756197E+01 -0.88527203567E+03  0.88550609571E+03  0.00000000000E+00 0. -1.
         21    1    1    2  504  502 -0.19408768663E+02  0.61455756197E+01  0.14330590980E+01  0.20408872068E+02  0.00000000000E+00 0.  1.
</event>
<event>
 4    1  0.3305068E+006  0.2195132E+02  0.7546771E-02  0.1506104E+00
         21   -1    0    0  502  501  0.00000000000E+00  0.00000000000E+00  0.29509364639E+02  0.29509364639E+02  0.00000000000E+00 0.  1.
         21   -1    0    0  503  502 -0.00000000000E+00 -0.00000000000E+00 -0.11159874626E+03  0.11159874626E+03  0.00000000000E+00 0.  1.
         21    1    1    2  503  504 -0.21950811465E+02 -0.14965569276E+00 -0.10623299237E+03  0.10847722889E+03  0.00000000000E+00 0.  1.
         21    1    1    2  504  501  0.21950811465E+02  0.14965569276E+00  0.24143610745E+02  0.32630882008E+02  0.00000000000E+00 0.  1.
</event>
<event>
 4    1  0.3305068E+006  0.2822599E+02  0.7546771E-02  0.1435667E+00
         21   -1    0    0  503  501  0.00000000000E+00  0.00000000000E+00  0.36798890901E+02  0.36798890901E+02  0.00000000000E+00 0.  1.
         21   -1    0    0  504  502 -0.00000000000E+00 -0.00000000000E+00 -0.25000794167E+02  0.25000794167E+02  0.00000000000E+00 0.  1.
         21    1    1    2  503  502 -0.24545792115E+02 -0.13935954445E+02  0.17210915863E+02  0.33059376306E+02  0.00000000000E+00 0.  1.
         21    1    1    2  504  501  0.24545792115E+02  0.13935954445E+02 -0.54128191294E+01  0.28740308763E+02  0.00000000000E+00 0.  1.
</event>
<event>
 4    1  0.3305068E+006  0.2210784E+02  0.7546771E-02  0.1504016E+00
         21   -1    0    0  504  501  0.00000000000E+00  0.00000000000E+00  0.16824202073E+01  0.16824202073E+01  0.00000000000E+00 0.  1.
         21   -1    0    0  503  502 -0.00000000000E+00 -0.00000000000E+00 -0.29553637823E+03  0.29553637823E+03  0.00000000000E+00 0. -1.
         21    1    1    2  503  501  0.13787105270E+02  0.17282135576E+02 -0.12754241669E+03  0.12944429125E+03  0.00000000000E+00 0.  1.
         21    1    1    2  504  502 -0.13787105270E+02 -0.17282135576E+02 -0.16631154133E+03  0.16777450718E+03  0.00000000000E+00 0. -1.
</event>
<event>
 4    1  0.3305068E+006  0.2125554E+02  0.7546771E-02  0.1515648E+00
         21   -1    0    0  504  501  0.00000000000E+00  0.00000000000E+00  0.51554413167E+02  0.51554413167E+02  0.00000000000E+00 0. -1.
         21   -1    0    0  503  502 -0.00000000000E+00 -0.00000000000E+00 -0.88241228242E+01  0.88241228242E+01  0.00000000000E+00 0. -1.
         21    1    1    2  503  501  0.10063284587E+01 -0.21231701253E+02  0.18863165364E+02  0.28418600293E+02  0.00000000000E+00 0. -1.
         21    1    1    2  504  502 -0.10063284587E+01  0.21231701253E+02  0.23867124979E+02  0.31959935698E+02  0.00000000000E+00 0. -1.
</event>
<event>
 4    1  0.3305068E+006  0.2065490E+02  0.7546771E-02  0.1524249E+00
         21   -1    0    0  503  501  0.00000000000E+00  0.00000000000E+00  0.22431019621E+02  0.22431019621E+02  0.00000000000E+00 0.  1.
         21   -1    0    0  504  502 -0.00000000000E+00 -0.00000000000E+00 -0.24502152449E+02  0.24502152449E+02  0.00000000000E+00 0.  1.
         21    1    1    2  503  502 -0.20615265620E+02 -0.12789494092E+01 -0.12136167291E+02  0.23956448916E+02  0.00000000000E+00 0.  1.
         21    1    1    2  504  501  0.20615265620E+02  0.12789494092E+01  0.10065034462E+02  0.22976723154E+02  0.00000000000E+00 0.  1.
</event>
<event>
 4    1  0.3305068E+006  0.2500719E+02  0.7546771E-02  0.1468723E+00
         21   -1    0    0  503  501  0.00000000000E+00  0.00000000000E+00  0.21922480735E+02  0.21922480735E+02  0.00000000000E+00 0.  1.
         21   -1    0    0  504  502 -0.00000000000E+00 -0.00000000000E+00 -0.70470510719E+02  0.70470510719E+02  0.00000000000E+00 0.  1.
         21    1    1    2  503  502  0.12992519061E+02 -0.21367119219E+02  0.11366437465E+02  0.27469168825E+02  0.00000000000E+00 0.  1.
         21    1    1    2  504  501 -0.12992519061E+02  0.21367119219E+02 -0.59914467448E+02  0.64923822629E+02  0.00000000000E+00 0.  1.
</event>
<event>
 4    1  0.3305068E+006  0.2735721E+02  0.7546771E-02  0.1444053E+00
         21   -1    0    0  503  501  0.00000000000E+00  0.00000000000E+00  0.10395107750E+03  0.10395107750E+03  0.00000000000E+00 0.  1.
         21   -1    0    0  504  502 -0.00000000000E+00 -0.00000000000E+00 -0.83538328700E+01  0.83538328700E+01  0.00000000000E+00 0.  1.
         21    1    1    2  503  502  0.11682646656E+02  0.24737271816E+02  0.26927141537E+02  0.38386036538E+02  0.00000000000E+00 0.  1.
         21    1    1    2  504  501 -0.11682646656E+02 -0.24737271816E+02  0.68670103094E+02  0.73918873833E+02  0.00000000000E+00 0.  1.
</event>
<event>
 4    1  0.3305068E+006  0.3388865E+02  0.7546771E-02  0.1388549E+00
         21   -1    0    0  504  501  0.00000000000E+00  0.00000000000E+00  0.63700968486E+03  0.63700968486E+03  0.00000000000E+00 0.  1.
         21   -1    0    0  503  502 -0.00000000000E+00 -0.00000000000E+00 -0.18499338041E+01  0.18499338041E+01  0.00000000000E+00 0. -1.
         21    1    1    2  503  501 -0.33654782918E+02  0.39744802883E+01  0.36853351601E+03  0.37008835881E+03  0.00000000000E+00 0.  1.
         21    1    1    2  504  502  0.33654782918E+02 -0.39744802883E+01  0.26662623505E+03  0.26877125985E+03  0.00000000000E+00 0. -1.
</event>
<event>
 4    1  0.3305068E+006  0.3147393E+02  0.7546771E-02  0.1407206E+00
         21   -1    0    0  503  501  0.00000000000E+00  0.00000000000E+00  0.11629598904E+04  0.11629598904E+04  0.00000000000E+00 0. -1.
         21   -1    0    0  501  502 -0.00000000000E+00 -0.00000000000E+00 -0.34471363763E+01  0.34471363763E+01  0.00000000000E+00 0. -1.
         21    1    1    2  503  504 -0.27700115356E+02  0.14943614183E+02  0.10857998353E+04  0.10862559046E+04  0.00000000000E+00 0. -1.
         21    1    1    2  504  502  0.27700115356E+02 -0.14943614183E+02  0.73712918746E+02  0.80151122173E+02  0.00000000000E+00 0. -1.
</event>
<event>
 4    1  0.3305068E+006  0.2312372E+02  0.7546771E-02  0.1490950E+00
         21   -1    0    0  504  501  0.00000000000E+00  0.00000000000E+00  0.59288721971E+00  0.59288721971E+00  0.00000000000E+00 0. -1.
         21   -1    0    0  503  502 -0.00000000000E+00 -0.00000000000E+00 -0.10093296159E+04  0.10093296159E+04  0.00000000000E+00 0. -1.
         21    1    1    2  503  501  0.15935547460E+02  0.16756034068E+02 -0.66913416448E+03  0.66953359619E+03  0.00000000000E+00 0. -1.
         21    1    1    2  504  502 -0.15935547460E+02 -0.16756034068E+02 -0.33960256420E+03  0.34038890693E+03  0.00000000000E+00 0. -1.
</event>
<event>
 4    1  0.3305068E+006  0.2257367E+02  0.7546771E-02  0.1497922E+00
         21   -1    0    0  503  501  0.00000000000E+00  0.00000000000E+00  0.39135487469E+02  0.39135487469E+02  0.00000000000E+00 0. -1.
         21   -1    0    0  501  502 -0.00000000000E+00 -0.00000000000E+00 -0.29073478799E+03  0.29073478799E+03  0.00000000000E+00 0.  1.
         21    1    1    2  503  504 -0.18866676161E+02  0.12394318473E+02  0.35399838339E+02  0.41984749066E+02  0.00000000000E+00 0. -1.
         21    1    1    2  504  502  0.18866676161E+02 -0.12394318473E+02 -0.28699913886E+03  0.28788552639E+03  0.00000000000E+00 0.  1.
</event>
<event>
 4    1  0.3305068E+006  0.2026983E+02  0.7546771E-02  0.1529950E+00
         21   -1    0    0  502  501  0.00000000000E+00  0.00000000000E+00  0.15301247599E+03  0.15301247599E+03  0.00000000000E+00 0.  1.
         21   -1    0    0  504  502 -0.00000000000E+00 -0.00000000000E+00 -0.30926171300E+03  0.30926171300E+03  0.00000000000E+00 0. -1.
         21    1    1    2  503  501  0.18706645694E+02 -0.78055962889E+01  0.15200685910E+03  0.15335237572E+03  0.00000000000E+00 0.  1.
         21    1    1    2  504  503 -0.18706645694E+02  0.78055962889E+01 -0.30825609610E+03  0.30892181327E+03  0.00000000000E+00 0. -1.
</event>
<event>
 4    1  0.3305068E+006  0.5060903E+02  0.7546771E-02  0.1295553E+00
         21   -1    0    0  503  501  0.00000000000E+00  0.00000000000E+00  0.68495027524E+03  0.68495027524E+03  0.00000000000E+00 0.  1.
         21   -1    0    0  504  502 -0.00000000000E+00 -0.00000000000E+00 -0.37899313662E+01  0.37899313662E+01  0.00000000000E+00 0.  1.
         21    1    1    2  503  502 -0.26931801139E+01 -0.50537317362E+02  0.30079927019E+03  0.30502700636E+03  0.00000000000E+00 0.  1.
         21    1    1    2  504  501  0.26931801139E+01  0.50537317362E+02  0.38036107369E+03  0.38371320024E+03  0.00000000000E+00 0.  1.
</event>
<event>
 4    1  0.3305068E+006  0.2261696E+02  0.7546771E-02  0.1497365E+00
         21   -1    0    0  502  501  0.00000000000E+00  0.00000000000E+00  0.93452725740E+03  0.93452725740E+03  0.00000000000E+00 0. -1.
         21   -1    0    0  504  502 -0.00000000000E+00 -0.00000000000E+00 -0.33041234856E+01  0.33041234856E+01  0.00000000000E+00 0.  1.
         21    1    1    2  503  501  0.10642657999E+02  0.19956475667E+02  0.89392927074E+03  0.89421533658E+03  0.00000000000E+00 0. -1.
         21    1    1    2  504  503 -0.10642657999E+02 -0.19956475667E+02  0.37293863174E+02  0.43616044304E+02  0.00000000000E+00 0.  1.
</event>
<event>
 4    1  0.3305068E+006  0.3236437E+02  0.7546771E-02  0.1400104E+00
         21   -1    0    0  503  501  0.00000000000E+00  0.00000000000E+00  0.92312538694E+02  0.92312538694E+02  0.00000000000E+00 0. -1.
         21   -1    0    0  501  502 -0.00000000000E+00 -0.00000000000E+00 -0.44367710116E+02  0.44367710116E+02  0.00000000000E+00 0. -1.
         21    1    1    2  503  504  0.32364334699E+02  0.47608899043E-01  0.82929599474E+02  0.89021182288E+02  0.00000000000E+00 0. -1.
         21    1    1    2  504  502 -0.32364334699E+02 -0.47608899043E-01 -0.34984770896E+02  0.47659066522E+02  0.00000000000E+00 0. -1.
</event>
<event>
 4    1  0.3305068E+006  0.2302506E+02  0.7546771E-02  0.1492184E+00
         21   -1    0    0  504  501  0.00000000000E+00  0.00000000000E+00  0.71655735729E+03  0.71655735729E+03  0.00000000000E+00 0.  1.
         21   -1    0    0  501  502 -0.00000000000E+00 -0.00000000000E+00 -0.22513668088E+01  0.22513668088E+01  0.00000000000E+00 0. -1.
         21    1    1    2  503  502  0.21118611045E+02  0.91737463858E+01  0.62666745218E+02  0.66762821327E+02  0.00000000000E+00 0. -1.
         21    1    1    2  504  503 -0.21118611045E+02 -0.91737463858E+01  0.65163924526E+03  0.65204590277E+03  0.00000000000E+00 0.  1.
</event>
<event>
 4    1  0.3305068E+006  0.2756147E+02  0.7546771E-02  0.1442048E+00
         21   -1    0    0  504  501  0.00000000000E+00  0.00000000000E+00  0.50414362008E+02  0.50414362008E+02  0.00000000000E+00 0.  1.
         21   -1    0    0  501  502 -0.00000000000E+00 -0.00000000000E+00 -0.47981017242E+02  0.47981017242E+02  0.00000000000E+00 0. -1.
         21    1    1    2  503  502 -0.10766319297E+02 -0.25371659634E+02 -0.39530266815E+02  0.48190006622E+02  0.00000000000E+00 0. -1.
         21    1    1    2  504  503  0.10766319297E+02  0.25371659634E+02  0.41963611581E+02  0.50205372628E+02  0.00000000000E+00 0.  1.
</event>
<event>
 4    1  0.3305068E+006  0.2319940E+02  0.7546771E-02  0.1490009E+00
         21   -1    0    0  503  501  0.00000000000E+00  0.00000000000E+00  0.13006028272E+02  0.13006028272E+02  0.00000000000E+00 0. -1.
         21   -1    0    0  504  502 -0.00000000000E+00 -0.00000000000E+00 -0.13471493914E+03  0.13471493914E+03  0.00000000000E+00 0. -1.
         21    1    1    2  503  502  0.70463602156E+01  0.22103412262E+02  0.62391588842E+00  0.23207785266E+02  0.00000000000E+00 0. -1.
         21    1    1    2  504  501 -0.70463602156E+01 -0.22103412262E+02 -0.12233282675E+03  0.12451318214E+03  0.00000000000E+00 0. -1.
</event>
<event>
 4    1  0.3305068E+006  0.2124395E+02  0.7546771E-02  0.1515810E+00
         21   -1    0    0  504  501  0.00000000000E+00  0.00000000000E+00  0.36734943043E+03  0.36734943043E+03  0.00000000000E+00 0. -1.
         21   -1    0    0  503  502 -0.00000000000E+00 -0.00000000000E+00 -0.11832884937E+02  0.11832884937E+02  0.00000000000E+00 0.  1.
         21    1    1    2  503  501  0.20025214998E+02 -0.70919807161E+01  0.35723765730E+03  0.35786875977E+03  0.00000000000E+00 0. -1.
         21    1    1    2  504  502 -0.20025214998E+02  0.70919807161E+01 -0.17211118098E+01  0.21313555594E+02  0.00000000000E+00 0.  1.
</event>
<event>
 4    1  0.3305068E+006  0.3101237E+02  0.7546771E-02  0.1410998E+00
         21   -1    0    0  504  501  0.00000000000E+00  0.00000000000E+00  0.79588382609E+03  0.79588382609E+03  0.00000000000E+00 0. -1.
         21   -1    0    0  501  502 -0.00000000000E+00 -0.00000000000E+00 -0.24524075768E+02  0.24524075768E+02  0.00000000000E+00 0.  1.
         21    1    1    2  503  502  0.43910283254E+01  0.30699938464E+02 -0.14289987029E+02  0.34146318699E+02  0.00000000000E+00 0.  1.
         21    1    1    2  504  503 -0.43910283254E+01 -0.30699938464E+02  0.78564973735E+03  0.78626158316E+03  0.00000000000E+00 0. -1.
</event>
<event>
 4    1  0.3305068E+006  0.3030063E+02  0.7546771E-02  0.1417002E+00
         21   -1    0    0  504  501  0.00000000000E+00  0.00000000000E+00  0.16478458363E+03  0.16478458363E+03  0.00000000000E+00 0. -1.
         21   -1    0    0  503  502 -0.00000000000E+00 -0.00000000000E+00 -0.17740601196E+02  0.17740601196E+02  0.00000000000E+00 0. -1.
         21    1    1    2  503  501  0.36712196699E+01 -0.30077407790E+02  0.14910680168E+03  0.15215441703E+03  0.00000000000E+00 0. -1.
         21    1    1    2  504  502 -0.36712196699E+01  0.30077407790E+02 -0.20628192511E+01  0.30370767796E+02  0.00000000000E+00 0. -1.
</event>
<event>
 4    1  0.3305068E+006  0.2175673E+02  0.7546771E-02  0.1508729E+00
         21   -1    0    0  504  501  0.00000000000E+00  0.00000000000E+00  0.39789600881E+03  0.39789600881E+03  0.00000000000E+00 0. -1.
         21   -1    0    0  503  502 -0.00000000000E+00 -0.00000000000E+00 -0.27343064584E+01  0.27343064584E+01  0.00000000000E+00 0.  1.
         21    1    1    2  503  501  0.18182802847E+02  0.11947418185E+02  0.34813988900E+03  0.34881906117E+03  0.00000000000E+00 0. -1.
         21    1    1    2  504  502 -0.18182802847E+02 -0.11947418185E+02  0.47021813353E+02  0.51811254102E+02  0.00000000000E+00 0.  1.
</event>
<event>
 4    1  0.3305068E+006  0.2150944E+02  0.7546771E-02  0.1512114E+00
         21   -1    0    0  504  501  0.00000000000E+00  0.00000000000E+00  0.12012512049E+03  0.12012512049E+03  0.00000000000E+00 0.  1.
         21   -1    0    0  503  502 -0.00000000000E+00 -0.00000000000E+00 -0.68343925614E+01  0.68343925614E+01  0.00000000000E+00 0.  1.
         21    1    1    2  503  501 -0.19206986156E+02 -0.96823363218E+01  0.14707365258E+02  0.26056909768E+02  0.00000000000E+00 0.  1.
         21    1    1    2  504  502  0.19206986156E+02  0.96823363218E+01  0.98583362673E+02  0.10090260328E+03  0.00000000000E+00 0.  1.
</event>
<event>
 4    1  0.3305068E+006  0.2167890E+02  0.7546771E-02  0.1509789E+00
         21   -1    0    0  504  501  0.00000000000E+00  0.00000000000E+00  0.63669806842E+03  0.63669806842E+03  0.00000000000E+00 0.  1.
         21   -1    0    0  503  502 -0.00000000000E+00 -0.00000000000E+00 -0.12239067292E+01  0.12239067292E+01  0.00000000000E+00 0.  1.
         21    1    1    2  503  501 -0.21678180640E+02 -0.17689340213E+00  0.11679285213E+03  0.11878781552E+03  0.00000000000E+00 0.  1.
         21    1    1    2  504  502  0.21678180640E+02  0.17689340213E+00  0.51868130956E+03  0.51913415963E+03  0.00000000000E+00 0.  1.
</event>
<event>
 4    1  0.3305068E+006  0.4974519E+02  0.7546771E-02  0.1299281E+00
         21   -1    0    0  503  501  0.00000000000E+00  0.00000000000E+00  0.15773978562E+03  0.15773978562E+03  0.00000000000E+00 0. -1.
         21   -1    0    0  504  502 -0.00000000000E+00 -0.00000000000E+00 -0.68230745634E+02  0.68230745634E+02  0.00000000000E+00 0. -1.
         21    1    1    2  503  502 -0.49393210929E+02  0.59071854334E+01  0.14390369841E+03  0.15225918212E+03  0.00000000000E+00 0. -1.
         21    1    1    2  504  501  0.49393210929E+02 -0.59071854334E+01 -0.54394658422E+02  0.73711349129E+02  0.00000000000E+00 0. -1.
</event>
<event>
 4    1  0.3305068E+006  0.2813957E+02  0.7546771E-02  0.1436485E+00
         21   -1    0    0  503  501  0.00000000000E+00  0.00000000000E+00  0.51474704320E+02  0.51474704320E+02  0.00000000000E+00 0.  1.
         21   -1    0    0  504  502 -0.00000000000E+00 -0.00000000000E+00 -0.15575068634E+02  0.15575068634E+02  0.00000000000E+00 0.  1.
         21    1    1    2  503  502  0.14948460928E+02  0.23840698957E+02  0.14226931293E+02  0.31531587097E+02  0.00000000000E+00 0.  1.
         21    1    1    2  504  501 -0.14948460928E+02 -0.23840698957E+02  0.21672704393E+02  0.35518185857E+02  0.00000000000E+00 0.  1.
</event>
<event>
 4    1  0.3305068E+006  0.2777642E+02  0.7546771E-02  0.1439961E+00
         21   -1    0    0  504  501  0.00000000000E+00  0.00000000000E+00  0.34359922272E+02  0.34359922272E+02  0.00000000000E+00 0.  1.
         21   -1    0    0  501  502 -0.00000000000E+00 -0.00000000000E+00 -0.24311267680E+03  0.24311267680E+03  0.00000000000E+00 0.  1.
         21    1    1    2  503  502 -0.18689992927E+02 -0.20547832547E+02 -0.23655051247E+03  0.23817572128E+03  0.00000000000E+00 0.  1.
         21    1    1    2  504  503  0.18689992927E+02  0.20547832547E+02  0.27797757938E+02  0.39296877794E+02  0.00000000000E+00 0.  1.
</event>
<event>
 4    1  0.3305068E+006  0.2045164E+02  0.7546771E-02  0.1527240E+00
         21   -1    0    0  504  501  0.00000000000E+00  0.00000000000E+00  0.50360941276E+03  0.50360941276E+03  0.00000000000E+00 0.  1.
         21   -1    0    0  501  502 -0.00000000000E+00 -0.00000000000E+00 -0.83248908616E+00  0.83248908616E+00  0.00000000000E+00 0.  1.
         21    1    1    2  503  502 -0.49515753306E+01 -0.19843167687E+02  0.23919451768E+03  0.24006725451E+03  0.00000000000E+00 0.  1.
         21    1    1    2  504  503  0.49515753306E+01  0.19843167687E+02  0.26358240599E+03  0.26437464733E+03  0.00000000000E+00 0.  1.
</event>
<event>
 4    1  0.3305068E+006  0.2063178E+02  0.7546771E-02  0.1524588E+00
         21   -1    0    0  504  501  0.00000000000E+00  0.00000000000E+00  0.37866175646E+03  0.37866175646E+03  0.00000000000E+00 0. -1.
         21   -1    0    0  503  502 -0.00000000000E+00 -0.00000000000E+00 -0.20179550713E+01  0.20179550713E+01  0.00000000000E+00 0.  1.
         21    1    1    2  503  501 -0.20574718462E+02  0.15333705644E+01  0.31499864802E+03  0.31567359491E+03  0.00000000000E+00 0. -1.
         21    1    1    2  504  502  0.20574718462E+02 -0.15333705644E+01  0.61645153362E+02  0.65006116621E+02  0.00000000000E+00 0.  1.
</event>
<event>
 4    1  0.3305068E+006  0.2052992E+02  0.7546771E-02  0.1526083E+00
         21   -1    0    0  503  501  0.00000000000E+00  0.00000000000E+00  0.11216150986E+02  0.11216150986E+02  0.00000000000E+00 0.  1.
         21   -1    0    0  504  502 -0.00000000000E+00 -0.00000000000E+00 -0.48556864345E+02  0.48556864345E+02  0.00000000000E+00 0.  1.
         21    1    1    2  503  502 -0.31909535612E+01 -0.20280424080E+02 -0.32881642922E+02  0.38764419598E+02  0.00000000000E+00 0.  1.
         21    1    1    2  504  501  0.31909535612E+01  0.20280424080E+02 -0.44590704377E+01  0.21008595733E+02  0.00000000000E+00 0.  1.
</event>
<event>
 4    1  0.3305068E+006  0.2352336E+02  0.7546771E-02  0.1486029E+00
         21   -1    0    0  503  501  0.00000000000E+00  0.00000000000E+00  0.62238192059E+02  0.62238192059E+02  0.00000000000E+00 0.  1.
         21   -1    0    0  504  502 -0.00000000000E+00 -0.00000000000E+00 -0.15060944773E+02  0.15060944773E+02  0.00000000000E+00 0.  1.
         21    1    1    2  503  502 -0.21725119562E+02 -0.90204101031E+01 -0.11494274663E+01  0.23551428872E+02  0.00000000000E+00 0.  1.
         21    1    1    2  504  501  0.21725119562E+02  0.90204101031E+01  0.48326674752E+02  0.53747707960E+02  0.00000000000E+00 0.  1.
</event>
<event>
 4    1  0.3305068E+006  0.2241453E+02  0.7546771E-02  0.1499984E+00
         21   -1    0    0  504  501  0.00000000000E+00  0.00000000000E+00  0.21841499874E+03  0.21841499874E+03  0.00000000000E+00 0. -1.
         21   -1    0    0  501  502 -0.00000000000E+00 -0.00000000000E+00 -0.13651045057E+02  0.13651045057E+02  0.00000000000E+00 0. -1.
         21    1    1    2  503  502 -0.15927786259E+02  0.15770753446E+02 -0.34243467169E+01  0.22674593487E+02  0.00000000000E+00 0. -1.
         21    1    1    2  504  503  0.15927786259E+02 -0.15770753446E+02  0.20818830040E+03  0.20939145031E+03  0.00000000000E+00 0. -1.
</event>
<event>
 4    1  0.3305068E+006  0.2033462E+02  0.7546771E-02  0.1528980E+00
         21   -1    0    0  503  501  0.00000000000E+00  0.00000000000E+00  0.94128071157E+00  0.94128071157E+00  0.00000000000E+00 0.  1.
         21   -1    0    0  504  502 -0.00000000000E+00 -0.00000000000E+00 -0.44827932597E+03  0.44827932597E+03  0.00000000000E+00 0. -1.
         21    1    1    2  503  502  0.11007637670E+02 -0.17097624689E+02 -0.25547263496E+03  0.25628063538E+03  0.00000000000E+00 0. -1.
         21    1    1    2  504  501 -0.11007637670E+02  0.17097624689E+02 -0.19186541030E+03  0.19293997130E+03  0.00000000000E+00 0.  1.
</event>
<event>
 4    1  0.3305068E+006  0.1072108E+03  0.7546771E-02  0.1151867E+00
         21   -1    0    0  502  501  0.00000000000E+00  0.00000000000E+00  0.37678326435E+02  0.37678326435E+02  0.00000000000E+00 0. -1.
         21   -1    0    0  503  502 -0.00000000000E+00 -0.00000000000E+00 -0.31325020261E+03  0.31325020261E+03  0.00000000000E+00 0. -1.
         21    1    1    2  503  504 -0.35633909275E+02  0.10111569469E+03 -0.16615755142E+03  0.19774349824E+03  0.00000000000E+00 0. -1.
         21    1    1    2  504  501  0.35633909275E+02 -0.10111569469E+03 -0.10941432476E+03  0.15318503081E+03  0.00000000000E+00 0. -1.
</event>
<event>
 4    1  0.3305068E+006  0.4251832E+02  0.7546771E-02  0.1334328E+00
         21   -1    0    0  504  501  0.00000000000E+00  0.00000000000E+00  0.11664234356E+02  0.11664234356E+02  0.00000000000E+00 0. -1.
         21   -1    0    0  503  502 -0.00000000000E+00 -0.00000000000E+00 -0.19918219617E+03  0.19918219617E+03  0.00000000000E+00 0. -1.
         21    1    1    2  503  501  0.38125121060E+02  0.18822406603E+02 -0.44100068616E+02  0.61258663862E+02  0.00000000000E+00 0. -1.
         21    1    1    2  504  502 -0.38125121060E+02 -0.18822406603E+02 -0.14341789320E+03  0.14958776666E+03  0.00000000000E+00 0. -1.
</event>
<event>
 4    1  0.3305068E+006  0.4029391E+02  0.7546771E-02  0.1346772E+00
         21   -1    0    0  502  501  0.00000000000E+00  0.00000000000E+00  0.10283611341E+03  0.10283611341E+03  0.00000000000E+00 0. -1.
         21   -1    0    0  504  502 -0.00000000000E+00 -0.00000000000E+00 -0.12619442950E+03  0.12619442950E+03  0.00000000000E+00 0.  1.
         21    1    1    2  503  501 -0.35138715863E+02  0.19719785002E+02  0.95433319002E+02  0.10359110796E+03  0.00000000000E+00 0. -1.
         21    1    1    2  504  503  0.35138715863E+02 -0.19719785002E+02 -0.11879163509E+03  0.12543943494E+03  0.00000000000E+00 0.  1.
</event>
<event>
 4    1  0.3305068E+006  0.4123408E+02  0.7546771E-02  0.1341402E+00
         21   -1    0    0  504  501  0.00000000000E+00  0.00000000000E+00  0.47492023841E+03  0.47492023841E+03  0.00000000000E+00 0. -1.
         21   -1    0    0  501  502 -0.00000000000E+00 -0.00000000000E+00 -0.25993141746E+02  0.25993141746E+02  0.00000000000E+00 0.  1.
         21    1    1    2  503  502 -0.22828264282E+02  0.34338311606E+02 -0.81065665522E+01  0.42023394858E+02  0.00000000000E+00 0.  1.
         21    1    1    2  504  503  0.22828264282E+02 -0.34338311606E+02  0.45703366322E+03  0.45888998530E+03  0.00000000000E+00 0. -1.
</event>
<event>
 4    1  0.3305068E+006  0.3136543E+02  0.7546771E-02  0.1408091E+00
         21   -1    0    0  504  501  0.00000000000E+00  0.00000000000E+00  0.76708769192E+02  0.76708769192E+02  0.00000000000E+00 0. -1.
         21   -1    0    0  501  502 -0.00000000000E+00 -0.00000000000E+00 -0.37870584820E+02  0.37870584820E+02  0.00000000000E+00 0. -1.
         21    1    1    2  503  502  0.30876733430E+02  0.55152275197E+01 -0.27170714340E+02  0.41497447146E+02  0.00000000000E+00 0. -1.
         21    1    1    2  504  503 -0.30876733430E+02 -0.55152275197E+01  0.66008898712E+02  0.73081906865E+02  0.00000000000E+00 0. -1.
</event>
<event>
 4    1  0.3305068E+006  0.2509262E+02  0.7546771E-02  0.1467770E+00
         21   -1    0    0  503  501  0.00000000000E+00  0.00000000000E+00  0.10143578122E+04  0.10143578122E+04  0.00000000000E+00 0.  1.
         21   -1    0    0  504  502 -0.00000000000E+00 -0.00000000000E+00 -0.24845611945E+02  0.24845611945E+02  0.00000000000E+00 0.  1.
         21    1    1    2  503  502 -0.12222697021E+02  0.21914504410E+02 -0.18313852224E+02  0.31065044814E+02  0.00000000000E+00 0.  1.
         21    1    1    2  504  501  0.12222697021E+02 -0.21914504410E+02  0.10078260524E+04  0.10081383793E+04  0.00000000000E+00 0.  1.
</event>
<event>
 4    1  0.3305068E+006  0.2057305E+02  0.7546771E-02  0.1525449E+00
         21   -1    0    0  503  501  0.00000000000E+00  0.00000000000E+00  0.40164647241E+01  0.40164647241E+01  0.00000000000E+00 0.  1.
         21   -1    0    0  504  502 -0.00000000000E+00 -0.00000000000E+00 -0.13851997859E+03  0.13851997859E+03  0.00000000000E+00 0. -1.
         21    1    1    2  503  502  0.18938954209E+02 -0.80353231725E+01 -0.32392075991E+02  0.38373128515E+02  0.00000000000E+00 0.  1.
         21    1    1    2  504  501 -0.18938954209E+02  0.80353231725E+01 -0.10211143787E+03  0.10416331480E+03  0.00000000000E+00 0. -1.
</event>
<event>
 4    1  0.3305068E+006  0.2290441E+02  0.7546771E-02  0.1493702E+00
         21   -1    0    0  502  501  0.00000000000E+00  0.00000000000E+00  0.16543828456E+02  0.16543828456E+02  0.00000000000E+00 0. -1.
         21   -1    0    0  504  502 -0.00000000000E+00 -0.00000000000E+00 -0.37637915771E+03  0.37637915771E+03  0.00000000000E+00 0.  1.
         21    1    1    2  503  501  0.20854572438E+02  0.94709363292E+01  0.80856910851E+01  0.24289714425E+02  0.00000000000E+00 0. -1.
         21    1    1    2  504  503 -0.20854572438E+02 -0.94709363292E+01 -0.36792102034E+03  0.36863327174E+03  0.00000000000E+00 0.  1.
</event>
<event>
 4    1  0.3305068E+006  0.3104326E+02  0.7546771E-02  0.1410742E+00
         21   -1    0    0  503  501  0.00000000000E+00  0.00000000000E+00  0.70056938252E+01  0.70056938252E+01  0.00000000000E+00 0. -1.
         21   -1    0    0  504  502 -0.00000000000E+00 -0.00000000000E+00 -0.22994219430E+03  0.22994219430E+03  0.00000000000E+00 0.  1.
         21    1    1    2  503  502 -0.21968595583E+02  0.21933194910E+02 -0.36372730684E+02  0.47819031444E+02  0.00000000000E+00 0. -1.
         21    1    1    2  504  501  0.21968595583E+02 -0.21933194910E+02 -0.18656376979E+03  0.18912885668E+03  0.00000000000E+00 0.  1.
</event>
<event>
 4    1  0.3305068E+006  0.2580613E+02  0.7546771E-02  0.1459984E+00
         21   -1    0    0  502  501  0.00000000000E+00  0.00000000000E+00  0.13958751465E+01  0.13958751465E+01  0.00000000000E+00 0. -1.
         21   -1    0    0  504  502 -0.00000000000E+00 -0.00000000000E+00 -0.88624144316E+03  0.88624144316E+03  0.00000000000E+00 0. -1.
         21    1    1    2  503  501 -0.25030109923E+02 -0.62809124955E+01 -0.14086380723E+03  0.14320812984E+03  0.00000000000E+00 0. -1.
         21    1    1    2  504  503  0.25030109923E+02  0.62809124955E+01 -0.74398176078E+03  0.74442918847E+03  0.00000000000E+00 0. -1.
</event>
<event>
 4    1  0.3305068E+006  0.2020061E+02  0.7546771E-02  0.1530991E+00
         21   -1    0    0  503  501  0.00000000000E+00  0.00000000000E+00  0.13242957757E+02  0.13242957757E+02  0.00000000000E+00 0. -1.
         21   -1    0    0  501  502 -0.00000000000E+00 -0.00000000000E+00 -0.28610419708E+03  0.28610419708E+03  0.00000000000E+00 0. -1.
         21    1    1    2  503  504 -0.20154825009E+02  0.13593094288E+01  0.49534044340E+01  0.20799060285E+02  0.00000000000E+00 0. -1.
         21    1    1    2  504  502  0.20154825009E+02 -0.13593094288E+01 -0.27781464376E+03  0.27854809455E+03  0.00000000000E+00 0. -1.
</event>
<event>
 4    1  0.3305068E+006  0.2701647E+02  0.7546771E-02  0.1447443E+00
         21   -1    0    0  502  501  0.00000000000E+00  0.00000000000E+00  0.13194279231E+02  0.13194279231E+02  0.00000000000E+00 0.  1.
         21   -1    0    0  504  502 -0.00000000000E+00 -0.00000000000E+00 -0.16381864852E+03  0.16381864852E+03  0.00000000000E+00 0.  1.
         21    1    1    2  503  501 -0.17141965710E+02 -0.20881640591E+02 -0.32830565142E+01  0.27215222987E+02  0.00000000000E+00 0.  1.
         21    1    1    2  504  503  0.17141965710E+02  0.20881640591E+02 -0.14734131278E+03  0.14979770477E+03  0.00000000000E+00 0.  1.
</event>
<event>
 4    1  0.3305068E+006  0.2418325E+02  0.7546771E-02  0.1478151E+00
         21   -1    0    0  502  501  0.00000000000E+00  0.00000000000E+00  0.25075684466E+02  0.25075684466E+02  0.00000000000E+00 0.  1.
         21   -1    0    0  503  502 -0.00000000000E+00 -0.00000000000E+00 -0.24392417572E+02  0.24392417572E+02  0.00000000000E+00 0.  1.
         21    1    1    2  503  504  0.73803263811E+01 -0.23029557744E+02  0.55215888513E+01  0.24805597974E+02  0.00000000000E+00 0.  1.
         21    1    1    2  504  501 -0.73803263811E+01  0.23029557744E+02 -0.48383219568E+01  0.24662504065E+02  0.00000000000E+00 0.  1.
</event>
<event>
 4    1  0.3305068E+006  0.3041260E+02  0.7546771E-02  0.1416044E+00
         21   -1    0    0  504  501  0.00000000000E+00  0.00000000000E+00  0.13983364794E+02  0.13983364794E+02  0.00000000000E+00 0.  1.
         21   -1    0    0  503  502 -0.00000000000E+00 -0.00000000000E+00 -0.70436693211E+02  0.70436693211E+02  0.00000000000E+00 0.  1.
         21    1    1    2  503  501  0.28544015852E+02 -0.10495962671E+02 -0.38646083106E+02  0.49177696294E+02  0.00000000000E+00 0.  1.
         21    1    1    2  504  502 -0.28544015852E+02  0.10495962671E+02 -0.17807245311E+02  0.35242361711E+02  0.00000000000E+00 0.  1.
</event>
<event>
 4    1  0.3305068E+006  0.2049097E+02  0.7546771E-02  0.1526658E+00
         21   -1    0    0  503  501  0.00000000000E+00  0.00000000000E+00  0.10759045048E+03  0.10759045048E+03  0.00000000000E+00 0.  1.
         21   -1    0    0  501  502 -0.00000000000E+00 -0.00000000000E+00 -0.69928759345E+02  0.69928759345E+02  0.00000000000E+00 0. -1.
         21    1    1    2  503  504  0.16419790620E+02 -0.12258488090E+02  0.10507815211E+03  0.10705745236E+03  0.00000000000E+00 0.  1.
         21    1    1    2  504  502 -0.16419790620E+02  0.12258488090E+02 -0.67416460978E+02  0.70461757465E+02  0.00000000000E+00 0. -1.
</event>
<event>
 4    1  0.3305068E+006  0.2077152E+02  0.7546771E-02  0.1522552E+00
         21   -1    0    0  504  501  0.00000000000E+00  0.00000000000E+00  0.15978974374E+02  0.15978974374E+02  0.00000000000E+00 0.  1.
         21   -1    0    0  503  502 -0.00000000000E+00 -0.00000000000E+00 -0.45712201327E+02  0.45712201327E+02  0.00000000000E+00 0. -1.
         21    1    1    2  503  501 -0.12642790387E+02 -0.16480774452E+02 -0.34600933324E+02  0.40356915915E+02  0.00000000000E+00 0. -1.
         21    1    1    2  504  502  0.12642790387E+02  0.16480774452E+02  0.48677063706E+01  0.21334259786E+02  0.00000000000E+00 0.  1.
</event>
<event>
 4    1  0.3305068E+006  0.2091143E+02  0.7546771E-02  0.1520533E+00
         21   -1    0    0  504  501  0.00000000000E+00  0.00000000000E+00  0.24630370482E+02  0.24630370482E+02  0.00000000000E+00 0. -1.
         21   -1    0    0  503  502 -0.00000000000E+00 -0.00000000000E+00 -0.19568652322E+02  0.19568652322E+02  0.00000000000E+00 0. -1.
         21    1    1    2  503  501 -0.93582155117E+01 -0.18700577911E+02  0.92605928989E+01  0.22870207533E+02  0.00000000000E+00 0. -1.
         21    1    1    2  504  502  0.93582155117E+01  0.18700577911E+02 -0.41988747396E+01  0.21328815271E+02  0.00000000000E+00 0. -1.
</event>
<event>
 4    1  0.3305068E+006  0.2909661E+02  0.7546771E-02  0.1427613E+00
         21   -1    0    0  503  501  0.00000000000E+00  0.00000000000E+00  0.15162332611E+03  0.15162332611E+03  0.00000000000E+00 0. -1.
         21   -1    0    0  504  502 -0.00000000000E+00 -0.00000000000E+00 -0.62168725933E+01  0.62168725933E+01  0.00000000000E+00 0. -1.
         21    1    1    2  503  502 -0.29085167959E+02  0.81581719399E+00  0.47516156633E+02  0.55717122091E+02  0.00000000000E+00 0. -1.
         21    1    1    2  504  501  0.29085167959E+02 -0.81581719399E+00  0.97890296886E+02  0.10212307662E+03  0.00000000000E+00 0. -1.
</event>
<event>
 4    1  0.3305068E+006  0.2612306E+02  0.7546771E-02  0.1456622E+00
         21   -1    0    0  504  501  0.00000000000E+00  0.00000000000E+00  0.56622851080E+02  0.56622851080E+02  0.00000000000E+00 0.  1.
         21   -1    0    0  503  502 -0.00000000000E+00 -0.00000000000E+00 -0.12288850431E+02  0.12288850431E+02  0.00000000000E+00 0.  1.
         21    1    1    2  503  501  0.25867191724E+02  0.36472542400E+01  0.26951293379E+02  0.37533801912E+02  0.00000000000E+00 0.  1.
         21    1    1    2  504  502 -0.25867191724E+02 -0.36472542400E+01  0.17382707271E+02  0.31377899599E+02  0.00000000000E+00 0.  1.
</event>
<event>
 4    1  0.3305068E+006  0.2407406E+02  0.7546771E-02  0.1479434E+00
         21   -1    0    0  502  501  0.00000000000E+00  0.00000000000E+00  0.22813827942E+01  0.22813827942E+01  0.00000000000E+00 0. -1.
         21   -1    0    0  504  502 -0.00000000000E+00 -0.00000000000E+00 -0.37785654088E+03  0.37785654088E+03  0.00000000000E+00 0. -1.
         21    1    1    2  503  501  0.18627257957E+02 -0.15250751750E+02 -0.78985086425E+02  0.82572416977E+02  0.00000000000E+00 0. -1.
         21    1    1    2  504  503 -0.18627257957E+02  0.15250751750E+02 -0.29659007166E+03  0.29756550670E+03  0.00000000000E+00 0. -1.
</event>
<event>
 4    1  0.3305068E+006  0.3005076E+02  0.7546771E-02  0.1419156E+00
         21   -1    0    0  503  501  0.00000000000E+00  0.00000000000E+00  0.22185276563E+03  0.22185276563E+03  0.00000000000E+00 0. -1.
         21   -1    0    0  501  502 -0.00000000000E+00 -0.00000000000E+00 -0.73503756163E+02  0.73503756163E+02  0.00000000000E+00 0. -1.
         21    1    1    2  503  504  0.29366645302E+02  0.63756132179E+01  0.21770547374E+03  0.21976970127E+03  0.00000000000E+00 0. -1.
         21    1    1    2  504  502 -0.29366645302E+02 -0.63756132179E+01 -0.69356464273E+02  0.75586820522E+02  0.00000000000E+00 0. -1.
</event>
<event>
 4    1  0.3305068E+006  0.4106366E+02  0.7546771E-02  0.1342363E+00
         21   -1    0    0  503  501  0.00000000000E+00  0.00000000000E+00  0.24716117897E+03  0.24716117897E+03  0.00000000000E+00 0.  1.
         21   -1    0    0  501  502 -0.00000000000E+00 -0.00000000000E+00 -0.83059398576E+01  0.83059398576E+01  0.00000000000E+00 0.  1.
         21    1    1    2  503  504  0.29818654540E+02  0.28232457433E+02  0.17341165365E+03  0.17820725415E+03  0.00000000000E+00 0.  1.
         21    1    1    2  504  502 -0.29818654540E+02 -0.28232457433E+02  0.65443585462E+02  0.77259864674E+02  0.00000000000E+00 0.  1.
</event>
<event>
 4    1  0.3305068E+006  0.2034773E+02  0.7546771E-02  0.1528785E+00
         21   -1    0    0  503  501  0.00000000000E+00  0.00000000000E+00  0.15278772168E+01  0.15278772168E+01  0.00000000000E+00 0.  1.
         21   -1    0    0  504  502 -0.00000000000E+00 -0.00000000000E+00 -0.27129704539E+03  0.27129704539E+03  0.00000000000E+00 0.  1.
         21    1    1    2  503  502  0.18099677997E+02 -0.92968682384E+01 -0.13024994891E+03  0.13182973600E+03  0.00000000000E+00 0.  1.
         21    1    1    2  504  501 -0.18099677997E+02  0.92968682384E+01 -0.13951921927E+03  0.14099518661E+03  0.00000000000E+00 0.  1.
</event>
<event>
 4    1  0.3305068E+006  0.2179725E+02  0.7546771E-02  0.1508180E+00
         21   -1    0    0  502  501  0.00000000000E+00  0.00000000000E+00  0.71711919701E+02  0.71711919701E+02  0.00000000000E+00 0. -1.
         21   -1    0    0  504  502 -0.00000000000E+00 -0.00000000000E+00 -0.84835721532E+02  0.84835721532E+02  0.00000000000E+00 0. -1.
         21    1    1    2  503  501 -0.48228957905E+01  0.21256993161E+02  0.68593326295E+02  0.71973359615E+02  0.00000000000E+00 0. -1.
         21    1    1    2  504  503  0.48228957905E+01 -0.21256993161E+02 -0.81717128126E+02  0.84574281618E+02  0.00000000000E+00 0. -1.
</event>
<event>
 4    1  0.3305068E+006  0.3070901E+02  0.7546771E-02  0.1413533E+00
         21   -1    0    0  504  501  0.00000000000E+00  0.00000000000E+00  0.35932474296E+02  0.35932474296E+02  0.00000000000E+00 0.  1.
         21   -1    0    0  503  502 -0.00000000000E+00 -0.00000000000E+00 -0.26247803626E+02  0.26247803626E+02  0.00000000000E+00 0.  1.
         21    1    1    2  503  501 -0.24457351350E+02  0.18570984205E+02  0.51704377297E+01  0.31141241396E+02  0.00000000000E+00 0.  1.
         21    1    1    2  504  502  0.24457351350E+02 -0.18570984205E+02  0.45142329403E+01  0.31039036525E+02  0.00000000000E+00 0.  1.
</event>
<event>
 4    1  0.3305068E+006  0.2129602E+02  0.7546771E-02  0.1515080E+00
         21   -1    0    0  503  501  0.00000000000E+00  0.00000000000E+00  0.14351641647E+04  0.14351641647E+04  0.00000000000E+00 0.  1.
         21   -1    0    0  504  502 -0.00000000000E+00 -0.00000000000E+00 -0.65038508875E+01  0.65038508875E+01  0.00000000000E+00 0.  1.
         21    1    1    2  503  502 -0.11175858046E+02 -0.18127894350E+02  0.14174343572E+04  0.14175943275E+04  0.00000000000E+00 0.  1.
         21    1    1    2  504  501  0.11175858046E+02  0.18127894350E+02  0.11225956604E+02  0.24073688091E+02  0.00000000000E+00 0.  1.
</event>
<event>
 4    1  0.3305068E+006  0.2337672E+02  0.7546771E-02  0.1487821E+00
         21   -1    0    0  503  501  0.00000000000E+00  0.00000000000E+00  0.81919985151E+02  0.81919985151E+02  0.00000000000E+00 0.  1.
         21   -1    0    0  504  502 -0.00000000000E+00 -0.00000000000E+00 -0.41591101012E+02  0.41591101012E+02  0.00000000000E+00 0.  1.
         21    1    1    2  503  502  0.14104927821E+02 -0.18641944078E+02  0.76751196361E+02  0.80232270382E+02  0.00000000000E+00 0.  1.
         21    1    1    2  504  501 -0.14104927821E+02  0.18641944078E+02 -0.36422312222E+02  0.43278815781E+02  0.00000000000E+00 0.  1.
</event>
<event>
 4    1  0.3305068E+006  0.3775750E+02  0.7546771E-02  0.1362153E+00
         21   -1    0    0  502  501  0.00000000000E+00  0.00000000000E+00  0.22200891865E+02  0.22200891865E+02  0.00000000000E+00 0.  1.
         21   -1    0    0  503  502 -0.00000000000E+00 -0.00000000000E+00 -0.15330911971E+03  0.15330911971E+03  0.00000000000E+00 0. -1.
         21    1    1    2  503  504 -0.56704130631E+01 -0.37329281643E+02 -0.13245202864E+03  0.13772860539E+03  0.00000000000E+00 0. -1.
         21    1    1    2  504  501  0.56704130631E+01  0.37329281643E+02  0.13438007987E+01  0.37781406180E+02  0.00000000000E+00 0.  1.
</event>
<event>
 4    1  0.3305068E+006  0.2956040E+02  0.7546771E-02  0.1423456E+00
         21   -1    0    0  502  501  0.00000000000E+00  0.00000000000E+00  0.49939855868E+02  0.49939855868E+02  0.00000000000E+00 0.  1.
         21   -1    0    0  503  502 -0.00000000000E+00 -0.00000000000E+00 -0.18533828028E+03  0.18533828028E+03  0.00000000000E+00 0.  1.
         21    1    1    2  503  504  0.29553441179E+02 -0.64139448569E+00 -0.17964761316E+03  0.18206340156E+03  0.00000000000E+00 0.  1.
         21    1    1    2  504  501 -0.29553441179E+02  0.64139448569E+00  0.44249188750E+02  0.53214734589E+02  0.00000000000E+00 0.  1.
</event>
<event>
 4    1  0.3305068E+006  0.2440336E+02  0.7546771E-02  0.1475590E+00
         21   -1    0    0  503  501  0.00000000000E+00  0.00000000000E+00  0.60172912335E+02  0.60172912335E+02  0.00000000000E+00 0.  1.
         21   -1    0    0  501  502 -0.00000000000E+00 -0.00000000000E+00 -0.19565191922E+02  0.19565191922E+02  0.00000000000E+00 0.  1.
         21    1    1    2  503  504  0.31248588124E+01  0.24202461231E+02  0.48330385868E+02  0.54141943726E+02  0.00000000000E+00 0.  1.
         21    1    1    2  504  502 -0.31248588124E+01 -0.24202461231E+02 -0.77226654551E+01  0.25596160532E+02  0.00000000000E+00 0.  1.
</event>
<event>
 4    1  0.3305068E+006  0.2112279E+02  0.7546771E-02  0.1517519E+00
         21   -1    0    0  504  501  0.00000000000E+00  0.00000000000E+00  0.11825578615E+02  0.11825578615E+02  0.00000000000E+00 0.  1.
         21   -1    0    0  503  502 -0.00000000000E+00 -0.00000000000E+00 -0.45380586656E+02  0.45380586656E+02  0.00000000000E+00 0.  1.
         21    1    1    2  503  501  0.20832907070E+02 -0.34874188093E+01 -0.50328048929E+01  0.21714079120E+02  0.00000000000E+00 0.  1.
         21    1    1    2  504  502 -0.20832907070E+02  0.34874188093E+01 -0.28522203148E+02  0.35492086151E+02  0.00000000000E+00 0.  1.
</event>
<event>
 4    1  0.3305068E+006  0.3062233E+02  0.7546771E-02  0.1414264E+00
         21   -1    0    0  504  501  0.00000000000E+00  0.00000000000E+00  0.55293544847E+03  0.55293544847E+03  0.00000000000E+00 0.  1.
         21   -1    0    0  503  502 -0.00000000000E+00 -0.00000000000E+00 -0.32466322895E+01  0.32466322895E+01  0.00000000000E+00 0. -1.
         21    1    1    2  503  501  0.30161067251E+02 -0.52950217433E+01  0.46703753185E+03  0.46804036513E+03  0.00000000000E+00 0.  1.
         21    1    1    2  504  502 -0.30161067251E+02  0.52950217433E+01  0.82651284335E+02  0.88141715635E+02  0.00000000000E+00 0. -1.
</event>
<event>
 4    1  0.3305068E+006  0.3019134E+02  0.7546771E-02  0.1417941E+00
         21   -1    0    0  503  501  0.00000000000E+00  0.00000000000E+00  0.51455429861E+01  0.51455429861E+01  0.00000000000E+00 0. -1.
         21   -1    0    0  504  502 -0.00000000000E+00 -0.00000000000E+00 -0.19795404561E+03  0.19795404561E+03  0.00000000000E+00 0. -1.
         21    1    1    2  503  502  0.27570051890E+02  0.12304839496E+02 -0.63480946731E+02  0.70294718394E+02  0.00000000000E+00 0. -1.
         21    1    1    2  504  501 -0.27570051890E+02 -0.12304839496E+02 -0.12932755590E+03  0.13280487021E+03  0.00000000000E+00 0. -1.
</event>
<event>
 4    1  0.3305068E+006  0.2203280E+02  0.7546771E-02  0.1505014E+00
         21   -1    0    0  504  501  0.00000000000E+00  0.00000000000E+00  0.82218692949E+03  0.82218692949E+03  0.00000000000E+00 0. -1.
         21   -1    0    0  503  502 -0.00000000000E+00 -0.00000000000E+00 -0.22151517561E+01  0.22151517561E+01  0.00000000000E+00 0. -1.
         21    1    1    2  503  501 -0.98355648075E+01 -0.19715632327E+02  0.76300379258E+03  0.76332184037E+03  0.00000000000E+00 0. -1.
         21    1    1    2  504  502  0.98355648075E+01  0.19715632327E+02  0.56967985159E+02  0.61080240882E+02  0.00000000000E+00 0. -1.
</event>
<event>
 4    1  0.3305068E+006  0.2102846E+02  0.7546771E-02  0.1518859E+00
         21   -1    0    0  503  501  0.00000000000E+00  0.00000000000E+00  0.78741300372E+01  0.78741300372E+01  0.00000000000E+00 0.  1.
         21   -1    0    0  501  502 -0.00000000000E+00 -0.00000000000E+00 -0.11898770385E+03  0.11898770385E+03  0.00000000000E+00 0.  1.
         21    1    1    2  503  504  0.20597918951E+02  0.42334095032E+01 -0.94640837089E+01  0.23060028221E+02  0.00000000000E+00 0.  1.
         21    1    1    2  504  502 -0.20597918951E+02 -0.42334095032E+01 -0.10164949010E+03  0.10380180566E+03  0.00000000000E+00 0.  1.
</event>
<event>
 4    1  0.3305068E+006  0.2419894E+02  0.7546771E-02  0.1477968E+00
         21   -1    0    0  502  501  0.00000000000E+00  0.00000000000E+00  0.63386476629E+01  0.63386476629E+01  0.00000000000E+00 0.  1.
         21   -1    0    0  503  502 -0.00000000000E+00 -0.00000000000E+00 -0.87668201282E+03  0.87668201282E+03  0.00000000000E+00 0. -1.
         21    1    1    2  503  504  0.98421408952E+01 -0.22107034449E+02 -0.85277161406E+03  0.85311488937E+03  0.00000000000E+00 0. -1.
         21    1    1    2  504  501 -0.98421408952E+01  0.22107034449E+02 -0.17571751097E+02  0.29905771118E+02  0.00000000000E+00 0.  1.
</event>
<event>
 4    1  0.3305068E+006  0.2002331E+02  0.7546771E-02  0.1533680E+00
         21   -1    0    0  504  501  0.00000000000E+00  0.00000000000E+00  0.26033327491E+02  0.26033327491E+02  0.00000000000E+00 0. -1.
         21   -1    0    0  503  502 -0.00000000000E+00 -0.00000000000E+00 -0.29341145353E+02  0.29341145353E+02  0.00000000000E+00 0. -1.
         21    1    1    2  503  501  0.16072636443E+02 -0.11941656464E+02  0.17430495145E+02  0.26547221367E+02  0.00000000000E+00 0. -1.
         21    1    1    2  504  502 -0.16072636443E+02  0.11941656464E+02 -0.20738313007E+02  0.28827251477E+02  0.00000000000E+00 0. -1.
</event>
<event>
 4    1  0.3305068E+006  0.2013110E+02  0.7546771E-02  0.1532041E+00
         21   -1    0    0  504  501  0.00000000000E+00  0.00000000000E+00  0.11092902173E+03  0.11092902173E+03  0.00000000000E+00 0.  1.
         21   -1    0    0  503  502 -0.00000000000E+00 -0.00000000000E+00 -0.36080329227E+02  0.36080329227E+02  0.00000000000E+00 0. -1.
         21    1    1    2  503  501  0.12769396856E+02 -0.15562899970E+02 -0.32259648146E+02  0.38025599930E+02  0.00000000000E+00 0. -1.
         21    1    1    2  504  502 -0.12769396856E+02  0.15562899970E+02  0.10710834065E+03  0.10898375103E+03  0.00000000000E+00 0.  1.
</event>
<event>
 4    1  0.3305068E+006  0.2292586E+02  0.7546771E-02  0.1493431E+00
         21   -1    0    0  502  501  0.00000000000E+00  0.00000000000E+00  0.63093349586E+01  0.63093349586E+01  0.00000000000E+00 0. -1.
         21   -1    0    0  504  502 -0.00000000000E+00 -0.00000000000E+00 -0.28098612347E+03  0.28098612347E+03  0.00000000000E+00 0. -1.
         21    1    1    2  503  501 -0.21483915778E+02 -0.80022800038E+01 -0.16851549916E+02  0.28452941096E+02  0.00000000000E+00 0. -1.
         21    1    1    2  504  503  0.21483915778E+02  0.80022800038E+01 -0.25782523860E+03  0.25884251734E+03  0.00000000000E+00 0. -1.
</event>
<event>
 4    1  0.3305068E+006  0.2583909E+02  0.7546771E-02  0.1459632E+00
         21   -1    0    0  504  501  0.00000000000E+00  0.00000000000E+00  0.46037325099E+02  0.46037325099E+02  0.00000000000E+00 0. -1.
         21   -1    0    0  501  502 -0.00000000000E+00 -0.00000000000E+00 -0.12123268979E+03  0.12123268979E+03  0.00000000000E+00 0. -1.
         21    1    1    2  503  502 -0.22605199710E+02 -0.12516531156E+02 -0.11607095570E+03  0.11891225909E+03  0.00000000000E+00 0. -1.
         21    1    1    2  504  503  0.22605199710E+02  0.12516531156E+02  0.40875591002E+02  0.48357755799E+02  0.00000000000E+00 0. -1.
</event>
<event>
 4    1  0.3305068E+006  0.2075666E+02  0.7546771E-02  0.1522768E+00
         21   -1    0    0  503  501  0.00000000000E+00  0.00000000000E+00  0.53025588139E+01  0.53025588139E+01  0.00000000000E+00 0.  1.
         21   -1    0    0  504  502 -0.00000000000E+00 -0.00000000000E+00 -0.94865418211E+02  0.94865418211E+02  0.00000000000E+00 0.  1.
         21    1    1    2  503  502  0.20159809920E+02  0.49417755910E+01 -0.63754685138E+02  0.67048482153E+02  0.00000000000E+00 0.  1.
         21    1    1    2  504  501 -0.20159809920E+02 -0.49417755910E+01 -0.25808174260E+02  0.33119494872E+02  0.00000000000E+00 0.  1.
</event>
<event>
 4    1  0.3305068E+006  0.2262512E+02  0.7546771E-02  0.1497260E+00
         21   -1    0    0  503  501  0.00000000000E+00  0.00000000000E+00  0.59055589295E+02  0.59055589295E+02  0.00000000000E+00 0. -1.
         21   -1    0    0  504  502 -0.00000000000E+00 -0.00000000000E+00 -0.12727587229E+02  0.12727587229E+02  0.00000000000E+00 0. -1.
         21    1    1    2  503  502  0.20674009558E+02  0.91913871432E+01  0.43434217287E+02  0.48973742966E+02  0.00000000000E+00 0. -1.
         21    1    1    2  504  501 -0.20674009558E+02 -0.91913871432E+01  0.28937847792E+01  0.22809433557E+02  0.00000000000E+00 0. -1.
</event>
<event>
 4    1  0.3305068E+006  0.3025122E+02  0.7546771E-02  0.1417426E+00
         21   -1    0    0  503  501  0.00000000000E+00  0.00000000000E+00  0.15521242657E+03  0.15521242657E+03  0.00000000000E+00 0.  1.
         21   -1    0    0  504  502 -0.00000000000E+00 -0.00000000000E+00 -0.18759429123E+02  0.18759429123E+02  0.00000000000E+00 0.  1.
         21    1    1    2  503  502  0.30208655985E+02  0.16041089937E+01  0.14025712308E+03  0.14348239138E+03  0.00000000000E+00 0.  1.
         21    1    1    2  504  501 -0.30208655985E+02 -0.16041089937E+01 -0.38041256342E+01  0.30489464310E+02  0.00000000000E+00 0.  1.
</event>
<event>
 4    1  0.3305068E+006  0.3097572E+02  0.7546771E-02  0.1411303E+00
         21   -1    0    0  504  501  0.00000000000E+00  0.00000000000E+00  0.18179447295E+02  0.18179447295E+02  0.00000000000E+00 0. -1.
         21   -1    0    0  503  502 -0.00000000000E+00 -0.00000000000E+00 -0.52779558359E+02  0.52779558359E+02  0.00000000000E+00 0. -1.
         21    1    1    2  503  501 -0.70051459291E+01  0.30173218636E+02 -0.17402547837E+02  0.35529478797E+02  0.00000000000E+00 0. -1.
         21    1    1    2  504  502  0.70051459291E+01 -0.30173218636E+02 -0.17197563227E+02  0.35429526857E+02  0.00000000000E+00 0. -1.
</event>
<event>
 4    1  0.3305068E+006  0.3646784E+02  0.7546771E-02  0.1370527E+00
         21   -1    0    0  503  501  0.00000000000E+00  0.00000000000E+00  0.17315684790E+02  0.17315684790E+02  0.00000000000E+00 0. -1.
         21   -1    0    0  504  502 -0.00000000000E+00 -0.00000000000E+00 -0.81431359328E+02  0.81431359328E+02  0.00000000000E+00 0. -1.
         21    1    1    2  503  502 -0.35803551116E+02 -0.69288633355E+01 -0.43828289705E+02  0.57015983707E+02  0.00000000000E+00 0. -1.
         21    1    1    2  504  501  0.35803551116E+02  0.69288633355E+01 -0.20287384834E+02  0.41731060411E+02  0.00000000000E+00 0. -1.
</event>
<event>
 4    1  0.3305068E+006  0.2055748E+02  0.7546771E-02  0.1525678E+00
         21   -1    0    0  503  501  0.00000000000E+00  0.00000000000E+00  0.48089787890E+02  0.48089787890E+02  0.00000000000E+00 0.  1.
         21   -1    0    0  504  502 -0.00000000000E+00 -0.00000000000E+00 -0.62213745902E+02  0.62213745902E+02  0.00000000000E+00 0.  1.
         21    1    1    2  503  502  0.14974833302E+02  0.14084191376E+02 -0.58170322346E+02  0.61696000526E+02  0.00000000000E+00 0.  1.
         21    1    1    2  504  501 -0.14974833302E+02 -0.14084191376E+02  0.44046364334E+02  0.48607533266E+02  0.00000000000E+00 0.  1.
</event>
<event>
 4    1  0.3305068E+006  0.2129469E+02  0.7546771E-02  0.1515099E+00
         21   -1    0    0  502  501  0.00000000000E+00  0.00000000000E+00  0.24171743412E+01  0.24171743412E+01  0.00000000000E+00 0.  1.
         21   -1    0    0  504  502 -0.00000000000E+00 -0.00000000000E+00 -0.44231812178E+03  0.44231812178E+03  0.00000000000E+00 0.  1.
         21    1    1    2  503  501 -0.10464636049E+02  0.18546031578E+02 -0.51204485459E+02  0.55455957535E+02  0.00000000000E+00 0.  1.
         21    1    1    2  504  503  0.10464636049E+02 -0.18546031578E+02 -0.38869646198E+03  0.38927933858E+03  0.00000000000E+00 0.  1.
</event>
<event>
 4    1  0.3305068E+006  0.2048989E+02  0.7546771E-02  0.1526674E+00
         21   -1    0    0  502  501  0.00000000000E+00  0.00000000000E+00  0.25808025338E+02  0.25808025338E+02  0.00000000000E+00 0. -1.
         21   -1    0    0  503  502 -0.00000000000E+00 -0.00000000000E+00 -0.32510686621E+02  0.32510686621E+02  0.00000000000E+00 0.  1.
         21    1    1    2  503  504 -0.26316499255E+01 -0.20320183504E+02 -0.23962314329E+02  0.31528208750E+02  0.00000000000E+00 0.  1.
         21    1    1    2  504  501  0.26316499255E+01  0.20320183504E+02  0.17259653046E+02  0.26790503210E+02  0.00000000000E+00 0. -1.
</event>
<event>
 4    1  0.3305068E+006  0.2037227E+02  0.7546771E-02  0.1528419E+00
         21   -1    0    0  502  501  0.00000000000E+00  0.00000000000E+00  0.14741236186E+02  0.14741236186E+02  0.00000000000E+00 0.  1.
         21   -1    0    0  503  502 -0.00000000000E+00 -0.00000000000E+00 -0.11917661733E+03  0.11917661733E+03  0.00000000000E+00 0.  1.
         21    1    1    2  503  504  0.15137916487E+02  0.13633519484E+02 -0.11073533978E+03  0.11259371583E+03  0.00000000000E+00 0.  1.
         21    1    1    2  504  501 -0.15137916487E+02 -0.13633519484E+02  0.62999586347E+01  0.21324137683E+02  0.00000000000E+00 0.  1.
</event>
<event>
 4    1  0.3305068E+006  0.2054778E+02  0.7546771E-02  0.1525820E+00
         21   -1    0    0  502  501  0.00000000000E+00  0.00000000000E+00  0.59595315146E+02  0.59595315146E+02  0.00000000000E+00 0.  1.
         21   -1    0    0  503  502 -0.00000000000E+00 -0.00000000000E+00 -0.71624475496E+01  0.71624475496E+01  0.00000000000E+00 0.  1.
         21    1    1    2  503  504 -0.17265911394E+02  0.11140006404E+02  0.29695381634E+02  0.36111315807E+02  0.00000000000E+00 0.  1.
         21    1    1    2  504  501  0.17265911394E+02 -0.11140006404E+02  0.22737485963E+02  0.30646446888E+02  0.00000000000E+00 0.  1.
</event>
<event>
 4    1  0.3305068E+006  0.2325078E+02  0.7546771E-02  0.1489373E+00
         21   -1    0    0  503  501  0.00000000000E+00  0.00000000000E+00  0.55986872734E+02  0.55986872734E+02  0.00000000000E+00 0.  1.
         21   -1    0    0  504  502 -0.00000000000E+00 -0.00000000000E+00 -0.21988157595E+02  0.21988157595E+02  0.00000000000E+00 0. -1.
         21    1    1    2  503  502 -0.17741101964E+02  0.15028375590E+02 -0.12198700131E+02  0.26256562163E+02  0.00000000000E+00 0. -1.
         21    1    1    2  504  501  0.17741101964E+02 -0.15028375590E+02  0.46197415271E+02  0.51718468166E+02  0.00000000000E+00 0.  1.
</event>
<event>
 4    1  0.3305068E+006  0.2101789E+02  0.7546771E-02  0.1519010E+00
         21   -1    0    0  504  501  0.00000000000E+00  0.00000000000E+00  0.39915400201E+02  0.39915400201E+02  0.00000000000E+00 0. -1.
         21   -1    0    0  501  502 -0.00000000000E+00 -0.00000000000E+00 -0.12832073081E+02  0.12832073081E+02  0.00000000000E+00 0. -1.
         21    1    1    2  503  502 -0.13589476104E+02 -0.16033643583E+02  0.37607281168E+01  0.21351689940E+02  0.00000000000E+00 0. -1.
         21    1    1    2  504  503  0.13589476104E+02  0.16033643583E+02  0.23322599004E+02  0.31395783342E+02  0.00000000000E+00 0. -1.
</event>
<event>
 4    1  0.3305068E+006  0.2192786E+02  0.7546771E-02  0.1506418E+00
         21   -1    0    0  503  501  0.00000000000E+00  0.00000000000E+00  0.28643712463E+01  0.28643712463E+01  0.00000000000E+00 0. -1.
         21   -1    0    0  504  502 -0.00000000000E+00 -0.00000000000E+00 -0.62797219477E+03  0.62797219477E+03  0.00000000000E+00 0. -1.
         21    1    1    2  503  502 -0.11420853431E+02 -0.18718849728E+02 -0.42565214398E+02  0.47881402495E+02  0.00000000000E+00 0. -1.
         21    1    1    2  504  501  0.11420853431E+02  0.18718849728E+02 -0.58254260912E+03  0.58295516352E+03  0.00000000000E+00 0. -1.
</event>
<event>
 4    1  0.3305068E+006  0.2034096E+02  0.7546771E-02  0.1528886E+00
         21   -1    0    0  504  501  0.00000000000E+00  0.00000000000E+00  0.44007026671E+02  0.44007026671E+02  0.00000000000E+00 0.  1.
         21   -1    0    0  501  502 -0.00000000000E+00 -0.00000000000E+00 -0.52713115449E+02  0.52713115449E+02  0.00000000000E+00 0. -1.
         21    1    1    2  503  502  0.11528235757E+02  0.16758713493E+02 -0.48188669119E+02  0.52305855590E+02  0.00000000000E+00 0. -1.
         21    1    1    2  504  503 -0.11528235757E+02 -0.16758713493E+02  0.39482580340E+02  0.44414286530E+02  0.00000000000E+00 0.  1.
</event>
<event>
 4    1  0.3305068E+006  0.2130446E+02  0.7546771E-02  0.1514962E+00
         21   -1    0    0  504  501  0.00000000000E+00  0.00000000000E+00  0.40098583737E+02  0.40098583737E+02  0.00000000000E+00 0. -1.
         21   -1    0    0  503  502 -0.00000000000E+00 -0.00000000000E+00 -0.14872220135E+02  0.14872220135E+02  0.00000000000E+00 0. -1.
         21    1    1    2  503  501 -0.21240194584E+02 -0.16535886133E+01 -0.82122869312E+00  0.21320287002E+02  0.00000000000E+00 0. -1.
         21    1    1    2  504  502  0.21240194584E+02  0.16535886133E+01  0.26047592295E+02  0.33650516870E+02  0.00000000000E+00 0. -1.
</event>
<event>
 4    1  0.3305068E+006  0.2326156E+02  0.7546771E-02  0.1489240E+00
         21   -1    0    0  504  501  0.00000000000E+00  0.00000000000E+00  0.10107068241E+01  0.10107068241E+01  0.00000000000E+00 0. -1.
         21   -1    0    0  503  502 -0.00000000000E+00 -0.00000000000E+00 -0.53607847373E+03  0.53607847373E+03  0.00000000000E+00 0. -1.
         21    1    1    2  503  501  0.12961149090E+02  0.19316019305E+02 -0.27731092656E+03  0.27828483605E+03  0.00000000000E+00 0. -1.
         21    1    1    2  504  502 -0.12961149090E+02 -0.19316019305E+02 -0.25775684035E+03  0.25880434450E+03  0.00000000000E+00 0. -1.
</event>
<event>
 4    1  0.3305068E+006  0.2098319E+02  0.7546771E-02  0.1519505E+00
         21   -1    0    0  504  501  0.00000000000E+00  0.00000000000E+00  0.19214620463E+03  0.19214620463E+03  0.00000000000E+00 0.  1.
         21   -1    0    0  503  502 -0.00000000000E+00 -0.00000000000E+00 -0.87633810345E+01  0.87633810345E+01  0.00000000000E+00 0.  1.
         21    1    1    2  503  501 -0.17119656345E+01  0.20913230932E+02  0.17801940482E+03  0.17925178533E+03  0.00000000000E+00 0.  1.
         21    1    1    2  504  502  0.17119656345E+01 -0.20913230932E+02  0.53634187854E+01  0.21657800336E+02  0.00000000000E+00 0.  1.
</event>
<event>
 4    1  0.3305068E+006  0.2460627E+02  0.7546771E-02  0.1473257E+00
         21   -1    0    0  502  501  0.00000000000E+00  0.00000000000E+00  0.30051262097E+02  0.30051262097E+02  0.00000000000E+00 0. -1.
         21   -1    0    0  504  502 -0.00000000000E+00 -0.00000000000E+00 -0.61138398749E+02  0.61138398749E+02  0.00000000000E+00 0.  1.
         21    1    1    2  503  501  0.23448983254E+02  0.74574433916E+01  0.21790081409E+02  0.32867551253E+02  0.00000000000E+00 0. -1.
         21    1    1    2  504  503 -0.23448983254E+02 -0.74574433916E+01 -0.52877218060E+02  0.58322109593E+02  0.00000000000E+00 0.  1.
</event>
<event>
 4    1  0.3305068E+006  0.3242062E+02  0.7546771E-02  0.1399664E+00
         21   -1    0    0  503  501  0.00000000000E+00  0.00000000000E+00  0.11382987756E+03  0.11382987756E+03  0.00000000000E+00 0. -1.
         21   -1    0    0  504  502 -0.00000000000E+00 -0.00000000000E+00 -0.70152613953E+02  0.70152613953E+02  0.00000000000E+00 0.  1.
         21    1    1    2  503  502  0.12577562761E+02  0.29881461393E+02  0.10756212044E+03  0.11234191815E+03  0.00000000000E+00 0. -1.
         21    1    1    2  504  501 -0.12577562761E+02 -0.29881461393E+02 -0.63884856831E+02  0.71640573366E+02  0.00000000000E+00 0.  1.
</event>
<event>
 4    1  0.3305068E+006  0.3798404E+02  0.7546771E-02  0.1360722E+00
         21   -1    0    0  504  501  0.00000000000E+00  0.00000000000E+00  0.42956559767E+02  0.42956559767E+02  0.00000000000E+00 0.  1.
         21   -1    0    0  503  502 -0.00000000000E+00 -0.00000000000E+00 -0.34502368907E+02  0.34502368907E+02  0.00000000000E+00 0.  1.
         21    1    1    2  503  501  0.24325058105E+02  0.29173249661E+02  0.10535036642E+02  0.39417939376E+02  0.00000000000E+00 0.  1.
         21    1    1    2  504  502 -0.24325058105E+02 -0.29173249661E+02 -0.20808457822E+01  0.38040989298E+02  0.00000000000E+00 0.  1.
</event>
