<event>
 4    1  0.6225520E+003  0.3091227E+02  0.7546771E-02  0.1411831E+00
          2   -1    0    0  502    0  0.00000000000E+00  0.00000000000E+00  0.78950657559E+01  0.78950657559E+01  0.00000000000E+00 0.  1.
          2   -1    0    0  501    0 -0.00000000000E+00 -0.00000000000E+00 -0.22235181042E+03  0.22235181042E+03  0.00000000000E+00 0.  1.
          2    1    1    2  501    0  0.10040664842E+02 -0.29236169205E+02 -0.29516551079E+02  0.42741026284E+02  0.00000000000E+00 0.  1.
          2    1    1    2  502    0 -0.10040664842E+02  0.29236169205E+02 -0.18494019358E+03  0.18750584989E+03  0.00000000000E+00 0.  1.
</event>
<event>
 4    1  0.6225520E+003  0.2179114E+02  0.7546771E-02  0.1508263E+00
          2   -1    0    0  501    0  0.00000000000E+00  0.00000000000E+00  0.30787138821E+03  0.30787138821E+03  0.00000000000E+00 0. -1.
          2   -1    0    0  502    0 -0.00000000000E+00 -0.00000000000E+00 -0.27211222892E+01  0.27211222892E+01  0.00000000000E+00 0. -1.
          2    1    1    2  501    0 -0.20085965028E+02  0.84503009982E+01  0.50364273437E+02  0.54876348429E+02  0.00000000000E+00 0. -1.
          2    1    1    2  502    0  0.20085965028E+02 -0.84503009982E+01  0.25478599248E+03  0.25571616207E+03  0.00000000000E+00 0. -1.
</event>
<event>
 4    1  0.6225520E+003  0.5553186E+02  0.7546771E-02  0.1275819E+00
          2   -1    0    0  502    0  0.00000000000E+00  0.00000000000E+00  0.80282578582E+03  0.80282578582E+03  0.00000000000E+00 0.  1.
          2   -1    0    0  501    0 -0.00000000000E+00 -0.00000000000E+00 -0.58360366892E+02  0.58360366892E+02  0.00000000000E+00 0.  1.
          2    1    1    2  501    0 -0.72101360234E+01 -0.55061793126E+02  0.78841421448E+03  0.79036748460E+03  0.00000000000E+00 0.  1.
          2    1    1    2  502    0  0.72101360234E+01  0.55061793126E+02 -0.43948795546E+02  0.70818668116E+02  0.00000000000E+00 0.  1.
</event>
<event>
 4    1  0.6225520E+003  0.2408894E+02  0.7546771E-02  0.1479259E+00
          2   -1    0    0  501    0  0.00000000000E+00  0.00000000000E+00  0.86340811439E+03  0.86340811439E+03  0.00000000000E+00 0. -1.
          2   -1    0    0  502    0 -0.00000000000E+00 -0.00000000000E+00 -0.14003506498E+02  0.14003506498E+02  0.00000000000E+00 0.  1.
          2    1    1    2  501    0 -0.20076961150E+02 -0.13311369013E+02 -0.33465559091E+01  0.24320286810E+02  0.00000000000E+00 0.  1.
          2    1    1    2  502    0  0.20076961150E+02  0.13311369013E+02  0.85275116380E+03  0.85309133408E+03  0.00000000000E+00 0. -1.
</event>
<event>
 4    1  0.6225520E+003  0.2302959E+02  0.7546771E-02  0.1492127E+00
          2   -1    0    0  501    0  0.00000000000E+00  0.00000000000E+00  0.94019012652E+01  0.94019012652E+01  0.00000000000E+00 0. -1.
          2   -1    0    0  502    0 -0.00000000000E+00 -0.00000000000E+00 -0.10160549425E+04  0.10160549425E+04  0.00000000000E+00 0. -1.
          2    1    1    2  501    0 -0.17864726331E+02  0.14533191314E+02 -0.10016186929E+04  0.10018834104E+04  0.00000000000E+00 0. -1.
          2    1    1    2  502    0  0.17864726331E+02 -0.14533191314E+02 -0.50343483308E+01  0.23573433347E+02  0.00000000000E+00 0. -1.
</event>
<event>
 4    1  0.6225520E+003  0.2638409E+02  0.7546771E-02  0.1453895E+00
          2   -1    0    0  502    0  0.00000000000E+00  0.00000000000E+00  0.87841511076E+03  0.87841511076E+03  0.00000000000E+00 0. -1.
          2   -1    0    0  501    0 -0.00000000000E+00 -0.00000000000E+00 -0.89296963685E+00  0.89296963685E+00  0.00000000000E+00 0. -1.
          2    1    1    2  501    0 -0.25636849395E+02  0.62347672865E+01  0.29126915669E+03  0.29246169323E+03  0.00000000000E+00 0. -1.
          2    1    1    2  502    0  0.25636849395E+02 -0.62347672865E+01  0.58625298444E+03  0.58684638717E+03  0.00000000000E+00 0. -1.
</event>
<event>
 4    1  0.6225520E+003  0.2868139E+02  0.7546771E-02  0.1431412E+00
          2   -1    0    0  501    0  0.00000000000E+00  0.00000000000E+00  0.11304977985E+03  0.11304977985E+03  0.00000000000E+00 0. -1.
          2   -1    0    0  502    0 -0.00000000000E+00 -0.00000000000E+00 -0.91537978799E+01  0.91537978799E+01  0.00000000000E+00 0. -1.
          2    1    1    2  501    0 -0.26375366758E+02 -0.11267739766E+02  0.24278300596E+02  0.37577357689E+02  0.00000000000E+00 0. -1.
          2    1    1    2  502    0  0.26375366758E+02  0.11267739766E+02  0.79617681373E+02  0.84626220040E+02  0.00000000000E+00 0. -1.
</event>
<event>
 4    1  0.6225520E+003  0.2076346E+02  0.7546771E-02  0.1522669E+00
          2   -1    0    0  501    0  0.00000000000E+00  0.00000000000E+00  0.65434860151E+00  0.65434860151E+00  0.00000000000E+00 0.  1.
          2   -1    0    0  502    0 -0.00000000000E+00 -0.00000000000E+00 -0.78147000596E+03  0.78147000596E+03  0.00000000000E+00 0. -1.
          2    1    1    2  501    0  0.85917818804E+01  0.18902445662E+02 -0.54531110471E+03  0.54570625989E+03  0.00000000000E+00 0. -1.
          2    1    1    2  502    0 -0.85917818804E+01 -0.18902445662E+02 -0.23550455265E+03  0.23641809467E+03  0.00000000000E+00 0.  1.
</event>
<event>
 4    1  0.6225520E+003  0.2341751E+02  0.7546771E-02  0.1487321E+00
          2   -1    0    0  502    0  0.00000000000E+00  0.00000000000E+00  0.13361162303E+01  0.13361162303E+01  0.00000000000E+00 0.  1.
          2   -1    0    0  501    0 -0.00000000000E+00 -0.00000000000E+00 -0.48812195547E+03  0.48812195547E+03  0.00000000000E+00 0.  1.
          2    1    1    2  501    0  0.11412124996E+02 -0.20448547003E+02 -0.14575587820E+03  0.14762505106E+03  0.00000000000E+00 0.  1.
          2    1    1    2  502    0 -0.11412124996E+02  0.20448547003E+02 -0.34102996104E+03  0.34183302064E+03  0.00000000000E+00 0.  1.
</event>
<event>
 4    1  0.6225520E+003  0.2261429E+02  0.7546771E-02  0.1497399E+00
          2   -1    0    0  502    0  0.00000000000E+00  0.00000000000E+00  0.16886287511E+03  0.16886287511E+03  0.00000000000E+00 0. -1.
          2   -1    0    0  501    0 -0.00000000000E+00 -0.00000000000E+00 -0.78617058562E+01  0.78617058562E+01  0.00000000000E+00 0. -1.
          2    1    1    2  501    0  0.20735171273E+02  0.90254512941E+01  0.14978330268E+03  0.15148083661E+03  0.00000000000E+00 0. -1.
          2    1    1    2  502    0 -0.20735171273E+02 -0.90254512941E+01  0.11217866581E+02  0.25243744362E+02  0.00000000000E+00 0. -1.
</event>
<event>
 4    1  0.6225520E+003  0.2012492E+02  0.7546771E-02  0.1532135E+00
          2   -1    0    0  501    0  0.00000000000E+00  0.00000000000E+00  0.11928440913E+03  0.11928440913E+03  0.00000000000E+00 0. -1.
          2   -1    0    0  502    0 -0.00000000000E+00 -0.00000000000E+00 -0.36814154724E+01  0.36814154724E+01  0.00000000000E+00 0. -1.
          2    1    1    2  501    0  0.10681235634E+02  0.17056486964E+02  0.40662779661E+02  0.45370410975E+02  0.00000000000E+00 0. -1.
          2    1    1    2  502    0 -0.10681235634E+02 -0.17056486964E+02  0.74940213996E+02  0.77595413628E+02  0.00000000000E+00 0. -1.
</event>
<event>
 4    1  0.6225520E+003  0.2032388E+02  0.7546771E-02  0.1529141E+00
          2   -1    0    0  502    0  0.00000000000E+00  0.00000000000E+00  0.76728262253E+01  0.76728262253E+01  0.00000000000E+00 0. -1.
          2   -1    0    0  501    0 -0.00000000000E+00 -0.00000000000E+00 -0.84630383990E+03  0.84630383990E+03  0.00000000000E+00 0.  1.
          2    1    1    2  501    0  0.55435592881E+01  0.19553235998E+02 -0.61308531205E+01  0.21228458436E+02  0.00000000000E+00 0. -1.
          2    1    1    2  502    0 -0.55435592881E+01 -0.19553235998E+02 -0.83250016055E+03  0.83274820769E+03  0.00000000000E+00 0.  1.
</event>
<event>
 4    1  0.6225520E+003  0.3077627E+02  0.7546771E-02  0.1412968E+00
          2   -1    0    0  502    0  0.00000000000E+00  0.00000000000E+00  0.97855332692E+03  0.97855332692E+03  0.00000000000E+00 0.  1.
          2   -1    0    0  501    0 -0.00000000000E+00 -0.00000000000E+00 -0.47879568721E+01  0.47879568721E+01  0.00000000000E+00 0. -1.
          2    1    1    2  501    0 -0.30483196336E+02  0.42371630926E+01  0.92605193562E+03  0.92656320144E+03  0.00000000000E+00 0.  1.
          2    1    1    2  502    0  0.30483196336E+02 -0.42371630926E+01  0.47713434431E+02  0.56778082348E+02  0.00000000000E+00 0. -1.
</event>
<event>
 4    1  0.6225520E+003  0.2529123E+02  0.7546771E-02  0.1465572E+00
          2   -1    0    0  502    0  0.00000000000E+00  0.00000000000E+00  0.95398449021E+03  0.95398449021E+03  0.00000000000E+00 0. -1.
          2   -1    0    0  501    0 -0.00000000000E+00 -0.00000000000E+00 -0.16888477207E+03  0.16888477207E+03  0.00000000000E+00 0. -1.
          2    1    1    2  501    0 -0.22765130782E+02  0.11017955994E+02  0.95286888856E+03  0.95320447194E+03  0.00000000000E+00 0. -1.
          2    1    1    2  502    0  0.22765130782E+02 -0.11017955994E+02 -0.16776917043E+03  0.16966479034E+03  0.00000000000E+00 0. -1.
</event>
<event>
 4    1  0.6225520E+003  0.2485401E+02  0.7546771E-02  0.1470443E+00
          2   -1    0    0  501    0  0.00000000000E+00  0.00000000000E+00  0.21379986340E+04  0.21379986340E+04  0.00000000000E+00 0. -1.
          2   -1    0    0  502    0 -0.00000000000E+00 -0.00000000000E+00 -0.39050603307E+00  0.39050603307E+00  0.00000000000E+00 0.  1.
          2    1    1    2  501    0 -0.10590387437E+02  0.22484780892E+02  0.52348741062E+03  0.52407708474E+03  0.00000000000E+00 0.  1.
          2    1    1    2  502    0  0.10590387437E+02 -0.22484780892E+02  0.16141207174E+04  0.16143120553E+04  0.00000000000E+00 0. -1.
</event>
<event>
 4    1  0.6225520E+003  0.3824285E+02  0.7546771E-02  0.1359102E+00
          2   -1    0    0  501    0  0.00000000000E+00  0.00000000000E+00  0.43785331119E+01  0.43785331119E+01  0.00000000000E+00 0. -1.
          2   -1    0    0  502    0 -0.00000000000E+00 -0.00000000000E+00 -0.45078654388E+03  0.45078654388E+03  0.00000000000E+00 0. -1.
          2    1    1    2  501    0 -0.37159295005E+02 -0.90389459092E+01 -0.33903198407E+03  0.34118206573E+03  0.00000000000E+00 0. -1.
          2    1    1    2  502    0  0.37159295005E+02  0.90389459092E+01 -0.10737602669E+03  0.11398301126E+03  0.00000000000E+00 0. -1.
</event>
<event>
 4    1  0.6225520E+003  0.2638844E+02  0.7546771E-02  0.1453850E+00
          2   -1    0    0  501    0  0.00000000000E+00  0.00000000000E+00  0.16702066171E+04  0.16702066171E+04  0.00000000000E+00 0.  1.
          2   -1    0    0  502    0 -0.00000000000E+00 -0.00000000000E+00 -0.65684313997E+01  0.65684313997E+01  0.00000000000E+00 0. -1.
          2    1    1    2  501    0  0.11695068962E+02  0.23655340940E+02  0.20475639586E+02  0.33400622890E+02  0.00000000000E+00 0. -1.
          2    1    1    2  502    0 -0.11695068962E+02 -0.23655340940E+02  0.16431625461E+04  0.16433744256E+04  0.00000000000E+00 0.  1.
</event>
<event>
 4    1  0.6225520E+003  0.4175498E+02  0.7546771E-02  0.1338498E+00
          2   -1    0    0  502    0  0.00000000000E+00  0.00000000000E+00  0.15209628341E+04  0.15209628341E+04  0.00000000000E+00 0. -1.
          2   -1    0    0  501    0 -0.00000000000E+00 -0.00000000000E+00 -0.44380488241E+02  0.44380488241E+02  0.00000000000E+00 0.  1.
          2    1    1    2  501    0  0.40901594973E+02 -0.83986669327E+01  0.15107889374E+04  0.15113658364E+04  0.00000000000E+00 0. -1.
          2    1    1    2  502    0 -0.40901594973E+02  0.83986669327E+01 -0.34206591573E+02  0.53977485905E+02  0.00000000000E+00 0.  1.
</event>
<event>
 4    1  0.6225520E+003  0.2837367E+02  0.7546771E-02  0.1434277E+00
          2   -1    0    0  502    0  0.00000000000E+00  0.00000000000E+00  0.12016731863E+02  0.12016731863E+02  0.00000000000E+00 0.  1.
          2   -1    0    0  501    0 -0.00000000000E+00 -0.00000000000E+00 -0.67919781544E+02  0.67919781544E+02  0.00000000000E+00 0.  1.
          2    1    1    2  501    0  0.13608425352E+02 -0.24897302286E+02 -0.23288589052E+02  0.36707264699E+02  0.00000000000E+00 0.  1.
          2    1    1    2  502    0 -0.13608425352E+02  0.24897302286E+02 -0.32614460629E+02  0.43229248707E+02  0.00000000000E+00 0.  1.
</event>
<event>
 4    1  0.6225520E+003  0.2508014E+02  0.7546771E-02  0.1467909E+00
          2   -1    0    0  501    0  0.00000000000E+00  0.00000000000E+00  0.17495890369E+03  0.17495890369E+03  0.00000000000E+00 0.  1.
          2   -1    0    0  502    0 -0.00000000000E+00 -0.00000000000E+00 -0.87584492290E+02  0.87584492290E+02  0.00000000000E+00 0.  1.
          2    1    1    2  501    0  0.46019494609E+01 -0.24654320600E+02 -0.84862011824E+02  0.88490533471E+02  0.00000000000E+00 0.  1.
          2    1    1    2  502    0 -0.46019494609E+01  0.24654320600E+02  0.17223642323E+03  0.17405286251E+03  0.00000000000E+00 0.  1.
</event>
<event>
 4    1  0.6225520E+003  0.2242456E+02  0.7546771E-02  0.1499853E+00
          2   -1    0    0  502    0  0.00000000000E+00  0.00000000000E+00  0.95109506306E+01  0.95109506306E+01  0.00000000000E+00 0.  1.
          2   -1    0    0  501    0 -0.00000000000E+00 -0.00000000000E+00 -0.18901248337E+03  0.18901248337E+03  0.00000000000E+00 0. -1.
          2    1    1    2  501    0  0.21510668805E+02 -0.63365745145E+01 -0.55084097589E+01  0.23091202374E+02  0.00000000000E+00 0.  1.
          2    1    1    2  502    0 -0.21510668805E+02  0.63365745145E+01 -0.17399312298E+03  0.17543223163E+03  0.00000000000E+00 0. -1.
</event>
<event>
 4    1  0.6225520E+003  0.2182095E+02  0.7546771E-02  0.1507859E+00
          2   -1    0    0  501    0  0.00000000000E+00  0.00000000000E+00  0.46677088018E+01  0.46677088018E+01  0.00000000000E+00 0. -1.
          2   -1    0    0  502    0 -0.00000000000E+00 -0.00000000000E+00 -0.26610623601E+03  0.26610623601E+03  0.00000000000E+00 0. -1.
          2    1    1    2  501    0  0.15793280715E+02  0.15057427177E+02 -0.24403315130E+02  0.32736457020E+02  0.00000000000E+00 0. -1.
          2    1    1    2  502    0 -0.15793280715E+02 -0.15057427177E+02 -0.23703521208E+03  0.23803748780E+03  0.00000000000E+00 0. -1.
</event>
<event>
 4    1  0.6225520E+003  0.2145392E+02  0.7546771E-02  0.1512882E+00
          2   -1    0    0  502    0  0.00000000000E+00  0.00000000000E+00  0.66196825454E+02  0.66196825454E+02  0.00000000000E+00 0. -1.
          2   -1    0    0  501    0 -0.00000000000E+00 -0.00000000000E+00 -0.25333460746E+03  0.25333460746E+03  0.00000000000E+00 0.  1.
          2    1    1    2  501    0 -0.21358765054E+02 -0.20183878783E+01  0.63989093473E+02  0.67489812696E+02  0.00000000000E+00 0. -1.
          2    1    1    2  502    0  0.21358765054E+02  0.20183878783E+01 -0.25112687547E+03  0.25204162021E+03  0.00000000000E+00 0.  1.
</event>
<event>
 4    1  0.6225520E+003  0.2870186E+02  0.7546771E-02  0.1431223E+00
          2   -1    0    0  502    0  0.00000000000E+00  0.00000000000E+00  0.20673795277E+03  0.20673795277E+03  0.00000000000E+00 0.  1.
          2   -1    0    0  501    0 -0.00000000000E+00 -0.00000000000E+00 -0.12905645016E+02  0.12905645016E+02  0.00000000000E+00 0. -1.
          2    1    1    2  501    0  0.71308305154E+01 -0.27801938317E+02  0.18822297204E+03  0.19039874926E+03  0.00000000000E+00 0.  1.
          2    1    1    2  502    0 -0.71308305154E+01  0.27801938317E+02  0.56093357167E+01  0.29244848524E+02  0.00000000000E+00 0. -1.
</event>
<event>
 4    1  0.6225520E+003  0.2836655E+02  0.7546771E-02  0.1434344E+00
          2   -1    0    0  501    0  0.00000000000E+00  0.00000000000E+00  0.52470367781E+02  0.52470367781E+02  0.00000000000E+00 0.  1.
          2   -1    0    0  502    0 -0.00000000000E+00 -0.00000000000E+00 -0.17295760602E+03  0.17295760602E+03  0.00000000000E+00 0. -1.
          2    1    1    2  501    0  0.17576925912E+01  0.28312037607E+02 -0.16784466663E+03  0.17022483095E+03  0.00000000000E+00 0. -1.
          2    1    1    2  502    0 -0.17576925912E+01 -0.28312037607E+02  0.47357428391E+02  0.55203142850E+02  0.00000000000E+00 0.  1.
</event>
<event>
 4    1  0.6225520E+003  0.6220526E+02  0.7546771E-02  0.1252518E+00
          2   -1    0    0  501    0  0.00000000000E+00  0.00000000000E+00  0.15591017535E+04  0.15591017535E+04  0.00000000000E+00 0.  1.
          2   -1    0    0  502    0 -0.00000000000E+00 -0.00000000000E+00 -0.47188053730E+01  0.47188053730E+01  0.00000000000E+00 0. -1.
          2    1    1    2  501    0  0.58301795580E+02 -0.21688598494E+02  0.23883841523E+03  0.24680616536E+03  0.00000000000E+00 0. -1.
          2    1    1    2  502    0 -0.58301795580E+02  0.21688598494E+02  0.13155445329E+04  0.13170143935E+04  0.00000000000E+00 0.  1.
</event>
<event>
 4    1  0.6225520E+003  0.2503020E+02  0.7546771E-02  0.1468466E+00
          2   -1    0    0  501    0  0.00000000000E+00  0.00000000000E+00  0.12487280182E+02  0.12487280182E+02  0.00000000000E+00 0. -1.
          2   -1    0    0  502    0 -0.00000000000E+00 -0.00000000000E+00 -0.15468454241E+04  0.15468454241E+04  0.00000000000E+00 0. -1.
          2    1    1    2  501    0 -0.24555708011E+02 -0.48505763793E+01 -0.15340969603E+04  0.15343011421E+04  0.00000000000E+00 0. -1.
          2    1    1    2  502    0  0.24555708011E+02  0.48505763793E+01 -0.26118354065E+00  0.25031562156E+02  0.00000000000E+00 0. -1.
</event>
<event>
 4    1  0.6225520E+003  0.3689086E+02  0.7546771E-02  0.1367736E+00
          2   -1    0    0  502    0  0.00000000000E+00  0.00000000000E+00  0.12180870682E+03  0.12180870682E+03  0.00000000000E+00 0. -1.
          2   -1    0    0  501    0 -0.00000000000E+00 -0.00000000000E+00 -0.15133627797E+03  0.15133627797E+03  0.00000000000E+00 0. -1.
          2    1    1    2  501    0 -0.16601516373E+02 -0.32944271818E+02  0.11667067806E+03  0.12236413899E+03  0.00000000000E+00 0. -1.
          2    1    1    2  502    0  0.16601516373E+02  0.32944271818E+02 -0.14619824921E+03  0.15078084581E+03  0.00000000000E+00 0. -1.
</event>
<event>
 4    1  0.6225520E+003  0.4260533E+02  0.7546771E-02  0.1333860E+00
          2   -1    0    0  501    0  0.00000000000E+00  0.00000000000E+00  0.67359326271E+01  0.67359326271E+01  0.00000000000E+00 0. -1.
          2   -1    0    0  502    0 -0.00000000000E+00 -0.00000000000E+00 -0.43251047228E+03  0.43251047228E+03  0.00000000000E+00 0.  1.
          2    1    1    2  501    0  0.38776821912E+02 -0.17651417800E+02 -0.34772494798E+03  0.35032535438E+03  0.00000000000E+00 0. -1.
          2    1    1    2  502    0 -0.38776821912E+02  0.17651417800E+02 -0.78049591668E+02  0.88921050530E+02  0.00000000000E+00 0.  1.
</event>
<event>
 4    1  0.6225520E+003  0.2575029E+02  0.7546771E-02  0.1460582E+00
          2   -1    0    0  501    0  0.00000000000E+00  0.00000000000E+00  0.18147410106E+02  0.18147410106E+02  0.00000000000E+00 0. -1.
          2   -1    0    0  502    0 -0.00000000000E+00 -0.00000000000E+00 -0.14432428954E+03  0.14432428954E+03  0.00000000000E+00 0. -1.
          2    1    1    2  501    0 -0.12672442590E+02  0.22416214742E+02  0.71150905717E+01  0.26715201635E+02  0.00000000000E+00 0. -1.
          2    1    1    2  502    0  0.12672442590E+02 -0.22416214742E+02 -0.13329197000E+03  0.13575649801E+03  0.00000000000E+00 0. -1.
</event>
<event>
 4    1  0.6225520E+003  0.2169047E+02  0.7546771E-02  0.1509631E+00
          2   -1    0    0  501    0  0.00000000000E+00  0.00000000000E+00  0.36250571351E+00  0.36250571351E+00  0.00000000000E+00 0.  1.
          2   -1    0    0  502    0 -0.00000000000E+00 -0.00000000000E+00 -0.14451266267E+04  0.14451266267E+04  0.00000000000E+00 0.  1.
          2    1    1    2  501    0  0.18814433822E+01 -0.21608712880E+02 -0.95311301875E+03  0.95335979714E+03  0.00000000000E+00 0.  1.
          2    1    1    2  502    0 -0.18814433822E+01  0.21608712880E+02 -0.49165110227E+03  0.49212933530E+03  0.00000000000E+00 0.  1.
</event>
<event>
 4    1  0.6225520E+003  0.2212709E+02  0.7546771E-02  0.1503760E+00
          2   -1    0    0  501    0  0.00000000000E+00  0.00000000000E+00  0.45970471788E+03  0.45970471788E+03  0.00000000000E+00 0. -1.
          2   -1    0    0  502    0 -0.00000000000E+00 -0.00000000000E+00 -0.67388514408E+01  0.67388514408E+01  0.00000000000E+00 0.  1.
          2    1    1    2  501    0  0.72064230576E+01 -0.20920694231E+02  0.12483174425E+02  0.25405464454E+02  0.00000000000E+00 0.  1.
          2    1    1    2  502    0 -0.72064230576E+01  0.20920694231E+02  0.44048269201E+03  0.44103810487E+03  0.00000000000E+00 0. -1.
</event>
<event>
 4    1  0.6225520E+003  0.4437245E+02  0.7546771E-02  0.1324607E+00
          2   -1    0    0  501    0  0.00000000000E+00  0.00000000000E+00  0.12699773448E+01  0.12699773448E+01  0.00000000000E+00 0.  1.
          2   -1    0    0  502    0 -0.00000000000E+00 -0.00000000000E+00 -0.17106223255E+04  0.17106223255E+04  0.00000000000E+00 0.  1.
          2    1    1    2  501    0  0.17092285407E+01 -0.44339520871E+02 -0.59268111521E+03  0.59433981769E+03  0.00000000000E+00 0.  1.
          2    1    1    2  502    0 -0.17092285407E+01  0.44339520871E+02 -0.11166712329E+04  0.11175524851E+04  0.00000000000E+00 0.  1.
</event>
<event>
 4    1  0.6225520E+003  0.3808637E+02  0.7546771E-02  0.1360080E+00
          2   -1    0    0  502    0  0.00000000000E+00  0.00000000000E+00  0.56167697416E+03  0.56167697416E+03  0.00000000000E+00 0. -1.
          2   -1    0    0  501    0 -0.00000000000E+00 -0.00000000000E+00 -0.60863369337E+02  0.60863369337E+02  0.00000000000E+00 0. -1.
          2    1    1    2  501    0 -0.35051234822E+02 -0.14899083317E+02  0.55500143686E+03  0.55630671996E+03  0.00000000000E+00 0. -1.
          2    1    1    2  502    0  0.35051234822E+02  0.14899083317E+02 -0.54187832041E+02  0.66233623542E+02  0.00000000000E+00 0. -1.
</event>
<event>
 4    1  0.6225520E+003  0.3486792E+02  0.7546771E-02  0.1381494E+00
          2   -1    0    0  501    0  0.00000000000E+00  0.00000000000E+00  0.89082268398E+03  0.89082268398E+03  0.00000000000E+00 0.  1.
          2   -1    0    0  502    0 -0.00000000000E+00 -0.00000000000E+00 -0.41266551796E+01  0.41266551796E+01  0.00000000000E+00 0.  1.
          2    1    1    2  501    0 -0.46218474841E+01  0.34560242414E+02  0.77271520069E+02  0.84774168493E+02  0.00000000000E+00 0.  1.
          2    1    1    2  502    0  0.46218474841E+01 -0.34560242414E+02  0.80942450873E+03  0.81017517067E+03  0.00000000000E+00 0.  1.
</event>
<event>
 4    1  0.6225520E+003  0.2190523E+02  0.7546771E-02  0.1506723E+00
          2   -1    0    0  501    0  0.00000000000E+00  0.00000000000E+00  0.95234678181E+02  0.95234678181E+02  0.00000000000E+00 0. -1.
          2   -1    0    0  502    0 -0.00000000000E+00 -0.00000000000E+00 -0.46770135214E+02  0.46770135214E+02  0.00000000000E+00 0. -1.
          2    1    1    2  501    0 -0.17366741376E+01  0.21836279446E+02 -0.42836677609E+02  0.48112577209E+02  0.00000000000E+00 0. -1.
          2    1    1    2  502    0  0.17366741376E+01 -0.21836279446E+02  0.91301220576E+02  0.93892236185E+02  0.00000000000E+00 0. -1.
</event>
<event>
 4    1  0.6225520E+003  0.2887792E+02  0.7546771E-02  0.1429604E+00
          2   -1    0    0  501    0  0.00000000000E+00  0.00000000000E+00  0.75367902018E+02  0.75367902018E+02  0.00000000000E+00 0.  1.
          2   -1    0    0  502    0 -0.00000000000E+00 -0.00000000000E+00 -0.72697896783E+03  0.72697896783E+03  0.00000000000E+00 0.  1.
          2    1    1    2  501    0  0.18508248336E+02  0.22167073344E+02 -0.72391426886E+03  0.72449002964E+03  0.00000000000E+00 0.  1.
          2    1    1    2  502    0 -0.18508248336E+02 -0.22167073344E+02  0.72303203041E+02  0.77856840208E+02  0.00000000000E+00 0.  1.
</event>
<event>
 4    1  0.6225520E+003  0.2250742E+02  0.7546771E-02  0.1498778E+00
          2   -1    0    0  502    0  0.00000000000E+00  0.00000000000E+00  0.91974729264E+00  0.91974729264E+00  0.00000000000E+00 0. -1.
          2   -1    0    0  501    0 -0.00000000000E+00 -0.00000000000E+00 -0.17464509734E+04  0.17464509734E+04  0.00000000000E+00 0.  1.
          2    1    1    2  501    0  0.18207389339E+02  0.13231594363E+02 -0.14986003381E+03  0.15154079929E+03  0.00000000000E+00 0. -1.
          2    1    1    2  502    0 -0.18207389339E+02 -0.13231594363E+02 -0.15956711923E+04  0.15958299214E+04  0.00000000000E+00 0.  1.
</event>
<event>
 4    1  0.6225520E+003  0.2385491E+02  0.7546771E-02  0.1482033E+00
          2   -1    0    0  502    0  0.00000000000E+00  0.00000000000E+00  0.83038651786E+03  0.83038651786E+03  0.00000000000E+00 0. -1.
          2   -1    0    0  501    0 -0.00000000000E+00 -0.00000000000E+00 -0.38465826109E+01  0.38465826109E+01  0.00000000000E+00 0.  1.
          2    1    1    2  501    0  0.27923309482E+01 -0.23690920902E+02  0.79140954389E+03  0.79176898335E+03  0.00000000000E+00 0. -1.
          2    1    1    2  502    0 -0.27923309482E+01  0.23690920902E+02  0.35130391364E+02  0.42464117119E+02  0.00000000000E+00 0.  1.
</event>
<event>
 4    1  0.6225520E+003  0.2037036E+02  0.7546771E-02  0.1528447E+00
          2   -1    0    0  502    0  0.00000000000E+00  0.00000000000E+00  0.42740636360E+03  0.42740636360E+03  0.00000000000E+00 0. -1.
          2   -1    0    0  501    0 -0.00000000000E+00 -0.00000000000E+00 -0.18080795169E+01  0.18080795169E+01  0.00000000000E+00 0.  1.
          2    1    1    2  501    0  0.10497720364E+02  0.17457078350E+02  0.35883357067E+03  0.35941130082E+03  0.00000000000E+00 0. -1.
          2    1    1    2  502    0 -0.10497720364E+02 -0.17457078350E+02  0.66764713410E+02  0.69803142294E+02  0.00000000000E+00 0.  1.
</event>
<event>
 4    1  0.6225520E+003  0.3108785E+02  0.7546771E-02  0.1410373E+00
          2   -1    0    0  502    0  0.00000000000E+00  0.00000000000E+00  0.23072261827E+02  0.23072261827E+02  0.00000000000E+00 0.  1.
          2   -1    0    0  501    0 -0.00000000000E+00 -0.00000000000E+00 -0.26809738243E+03  0.26809738243E+03  0.00000000000E+00 0. -1.
          2    1    1    2  501    0  0.28539805272E+02 -0.12326144897E+02  0.11216248974E+02  0.33049335456E+02  0.00000000000E+00 0.  1.
          2    1    1    2  502    0 -0.28539805272E+02  0.12326144897E+02 -0.25624136958E+03  0.25812030880E+03  0.00000000000E+00 0. -1.
</event>
<event>
 4    1  0.6225520E+003  0.2337456E+02  0.7546771E-02  0.1487848E+00
          2   -1    0    0  502    0  0.00000000000E+00  0.00000000000E+00  0.18741499283E+03  0.18741499283E+03  0.00000000000E+00 0. -1.
          2   -1    0    0  501    0 -0.00000000000E+00 -0.00000000000E+00 -0.61948294410E+03  0.61948294410E+03  0.00000000000E+00 0.  1.
          2    1    1    2  501    0  0.57681221025E+01  0.22651682942E+02  0.18646455523E+03  0.18792392166E+03  0.00000000000E+00 0. -1.
          2    1    1    2  502    0 -0.57681221025E+01 -0.22651682942E+02 -0.61853250651E+03  0.61897401527E+03  0.00000000000E+00 0.  1.
</event>
<event>
 4    1  0.6225520E+003  0.2056567E+02  0.7546771E-02  0.1525557E+00
          2   -1    0    0  501    0  0.00000000000E+00  0.00000000000E+00  0.29206464261E+03  0.29206464261E+03  0.00000000000E+00 0.  1.
          2   -1    0    0  502    0 -0.00000000000E+00 -0.00000000000E+00 -0.39594621062E+01  0.39594621062E+01  0.00000000000E+00 0. -1.
          2    1    1    2  501    0  0.19544727225E+02 -0.63992471913E+01  0.26174983590E+02  0.33287782937E+02  0.00000000000E+00 0. -1.
          2    1    1    2  502    0 -0.19544727225E+02  0.63992471913E+01  0.26193019691E+03  0.26273632177E+03  0.00000000000E+00 0.  1.
</event>
<event>
 4    1  0.6225520E+003  0.8774851E+02  0.7546771E-02  0.1186918E+00
          2   -1    0    0  501    0  0.00000000000E+00  0.00000000000E+00  0.49821796831E+02  0.49821796831E+02  0.00000000000E+00 0.  1.
          2   -1    0    0  502    0 -0.00000000000E+00 -0.00000000000E+00 -0.41786091146E+03  0.41786091146E+03  0.00000000000E+00 0. -1.
          2    1    1    2  501    0 -0.74734583506E+02 -0.45984167337E+02 -0.36964712411E+03  0.37991946249E+03  0.00000000000E+00 0. -1.
          2    1    1    2  502    0  0.74734583506E+02  0.45984167337E+02  0.16080094882E+01  0.87763245792E+02  0.00000000000E+00 0.  1.
</event>
<event>
 4    1  0.6225520E+003  0.2079668E+02  0.7546771E-02  0.1522188E+00
          2   -1    0    0  501    0  0.00000000000E+00  0.00000000000E+00  0.95047020694E+03  0.95047020694E+03  0.00000000000E+00 0.  1.
          2   -1    0    0  502    0 -0.00000000000E+00 -0.00000000000E+00 -0.58967687291E+00  0.58967687291E+00  0.00000000000E+00 0.  1.
          2    1    1    2  501    0  0.10800066433E+02  0.17772458472E+02  0.24771676316E+03  0.24858820661E+03  0.00000000000E+00 0.  1.
          2    1    1    2  502    0 -0.10800066433E+02 -0.17772458472E+02  0.70216376692E+03  0.70247167721E+03  0.00000000000E+00 0.  1.
</event>
<event>
 4    1  0.6225520E+003  0.3001241E+02  0.7546771E-02  0.1419489E+00
          2   -1    0    0  501    0  0.00000000000E+00  0.00000000000E+00  0.10743552833E+03  0.10743552833E+03  0.00000000000E+00 0. -1.
          2   -1    0    0  502    0 -0.00000000000E+00 -0.00000000000E+00 -0.27506437399E+03  0.27506437399E+03  0.00000000000E+00 0. -1.
          2    1    1    2  501    0  0.18112170043E+02  0.23931027759E+02 -0.27212713917E+03  0.27377714417E+03  0.00000000000E+00 0. -1.
          2    1    1    2  502    0 -0.18112170043E+02 -0.23931027759E+02  0.10449829351E+03  0.10872275815E+03  0.00000000000E+00 0. -1.
</event>
<event>
 4    1  0.6225520E+003  0.2647413E+02  0.7546771E-02  0.1452963E+00
          2   -1    0    0  501    0  0.00000000000E+00  0.00000000000E+00  0.22982213129E+01  0.22982213129E+01  0.00000000000E+00 0. -1.
          2   -1    0    0  502    0 -0.00000000000E+00 -0.00000000000E+00 -0.10529239541E+04  0.10529239541E+04  0.00000000000E+00 0.  1.
          2    1    1    2  501    0  0.23111287607E+02  0.12913099544E+02 -0.96999937481E+03  0.97036058602E+03  0.00000000000E+00 0.  1.
          2    1    1    2  502    0 -0.23111287607E+02 -0.12913099544E+02 -0.80626357952E+02  0.84861589375E+02  0.00000000000E+00 0. -1.
</event>
<event>
 4    1  0.6225520E+003  0.4497018E+02  0.7546771E-02  0.1321589E+00
          2   -1    0    0  501    0  0.00000000000E+00  0.00000000000E+00  0.32945532918E+03  0.32945532918E+03  0.00000000000E+00 0. -1.
          2   -1    0    0  502    0 -0.00000000000E+00 -0.00000000000E+00 -0.38303312423E+03  0.38303312423E+03  0.00000000000E+00 0. -1.
          2    1    1    2  501    0 -0.52766339592E+01  0.44659535251E+02 -0.38016706799E+03  0.38281760218E+03  0.00000000000E+00 0. -1.
          2    1    1    2  502    0  0.52766339592E+01 -0.44659535251E+02  0.32658927294E+03  0.32967085123E+03  0.00000000000E+00 0. -1.
</event>
<event>
 4    1  0.6225520E+003  0.2384278E+02  0.7546771E-02  0.1482178E+00
          2   -1    0    0  501    0  0.00000000000E+00  0.00000000000E+00  0.70861414192E+00  0.70861414192E+00  0.00000000000E+00 0. -1.
          2   -1    0    0  502    0 -0.00000000000E+00 -0.00000000000E+00 -0.15305040462E+04  0.15305040462E+04  0.00000000000E+00 0. -1.
          2    1    1    2  501    0 -0.10237575418E+02 -0.21533006491E+02 -0.12930179798E+04  0.12932377873E+04  0.00000000000E+00 0. -1.
          2    1    1    2  502    0  0.10237575418E+02  0.21533006491E+02 -0.23677745223E+03  0.23797487305E+03  0.00000000000E+00 0. -1.
</event>
<event>
 4    1  0.6225520E+003  0.2326306E+02  0.7546771E-02  0.1489221E+00
          2   -1    0    0  501    0  0.00000000000E+00  0.00000000000E+00  0.21834140979E+01  0.21834140979E+01  0.00000000000E+00 0.  1.
          2   -1    0    0  502    0 -0.00000000000E+00 -0.00000000000E+00 -0.83884895575E+03  0.83884895575E+03  0.00000000000E+00 0. -1.
          2    1    1    2  501    0 -0.12613687715E+02 -0.19546479167E+02 -0.77129836504E+03  0.77164910282E+03  0.00000000000E+00 0. -1.
          2    1    1    2  502    0  0.12613687715E+02  0.19546479167E+02 -0.65367176612E+02  0.69383267030E+02  0.00000000000E+00 0.  1.
</event>
<event>
 4    1  0.6225520E+003  0.2012239E+02  0.7546771E-02  0.1532173E+00
          2   -1    0    0  501    0  0.00000000000E+00  0.00000000000E+00  0.76147661334E+03  0.76147661334E+03  0.00000000000E+00 0. -1.
          2   -1    0    0  502    0 -0.00000000000E+00 -0.00000000000E+00 -0.83535080585E+00  0.83535080585E+00  0.00000000000E+00 0. -1.
          2    1    1    2  501    0 -0.18520639781E+02 -0.78674305903E+01  0.15053434916E+03  0.15187330522E+03  0.00000000000E+00 0. -1.
          2    1    1    2  502    0  0.18520639781E+02  0.78674305903E+01  0.61010691338E+03  0.61043865893E+03  0.00000000000E+00 0. -1.
</event>
<event>
 4    1  0.6225520E+003  0.2924264E+02  0.7546771E-02  0.1426294E+00
          2   -1    0    0  502    0  0.00000000000E+00  0.00000000000E+00  0.17746148142E+04  0.17746148142E+04  0.00000000000E+00 0. -1.
          2   -1    0    0  501    0 -0.00000000000E+00 -0.00000000000E+00 -0.49539409747E+00  0.49539409747E+00  0.00000000000E+00 0. -1.
          2    1    1    2  501    0 -0.16910856014E+02 -0.23856973151E+02  0.10337113483E+04  0.10341248879E+04  0.00000000000E+00 0. -1.
          2    1    1    2  502    0  0.16910856014E+02  0.23856973151E+02  0.74040807184E+03  0.74098532041E+03  0.00000000000E+00 0. -1.
</event>
<event>
 4    1  0.6225520E+003  0.2065453E+02  0.7546771E-02  0.1524255E+00
          2   -1    0    0  501    0  0.00000000000E+00  0.00000000000E+00  0.58703437363E+03  0.58703437363E+03  0.00000000000E+00 0.  1.
          2   -1    0    0  502    0 -0.00000000000E+00 -0.00000000000E+00 -0.18579514432E+03  0.18579514432E+03  0.00000000000E+00 0.  1.
          2    1    1    2  501    0  0.13107940134E+02  0.15962184402E+02 -0.18503869199E+03  0.18618788080E+03  0.00000000000E+00 0.  1.
          2    1    1    2  502    0 -0.13107940134E+02 -0.15962184402E+02  0.58627792130E+03  0.58664163714E+03  0.00000000000E+00 0.  1.
</event>
<event>
 4    1  0.6225520E+003  0.2292727E+02  0.7546771E-02  0.1493413E+00
          2   -1    0    0  502    0  0.00000000000E+00  0.00000000000E+00  0.98626586698E+03  0.98626586698E+03  0.00000000000E+00 0.  1.
          2   -1    0    0  501    0 -0.00000000000E+00 -0.00000000000E+00 -0.19751031876E+02  0.19751031876E+02  0.00000000000E+00 0.  1.
          2    1    1    2  501    0 -0.15966602546E+02 -0.16453795180E+02  0.97943263470E+03  0.97970094707E+03  0.00000000000E+00 0.  1.
          2    1    1    2  502    0  0.15966602546E+02  0.16453795180E+02 -0.12917799587E+02  0.26315951795E+02  0.00000000000E+00 0.  1.
</event>
<event>
 4    1  0.6225520E+003  0.2132884E+02  0.7546771E-02  0.1514621E+00
          2   -1    0    0  502    0  0.00000000000E+00  0.00000000000E+00  0.10636084942E+01  0.10636084942E+01  0.00000000000E+00 0. -1.
          2   -1    0    0  501    0 -0.00000000000E+00 -0.00000000000E+00 -0.12798800238E+04  0.12798800238E+04  0.00000000000E+00 0.  1.
          2    1    1    2  501    0  0.34778011046E+01  0.21043394524E+02 -0.11679826763E+03  0.11872975565E+03  0.00000000000E+00 0. -1.
          2    1    1    2  502    0 -0.34778011046E+01 -0.21043394524E+02 -0.11620181477E+04  0.11622138766E+04  0.00000000000E+00 0.  1.
</event>
<event>
 4    1  0.6225520E+003  0.2918372E+02  0.7546771E-02  0.1426825E+00
          2   -1    0    0  501    0  0.00000000000E+00  0.00000000000E+00  0.58909230426E+03  0.58909230426E+03  0.00000000000E+00 0.  1.
          2   -1    0    0  502    0 -0.00000000000E+00 -0.00000000000E+00 -0.17271919750E+02  0.17271919750E+02  0.00000000000E+00 0.  1.
          2    1    1    2  501    0  0.25674451867E+02  0.13874862927E+02 -0.43055498507E+01  0.29499611175E+02  0.00000000000E+00 0.  1.
          2    1    1    2  502    0 -0.25674451867E+02 -0.13874862927E+02  0.57612593436E+03  0.57686461284E+03  0.00000000000E+00 0.  1.
</event>
<event>
 4    1  0.6225520E+003  0.2079237E+02  0.7546771E-02  0.1522250E+00
          2   -1    0    0  502    0  0.00000000000E+00  0.00000000000E+00  0.16752322660E+03  0.16752322660E+03  0.00000000000E+00 0.  1.
          2   -1    0    0  501    0 -0.00000000000E+00 -0.00000000000E+00 -0.26335313167E+01  0.26335313167E+01  0.00000000000E+00 0.  1.
          2    1    1    2  501    0  0.19853593321E+02 -0.61771812767E+01  0.94498119350E+02  0.96758551544E+02  0.00000000000E+00 0.  1.
          2    1    1    2  502    0 -0.19853593321E+02  0.61771812767E+01  0.70391575930E+02  0.73398206369E+02  0.00000000000E+00 0.  1.
</event>
<event>
 4    1  0.6225520E+003  0.2615607E+02  0.7546771E-02  0.1456275E+00
          2   -1    0    0  502    0  0.00000000000E+00  0.00000000000E+00  0.11328791215E+03  0.11328791215E+03  0.00000000000E+00 0.  1.
          2   -1    0    0  501    0 -0.00000000000E+00 -0.00000000000E+00 -0.10041360227E+02  0.10041360227E+02  0.00000000000E+00 0.  1.
          2    1    1    2  501    0  0.15400385149E+02  0.21141623782E+02  0.90554733239E+02  0.94256563861E+02  0.00000000000E+00 0.  1.
          2    1    1    2  502    0 -0.15400385149E+02 -0.21141623782E+02  0.12691818683E+02  0.29072708515E+02  0.00000000000E+00 0.  1.
</event>
<event>
 4    1  0.6225520E+003  0.2228498E+02  0.7546771E-02  0.1501677E+00
          2   -1    0    0  502    0  0.00000000000E+00  0.00000000000E+00  0.19208085026E+03  0.19208085026E+03  0.00000000000E+00 0. -1.
          2   -1    0    0  501    0 -0.00000000000E+00 -0.00000000000E+00 -0.12969379817E+03  0.12969379817E+03  0.00000000000E+00 0. -1.
          2    1    1    2  501    0 -0.90883262731E+01  0.20347548277E+02  0.19046911425E+03  0.19176835995E+03  0.00000000000E+00 0. -1.
          2    1    1    2  502    0  0.90883262731E+01 -0.20347548277E+02 -0.12808206216E+03  0.13000628847E+03  0.00000000000E+00 0. -1.
</event>
<event>
 4    1  0.6225520E+003  0.2494391E+02  0.7546771E-02  0.1469432E+00
          2   -1    0    0  501    0  0.00000000000E+00  0.00000000000E+00  0.14071265753E+04  0.14071265753E+04  0.00000000000E+00 0.  1.
          2   -1    0    0  502    0 -0.00000000000E+00 -0.00000000000E+00 -0.21040709101E+02  0.21040709101E+02  0.00000000000E+00 0.  1.
          2    1    1    2  501    0  0.24012153367E+02  0.67539067275E+01 -0.13497526894E+02  0.28361628967E+02  0.00000000000E+00 0.  1.
          2    1    1    2  502    0 -0.24012153367E+02 -0.67539067275E+01  0.13995833931E+04  0.13998056555E+04  0.00000000000E+00 0.  1.
</event>
<event>
 4    1  0.6225520E+003  0.2726170E+02  0.7546771E-02  0.1444997E+00
          2   -1    0    0  502    0  0.00000000000E+00  0.00000000000E+00  0.19977763293E+04  0.19977763293E+04  0.00000000000E+00 0.  1.
          2   -1    0    0  501    0 -0.00000000000E+00 -0.00000000000E+00 -0.11667804778E+01  0.11667804778E+01  0.00000000000E+00 0. -1.
          2    1    1    2  501    0 -0.27133714020E+02 -0.26384891715E+01  0.18231941840E+04  0.18233979907E+04  0.00000000000E+00 0.  1.
          2    1    1    2  502    0  0.27133714020E+02  0.26384891715E+01  0.17341536479E+03  0.17554511901E+03  0.00000000000E+00 0. -1.
</event>
<event>
 4    1  0.6225520E+003  0.2381636E+02  0.7546771E-02  0.1482494E+00
          2   -1    0    0  501    0  0.00000000000E+00  0.00000000000E+00  0.68721641778E+02  0.68721641778E+02  0.00000000000E+00 0.  1.
          2   -1    0    0  502    0 -0.00000000000E+00 -0.00000000000E+00 -0.17485826473E+03  0.17485826473E+03  0.00000000000E+00 0. -1.
          2    1    1    2  501    0 -0.17922054305E+02 -0.15684993544E+02 -0.17194908347E+03  0.17359062866E+03  0.00000000000E+00 0. -1.
          2    1    1    2  502    0  0.17922054305E+02  0.15684993544E+02  0.65812460522E+02  0.69989277843E+02  0.00000000000E+00 0.  1.
</event>
<event>
 4    1  0.6225520E+003  0.3224714E+02  0.7546771E-02  0.1401023E+00
          2   -1    0    0  501    0  0.00000000000E+00  0.00000000000E+00  0.12095983844E+03  0.12095983844E+03  0.00000000000E+00 0. -1.
          2   -1    0    0  502    0 -0.00000000000E+00 -0.00000000000E+00 -0.34589040857E+02  0.34589040857E+02  0.00000000000E+00 0.  1.
          2    1    1    2  501    0  0.14609769785E+02 -0.28747746923E+02 -0.24234601092E+02  0.40338495466E+02  0.00000000000E+00 0.  1.
          2    1    1    2  502    0 -0.14609769785E+02  0.28747746923E+02  0.11060539867E+03  0.11521038383E+03  0.00000000000E+00 0. -1.
</event>
<event>
 4    1  0.6225520E+003  0.2818429E+02  0.7546771E-02  0.1436061E+00
          2   -1    0    0  502    0  0.00000000000E+00  0.00000000000E+00  0.41320516690E+02  0.41320516690E+02  0.00000000000E+00 0.  1.
          2   -1    0    0  501    0 -0.00000000000E+00 -0.00000000000E+00 -0.17115106550E+03  0.17115106550E+03  0.00000000000E+00 0. -1.
          2    1    1    2  501    0  0.27103009565E+02  0.77318186977E+01  0.35176487040E+02  0.45074819892E+02  0.00000000000E+00 0.  1.
          2    1    1    2  502    0 -0.27103009565E+02 -0.77318186977E+01 -0.16500703585E+03  0.16739676230E+03  0.00000000000E+00 0. -1.
</event>
<event>
 4    1  0.6225520E+003  0.2226538E+02  0.7546771E-02  0.1501935E+00
          2   -1    0    0  501    0  0.00000000000E+00  0.00000000000E+00  0.60860968052E+00  0.60860968052E+00  0.00000000000E+00 0.  1.
          2   -1    0    0  502    0 -0.00000000000E+00 -0.00000000000E+00 -0.10051557702E+04  0.10051557702E+04  0.00000000000E+00 0. -1.
          2    1    1    2  501    0 -0.22010741729E+02  0.33577326711E+01 -0.72125633149E+03  0.72159991881E+03  0.00000000000E+00 0. -1.
          2    1    1    2  502    0  0.22010741729E+02 -0.33577326711E+01 -0.28329082901E+03  0.28416446105E+03  0.00000000000E+00 0.  1.
</event>
<event>
 4    1  0.6225520E+003  0.2026124E+02  0.7546771E-02  0.1530079E+00
          2   -1    0    0  501    0  0.00000000000E+00  0.00000000000E+00  0.20576998705E+03  0.20576998705E+03  0.00000000000E+00 0.  1.
          2   -1    0    0  502    0 -0.00000000000E+00 -0.00000000000E+00 -0.10704392036E+02  0.10704392036E+02  0.00000000000E+00 0.  1.
          2    1    1    2  501    0  0.14187427902E+02  0.14464952653E+02 -0.98395183855E-01  0.20261481865E+02  0.00000000000E+00 0.  1.
          2    1    1    2  502    0 -0.14187427902E+02 -0.14464952653E+02  0.19516399020E+03  0.19621289722E+03  0.00000000000E+00 0.  1.
</event>
<event>
 4    1  0.6225520E+003  0.2117642E+02  0.7546771E-02  0.1516761E+00
          2   -1    0    0  502    0  0.00000000000E+00  0.00000000000E+00  0.80727680987E+02  0.80727680987E+02  0.00000000000E+00 0. -1.
          2   -1    0    0  501    0 -0.00000000000E+00 -0.00000000000E+00 -0.28646947761E+02  0.28646947761E+02  0.00000000000E+00 0. -1.
          2    1    1    2  501    0  0.11767005226E+02  0.17606204654E+02  0.75139956660E+02  0.78066983681E+02  0.00000000000E+00 0. -1.
          2    1    1    2  502    0 -0.11767005226E+02 -0.17606204654E+02 -0.23059223433E+02  0.31307645067E+02  0.00000000000E+00 0. -1.
</event>
<event>
 4    1  0.6225520E+003  0.2129873E+02  0.7546771E-02  0.1515042E+00
          2   -1    0    0  502    0  0.00000000000E+00  0.00000000000E+00  0.20717848006E+03  0.20717848006E+03  0.00000000000E+00 0. -1.
          2   -1    0    0  501    0 -0.00000000000E+00 -0.00000000000E+00 -0.26274465428E+02  0.26274465428E+02  0.00000000000E+00 0. -1.
          2    1    1    2  501    0 -0.10240491084E+02 -0.18675340472E+02  0.20220897690E+03  0.20332758381E+03  0.00000000000E+00 0. -1.
          2    1    1    2  502    0  0.10240491084E+02  0.18675340472E+02 -0.21304962264E+02  0.30125361681E+02  0.00000000000E+00 0. -1.
</event>
<event>
 4    1  0.6225520E+003  0.2081298E+02  0.7546771E-02  0.1521952E+00
          2   -1    0    0  501    0  0.00000000000E+00  0.00000000000E+00  0.37670683538E+03  0.37670683538E+03  0.00000000000E+00 0. -1.
          2   -1    0    0  502    0 -0.00000000000E+00 -0.00000000000E+00 -0.26194137507E+01  0.26194137507E+01  0.00000000000E+00 0.  1.
          2    1    1    2  501    0  0.79850482501E+01 -0.19220282638E+02  0.44985713540E+02  0.49567072568E+02  0.00000000000E+00 0.  1.
          2    1    1    2  502    0 -0.79850482501E+01  0.19220282638E+02  0.32910170809E+03  0.32975917656E+03  0.00000000000E+00 0. -1.
</event>
<event>
 4    1  0.6225520E+003  0.2646671E+02  0.7546771E-02  0.1453040E+00
          2   -1    0    0  502    0  0.00000000000E+00  0.00000000000E+00  0.68820838581E+01  0.68820838581E+01  0.00000000000E+00 0.  1.
          2   -1    0    0  501    0 -0.00000000000E+00 -0.00000000000E+00 -0.51982533805E+03  0.51982533805E+03  0.00000000000E+00 0.  1.
          2    1    1    2  501    0 -0.26199876776E+02 -0.37487578969E+01 -0.20304045999E+02  0.33357772899E+02  0.00000000000E+00 0.  1.
          2    1    1    2  502    0  0.26199876776E+02  0.37487578969E+01 -0.49263920819E+03  0.49334964901E+03  0.00000000000E+00 0.  1.
</event>
<event>
 4    1  0.6225520E+003  0.2654685E+02  0.7546771E-02  0.1452214E+00
          2   -1    0    0  501    0  0.00000000000E+00  0.00000000000E+00  0.47406195553E+01  0.47406195553E+01  0.00000000000E+00 0.  1.
          2   -1    0    0  502    0 -0.00000000000E+00 -0.00000000000E+00 -0.25361082238E+03  0.25361082238E+03  0.00000000000E+00 0.  1.
          2    1    1    2  501    0  0.16467310372E+02  0.20822173685E+02 -0.20753341847E+03  0.20922441304E+03  0.00000000000E+00 0.  1.
          2    1    1    2  502    0 -0.16467310372E+02 -0.20822173685E+02 -0.41336784357E+02  0.49127028903E+02  0.00000000000E+00 0.  1.
</event>
<event>
 4    1  0.6225520E+003  0.2000817E+02  0.7546771E-02  0.1533911E+00
          2   -1    0    0  501    0  0.00000000000E+00  0.00000000000E+00  0.70530613380E+02  0.70530613380E+02  0.00000000000E+00 0.  1.
          2   -1    0    0  502    0 -0.00000000000E+00 -0.00000000000E+00 -0.14809498133E+02  0.14809498133E+02  0.00000000000E+00 0. -1.
          2    1    1    2  501    0 -0.19903033772E+02 -0.20484589172E+01 -0.56493505717E+01  0.20790432876E+02  0.00000000000E+00 0. -1.
          2    1    1    2  502    0  0.19903033772E+02  0.20484589172E+01  0.61370465819E+02  0.64549678637E+02  0.00000000000E+00 0.  1.
</event>
<event>
 4    1  0.6225520E+003  0.5173198E+02  0.7546771E-02  0.1290833E+00
          2   -1    0    0  501    0  0.00000000000E+00  0.00000000000E+00  0.13855408040E+02  0.13855408040E+02  0.00000000000E+00 0. -1.
          2   -1    0    0  502    0 -0.00000000000E+00 -0.00000000000E+00 -0.76052673238E+03  0.76052673238E+03  0.00000000000E+00 0. -1.
          2    1    1    2  501    0  0.37327197514E+02 -0.35817283976E+02 -0.70776406036E+03  0.70965214200E+03  0.00000000000E+00 0. -1.
          2    1    1    2  502    0 -0.37327197514E+02  0.35817283976E+02 -0.38907263986E+02  0.64729998428E+02  0.00000000000E+00 0. -1.
</event>
<event>
 4    1  0.6225520E+003  0.2155499E+02  0.7546771E-02  0.1511487E+00
          2   -1    0    0  502    0  0.00000000000E+00  0.00000000000E+00  0.10990516840E+04  0.10990516840E+04  0.00000000000E+00 0.  1.
          2   -1    0    0  501    0 -0.00000000000E+00 -0.00000000000E+00 -0.75957459230E+00  0.75957459230E+00  0.00000000000E+00 0. -1.
          2    1    1    2  501    0 -0.78777553486E+01  0.20063864082E+02  0.91533785715E+03  0.91559161770E+03  0.00000000000E+00 0.  1.
          2    1    1    2  502    0  0.78777553486E+01 -0.20063864082E+02  0.18295425227E+03  0.18421964091E+03  0.00000000000E+00 0. -1.
</event>
<event>
 4    1  0.6225520E+003  0.2051104E+02  0.7546771E-02  0.1526362E+00
          2   -1    0    0  502    0  0.00000000000E+00  0.00000000000E+00  0.39827258978E+03  0.39827258978E+03  0.00000000000E+00 0. -1.
          2   -1    0    0  501    0 -0.00000000000E+00 -0.00000000000E+00 -0.11353236035E+01  0.11353236035E+01  0.00000000000E+00 0. -1.
          2    1    1    2  501    0  0.56035843089E+01 -0.19730749928E+02  0.14588753882E+03  0.14732235619E+03  0.00000000000E+00 0. -1.
          2    1    1    2  502    0 -0.56035843089E+01  0.19730749928E+02  0.25124972736E+03  0.25208555720E+03  0.00000000000E+00 0. -1.
</event>
<event>
 4    1  0.6225520E+003  0.4324251E+02  0.7546771E-02  0.1330465E+00
          2   -1    0    0  502    0  0.00000000000E+00  0.00000000000E+00  0.19006564257E+04  0.19006564257E+04  0.00000000000E+00 0.  1.
          2   -1    0    0  501    0 -0.00000000000E+00 -0.00000000000E+00 -0.22584550278E+02  0.22584550278E+02  0.00000000000E+00 0.  1.
          2    1    1    2  501    0 -0.40432000606E+02  0.15335189022E+02  0.18794782132E+04  0.18799756032E+04  0.00000000000E+00 0.  1.
          2    1    1    2  502    0  0.40432000606E+02 -0.15335189022E+02 -0.14063377909E+01  0.43265372774E+02  0.00000000000E+00 0.  1.
</event>
<event>
 4    1  0.6225520E+003  0.2986726E+02  0.7546771E-02  0.1420754E+00
          2   -1    0    0  501    0  0.00000000000E+00  0.00000000000E+00  0.12318777116E+03  0.12318777116E+03  0.00000000000E+00 0.  1.
          2   -1    0    0  502    0 -0.00000000000E+00 -0.00000000000E+00 -0.81275950206E+02  0.81275950206E+02  0.00000000000E+00 0. -1.
          2    1    1    2  501    0  0.29831727907E+02 -0.14564337744E+01 -0.76615465265E+02  0.82231275723E+02  0.00000000000E+00 0. -1.
          2    1    1    2  502    0 -0.29831727907E+02  0.14564337744E+01  0.11852728622E+03  0.12223244564E+03  0.00000000000E+00 0.  1.
</event>
<event>
 4    1  0.6225520E+003  0.2401387E+02  0.7546771E-02  0.1480145E+00
          2   -1    0    0  502    0  0.00000000000E+00  0.00000000000E+00  0.29742037281E+03  0.29742037281E+03  0.00000000000E+00 0. -1.
          2   -1    0    0  501    0 -0.00000000000E+00 -0.00000000000E+00 -0.27808407035E+03  0.27808407035E+03  0.00000000000E+00 0.  1.
          2    1    1    2  501    0  0.38634118474E+01 -0.23701051910E+02  0.29641546767E+03  0.29738660913E+03  0.00000000000E+00 0. -1.
          2    1    1    2  502    0 -0.38634118474E+01  0.23701051910E+02 -0.27707916521E+03  0.27811783403E+03  0.00000000000E+00 0.  1.
</event>
<event>
 4    1  0.6225520E+003  0.2130867E+02  0.7546771E-02  0.1514903E+00
          2   -1    0    0  501    0  0.00000000000E+00  0.00000000000E+00  0.13593340660E+03  0.13593340660E+03  0.00000000000E+00 0.  1.
          2   -1    0    0  502    0 -0.00000000000E+00 -0.00000000000E+00 -0.48901890634E+03  0.48901890634E+03  0.00000000000E+00 0.  1.
          2    1    1    2  501    0 -0.19432283224E+02  0.87433187703E+01 -0.48794987336E+03  0.48841492419E+03  0.00000000000E+00 0.  1.
          2    1    1    2  502    0  0.19432283224E+02 -0.87433187703E+01  0.13486437363E+03  0.13653738875E+03  0.00000000000E+00 0.  1.
</event>
<event>
 4    1  0.6225520E+003  0.4206793E+02  0.7546771E-02  0.1336776E+00
          2   -1    0    0  501    0  0.00000000000E+00  0.00000000000E+00  0.83561793317E+02  0.83561793317E+02  0.00000000000E+00 0.  1.
          2   -1    0    0  502    0 -0.00000000000E+00 -0.00000000000E+00 -0.23175765631E+03  0.23175765631E+03  0.00000000000E+00 0.  1.
          2    1    1    2  501    0  0.47348072083E+01  0.41800628051E+02 -0.22438147996E+03  0.22829095351E+03  0.00000000000E+00 0.  1.
          2    1    1    2  502    0 -0.47348072083E+01 -0.41800628051E+02  0.76185616965E+02  0.87028496121E+02  0.00000000000E+00 0.  1.
</event>
<event>
 4    1  0.6225520E+003  0.2441046E+02  0.7546771E-02  0.1475508E+00
          2   -1    0    0  502    0  0.00000000000E+00  0.00000000000E+00  0.14768079173E+04  0.14768079173E+04  0.00000000000E+00 0. -1.
          2   -1    0    0  501    0 -0.00000000000E+00 -0.00000000000E+00 -0.48147023237E+01  0.48147023237E+01  0.00000000000E+00 0.  1.
          2    1    1    2  501    0  0.24406902865E+02 -0.41678940826E+00  0.14450877892E+04  0.14452939456E+04  0.00000000000E+00 0. -1.
          2    1    1    2  502    0 -0.24406902865E+02  0.41678940826E+00  0.26905425720E+02  0.36328673992E+02  0.00000000000E+00 0.  1.
</event>
<event>
 4    1  0.6225520E+003  0.2038750E+02  0.7546771E-02  0.1528192E+00
          2   -1    0    0  501    0  0.00000000000E+00  0.00000000000E+00  0.11759702946E+04  0.11759702946E+04  0.00000000000E+00 0.  1.
          2   -1    0    0  502    0 -0.00000000000E+00 -0.00000000000E+00 -0.29723731803E+03  0.29723731803E+03  0.00000000000E+00 0.  1.
          2    1    1    2  501    0 -0.10242155623E+02  0.17628061207E+02 -0.29679922985E+03  0.29749862711E+03  0.00000000000E+00 0.  1.
          2    1    1    2  502    0  0.10242155623E+02 -0.17628061207E+02  0.11755322064E+04  0.11757089855E+04  0.00000000000E+00 0.  1.
</event>
<event>
 4    1  0.6225520E+003  0.2532618E+02  0.7546771E-02  0.1465187E+00
          2   -1    0    0  501    0  0.00000000000E+00  0.00000000000E+00  0.15030938688E+04  0.15030938688E+04  0.00000000000E+00 0.  1.
          2   -1    0    0  502    0 -0.00000000000E+00 -0.00000000000E+00 -0.47626154578E+01  0.47626154578E+01  0.00000000000E+00 0.  1.
          2    1    1    2  501    0 -0.24573486707E+02 -0.61285371276E+01  0.29805842211E+02  0.39112701852E+02  0.00000000000E+00 0.  1.
          2    1    1    2  502    0  0.24573486707E+02  0.61285371276E+01  0.14685254112E+04  0.14687437824E+04  0.00000000000E+00 0.  1.
</event>
<event>
 4    1  0.6225520E+003  0.2212333E+02  0.7546771E-02  0.1503810E+00
          2   -1    0    0  502    0  0.00000000000E+00  0.00000000000E+00  0.91712727324E+02  0.91712727324E+02  0.00000000000E+00 0. -1.
          2   -1    0    0  501    0 -0.00000000000E+00 -0.00000000000E+00 -0.58413546284E+03  0.58413546284E+03  0.00000000000E+00 0. -1.
          2    1    1    2  501    0 -0.21918915929E+02  0.30004566116E+01  0.90165542406E+02  0.92840005670E+02  0.00000000000E+00 0. -1.
          2    1    1    2  502    0  0.21918915929E+02 -0.30004566116E+01 -0.58258827792E+03  0.58300818450E+03  0.00000000000E+00 0. -1.
</event>
<event>
 4    1  0.6225520E+003  0.2660618E+02  0.7546771E-02  0.1451605E+00
          2   -1    0    0  501    0  0.00000000000E+00  0.00000000000E+00  0.16489688405E+03  0.16489688405E+03  0.00000000000E+00 0. -1.
          2   -1    0    0  502    0 -0.00000000000E+00 -0.00000000000E+00 -0.12229170579E+04  0.12229170579E+04  0.00000000000E+00 0.  1.
          2    1    1    2  501    0  0.22378816497E+02 -0.14390184494E+02 -0.12216980444E+04  0.12219877252E+04  0.00000000000E+00 0.  1.
          2    1    1    2  502    0 -0.22378816497E+02  0.14390184494E+02  0.16367787057E+03  0.16582621673E+03  0.00000000000E+00 0. -1.
</event>
<event>
 4    1  0.6225520E+003  0.2045343E+02  0.7546771E-02  0.1527213E+00
          2   -1    0    0  501    0  0.00000000000E+00  0.00000000000E+00  0.36262707090E+03  0.36262707090E+03  0.00000000000E+00 0.  1.
          2   -1    0    0  502    0 -0.00000000000E+00 -0.00000000000E+00 -0.66212646295E+02  0.66212646295E+02  0.00000000000E+00 0. -1.
          2    1    1    2  501    0  0.20448460854E+02 -0.45085957542E+00 -0.64336484177E+02  0.67509451353E+02  0.00000000000E+00 0. -1.
          2    1    1    2  502    0 -0.20448460854E+02  0.45085957542E+00  0.36075090879E+03  0.36133026585E+03  0.00000000000E+00 0.  1.
</event>
<event>
 4    1  0.6225520E+003  0.2131694E+02  0.7546771E-02  0.1514788E+00
          2   -1    0    0  501    0  0.00000000000E+00  0.00000000000E+00  0.27626010467E+01  0.27626010467E+01  0.00000000000E+00 0.  1.
          2   -1    0    0  502    0 -0.00000000000E+00 -0.00000000000E+00 -0.54192691496E+03  0.54192691496E+03  0.00000000000E+00 0. -1.
          2    1    1    2  501    0 -0.71050521721E+01 -0.20098008681E+02 -0.49686812406E+03  0.49732518981E+03  0.00000000000E+00 0. -1.
          2    1    1    2  502    0  0.71050521721E+01  0.20098008681E+02 -0.42296189851E+02  0.47364326188E+02  0.00000000000E+00 0.  1.
</event>
<event>
 4    1  0.6225520E+003  0.1431563E+03  0.7546771E-02  0.1104845E+00
          2   -1    0    0  501    0  0.00000000000E+00  0.00000000000E+00  0.43900690793E+02  0.43900690793E+02  0.00000000000E+00 0. -1.
          2   -1    0    0  502    0 -0.00000000000E+00 -0.00000000000E+00 -0.52470325575E+03  0.52470325575E+03  0.00000000000E+00 0. -1.
          2    1    1    2  501    0  0.55026722664E+02  0.13215823617E+03 -0.33482863996E+03  0.36414826339E+03  0.00000000000E+00 0. -1.
          2    1    1    2  502    0 -0.55026722664E+02 -0.13215823617E+03 -0.14597392500E+03  0.20445568315E+03  0.00000000000E+00 0. -1.
</event>
<event>
 4    1  0.6225520E+003  0.2283317E+02  0.7546771E-02  0.1494604E+00
          2   -1    0    0  501    0  0.00000000000E+00  0.00000000000E+00  0.14126567257E+03  0.14126567257E+03  0.00000000000E+00 0. -1.
          2   -1    0    0  502    0 -0.00000000000E+00 -0.00000000000E+00 -0.15478860592E+02  0.15478860592E+02  0.00000000000E+00 0.  1.
          2    1    1    2  501    0 -0.13867109288E+02 -0.18139931126E+02 -0.55005842609E+01  0.23486384321E+02  0.00000000000E+00 0.  1.
          2    1    1    2  502    0  0.13867109288E+02  0.18139931126E+02  0.13128739623E+03  0.13325814884E+03  0.00000000000E+00 0. -1.
</event>
<event>
 4    1  0.6225520E+003  0.2426112E+02  0.7546771E-02  0.1477242E+00
          2   -1    0    0  501    0  0.00000000000E+00  0.00000000000E+00  0.49735498716E+00  0.49735498716E+00  0.00000000000E+00 0. -1.
          2   -1    0    0  502    0 -0.00000000000E+00 -0.00000000000E+00 -0.13287933700E+04  0.13287933700E+04  0.00000000000E+00 0. -1.
          2    1    1    2  501    0  0.23792168927E+02 -0.47470758253E+01 -0.88395273090E+03  0.88428560572E+03  0.00000000000E+00 0. -1.
          2    1    1    2  502    0 -0.23792168927E+02  0.47470758253E+01 -0.44434328408E+03  0.44500511923E+03  0.00000000000E+00 0. -1.
</event>
<event>
 4    1  0.6225520E+003  0.2031345E+02  0.7546771E-02  0.1529297E+00
          2   -1    0    0  501    0  0.00000000000E+00  0.00000000000E+00  0.28144036306E+01  0.28144036306E+01  0.00000000000E+00 0. -1.
          2   -1    0    0  502    0 -0.00000000000E+00 -0.00000000000E+00 -0.14685890208E+03  0.14685890208E+03  0.00000000000E+00 0.  1.
          2    1    1    2  501    0 -0.71383132748E+01  0.19017905712E+02 -0.75066570952E+02  0.77766485896E+02  0.00000000000E+00 0. -1.
          2    1    1    2  502    0  0.71383132748E+01 -0.19017905712E+02 -0.68977927502E+02  0.71906819820E+02  0.00000000000E+00 0.  1.
</event>
<event>
 4    1  0.6225520E+003  0.3386000E+02  0.7546771E-02  0.1388760E+00
          2   -1    0    0  502    0  0.00000000000E+00  0.00000000000E+00  0.89628739172E+03  0.89628739172E+03  0.00000000000E+00 0. -1.
          2   -1    0    0  501    0 -0.00000000000E+00 -0.00000000000E+00 -0.48433068452E+02  0.48433068452E+02  0.00000000000E+00 0. -1.
          2    1    1    2  501    0  0.26869689541E+02  0.20603873271E+02  0.89000790123E+03  0.89065176364E+03  0.00000000000E+00 0. -1.
          2    1    1    2  502    0 -0.26869689541E+02 -0.20603873271E+02 -0.42153577965E+02  0.54068696536E+02  0.00000000000E+00 0. -1.
</event>
<event>
 4    1  0.6225520E+003  0.2526759E+02  0.7546771E-02  0.1465832E+00
          2   -1    0    0  501    0  0.00000000000E+00  0.00000000000E+00  0.16917704426E+02  0.16917704426E+02  0.00000000000E+00 0. -1.
          2   -1    0    0  502    0 -0.00000000000E+00 -0.00000000000E+00 -0.57207231553E+03  0.57207231553E+03  0.00000000000E+00 0.  1.
          2    1    1    2  501    0  0.16725748221E+02  0.18939385116E+02 -0.56219293952E+03  0.56276047499E+03  0.00000000000E+00 0.  1.
          2    1    1    2  502    0 -0.16725748221E+02 -0.18939385116E+02  0.70383284187E+01  0.26229544965E+02  0.00000000000E+00 0. -1.
</event>
<event>
 4    1  0.6225520E+003  0.2875624E+02  0.7546771E-02  0.1430722E+00
          2   -1    0    0  501    0  0.00000000000E+00  0.00000000000E+00  0.86348602099E+03  0.86348602099E+03  0.00000000000E+00 0.  1.
          2   -1    0    0  502    0 -0.00000000000E+00 -0.00000000000E+00 -0.26724175105E+02  0.26724175105E+02  0.00000000000E+00 0. -1.
          2    1    1    2  501    0  0.42308162545E+01  0.28443305238E+02 -0.18676299509E+02  0.34288855075E+02  0.00000000000E+00 0. -1.
          2    1    1    2  502    0 -0.42308162545E+01 -0.28443305238E+02  0.85543814539E+03  0.85592134102E+03  0.00000000000E+00 0.  1.
</event>
<event>
 4    1  0.6225520E+003  0.2376782E+02  0.7546771E-02  0.1483075E+00
          2   -1    0    0  501    0  0.00000000000E+00  0.00000000000E+00  0.40227123395E+01  0.40227123395E+01  0.00000000000E+00 0.  1.
          2   -1    0    0  502    0 -0.00000000000E+00 -0.00000000000E+00 -0.28096876944E+03  0.28096876944E+03  0.00000000000E+00 0. -1.
          2    1    1    2  501    0  0.19796293399E+02 -0.13153553221E+02 -0.23925226119E+03  0.24042993507E+03  0.00000000000E+00 0. -1.
          2    1    1    2  502    0 -0.19796293399E+02  0.13153553221E+02 -0.37693795907E+02  0.44561546703E+02  0.00000000000E+00 0.  1.
</event>
<event>
 4    1  0.6225520E+003  0.6267120E+02  0.7546771E-02  0.1251017E+00
          2   -1    0    0  501    0  0.00000000000E+00  0.00000000000E+00  0.47803526661E+01  0.47803526661E+01  0.00000000000E+00 0. -1.
          2   -1    0    0  502    0 -0.00000000000E+00 -0.00000000000E+00 -0.92020974670E+03  0.92020974670E+03  0.00000000000E+00 0. -1.
          2    1    1    2  501    0  0.47039785906E+02 -0.41411812002E+02 -0.30633827776E+03  0.31268325835E+03  0.00000000000E+00 0. -1.
          2    1    1    2  502    0 -0.47039785906E+02  0.41411812002E+02 -0.60909111627E+03  0.61230684101E+03  0.00000000000E+00 0. -1.
</event>
<event>
 4    1  0.6225520E+003  0.2191000E+02  0.7546771E-02  0.1506658E+00
          2   -1    0    0  501    0  0.00000000000E+00  0.00000000000E+00  0.59001431260E+02  0.59001431260E+02  0.00000000000E+00 0. -1.
          2   -1    0    0  502    0 -0.00000000000E+00 -0.00000000000E+00 -0.10170010226E+04  0.10170010226E+04  0.00000000000E+00 0. -1.
          2    1    1    2  501    0 -0.16854093364E+02  0.13999551128E+02 -0.10148446434E+04  0.10150811289E+04  0.00000000000E+00 0. -1.
          2    1    1    2  502    0  0.16854093364E+02 -0.13999551128E+02  0.56845052073E+02  0.60921325003E+02  0.00000000000E+00 0. -1.
</event>
<event>
 4    1  0.6225520E+003  0.2168645E+02  0.7546771E-02  0.1509686E+00
          2   -1    0    0  502    0  0.00000000000E+00  0.00000000000E+00  0.97560484530E+03  0.97560484530E+03  0.00000000000E+00 0. -1.
          2   -1    0    0  501    0 -0.00000000000E+00 -0.00000000000E+00 -0.51284945238E+01  0.51284945238E+01  0.00000000000E+00 0. -1.
          2    1    1    2  501    0  0.19040330836E+02 -0.10381130665E+02  0.95198977020E+03  0.95223674821E+03  0.00000000000E+00 0. -1.
          2    1    1    2  502    0 -0.19040330836E+02  0.10381130665E+02  0.18486580573E+02  0.28496591612E+02  0.00000000000E+00 0. -1.
</event>
<event>
 4    1  0.6225520E+003  0.5223125E+02  0.7546771E-02  0.1288778E+00
          2   -1    0    0  502    0  0.00000000000E+00  0.00000000000E+00  0.38337268829E+03  0.38337268829E+03  0.00000000000E+00 0. -1.
          2   -1    0    0  501    0 -0.00000000000E+00 -0.00000000000E+00 -0.65414033618E+02  0.65414033618E+02  0.00000000000E+00 0. -1.
          2    1    1    2  501    0  0.29901688608E+02  0.42825136687E+02  0.37081605823E+03  0.37447650441E+03  0.00000000000E+00 0. -1.
          2    1    1    2  502    0 -0.29901688608E+02 -0.42825136687E+02 -0.52857403558E+02  0.74310217499E+02  0.00000000000E+00 0. -1.
</event>
<event>
 4    1  0.6225520E+003  0.2748050E+02  0.7546771E-02  0.1442840E+00
          2   -1    0    0  501    0  0.00000000000E+00  0.00000000000E+00  0.14235314151E+02  0.14235314151E+02  0.00000000000E+00 0. -1.
          2   -1    0    0  502    0 -0.00000000000E+00 -0.00000000000E+00 -0.55130538777E+03  0.55130538777E+03  0.00000000000E+00 0. -1.
          2    1    1    2  501    0  0.59104924789E+01  0.26837361456E+02 -0.53735648934E+03  0.53805870918E+03  0.00000000000E+00 0. -1.
          2    1    1    2  502    0 -0.59104924789E+01 -0.26837361456E+02  0.28641571408E+00  0.27481992745E+02  0.00000000000E+00 0. -1.
</event>
<event>
 4    1  0.6225520E+003  0.3552272E+02  0.7546771E-02  0.1376925E+00
          2   -1    0    0  501    0  0.00000000000E+00  0.00000000000E+00  0.11417526303E+02  0.11417526303E+02  0.00000000000E+00 0.  1.
          2   -1    0    0  502    0 -0.00000000000E+00 -0.00000000000E+00 -0.48426069788E+03  0.48426069788E+03  0.00000000000E+00 0.  1.
          2    1    1    2  501    0 -0.15397543686E+02 -0.32012171089E+02 -0.45415019985E+03  0.45553733928E+03  0.00000000000E+00 0.  1.
          2    1    1    2  502    0  0.15397543686E+02  0.32012171089E+02 -0.18692971731E+02  0.40140884912E+02  0.00000000000E+00 0.  1.
</event>
<event>
 4    1  0.6225520E+003  0.2027411E+02  0.7546771E-02  0.1529886E+00
          2   -1    0    0  501    0  0.00000000000E+00  0.00000000000E+00  0.40355314569E+01  0.40355314569E+01  0.00000000000E+00 0. -1.
          2   -1    0    0  502    0 -0.00000000000E+00 -0.00000000000E+00 -0.21659465026E+03  0.21659465026E+03  0.00000000000E+00 0.  1.
          2    1    1    2  501    0  0.14087573803E+02  0.14580116971E+02 -0.18657069405E+03  0.18766902628E+03  0.00000000000E+00 0.  1.
          2    1    1    2  502    0 -0.14087573803E+02 -0.14580116971E+02 -0.25988424750E+02  0.32961155433E+02  0.00000000000E+00 0. -1.
</event>
<event>
 4    1  0.6225520E+003  0.5755542E+02  0.7546771E-02  0.1268372E+00
          2   -1    0    0  502    0  0.00000000000E+00  0.00000000000E+00  0.24303290014E+04  0.24303290014E+04  0.00000000000E+00 0.  1.
          2   -1    0    0  501    0 -0.00000000000E+00 -0.00000000000E+00 -0.11931775368E+02  0.11931775368E+02  0.00000000000E+00 0. -1.
          2    1    1    2  501    0  0.36407412187E+02 -0.44577202510E+02  0.23584660260E+04  0.23591682056E+04  0.00000000000E+00 0.  1.
          2    1    1    2  502    0 -0.36407412187E+02  0.44577202510E+02  0.59931200121E+02  0.83092571230E+02  0.00000000000E+00 0. -1.
</event>
<event>
 4    1  0.6225520E+003  0.3267635E+02  0.7546771E-02  0.1397679E+00
          2   -1    0    0  502    0  0.00000000000E+00  0.00000000000E+00  0.74467268906E+03  0.74467268906E+03  0.00000000000E+00 0.  1.
          2   -1    0    0  501    0 -0.00000000000E+00 -0.00000000000E+00 -0.81696013683E+02  0.81696013683E+02  0.00000000000E+00 0. -1.
          2    1    1    2  501    0  0.31545999223E+02  0.85202144607E+01  0.74103074725E+03  0.74175084259E+03  0.00000000000E+00 0.  1.
          2    1    1    2  502    0 -0.31545999223E+02 -0.85202144607E+01 -0.78054071868E+02  0.84617860152E+02  0.00000000000E+00 0. -1.
</event>
<event>
 4    1  0.6225520E+003  0.4133539E+02  0.7546771E-02  0.1340833E+00
          2   -1    0    0  501    0  0.00000000000E+00  0.00000000000E+00  0.13632904105E+03  0.13632904105E+03  0.00000000000E+00 0. -1.
          2   -1    0    0  502    0 -0.00000000000E+00 -0.00000000000E+00 -0.81419001952E+03  0.81419001952E+03  0.00000000000E+00 0.  1.
          2    1    1    2  501    0  0.19868924611E+02  0.36246934731E+02 -0.81051794245E+03  0.81157128428E+03  0.00000000000E+00 0.  1.
          2    1    1    2  502    0 -0.19868924611E+02 -0.36246934731E+02  0.13265696398E+03  0.13894777629E+03  0.00000000000E+00 0. -1.
</event>
<event>
 4    1  0.6225520E+003  0.2624297E+02  0.7546771E-02  0.1455364E+00
          2   -1    0    0  502    0  0.00000000000E+00  0.00000000000E+00  0.29379482683E+02  0.29379482683E+02  0.00000000000E+00 0. -1.
          2   -1    0    0  501    0 -0.00000000000E+00 -0.00000000000E+00 -0.63100176204E+03  0.63100176204E+03  0.00000000000E+00 0.  1.
          2    1    1    2  501    0  0.25579308588E+02 -0.58645155475E+01  0.23188253651E+02  0.35019832636E+02  0.00000000000E+00 0. -1.
          2    1    1    2  502    0 -0.25579308588E+02  0.58645155475E+01 -0.62481053301E+03  0.62536141209E+03  0.00000000000E+00 0.  1.
</event>
<event>
 4    1  0.6225520E+003  0.2128516E+02  0.7546771E-02  0.1515232E+00
          2   -1    0    0  502    0  0.00000000000E+00  0.00000000000E+00  0.96133254621E+01  0.96133254621E+01  0.00000000000E+00 0.  1.
          2   -1    0    0  501    0 -0.00000000000E+00 -0.00000000000E+00 -0.78015756567E+03  0.78015756567E+03  0.00000000000E+00 0.  1.
          2    1    1    2  501    0  0.14634547649E+02  0.15456007119E+02 -0.24996723299E+01  0.21431437253E+02  0.00000000000E+00 0.  1.
          2    1    1    2  502    0 -0.14634547649E+02 -0.15456007119E+02 -0.76804456788E+03  0.76833945388E+03  0.00000000000E+00 0.  1.
</event>
<event>
 4    1  0.6225520E+003  0.6003614E+02  0.7546771E-02  0.1259710E+00
          2   -1    0    0  502    0  0.00000000000E+00  0.00000000000E+00  0.21351279726E+04  0.21351279726E+04  0.00000000000E+00 0. -1.
          2   -1    0    0  501    0 -0.00000000000E+00 -0.00000000000E+00 -0.19069537987E+01  0.19069537987E+01  0.00000000000E+00 0.  1.
          2    1    1    2  501    0  0.30302634621E+01 -0.59959614951E+02  0.14285828528E+04  0.14298438045E+04  0.00000000000E+00 0. -1.
          2    1    1    2  502    0 -0.30302634621E+01  0.59959614951E+02  0.70463816593E+03  0.70719112183E+03  0.00000000000E+00 0.  1.
</event>
<event>
 4    1  0.6225520E+003  0.2290557E+02  0.7546771E-02  0.1493687E+00
          2   -1    0    0  501    0  0.00000000000E+00  0.00000000000E+00  0.55467248785E+02  0.55467248785E+02  0.00000000000E+00 0.  1.
          2   -1    0    0  502    0 -0.00000000000E+00 -0.00000000000E+00 -0.27118682536E+02  0.27118682536E+02  0.00000000000E+00 0. -1.
          2    1    1    2  501    0  0.70010533841E+00  0.22894865163E+02 -0.19147878213E+02  0.29854752358E+02  0.00000000000E+00 0. -1.
          2    1    1    2  502    0 -0.70010533841E+00 -0.22894865163E+02  0.47496444461E+02  0.52731178963E+02  0.00000000000E+00 0.  1.
</event>
<event>
 4    1  0.6225520E+003  0.2830470E+02  0.7546771E-02  0.1434925E+00
          2   -1    0    0  502    0  0.00000000000E+00  0.00000000000E+00  0.36388597479E+02  0.36388597479E+02  0.00000000000E+00 0. -1.
          2   -1    0    0  501    0 -0.00000000000E+00 -0.00000000000E+00 -0.10541735698E+04  0.10541735698E+04  0.00000000000E+00 0. -1.
          2    1    1    2  501    0  0.35116887465E+00  0.28302517835E+02  0.30664387568E+02  0.41730809965E+02  0.00000000000E+00 0. -1.
          2    1    1    2  502    0 -0.35116887465E+00 -0.28302517835E+02 -0.10484493598E+04  0.10488313573E+04  0.00000000000E+00 0. -1.
</event>
<event>
 4    1  0.6225520E+003  0.2215642E+02  0.7546771E-02  0.1503372E+00
          2   -1    0    0  502    0  0.00000000000E+00  0.00000000000E+00  0.31181580649E+00  0.31181580649E+00  0.00000000000E+00 0.  1.
          2   -1    0    0  501    0 -0.00000000000E+00 -0.00000000000E+00 -0.15841906060E+04  0.15841906060E+04  0.00000000000E+00 0. -1.
          2    1    1    2  501    0  0.15886493374E+02  0.15444297036E+02 -0.72949599351E+03  0.72983238592E+03  0.00000000000E+00 0.  1.
          2    1    1    2  502    0 -0.15886493374E+02 -0.15444297036E+02 -0.85438279666E+03  0.85467003587E+03  0.00000000000E+00 0. -1.
</event>
<event>
 4    1  0.6225520E+003  0.3589060E+02  0.7546771E-02  0.1374408E+00
          2   -1    0    0  501    0  0.00000000000E+00  0.00000000000E+00  0.50760477617E+01  0.50760477617E+01  0.00000000000E+00 0.  1.
          2   -1    0    0  502    0 -0.00000000000E+00 -0.00000000000E+00 -0.34150206855E+03  0.34150206855E+03  0.00000000000E+00 0. -1.
          2    1    1    2  501    0 -0.33485720522E+02  0.12916725653E+02 -0.25604650676E+03  0.25854970297E+03  0.00000000000E+00 0. -1.
          2    1    1    2  502    0  0.33485720522E+02 -0.12916725653E+02 -0.80379514025E+02  0.88028413341E+02  0.00000000000E+00 0.  1.
</event>
<event>
 4    1  0.6225520E+003  0.2424067E+02  0.7546771E-02  0.1477480E+00
          2   -1    0    0  501    0  0.00000000000E+00  0.00000000000E+00  0.38140895633E+00  0.38140895633E+00  0.00000000000E+00 0.  1.
          2   -1    0    0  502    0 -0.00000000000E+00 -0.00000000000E+00 -0.16590687978E+04  0.16590687978E+04  0.00000000000E+00 0.  1.
          2    1    1    2  501    0 -0.23678113902E+02 -0.51920143942E+01 -0.10510351600E+04  0.10513146615E+04  0.00000000000E+00 0.  1.
          2    1    1    2  502    0  0.23678113902E+02  0.51920143942E+01 -0.60765222893E+03  0.60813554527E+03  0.00000000000E+00 0.  1.
</event>
<event>
 4    1  0.6225520E+003  0.2006789E+02  0.7546771E-02  0.1533000E+00
          2   -1    0    0  501    0  0.00000000000E+00  0.00000000000E+00  0.65689620895E+00  0.65689620895E+00  0.00000000000E+00 0. -1.
          2   -1    0    0  502    0 -0.00000000000E+00 -0.00000000000E+00 -0.68484079657E+03  0.68484079657E+03  0.00000000000E+00 0. -1.
          2    1    1    2  501    0 -0.13439843712E+01 -0.20022839642E+02 -0.45305252411E+03  0.45349675854E+03  0.00000000000E+00 0. -1.
          2    1    1    2  502    0  0.13439843712E+01  0.20022839642E+02 -0.23113137625E+03  0.23200093424E+03  0.00000000000E+00 0. -1.
</event>
<event>
 4    1  0.6225520E+003  0.2276141E+02  0.7546771E-02  0.1495516E+00
          2   -1    0    0  502    0  0.00000000000E+00  0.00000000000E+00  0.13647131496E+01  0.13647131496E+01  0.00000000000E+00 0. -1.
          2   -1    0    0  501    0 -0.00000000000E+00 -0.00000000000E+00 -0.55220913426E+03  0.55220913426E+03  0.00000000000E+00 0. -1.
          2    1    1    2  501    0 -0.18259226535E+02  0.13589784479E+02 -0.12068597461E+03  0.12281362329E+03  0.00000000000E+00 0. -1.
          2    1    1    2  502    0  0.18259226535E+02 -0.13589784479E+02 -0.43015844649E+03  0.43076022412E+03  0.00000000000E+00 0. -1.
</event>
<event>
 4    1  0.6225520E+003  0.2538038E+02  0.7546771E-02  0.1464593E+00
          2   -1    0    0  502    0  0.00000000000E+00  0.00000000000E+00  0.33143870494E+03  0.33143870494E+03  0.00000000000E+00 0.  1.
          2   -1    0    0  501    0 -0.00000000000E+00 -0.00000000000E+00 -0.28856732663E+01  0.28856732663E+01  0.00000000000E+00 0.  1.
          2    1    1    2  501    0 -0.23857809505E+02  0.86584354686E+01  0.25979143195E+03  0.26102825842E+03  0.00000000000E+00 0.  1.
          2    1    1    2  502    0  0.23857809505E+02 -0.86584354686E+01  0.68761599720E+02  0.73296119783E+02  0.00000000000E+00 0.  1.
</event>
<event>
 4    1  0.6225520E+003  0.2021382E+02  0.7546771E-02  0.1530792E+00
          2   -1    0    0  502    0  0.00000000000E+00  0.00000000000E+00  0.20536558879E+03  0.20536558879E+03  0.00000000000E+00 0. -1.
          2   -1    0    0  501    0 -0.00000000000E+00 -0.00000000000E+00 -0.21927366246E+03  0.21927366246E+03  0.00000000000E+00 0.  1.
          2    1    1    2  501    0 -0.96192399156E+01 -0.17778327723E+02  0.20440013493E+03  0.20539720999E+03  0.00000000000E+00 0. -1.
          2    1    1    2  502    0  0.96192399156E+01  0.17778327723E+02 -0.21830820860E+03  0.21924204126E+03  0.00000000000E+00 0.  1.
</event>
<event>
 4    1  0.6225520E+003  0.2237083E+02  0.7546771E-02  0.1500553E+00
          2   -1    0    0  502    0  0.00000000000E+00  0.00000000000E+00  0.29828566439E+02  0.29828566439E+02  0.00000000000E+00 0. -1.
          2   -1    0    0  501    0 -0.00000000000E+00 -0.00000000000E+00 -0.27519183615E+03  0.27519183615E+03  0.00000000000E+00 0. -1.
          2    1    1    2  501    0  0.17181305040E+02 -0.14326785433E+02  0.25106400279E+02  0.33627152105E+02  0.00000000000E+00 0. -1.
          2    1    1    2  502    0 -0.17181305040E+02  0.14326785433E+02 -0.27046966999E+03  0.27139325048E+03  0.00000000000E+00 0. -1.
</event>
<event>
 4    1  0.6225520E+003  0.2851067E+02  0.7546771E-02  0.1432996E+00
          2   -1    0    0  501    0  0.00000000000E+00  0.00000000000E+00  0.10826810443E+04  0.10826810443E+04  0.00000000000E+00 0.  1.
          2   -1    0    0  502    0 -0.00000000000E+00 -0.00000000000E+00 -0.28356606818E+01  0.28356606818E+01  0.00000000000E+00 0.  1.
          2    1    1    2  501    0  0.27405743670E+02 -0.78602401776E+01  0.74529838732E+02  0.79796961240E+02  0.00000000000E+00 0.  1.
          2    1    1    2  502    0 -0.27405743670E+02  0.78602401776E+01  0.10053155449E+04  0.10057197437E+04  0.00000000000E+00 0.  1.
</event>
<event>
 4    1  0.6225520E+003  0.2427890E+02  0.7546771E-02  0.1477034E+00
          2   -1    0    0  501    0  0.00000000000E+00  0.00000000000E+00  0.11658574581E+04  0.11658574581E+04  0.00000000000E+00 0.  1.
          2   -1    0    0  502    0 -0.00000000000E+00 -0.00000000000E+00 -0.14581361571E+03  0.14581361571E+03  0.00000000000E+00 0.  1.
          2    1    1    2  501    0 -0.59998521010E+01 -0.23525875421E+02 -0.14467557857E+03  0.14669863010E+03  0.00000000000E+00 0.  1.
          2    1    1    2  502    0  0.59998521010E+01  0.23525875421E+02  0.11647194209E+04  0.11649724437E+04  0.00000000000E+00 0.  1.
</event>
<event>
 4    1  0.6225520E+003  0.4416258E+02  0.7546771E-02  0.1325680E+00
          2   -1    0    0  502    0  0.00000000000E+00  0.00000000000E+00  0.17468111969E+04  0.17468111969E+04  0.00000000000E+00 0.  1.
          2   -1    0    0  501    0 -0.00000000000E+00 -0.00000000000E+00 -0.60021411484E+03  0.60021411484E+03  0.00000000000E+00 0. -1.
          2    1    1    2  501    0 -0.19956881183E+02  0.39396148400E+02  0.17457192120E+04  0.17462777273E+04  0.00000000000E+00 0.  1.
          2    1    1    2  502    0  0.19956881183E+02 -0.39396148400E+02 -0.59912212996E+03  0.60074758445E+03  0.00000000000E+00 0. -1.
</event>
<event>
 4    1  0.6225520E+003  0.2021263E+02  0.7546771E-02  0.1530810E+00
          2   -1    0    0  501    0  0.00000000000E+00  0.00000000000E+00  0.11463811993E+04  0.11463811993E+04  0.00000000000E+00 0. -1.
          2   -1    0    0  502    0 -0.00000000000E+00 -0.00000000000E+00 -0.15678942178E+01  0.15678942178E+01  0.00000000000E+00 0.  1.
          2    1    1    2  501    0 -0.22675907808E+01  0.20085033759E+02  0.67863857076E+02  0.70809982674E+02  0.00000000000E+00 0.  1.
          2    1    1    2  502    0  0.22675907808E+01 -0.20085033759E+02  0.10769494480E+04  0.10771391109E+04  0.00000000000E+00 0. -1.
</event>
<event>
 4    1  0.6225520E+003  0.2912023E+02  0.7546771E-02  0.1427399E+00
          2   -1    0    0  502    0  0.00000000000E+00  0.00000000000E+00  0.22696044258E+02  0.22696044258E+02  0.00000000000E+00 0.  1.
          2   -1    0    0  501    0 -0.00000000000E+00 -0.00000000000E+00 -0.52373562088E+03  0.52373562088E+03  0.00000000000E+00 0. -1.
          2    1    1    2  501    0  0.12021729404E+02  0.26522925159E+02  0.12770269450E+02  0.31797284769E+02  0.00000000000E+00 0.  1.
          2    1    1    2  502    0 -0.12021729404E+02 -0.26522925159E+02 -0.51380984607E+03  0.51463438037E+03  0.00000000000E+00 0. -1.
</event>
<event>
 4    1  0.6225520E+003  0.2956885E+02  0.7546771E-02  0.1423381E+00
          2   -1    0    0  502    0  0.00000000000E+00  0.00000000000E+00  0.58161848654E+02  0.58161848654E+02  0.00000000000E+00 0. -1.
          2   -1    0    0  501    0 -0.00000000000E+00 -0.00000000000E+00 -0.18369428048E+04  0.18369428048E+04  0.00000000000E+00 0.  1.
          2    1    1    2  501    0  0.16262700551E+02 -0.24694966490E+02  0.54276773392E+02  0.61808453540E+02  0.00000000000E+00 0. -1.
          2    1    1    2  502    0 -0.16262700551E+02  0.24694966490E+02 -0.18330577296E+04  0.18332962000E+04  0.00000000000E+00 0.  1.
</event>
<event>
 4    1  0.6225520E+003  0.3434486E+02  0.7546771E-02  0.1385228E+00
          2   -1    0    0  501    0  0.00000000000E+00  0.00000000000E+00  0.52345742981E+01  0.52345742981E+01  0.00000000000E+00 0. -1.
          2   -1    0    0  502    0 -0.00000000000E+00 -0.00000000000E+00 -0.25469429497E+04  0.25469429497E+04  0.00000000000E+00 0.  1.
          2    1    1    2  501    0 -0.14637358397E+02  0.31069558523E+02 -0.24891845198E+04  0.24894214476E+04  0.00000000000E+00 0.  1.
          2    1    1    2  502    0  0.14637358397E+02 -0.31069558523E+02 -0.52523855563E+02  0.62756076446E+02  0.00000000000E+00 0. -1.
</event>
<event>
 4    1  0.6225520E+003  0.2064382E+02  0.7546771E-02  0.1524411E+00
          2   -1    0    0  502    0  0.00000000000E+00  0.00000000000E+00  0.19484624831E+03  0.19484624831E+03  0.00000000000E+00 0. -1.
          2   -1    0    0  501    0 -0.00000000000E+00 -0.00000000000E+00 -0.21885352478E+01  0.21885352478E+01  0.00000000000E+00 0.  1.
          2    1    1    2  501    0  0.20344609900E+02 -0.35020137468E+01  0.93893276719E+02  0.96135917665E+02  0.00000000000E+00 0.  1.
          2    1    1    2  502    0 -0.20344609900E+02  0.35020137468E+01  0.98764436338E+02  0.10089886589E+03  0.00000000000E+00 0. -1.
</event>
<event>
 4    1  0.6225520E+003  0.2294788E+02  0.7546771E-02  0.1493154E+00
          2   -1    0    0  502    0  0.00000000000E+00  0.00000000000E+00  0.15073665721E+03  0.15073665721E+03  0.00000000000E+00 0.  1.
          2   -1    0    0  501    0 -0.00000000000E+00 -0.00000000000E+00 -0.35809500767E+02  0.35809500767E+02  0.00000000000E+00 0. -1.
          2    1    1    2  501    0  0.21780418101E+02 -0.72262282111E+01  0.14607010153E+03  0.14786169061E+03  0.00000000000E+00 0.  1.
          2    1    1    2  502    0 -0.21780418101E+02  0.72262282111E+01 -0.31142945092E+02  0.38684467371E+02  0.00000000000E+00 0. -1.
</event>
<event>
 4    1  0.6225520E+003  0.4094618E+02  0.7546771E-02  0.1343029E+00
          2   -1    0    0  501    0  0.00000000000E+00  0.00000000000E+00  0.12049740359E+04  0.12049740359E+04  0.00000000000E+00 0. -1.
          2   -1    0    0  502    0 -0.00000000000E+00 -0.00000000000E+00 -0.58899040999E+01  0.58899040999E+01  0.00000000000E+00 0. -1.
          2    1    1    2  501    0 -0.51946247748E+01  0.40615335729E+02  0.70432334122E+02  0.81469646573E+02  0.00000000000E+00 0. -1.
          2    1    1    2  502    0  0.51946247748E+01 -0.40615335729E+02  0.11286517977E+04  0.11293942934E+04  0.00000000000E+00 0. -1.
</event>
<event>
 4    1  0.6225520E+003  0.3909819E+02  0.7546771E-02  0.1353853E+00
          2   -1    0    0  501    0  0.00000000000E+00  0.00000000000E+00  0.29517210474E+01  0.29517210474E+01  0.00000000000E+00 0. -1.
          2   -1    0    0  502    0 -0.00000000000E+00 -0.00000000000E+00 -0.61005857146E+03  0.61005857146E+03  0.00000000000E+00 0. -1.
          2    1    1    2  501    0 -0.44845101620E+00  0.39095622460E+02 -0.42268910392E+03  0.42449351865E+03  0.00000000000E+00 0. -1.
          2    1    1    2  502    0  0.44845101620E+00 -0.39095622460E+02 -0.18441774649E+03  0.18851677386E+03  0.00000000000E+00 0. -1.
</event>
<event>
 4    1  0.6225520E+003  0.2332500E+02  0.7546771E-02  0.1488457E+00
          2   -1    0    0  502    0  0.00000000000E+00  0.00000000000E+00  0.44772689899E+02  0.44772689899E+02  0.00000000000E+00 0. -1.
          2   -1    0    0  501    0 -0.00000000000E+00 -0.00000000000E+00 -0.41456573820E+03  0.41456573820E+03  0.00000000000E+00 0. -1.
          2    1    1    2  501    0 -0.11901897708E+02 -0.20059926936E+02  0.41381690773E+02  0.47502633284E+02  0.00000000000E+00 0. -1.
          2    1    1    2  502    0  0.11901897708E+02  0.20059926936E+02 -0.41117473907E+03  0.41183579481E+03  0.00000000000E+00 0. -1.
</event>
<event>
 4    1  0.6225520E+003  0.2325040E+02  0.7546771E-02  0.1489378E+00
          2   -1    0    0  501    0  0.00000000000E+00  0.00000000000E+00  0.49249244457E+03  0.49249244457E+03  0.00000000000E+00 0. -1.
          2   -1    0    0  502    0 -0.00000000000E+00 -0.00000000000E+00 -0.95226320709E+02  0.95226320709E+02  0.00000000000E+00 0. -1.
          2    1    1    2  501    0 -0.60726681370E+00  0.23242470392E+02 -0.93527799916E+02  0.96374428974E+02  0.00000000000E+00 0. -1.
          2    1    1    2  502    0  0.60726681370E+00 -0.23242470392E+02  0.49079392377E+03  0.49134433630E+03  0.00000000000E+00 0. -1.
</event>
<event>
 4    1  0.6225520E+003  0.4979927E+02  0.7546771E-02  0.1299045E+00
          2   -1    0    0  501    0  0.00000000000E+00  0.00000000000E+00  0.10371489941E+02  0.10371489941E+02  0.00000000000E+00 0. -1.
          2   -1    0    0  502    0 -0.00000000000E+00 -0.00000000000E+00 -0.29688696092E+03  0.29688696092E+03  0.00000000000E+00 0.  1.
          2    1    1    2  501    0 -0.48577982458E+02 -0.10961164399E+02 -0.21102827343E+03  0.21682458276E+03  0.00000000000E+00 0.  1.
          2    1    1    2  502    0  0.48577982458E+02  0.10961164399E+02 -0.75487197548E+02  0.90433868094E+02  0.00000000000E+00 0. -1.
</event>
<event>
 4    1  0.6225520E+003  0.2197780E+02  0.7546771E-02  0.1505749E+00
          2   -1    0    0  502    0  0.00000000000E+00  0.00000000000E+00  0.14208126633E+04  0.14208126633E+04  0.00000000000E+00 0. -1.
          2   -1    0    0  501    0 -0.00000000000E+00 -0.00000000000E+00 -0.59571962445E+01  0.59571962445E+01  0.00000000000E+00 0. -1.
          2    1    1    2  501    0  0.17705685390E+02  0.13020457533E+02  0.14001580737E+04  0.14003305520E+04  0.00000000000E+00 0. -1.
          2    1    1    2  502    0 -0.17705685390E+02 -0.13020457533E+02  0.14697393324E+02  0.26439307480E+02  0.00000000000E+00 0. -1.
</event>
<event>
 4    1  0.6225520E+003  0.4604266E+02  0.7546771E-02  0.1316307E+00
          2   -1    0    0  501    0  0.00000000000E+00  0.00000000000E+00  0.14883072681E+04  0.14883072681E+04  0.00000000000E+00 0.  1.
          2   -1    0    0  502    0 -0.00000000000E+00 -0.00000000000E+00 -0.11790303647E+03  0.11790303647E+03  0.00000000000E+00 0. -1.
          2    1    1    2  501    0 -0.34596232587E+02  0.30381367050E+02 -0.11303713462E+03  0.12205458031E+03  0.00000000000E+00 0. -1.
          2    1    1    2  502    0  0.34596232587E+02 -0.30381367050E+02  0.14834413662E+04  0.14841557242E+04  0.00000000000E+00 0.  1.
</event>
<event>
 4    1  0.6225520E+003  0.2142304E+02  0.7546771E-02  0.1513310E+00
          2   -1    0    0  502    0  0.00000000000E+00  0.00000000000E+00  0.27671212406E+02  0.27671212406E+02  0.00000000000E+00 0.  1.
          2   -1    0    0  501    0 -0.00000000000E+00 -0.00000000000E+00 -0.67417266114E+02  0.67417266114E+02  0.00000000000E+00 0. -1.
          2    1    1    2  501    0  0.20713226862E+02  0.54688999190E+01  0.21410714422E+02  0.30288039313E+02  0.00000000000E+00 0.  1.
          2    1    1    2  502    0 -0.20713226862E+02 -0.54688999190E+01 -0.61156768130E+02  0.64800439207E+02  0.00000000000E+00 0. -1.
</event>
<event>
 4    1  0.6225520E+003  0.2081025E+02  0.7546771E-02  0.1521991E+00
          2   -1    0    0  501    0  0.00000000000E+00  0.00000000000E+00  0.32355308279E+03  0.32355308279E+03  0.00000000000E+00 0. -1.
          2   -1    0    0  502    0 -0.00000000000E+00 -0.00000000000E+00 -0.74024941737E+01  0.74024941737E+01  0.00000000000E+00 0.  1.
          2    1    1    2  501    0  0.17088198431E+02 -0.11876871399E+02  0.83031398609E+01  0.22405551352E+02  0.00000000000E+00 0.  1.
          2    1    1    2  502    0 -0.17088198431E+02  0.11876871399E+02  0.30784744875E+03  0.30855002561E+03  0.00000000000E+00 0. -1.
</event>
<event>
 4    1  0.6225520E+003  0.2335895E+02  0.7546771E-02  0.1488039E+00
          2   -1    0    0  501    0  0.00000000000E+00  0.00000000000E+00  0.71544020206E+01  0.71544020206E+01  0.00000000000E+00 0. -1.
          2   -1    0    0  502    0 -0.00000000000E+00 -0.00000000000E+00 -0.86028330699E+03  0.86028330699E+03  0.00000000000E+00 0.  1.
          2    1    1    2  501    0 -0.21950463135E+02  0.79886086221E+01 -0.84061204136E+03  0.84093652839E+03  0.00000000000E+00 0.  1.
          2    1    1    2  502    0  0.21950463135E+02 -0.79886086221E+01 -0.12516863604E+02  0.26501180616E+02  0.00000000000E+00 0. -1.
</event>
<event>
 4    1  0.6225520E+003  0.2382129E+02  0.7546771E-02  0.1482435E+00
          2   -1    0    0  502    0  0.00000000000E+00  0.00000000000E+00  0.16125453293E+02  0.16125453293E+02  0.00000000000E+00 0. -1.
          2   -1    0    0  501    0 -0.00000000000E+00 -0.00000000000E+00 -0.84093939262E+02  0.84093939262E+02  0.00000000000E+00 0. -1.
          2    1    1    2  501    0 -0.18216146096E+02  0.15350107710E+02  0.42287976323E+01  0.24193728830E+02  0.00000000000E+00 0. -1.
          2    1    1    2  502    0  0.18216146096E+02 -0.15350107710E+02 -0.72197283602E+02  0.76025663725E+02  0.00000000000E+00 0. -1.
</event>
<event>
 4    1  0.6225520E+003  0.3594116E+02  0.7546771E-02  0.1374065E+00
          2   -1    0    0  502    0  0.00000000000E+00  0.00000000000E+00  0.24988268175E+01  0.24988268175E+01  0.00000000000E+00 0. -1.
          2   -1    0    0  501    0 -0.00000000000E+00 -0.00000000000E+00 -0.84030142826E+03  0.84030142826E+03  0.00000000000E+00 0.  1.
          2    1    1    2  501    0 -0.18567452883E+02 -0.30773635626E+02 -0.15749567801E+03  0.16154459307E+03  0.00000000000E+00 0. -1.
          2    1    1    2  502    0  0.18567452883E+02  0.30773635626E+02 -0.68030692343E+03  0.68125566201E+03  0.00000000000E+00 0.  1.
</event>
<event>
 4    1  0.6225520E+003  0.2123818E+02  0.7546771E-02  0.1515891E+00
          2   -1    0    0  501    0  0.00000000000E+00  0.00000000000E+00  0.34119345658E+03  0.34119345658E+03  0.00000000000E+00 0. -1.
          2   -1    0    0  502    0 -0.00000000000E+00 -0.00000000000E+00 -0.21134326474E+02  0.21134326474E+02  0.00000000000E+00 0. -1.
          2    1    1    2  501    0 -0.93275672864E+01  0.19080275580E+02 -0.15376694266E+02  0.26220281353E+02  0.00000000000E+00 0. -1.
          2    1    1    2  502    0  0.93275672864E+01 -0.19080275580E+02  0.33543582438E+03  0.33610750171E+03  0.00000000000E+00 0. -1.
</event>
<event>
 4    1  0.6225520E+003  0.4995037E+02  0.7546771E-02  0.1298388E+00
          2   -1    0    0  501    0  0.00000000000E+00  0.00000000000E+00  0.92590835429E+02  0.92590835429E+02  0.00000000000E+00 0. -1.
          2   -1    0    0  502    0 -0.00000000000E+00 -0.00000000000E+00 -0.12525867722E+04  0.12525867722E+04  0.00000000000E+00 0.  1.
          2    1    1    2  501    0 -0.96192218063E+01 -0.49015405582E+02 -0.12453127262E+04  0.12463140958E+04  0.00000000000E+00 0.  1.
          2    1    1    2  502    0  0.96192218063E+01  0.49015405582E+02  0.85316789417E+02  0.98863511818E+02  0.00000000000E+00 0. -1.
</event>
<event>
 4    1  0.6225520E+003  0.3272856E+02  0.7546771E-02  0.1397276E+00
          2   -1    0    0  501    0  0.00000000000E+00  0.00000000000E+00  0.12464580123E+03  0.12464580123E+03  0.00000000000E+00 0. -1.
          2   -1    0    0  502    0 -0.00000000000E+00 -0.00000000000E+00 -0.24596798531E+03  0.24596798531E+03  0.00000000000E+00 0. -1.
          2    1    1    2  501    0 -0.22646003768E+02  0.23628729411E+02 -0.24270208411E+03  0.24489887703E+03  0.00000000000E+00 0. -1.
          2    1    1    2  502    0  0.22646003768E+02 -0.23628729411E+02  0.12137990003E+03  0.12571490950E+03  0.00000000000E+00 0. -1.
</event>
<event>
 4    1  0.6225520E+003  0.2280572E+02  0.7546771E-02  0.1494952E+00
          2   -1    0    0  502    0  0.00000000000E+00  0.00000000000E+00  0.61230542215E+00  0.61230542215E+00  0.00000000000E+00 0.  1.
          2   -1    0    0  501    0 -0.00000000000E+00 -0.00000000000E+00 -0.10448466935E+04  0.10448466935E+04  0.00000000000E+00 0.  1.
          2    1    1    2  501    0  0.10779285849E+02 -0.20097464696E+02 -0.29604414025E+03  0.29692125904E+03  0.00000000000E+00 0.  1.
          2    1    1    2  502    0 -0.10779285849E+02  0.20097464696E+02 -0.74819024786E+03  0.74853773992E+03  0.00000000000E+00 0.  1.
</event>
<event>
 4    1  0.6225520E+003  0.2419291E+02  0.7546771E-02  0.1478038E+00
          2   -1    0    0  502    0  0.00000000000E+00  0.00000000000E+00  0.29623657044E+02  0.29623657044E+02  0.00000000000E+00 0.  1.
          2   -1    0    0  501    0 -0.00000000000E+00 -0.00000000000E+00 -0.19465873701E+03  0.19465873701E+03  0.00000000000E+00 0.  1.
          2    1    1    2  501    0 -0.69573315918E+01  0.23170939240E+02  0.23780281463E+02  0.33923423686E+02  0.00000000000E+00 0.  1.
          2    1    1    2  502    0  0.69573315918E+01 -0.23170939240E+02 -0.18881536143E+03  0.19035897037E+03  0.00000000000E+00 0.  1.
</event>
<event>
 4    1  0.6225520E+003  0.3339434E+02  0.7546771E-02  0.1392217E+00
          2   -1    0    0  501    0  0.00000000000E+00  0.00000000000E+00  0.72091774054E+03  0.72091774054E+03  0.00000000000E+00 0. -1.
          2   -1    0    0  502    0 -0.00000000000E+00 -0.00000000000E+00 -0.72031873333E+01  0.72031873333E+01  0.00000000000E+00 0.  1.
          2    1    1    2  501    0 -0.23014934125E+00 -0.33393550573E+02  0.67946680173E+03  0.68028693714E+03  0.00000000000E+00 0. -1.
          2    1    1    2  502    0  0.23014934125E+00  0.33393550573E+02  0.34247751484E+02  0.47833990742E+02  0.00000000000E+00 0.  1.
</event>
<event>
 4    1  0.6225520E+003  0.2607817E+02  0.7546771E-02  0.1457094E+00
          2   -1    0    0  501    0  0.00000000000E+00  0.00000000000E+00  0.23198213410E+04  0.23198213410E+04  0.00000000000E+00 0.  1.
          2   -1    0    0  502    0 -0.00000000000E+00 -0.00000000000E+00 -0.52597921014E+00  0.52597921014E+00  0.00000000000E+00 0.  1.
          2    1    1    2  501    0 -0.26006623586E+02  0.19303770083E+01  0.38776493423E+03  0.38864085612E+03  0.00000000000E+00 0.  1.
          2    1    1    2  502    0  0.26006623586E+02 -0.19303770083E+01  0.19315304276E+04  0.19317064641E+04  0.00000000000E+00 0.  1.
</event>
<event>
 4    1  0.6225520E+003  0.2860382E+02  0.7546771E-02  0.1432130E+00
          2   -1    0    0  502    0  0.00000000000E+00  0.00000000000E+00  0.86443738121E+03  0.86443738121E+03  0.00000000000E+00 0. -1.
          2   -1    0    0  501    0 -0.00000000000E+00 -0.00000000000E+00 -0.10941016334E+01  0.10941016334E+01  0.00000000000E+00 0.  1.
          2    1    1    2  501    0 -0.86839416198E+01  0.27253764353E+02  0.59063210989E+03  0.59132433381E+03  0.00000000000E+00 0. -1.
          2    1    1    2  502    0  0.86839416198E+01 -0.27253764353E+02  0.27271116969E+03  0.27420714904E+03  0.00000000000E+00 0.  1.
</event>
<event>
 4    1  0.6225520E+003  0.4085244E+02  0.7546771E-02  0.1343562E+00
          2   -1    0    0  501    0  0.00000000000E+00  0.00000000000E+00  0.70359599297E+02  0.70359599297E+02  0.00000000000E+00 0.  1.
          2   -1    0    0  502    0 -0.00000000000E+00 -0.00000000000E+00 -0.30755673917E+02  0.30755673917E+02  0.00000000000E+00 0. -1.
          2    1    1    2  501    0 -0.34373682187E+02  0.22076492423E+02 -0.43793886384E+01  0.41086501307E+02  0.00000000000E+00 0.  1.
          2    1    1    2  502    0  0.34373682187E+02 -0.22076492423E+02  0.43983314018E+02  0.60028771908E+02  0.00000000000E+00 0. -1.
</event>
<event>
 4    1  0.6225520E+003  0.4295036E+02  0.7546771E-02  0.1332013E+00
          2   -1    0    0  501    0  0.00000000000E+00  0.00000000000E+00  0.19995687626E+02  0.19995687626E+02  0.00000000000E+00 0.  1.
          2   -1    0    0  502    0 -0.00000000000E+00 -0.00000000000E+00 -0.99119953854E+03  0.99119953854E+03  0.00000000000E+00 0. -1.
          2    1    1    2  501    0  0.33325266261E+02  0.27095388826E+02 -0.96709554926E+03  0.96804882876E+03  0.00000000000E+00 0. -1.
          2    1    1    2  502    0 -0.33325266261E+02 -0.27095388826E+02 -0.41083016604E+01  0.43146397411E+02  0.00000000000E+00 0.  1.
</event>
<event>
 4    1  0.6225520E+003  0.3920685E+02  0.7546771E-02  0.1353197E+00
          2   -1    0    0  501    0  0.00000000000E+00  0.00000000000E+00  0.11305982246E+04  0.11305982246E+04  0.00000000000E+00 0.  1.
          2   -1    0    0  502    0 -0.00000000000E+00 -0.00000000000E+00 -0.29709145581E+01  0.29709145581E+01  0.00000000000E+00 0.  1.
          2    1    1    2  501    0 -0.26769889000E+02 -0.28645244034E+02  0.14640520053E+03  0.15156404490E+03  0.00000000000E+00 0.  1.
          2    1    1    2  502    0  0.26769889000E+02  0.28645244034E+02  0.98122210954E+03  0.98200509429E+03  0.00000000000E+00 0.  1.
</event>
<event>
 4    1  0.6225520E+003  0.2718027E+02  0.7546771E-02  0.1445806E+00
          2   -1    0    0  501    0  0.00000000000E+00  0.00000000000E+00  0.31953219555E+01  0.31953219555E+01  0.00000000000E+00 0.  1.
          2   -1    0    0  502    0 -0.00000000000E+00 -0.00000000000E+00 -0.91285737067E+03  0.91285737067E+03  0.00000000000E+00 0.  1.
          2    1    1    2  501    0  0.12422929542E+02  0.24175152216E+02 -0.85062683602E+03  0.85106097392E+03  0.00000000000E+00 0.  1.
          2    1    1    2  502    0 -0.12422929542E+02 -0.24175152216E+02 -0.59035212691E+02  0.64991718708E+02  0.00000000000E+00 0.  1.
</event>
<event>
 4    1  0.6225520E+003  0.5529736E+02  0.7546771E-02  0.1276706E+00
          2   -1    0    0  501    0  0.00000000000E+00  0.00000000000E+00  0.12296575008E+03  0.12296575008E+03  0.00000000000E+00 0.  1.
          2   -1    0    0  502    0 -0.00000000000E+00 -0.00000000000E+00 -0.73884128863E+03  0.73884128863E+03  0.00000000000E+00 0. -1.
          2    1    1    2  501    0 -0.37623525291E+02 -0.40524914921E+02 -0.73152779610E+03  0.73361482731E+03  0.00000000000E+00 0. -1.
          2    1    1    2  502    0  0.37623525291E+02  0.40524914921E+02  0.11565225755E+03  0.12819221139E+03  0.00000000000E+00 0.  1.
</event>
<event>
 4    1  0.6225520E+003  0.2040073E+02  0.7546771E-02  0.1527995E+00
          2   -1    0    0  502    0  0.00000000000E+00  0.00000000000E+00  0.12917406417E+02  0.12917406417E+02  0.00000000000E+00 0. -1.
          2   -1    0    0  501    0 -0.00000000000E+00 -0.00000000000E+00 -0.11254064035E+04  0.11254064035E+04  0.00000000000E+00 0. -1.
          2    1    1    2  501    0 -0.16929037009E+02 -0.11384084175E+02  0.47109685655E+01  0.20937595167E+02  0.00000000000E+00 0. -1.
          2    1    1    2  502    0  0.16929037009E+02  0.11384084175E+02 -0.11171999657E+04  0.11173862148E+04  0.00000000000E+00 0. -1.
</event>
<event>
 4    1  0.6225520E+003  0.3292708E+02  0.7546771E-02  0.1395753E+00
          2   -1    0    0  501    0  0.00000000000E+00  0.00000000000E+00  0.78316424075E+01  0.78316424075E+01  0.00000000000E+00 0. -1.
          2   -1    0    0  502    0 -0.00000000000E+00 -0.00000000000E+00 -0.31877195229E+03  0.31877195229E+03  0.00000000000E+00 0. -1.
          2    1    1    2  501    0  0.19345885065E+02  0.26644500835E+02 -0.27829615607E+03  0.28023729798E+03  0.00000000000E+00 0. -1.
          2    1    1    2  502    0 -0.19345885065E+02 -0.26644500835E+02 -0.32644153818E+02  0.46366296727E+02  0.00000000000E+00 0. -1.
</event>
<event>
 4    1  0.6225520E+003  0.3453493E+02  0.7546771E-02  0.1383863E+00
          2   -1    0    0  501    0  0.00000000000E+00  0.00000000000E+00  0.25450547326E+03  0.25450547326E+03  0.00000000000E+00 0. -1.
          2   -1    0    0  502    0 -0.00000000000E+00 -0.00000000000E+00 -0.64707357461E+03  0.64707357461E+03  0.00000000000E+00 0. -1.
          2    1    1    2  501    0  0.39270179170E+01  0.34310930728E+02 -0.64543827003E+03  0.64636152566E+03  0.00000000000E+00 0. -1.
          2    1    1    2  502    0 -0.39270179170E+01 -0.34310930728E+02  0.25287016867E+03  0.25521752221E+03  0.00000000000E+00 0. -1.
</event>
<event>
 4    1  0.6225520E+003  0.3622507E+02  0.7546771E-02  0.1372149E+00
          2   -1    0    0  502    0  0.00000000000E+00  0.00000000000E+00  0.43190941087E+03  0.43190941087E+03  0.00000000000E+00 0. -1.
          2   -1    0    0  501    0 -0.00000000000E+00 -0.00000000000E+00 -0.12289990147E+02  0.12289990147E+02  0.00000000000E+00 0. -1.
          2    1    1    2  501    0 -0.33613893593E+02 -0.13504153208E+02  0.40251051401E+03  0.40413731563E+03  0.00000000000E+00 0. -1.
          2    1    1    2  502    0  0.33613893593E+02  0.13504153208E+02  0.17108906709E+02  0.40062085382E+02  0.00000000000E+00 0. -1.
</event>
<event>
 4    1  0.6225520E+003  0.2212779E+02  0.7546771E-02  0.1503751E+00
          2   -1    0    0  501    0  0.00000000000E+00  0.00000000000E+00  0.47110322181E+02  0.47110322181E+02  0.00000000000E+00 0. -1.
          2   -1    0    0  502    0 -0.00000000000E+00 -0.00000000000E+00 -0.46560467615E+02  0.46560467615E+02  0.00000000000E+00 0. -1.
          2    1    1    2  501    0  0.22034853507E+02 -0.20259305131E+01 -0.41003374273E+02  0.46593088170E+02  0.00000000000E+00 0. -1.
          2    1    1    2  502    0 -0.22034853507E+02  0.20259305131E+01  0.41553228839E+02  0.47077701626E+02  0.00000000000E+00 0. -1.
</event>
<event>
 4    1  0.6225520E+003  0.4226246E+02  0.7546771E-02  0.1335715E+00
          2   -1    0    0  502    0  0.00000000000E+00  0.00000000000E+00  0.16718039571E+03  0.16718039571E+03  0.00000000000E+00 0.  1.
          2   -1    0    0  501    0 -0.00000000000E+00 -0.00000000000E+00 -0.31568813203E+02  0.31568813203E+02  0.00000000000E+00 0.  1.
          2    1    1    2  501    0  0.34375771131E+02 -0.24585001617E+02  0.14863420083E+03  0.15452586063E+03  0.00000000000E+00 0.  1.
          2    1    1    2  502    0 -0.34375771131E+02  0.24585001617E+02 -0.13022618327E+02  0.44223348284E+02  0.00000000000E+00 0.  1.
</event>
<event>
 4    1  0.6225520E+003  0.2229457E+02  0.7546771E-02  0.1501551E+00
          2   -1    0    0  502    0  0.00000000000E+00  0.00000000000E+00  0.77249889306E+00  0.77249889306E+00  0.00000000000E+00 0.  1.
          2   -1    0    0  501    0 -0.00000000000E+00 -0.00000000000E+00 -0.15109255690E+04  0.15109255690E+04  0.00000000000E+00 0. -1.
          2    1    1    2  501    0  0.21703744459E+02 -0.50985614268E+01 -0.18234971711E+03  0.18370755886E+03  0.00000000000E+00 0.  1.
          2    1    1    2  502    0 -0.21703744459E+02  0.50985614268E+01 -0.13278033530E+04  0.13279905090E+04  0.00000000000E+00 0. -1.
</event>
<event>
 4    1  0.6225520E+003  0.2856236E+02  0.7546771E-02  0.1432515E+00
          2   -1    0    0  502    0  0.00000000000E+00  0.00000000000E+00  0.15833368966E+03  0.15833368966E+03  0.00000000000E+00 0. -1.
          2   -1    0    0  501    0 -0.00000000000E+00 -0.00000000000E+00 -0.20788793405E+02  0.20788793405E+02  0.00000000000E+00 0.  1.
          2    1    1    2  501    0  0.19237392428E+02 -0.21112347080E+02  0.14644594972E+03  0.14920531041E+03  0.00000000000E+00 0. -1.
          2    1    1    2  502    0 -0.19237392428E+02  0.21112347080E+02 -0.89010534637E+01  0.29917172651E+02  0.00000000000E+00 0.  1.
</event>
<event>
 4    1  0.6225520E+003  0.2327453E+02  0.7546771E-02  0.1489079E+00
          2   -1    0    0  502    0  0.00000000000E+00  0.00000000000E+00  0.15218663924E+03  0.15218663924E+03  0.00000000000E+00 0.  1.
          2   -1    0    0  501    0 -0.00000000000E+00 -0.00000000000E+00 -0.25811629514E+02  0.25811629514E+02  0.00000000000E+00 0. -1.
          2    1    1    2  501    0 -0.21605794694E+02 -0.86541036341E+01  0.14582252690E+03  0.14766825395E+03  0.00000000000E+00 0.  1.
          2    1    1    2  502    0  0.21605794694E+02  0.86541036341E+01 -0.19447517168E+02  0.30330014806E+02  0.00000000000E+00 0. -1.
</event>
<event>
 4    1  0.6225520E+003  0.2325671E+02  0.7546771E-02  0.1489300E+00
          2   -1    0    0  502    0  0.00000000000E+00  0.00000000000E+00  0.42114886469E+00  0.42114886469E+00  0.00000000000E+00 0. -1.
          2   -1    0    0  501    0 -0.00000000000E+00 -0.00000000000E+00 -0.12893349234E+04  0.12893349234E+04  0.00000000000E+00 0. -1.
          2    1    1    2  501    0 -0.23055802273E+01  0.23142142113E+02 -0.68482248799E+03  0.68521727540E+03  0.00000000000E+00 0. -1.
          2    1    1    2  502    0  0.23055802273E+01 -0.23142142113E+02 -0.60409128656E+03  0.60453879689E+03  0.00000000000E+00 0. -1.
</event>
<event>
 4    1  0.6225520E+003  0.2057922E+02  0.7546771E-02  0.1525358E+00
          2   -1    0    0  501    0  0.00000000000E+00  0.00000000000E+00  0.14071720613E+03  0.14071720613E+03  0.00000000000E+00 0.  1.
          2   -1    0    0  502    0 -0.00000000000E+00 -0.00000000000E+00 -0.12945620931E+02  0.12945620931E+02  0.00000000000E+00 0. -1.
          2    1    1    2  501    0 -0.39219223317E+01 -0.20202049015E+02 -0.34247910791E+01  0.20862249474E+02  0.00000000000E+00 0. -1.
          2    1    1    2  502    0  0.39219223317E+01  0.20202049015E+02  0.13119637628E+03  0.13280057759E+03  0.00000000000E+00 0.  1.
</event>
<event>
 4    1  0.6225520E+003  0.2045961E+02  0.7546771E-02  0.1527122E+00
          2   -1    0    0  501    0  0.00000000000E+00  0.00000000000E+00  0.13811217879E+02  0.13811217879E+02  0.00000000000E+00 0. -1.
          2   -1    0    0  502    0 -0.00000000000E+00 -0.00000000000E+00 -0.33083071595E+03  0.33083071595E+03  0.00000000000E+00 0.  1.
          2    1    1    2  501    0  0.18148442508E+02 -0.94461368720E+01 -0.32274772999E+03  0.32339556688E+03  0.00000000000E+00 0.  1.
          2    1    1    2  502    0 -0.18148442508E+02  0.94461368720E+01  0.57282319205E+01  0.21246366942E+02  0.00000000000E+00 0. -1.
</event>
<event>
 4    1  0.6225520E+003  0.2079167E+02  0.7546771E-02  0.1522260E+00
          2   -1    0    0  502    0  0.00000000000E+00  0.00000000000E+00  0.65312647413E+02  0.65312647413E+02  0.00000000000E+00 0.  1.
          2   -1    0    0  501    0 -0.00000000000E+00 -0.00000000000E+00 -0.73948672195E+03  0.73948672195E+03  0.00000000000E+00 0.  1.
          2    1    1    2  501    0  0.98410627351E+01 -0.18315210423E+02  0.63507745122E+02  0.66824599805E+02  0.00000000000E+00 0.  1.
          2    1    1    2  502    0 -0.98410627351E+01  0.18315210423E+02 -0.73768181966E+03  0.73797476956E+03  0.00000000000E+00 0.  1.
</event>
<event>
 4    1  0.6225520E+003  0.2000103E+02  0.7546771E-02  0.1534020E+00
          2   -1    0    0  502    0  0.00000000000E+00  0.00000000000E+00  0.79681035705E+01  0.79681035705E+01  0.00000000000E+00 0.  1.
          2   -1    0    0  501    0 -0.00000000000E+00 -0.00000000000E+00 -0.10501325969E+04  0.10501325969E+04  0.00000000000E+00 0.  1.
          2    1    1    2  501    0  0.98718263421E-02  0.20001028739E+02 -0.48333426321E+01  0.20576745347E+02  0.00000000000E+00 0.  1.
          2    1    1    2  502    0 -0.98718263421E-02 -0.20001028739E+02 -0.10373311507E+04  0.10375239551E+04  0.00000000000E+00 0.  1.
</event>
<event>
 4    1  0.6225520E+003  0.2429101E+02  0.7546771E-02  0.1476893E+00
          2   -1    0    0  502    0  0.00000000000E+00  0.00000000000E+00  0.84582494340E+02  0.84582494340E+02  0.00000000000E+00 0. -1.
          2   -1    0    0  501    0 -0.00000000000E+00 -0.00000000000E+00 -0.81459165550E+03  0.81459165550E+03  0.00000000000E+00 0. -1.
          2    1    1    2  501    0 -0.56743417961E+01  0.23618958630E+02  0.82653248922E+02  0.86148783618E+02  0.00000000000E+00 0. -1.
          2    1    1    2  502    0  0.56743417961E+01 -0.23618958630E+02 -0.81266241008E+03  0.81302536622E+03  0.00000000000E+00 0. -1.
</event>
<event>
 4    1  0.6225520E+003  0.2000208E+02  0.7546771E-02  0.1534004E+00
          2   -1    0    0  501    0  0.00000000000E+00  0.00000000000E+00  0.94576938404E+01  0.94576938404E+01  0.00000000000E+00 0.  1.
          2   -1    0    0  502    0 -0.00000000000E+00 -0.00000000000E+00 -0.47102717360E+03  0.47102717360E+03  0.00000000000E+00 0.  1.
          2    1    1    2  501    0 -0.14069079352E+02  0.14217744721E+02 -0.45998548305E+03  0.46042016450E+03  0.00000000000E+00 0.  1.
          2    1    1    2  502    0  0.14069079352E+02 -0.14217744721E+02 -0.15839967136E+01  0.20064702947E+02  0.00000000000E+00 0.  1.
</event>
<event>
 4    1  0.6225520E+003  0.3282685E+02  0.7546771E-02  0.1396520E+00
          2   -1    0    0  501    0  0.00000000000E+00  0.00000000000E+00  0.10347109845E+02  0.10347109845E+02  0.00000000000E+00 0.  1.
          2   -1    0    0  502    0 -0.00000000000E+00 -0.00000000000E+00 -0.34561163499E+03  0.34561163499E+03  0.00000000000E+00 0.  1.
          2    1    1    2  501    0  0.26683007905E+02  0.19121172188E+02 -0.31639831937E+03  0.31809668128E+03  0.00000000000E+00 0.  1.
          2    1    1    2  502    0 -0.26683007905E+02 -0.19121172188E+02 -0.18866205772E+02  0.37862063559E+02  0.00000000000E+00 0.  1.
</event>
<event>
 4    1  0.6225520E+003  0.2171253E+02  0.7546771E-02  0.1509330E+00
          2   -1    0    0  501    0  0.00000000000E+00  0.00000000000E+00  0.44393802225E+02  0.44393802225E+02  0.00000000000E+00 0.  1.
          2   -1    0    0  502    0 -0.00000000000E+00 -0.00000000000E+00 -0.35699938367E+02  0.35699938367E+02  0.00000000000E+00 0. -1.
          2    1    1    2  501    0 -0.18797049172E+02 -0.10867612943E+02 -0.29219375117E+02  0.36403378289E+02  0.00000000000E+00 0. -1.
          2    1    1    2  502    0  0.18797049172E+02  0.10867612943E+02  0.37913238974E+02  0.43690362303E+02  0.00000000000E+00 0.  1.
</event>
<event>
 4    1  0.6225520E+003  0.2343351E+02  0.7546771E-02  0.1487125E+00
          2   -1    0    0  502    0  0.00000000000E+00  0.00000000000E+00  0.75184443475E+00  0.75184443475E+00  0.00000000000E+00 0. -1.
          2   -1    0    0  501    0 -0.00000000000E+00 -0.00000000000E+00 -0.12667384860E+04  0.12667384860E+04  0.00000000000E+00 0. -1.
          2    1    1    2  501    0 -0.13709897433E+02 -0.19004427925E+02 -0.22061090509E+03  0.22185197996E+03  0.00000000000E+00 0. -1.
          2    1    1    2  502    0  0.13709897433E+02  0.19004427925E+02 -0.10453757364E+04  0.10456383504E+04  0.00000000000E+00 0. -1.
</event>
<event>
 4    1  0.6225520E+003  0.2048666E+02  0.7546771E-02  0.1526722E+00
          2   -1    0    0  501    0  0.00000000000E+00  0.00000000000E+00  0.50699888046E+00  0.50699888046E+00  0.00000000000E+00 0.  1.
          2   -1    0    0  502    0 -0.00000000000E+00 -0.00000000000E+00 -0.14828916291E+04  0.14828916291E+04  0.00000000000E+00 0. -1.
          2    1    1    2  501    0 -0.83008743153E+01  0.18729624010E+02 -0.12341593537E+04  0.12343293781E+04  0.00000000000E+00 0. -1.
          2    1    1    2  502    0  0.83008743153E+01 -0.18729624010E+02 -0.24822527654E+03  0.24906924990E+03  0.00000000000E+00 0.  1.
</event>
<event>
 4    1  0.6225520E+003  0.2138907E+02  0.7546771E-02  0.1513782E+00
          2   -1    0    0  501    0  0.00000000000E+00  0.00000000000E+00  0.62935505708E+03  0.62935505708E+03  0.00000000000E+00 0.  1.
          2   -1    0    0  502    0 -0.00000000000E+00 -0.00000000000E+00 -0.20201063755E+03  0.20201063755E+03  0.00000000000E+00 0. -1.
          2    1    1    2  501    0 -0.12305125872E+02 -0.17495034678E+02 -0.20126205929E+03  0.20239542700E+03  0.00000000000E+00 0. -1.
          2    1    1    2  502    0  0.12305125872E+02  0.17495034678E+02  0.62860647881E+03  0.62897026763E+03  0.00000000000E+00 0.  1.
</event>
<event>
 4    1  0.6225520E+003  0.2503075E+02  0.7546771E-02  0.1468460E+00
          2   -1    0    0  502    0  0.00000000000E+00  0.00000000000E+00  0.25125349554E+03  0.25125349554E+03  0.00000000000E+00 0.  1.
          2   -1    0    0  501    0 -0.00000000000E+00 -0.00000000000E+00 -0.34141574107E+03  0.34141574107E+03  0.00000000000E+00 0.  1.
          2    1    1    2  501    0  0.14903005440E+02  0.20110661457E+02  0.25016932018E+03  0.25141843018E+03  0.00000000000E+00 0.  1.
          2    1    1    2  502    0 -0.14903005440E+02 -0.20110661457E+02 -0.34033156571E+03  0.34125080644E+03  0.00000000000E+00 0.  1.
</event>
<event>
 4    1  0.6225520E+003  0.2654412E+02  0.7546771E-02  0.1452242E+00
          2   -1    0    0  502    0  0.00000000000E+00  0.00000000000E+00  0.32665622489E+01  0.32665622489E+01  0.00000000000E+00 0.  1.
          2   -1    0    0  501    0 -0.00000000000E+00 -0.00000000000E+00 -0.24757551347E+03  0.24757551347E+03  0.00000000000E+00 0.  1.
          2    1    1    2  501    0 -0.56655898264E+01  0.25932438237E+02 -0.77149535381E+02  0.81588241006E+02  0.00000000000E+00 0.  1.
          2    1    1    2  502    0  0.56655898264E+01 -0.25932438237E+02 -0.16715941585E+03  0.16925383472E+03  0.00000000000E+00 0.  1.
</event>
<event>
 4    1  0.6225520E+003  0.2674863E+02  0.7546771E-02  0.1450150E+00
          2   -1    0    0  501    0  0.00000000000E+00  0.00000000000E+00  0.23056101449E+02  0.23056101449E+02  0.00000000000E+00 0. -1.
          2   -1    0    0  502    0 -0.00000000000E+00 -0.00000000000E+00 -0.70838285772E+02  0.70838285772E+02  0.00000000000E+00 0. -1.
          2    1    1    2  501    0  0.24637224887E+02 -0.10416159420E+02 -0.59083463853E+02  0.64856340693E+02  0.00000000000E+00 0. -1.
          2    1    1    2  502    0 -0.24637224887E+02  0.10416159420E+02  0.11301279529E+02  0.29038046529E+02  0.00000000000E+00 0. -1.
</event>
<event>
 4    1  0.6225520E+003  0.2059951E+02  0.7546771E-02  0.1525060E+00
          2   -1    0    0  502    0  0.00000000000E+00  0.00000000000E+00  0.12255557176E+01  0.12255557176E+01  0.00000000000E+00 0.  1.
          2   -1    0    0  501    0 -0.00000000000E+00 -0.00000000000E+00 -0.49825345080E+03  0.49825345080E+03  0.00000000000E+00 0.  1.
          2    1    1    2  501    0  0.32495174537E+01  0.20341595742E+02 -0.38645675197E+03  0.38700537596E+03  0.00000000000E+00 0.  1.
          2    1    1    2  502    0 -0.32495174537E+01 -0.20341595742E+02 -0.11057114312E+03  0.11247363056E+03  0.00000000000E+00 0.  1.
</event>
<event>
 4    1  0.6225520E+003  0.2294509E+02  0.7546771E-02  0.1493189E+00
          2   -1    0    0  502    0  0.00000000000E+00  0.00000000000E+00  0.69352595961E+02  0.69352595961E+02  0.00000000000E+00 0.  1.
          2   -1    0    0  501    0 -0.00000000000E+00 -0.00000000000E+00 -0.21072121719E+03  0.21072121719E+03  0.00000000000E+00 0.  1.
          2    1    1    2  501    0 -0.22608477579E+01 -0.22833432871E+02  0.66807018418E+02  0.70637488624E+02  0.00000000000E+00 0.  1.
          2    1    1    2  502    0  0.22608477579E+01  0.22833432871E+02 -0.20817563965E+03  0.20943632453E+03  0.00000000000E+00 0.  1.
</event>
<event>
 4    1  0.6225520E+003  0.2869896E+02  0.7546771E-02  0.1431250E+00
          2   -1    0    0  502    0  0.00000000000E+00  0.00000000000E+00  0.74644374086E+03  0.74644374086E+03  0.00000000000E+00 0. -1.
          2   -1    0    0  501    0 -0.00000000000E+00 -0.00000000000E+00 -0.54913212173E+01  0.54913212173E+01  0.00000000000E+00 0. -1.
          2    1    1    2  501    0 -0.20768428347E+02 -0.19806635060E+02  0.70655494655E+03  0.70713755586E+03  0.00000000000E+00 0. -1.
          2    1    1    2  502    0  0.20768428347E+02  0.19806635060E+02  0.34397473092E+02  0.44797506220E+02  0.00000000000E+00 0. -1.
</event>
<event>
 4    1  0.6225520E+003  0.5146583E+02  0.7546771E-02  0.1291939E+00
          2   -1    0    0  501    0  0.00000000000E+00  0.00000000000E+00  0.19563375834E+04  0.19563375834E+04  0.00000000000E+00 0. -1.
          2   -1    0    0  502    0 -0.00000000000E+00 -0.00000000000E+00 -0.38464727370E+01  0.38464727370E+01  0.00000000000E+00 0. -1.
          2    1    1    2  501    0  0.31333102328E+02  0.40828517658E+02  0.18728114566E+03  0.19422399099E+03  0.00000000000E+00 0. -1.
          2    1    1    2  502    0 -0.31333102328E+02 -0.40828517658E+02  0.17652099650E+04  0.17659600652E+04  0.00000000000E+00 0. -1.
</event>
<event>
 4    1  0.6225520E+003  0.2368720E+02  0.7546771E-02  0.1484045E+00
          2   -1    0    0  502    0  0.00000000000E+00  0.00000000000E+00  0.10414631050E+02  0.10414631050E+02  0.00000000000E+00 0.  1.
          2   -1    0    0  501    0 -0.00000000000E+00 -0.00000000000E+00 -0.61123230742E+02  0.61123230742E+02  0.00000000000E+00 0.  1.
          2    1    1    2  501    0 -0.16104192801E+02  0.17370625650E+02 -0.13036532203E+02  0.27037655836E+02  0.00000000000E+00 0.  1.
          2    1    1    2  502    0  0.16104192801E+02 -0.17370625650E+02 -0.37672067490E+02  0.44500205957E+02  0.00000000000E+00 0.  1.
</event>
<event>
 4    1  0.6225520E+003  0.2474277E+02  0.7546771E-02  0.1471702E+00
          2   -1    0    0  502    0  0.00000000000E+00  0.00000000000E+00  0.73075236646E+00  0.73075236646E+00  0.00000000000E+00 0.  1.
          2   -1    0    0  501    0 -0.00000000000E+00 -0.00000000000E+00 -0.20578941641E+04  0.20578941641E+04  0.00000000000E+00 0. -1.
          2    1    1    2  501    0 -0.13735851192E+02 -0.20579868072E+02 -0.23601249413E+03  0.23730592484E+03  0.00000000000E+00 0.  1.
          2    1    1    2  502    0  0.13735851192E+02  0.20579868072E+02 -0.18211509176E+04  0.18213189916E+04  0.00000000000E+00 0. -1.
</event>
<event>
 4    1  0.6225520E+003  0.3188612E+02  0.7546771E-02  0.1403884E+00
          2   -1    0    0  501    0  0.00000000000E+00  0.00000000000E+00  0.10180860969E+04  0.10180860969E+04  0.00000000000E+00 0. -1.
          2   -1    0    0  502    0 -0.00000000000E+00 -0.00000000000E+00 -0.42366990040E+02  0.42366990040E+02  0.00000000000E+00 0.  1.
          2    1    1    2  501    0 -0.12692104599E+02 -0.29251243524E+02 -0.36080547575E+02  0.48151123353E+02  0.00000000000E+00 0.  1.
          2    1    1    2  502    0  0.12692104599E+02  0.29251243524E+02  0.10117996544E+04  0.10123019636E+04  0.00000000000E+00 0. -1.
</event>
<event>
 4    1  0.6225520E+003  0.2105142E+02  0.7546771E-02  0.1518532E+00
          2   -1    0    0  502    0  0.00000000000E+00  0.00000000000E+00  0.24502219053E+03  0.24502219053E+03  0.00000000000E+00 0. -1.
          2   -1    0    0  501    0 -0.00000000000E+00 -0.00000000000E+00 -0.30484475129E+01  0.30484475129E+01  0.00000000000E+00 0. -1.
          2    1    1    2  501    0  0.14656431815E+02 -0.15111300242E+02  0.20008737363E+03  0.20119174803E+03  0.00000000000E+00 0. -1.
          2    1    1    2  502    0 -0.14656431815E+02  0.15111300242E+02  0.41886369384E+02  0.46878890012E+02  0.00000000000E+00 0. -1.
</event>
<event>
 4    1  0.6225520E+003  0.2125482E+02  0.7546771E-02  0.1515658E+00
          2   -1    0    0  502    0  0.00000000000E+00  0.00000000000E+00  0.52867995084E+02  0.52867995084E+02  0.00000000000E+00 0.  1.
          2   -1    0    0  501    0 -0.00000000000E+00 -0.00000000000E+00 -0.16812781936E+03  0.16812781936E+03  0.00000000000E+00 0.  1.
          2    1    1    2  501    0  0.13555068299E+02  0.16371542769E+02  0.50023317928E+02  0.54351629468E+02  0.00000000000E+00 0.  1.
          2    1    1    2  502    0 -0.13555068299E+02 -0.16371542769E+02 -0.16528314220E+03  0.16664418497E+03  0.00000000000E+00 0.  1.
</event>
<event>
 4    1  0.6225520E+003  0.2608364E+02  0.7546771E-02  0.1457037E+00
          2   -1    0    0  501    0  0.00000000000E+00  0.00000000000E+00  0.43511848543E+01  0.43511848543E+01  0.00000000000E+00 0. -1.
          2   -1    0    0  502    0 -0.00000000000E+00 -0.00000000000E+00 -0.61971650399E+03  0.61971650399E+03  0.00000000000E+00 0. -1.
          2    1    1    2  501    0  0.22556178179E+02 -0.13098674661E+02 -0.57749526997E+03  0.57808402788E+03  0.00000000000E+00 0. -1.
          2    1    1    2  502    0 -0.22556178179E+02  0.13098674661E+02 -0.37870049167E+02  0.45983660966E+02  0.00000000000E+00 0. -1.
</event>
<event>
 4    1  0.6225520E+003  0.2332439E+02  0.7546771E-02  0.1488464E+00
          2   -1    0    0  502    0  0.00000000000E+00  0.00000000000E+00  0.16474879437E+03  0.16474879437E+03  0.00000000000E+00 0. -1.
          2   -1    0    0  501    0 -0.00000000000E+00 -0.00000000000E+00 -0.40801101781E+02  0.40801101781E+02  0.00000000000E+00 0.  1.
          2    1    1    2  501    0 -0.22966602825E+02 -0.40696732777E+01  0.16050210769E+03  0.16218801947E+03  0.00000000000E+00 0. -1.
          2    1    1    2  502    0  0.22966602825E+02  0.40696732777E+01 -0.36554415102E+02  0.43361876682E+02  0.00000000000E+00 0.  1.
</event>
<event>
 4    1  0.6225520E+003  0.2269155E+02  0.7546771E-02  0.1496408E+00
          2   -1    0    0  502    0  0.00000000000E+00  0.00000000000E+00  0.26148022171E+00  0.26148022171E+00  0.00000000000E+00 0.  1.
          2   -1    0    0  501    0 -0.00000000000E+00 -0.00000000000E+00 -0.21971294195E+04  0.21971294195E+04  0.00000000000E+00 0.  1.
          2    1    1    2  501    0  0.16936001577E+02  0.15102261956E+02 -0.74455797059E+03  0.74490367030E+03  0.00000000000E+00 0.  1.
          2    1    1    2  502    0 -0.16936001577E+02 -0.15102261956E+02 -0.14523099687E+04  0.14524872294E+04  0.00000000000E+00 0.  1.
</event>
<event>
 4    1  0.6225520E+003  0.2159170E+02  0.7546771E-02  0.1510982E+00
          2   -1    0    0  501    0  0.00000000000E+00  0.00000000000E+00  0.70489637254E+03  0.70489637254E+03  0.00000000000E+00 0. -1.
          2   -1    0    0  502    0 -0.00000000000E+00 -0.00000000000E+00 -0.81182569556E+01  0.81182569556E+01  0.00000000000E+00 0.  1.
          2    1    1    2  501    0 -0.45204792568E+00 -0.21586970149E+02  0.67121328168E+01  0.22610934401E+02  0.00000000000E+00 0.  1.
          2    1    1    2  502    0  0.45204792568E+00  0.21586970149E+02  0.69006598277E+03  0.69040369510E+03  0.00000000000E+00 0. -1.
</event>
<event>
 4    1  0.6225520E+003  0.2528680E+02  0.7546771E-02  0.1465620E+00
          2   -1    0    0  502    0  0.00000000000E+00  0.00000000000E+00  0.10917188469E+01  0.10917188469E+01  0.00000000000E+00 0.  1.
          2   -1    0    0  501    0 -0.00000000000E+00 -0.00000000000E+00 -0.11239763994E+04  0.11239763994E+04  0.00000000000E+00 0. -1.
          2    1    1    2  501    0  0.18460659159E+02 -0.17280812093E+02 -0.17215354191E+03  0.17400075976E+03  0.00000000000E+00 0.  1.
          2    1    1    2  502    0 -0.18460659159E+02  0.17280812093E+02 -0.95073113861E+03  0.95106735846E+03  0.00000000000E+00 0. -1.
</event>
<event>
 4    1  0.6225520E+003  0.5260408E+02  0.7546771E-02  0.1287260E+00
          2   -1    0    0  501    0  0.00000000000E+00  0.00000000000E+00  0.83873365847E+03  0.83873365847E+03  0.00000000000E+00 0.  1.
          2   -1    0    0  502    0 -0.00000000000E+00 -0.00000000000E+00 -0.19028932416E+03  0.19028932416E+03  0.00000000000E+00 0.  1.
          2    1    1    2  501    0 -0.42559708627E+02 -0.30916996374E+02 -0.18580950691E+03  0.19311230495E+03  0.00000000000E+00 0.  1.
          2    1    1    2  502    0  0.42559708627E+02  0.30916996374E+02  0.83425384122E+03  0.83591067768E+03  0.00000000000E+00 0.  1.
</event>
<event>
 4    1  0.6225520E+003  0.2481491E+02  0.7546771E-02  0.1470885E+00
          2   -1    0    0  501    0  0.00000000000E+00  0.00000000000E+00  0.36829855236E+03  0.36829855236E+03  0.00000000000E+00 0. -1.
          2   -1    0    0  502    0 -0.00000000000E+00 -0.00000000000E+00 -0.66691635200E+02  0.66691635200E+02  0.00000000000E+00 0. -1.
          2    1    1    2  501    0 -0.23442076099E+02 -0.81393506085E+01 -0.63948030526E+02  0.68593954313E+02  0.00000000000E+00 0. -1.
          2    1    1    2  502    0  0.23442076099E+02  0.81393506085E+01  0.36555494769E+03  0.36639623325E+03  0.00000000000E+00 0. -1.
</event>
<event>
 4    1  0.6225520E+003  0.4312340E+02  0.7546771E-02  0.1331095E+00
          2   -1    0    0  501    0  0.00000000000E+00  0.00000000000E+00  0.11734338822E+03  0.11734338822E+03  0.00000000000E+00 0.  1.
          2   -1    0    0  502    0 -0.00000000000E+00 -0.00000000000E+00 -0.15208033883E+03  0.15208033883E+03  0.00000000000E+00 0. -1.
          2    1    1    2  501    0  0.42300010892E+02 -0.83866749066E+01 -0.14486837192E+03  0.15115049593E+03  0.00000000000E+00 0. -1.
          2    1    1    2  502    0 -0.42300010892E+02  0.83866749066E+01  0.11013142131E+03  0.11827323111E+03  0.00000000000E+00 0.  1.
</event>
<event>
 4    1  0.6225520E+003  0.2296992E+02  0.7546771E-02  0.1492876E+00
          2   -1    0    0  502    0  0.00000000000E+00  0.00000000000E+00  0.78255708319E+03  0.78255708319E+03  0.00000000000E+00 0. -1.
          2   -1    0    0  501    0 -0.00000000000E+00 -0.00000000000E+00 -0.30431539990E+02  0.30431539990E+02  0.00000000000E+00 0. -1.
          2    1    1    2  501    0 -0.22390381481E+02  0.51271778092E+01  0.77802884634E+03  0.77836784548E+03  0.00000000000E+00 0. -1.
          2    1    1    2  502    0  0.22390381481E+02 -0.51271778092E+01 -0.25903303141E+02  0.34620777703E+02  0.00000000000E+00 0. -1.
</event>
<event>
 4    1  0.6225520E+003  0.2692326E+02  0.7546771E-02  0.1448380E+00
          2   -1    0    0  502    0  0.00000000000E+00  0.00000000000E+00  0.30303709731E+03  0.30303709731E+03  0.00000000000E+00 0.  1.
          2   -1    0    0  501    0 -0.00000000000E+00 -0.00000000000E+00 -0.92738965764E+02  0.92738965764E+02  0.00000000000E+00 0. -1.
          2    1    1    2  501    0 -0.23148434745E+02 -0.13748163740E+02  0.30046838933E+03  0.30167219797E+03  0.00000000000E+00 0.  1.
          2    1    1    2  502    0  0.23148434745E+02  0.13748163740E+02 -0.90170257791E+02  0.94103865103E+02  0.00000000000E+00 0. -1.
</event>
<event>
 4    1  0.6225520E+003  0.2210570E+02  0.7546771E-02  0.1504044E+00
          2   -1    0    0  501    0  0.00000000000E+00  0.00000000000E+00  0.13447346982E+04  0.13447346982E+04  0.00000000000E+00 0.  1.
          2   -1    0    0  502    0 -0.00000000000E+00 -0.00000000000E+00 -0.37475385074E+00  0.37475385074E+00  0.00000000000E+00 0.  1.
          2    1    1    2  501    0 -0.17705337549E+02  0.13235668457E+02  0.55505890415E+03  0.55549891897E+03  0.00000000000E+00 0.  1.
          2    1    1    2  502    0  0.17705337549E+02 -0.13235668457E+02  0.78930104016E+03  0.78961053305E+03  0.00000000000E+00 0.  1.
</event>
<event>
 4    1  0.6225520E+003  0.3079881E+02  0.7546771E-02  0.1412779E+00
          2   -1    0    0  501    0  0.00000000000E+00  0.00000000000E+00  0.31709303599E+03  0.31709303599E+03  0.00000000000E+00 0. -1.
          2   -1    0    0  502    0 -0.00000000000E+00 -0.00000000000E+00 -0.18788701180E+03  0.18788701180E+03  0.00000000000E+00 0. -1.
          2    1    1    2  501    0 -0.24774276533E+02 -0.18297593306E+02 -0.18586893491E+03  0.18840336426E+03  0.00000000000E+00 0. -1.
          2    1    1    2  502    0  0.24774276533E+02  0.18297593306E+02  0.31507495911E+03  0.31657668353E+03  0.00000000000E+00 0. -1.
</event>
<event>
 4    1  0.6225520E+003  0.4209974E+02  0.7546771E-02  0.1336602E+00
          2   -1    0    0  501    0  0.00000000000E+00  0.00000000000E+00  0.26055343410E+02  0.26055343410E+02  0.00000000000E+00 0. -1.
          2   -1    0    0  502    0 -0.00000000000E+00 -0.00000000000E+00 -0.86188033711E+02  0.86188033711E+02  0.00000000000E+00 0. -1.
          2    1    1    2  501    0 -0.94564651056E+01  0.41023936904E+02 -0.55830366144E+02  0.69924372826E+02  0.00000000000E+00 0. -1.
          2    1    1    2  502    0  0.94564651056E+01 -0.41023936904E+02 -0.43023241569E+01  0.42319004295E+02  0.00000000000E+00 0. -1.
</event>
<event>
 4    1  0.6225520E+003  0.7808145E+02  0.7546771E-02  0.1208373E+00
          2   -1    0    0  501    0  0.00000000000E+00  0.00000000000E+00  0.14118762589E+04  0.14118762589E+04  0.00000000000E+00 0.  1.
          2   -1    0    0  502    0 -0.00000000000E+00 -0.00000000000E+00 -0.41764948673E+03  0.41764948673E+03  0.00000000000E+00 0. -1.
          2    1    1    2  501    0 -0.72966526940E+02 -0.27795655971E+02 -0.41290823944E+03  0.42022604244E+03  0.00000000000E+00 0. -1.
          2    1    1    2  502    0  0.72966526940E+02  0.27795655971E+02  0.14071350116E+04  0.14092997032E+04  0.00000000000E+00 0.  1.
</event>
<event>
 4    1  0.6225520E+003  0.2492410E+02  0.7546771E-02  0.1469654E+00
          2   -1    0    0  501    0  0.00000000000E+00  0.00000000000E+00  0.71757349474E+01  0.71757349474E+01  0.00000000000E+00 0.  1.
          2   -1    0    0  502    0 -0.00000000000E+00 -0.00000000000E+00 -0.24542003079E+03  0.24542003079E+03  0.00000000000E+00 0.  1.
          2    1    1    2  501    0 -0.30041002311E+01 -0.24742397112E+02 -0.22073141019E+03  0.22213411777E+03  0.00000000000E+00 0.  1.
          2    1    1    2  502    0  0.30041002311E+01  0.24742397112E+02 -0.17512885655E+02  0.30461647969E+02  0.00000000000E+00 0.  1.
</event>
<event>
 4    1  0.6225520E+003  0.2469691E+02  0.7546771E-02  0.1472223E+00
          2   -1    0    0  501    0  0.00000000000E+00  0.00000000000E+00  0.56876518485E+01  0.56876518485E+01  0.00000000000E+00 0. -1.
          2   -1    0    0  502    0 -0.00000000000E+00 -0.00000000000E+00 -0.12383476735E+04  0.12383476735E+04  0.00000000000E+00 0.  1.
          2    1    1    2  501    0 -0.21567314245E+02 -0.12032806639E+02 -0.12108050276E+04  0.12110568742E+04  0.00000000000E+00 0.  1.
          2    1    1    2  502    0  0.21567314245E+02  0.12032806639E+02 -0.21854993987E+02  0.32978451169E+02  0.00000000000E+00 0. -1.
</event>
<event>
 4    1  0.6225520E+003  0.4519499E+02  0.7546771E-02  0.1320467E+00
          2   -1    0    0  502    0  0.00000000000E+00  0.00000000000E+00  0.30018710810E+03  0.30018710810E+03  0.00000000000E+00 0. -1.
          2   -1    0    0  501    0 -0.00000000000E+00 -0.00000000000E+00 -0.11720255904E+02  0.11720255904E+02  0.00000000000E+00 0.  1.
          2    1    1    2  501    0 -0.20655793804E+02 -0.40198573528E+02  0.24523486118E+03  0.24936464118E+03  0.00000000000E+00 0. -1.
          2    1    1    2  502    0  0.20655793804E+02  0.40198573528E+02  0.43231991018E+02  0.62542722828E+02  0.00000000000E+00 0.  1.
</event>
<event>
 4    1  0.1120370E+004  0.3456326E+02  0.7546771E-02  0.1383660E+00
          2   -1    0    0  501    0  0.00000000000E+00  0.00000000000E+00  0.73545347062E+03  0.73545347062E+03  0.00000000000E+00 0.  1.
          2   -1    0    0  502    0 -0.00000000000E+00 -0.00000000000E+00 -0.17693460284E+04  0.17693460284E+04  0.00000000000E+00 0.  1.
          2    1    1    2  501    0  0.34555089859E+02 -0.75139410590E+00 -0.17687710201E+04  0.17691086853E+04  0.00000000000E+00 0.  1.
          2    1    1    2  502    0 -0.34555089859E+02  0.75139410590E+00  0.73487846239E+03  0.73569081367E+03  0.00000000000E+00 0.  1.
</event>
<event>
 4    1  0.6225520E+003  0.2911047E+02  0.7546771E-02  0.1427487E+00
          2   -1    0    0  502    0  0.00000000000E+00  0.00000000000E+00  0.23846184508E+02  0.23846184508E+02  0.00000000000E+00 0. -1.
          2   -1    0    0  501    0 -0.00000000000E+00 -0.00000000000E+00 -0.26427799422E+03  0.26427799422E+03  0.00000000000E+00 0. -1.
          2    1    1    2  501    0  0.25013147829E+02  0.14891663951E+02  0.13810792336E+02  0.32220446993E+02  0.00000000000E+00 0. -1.
          2    1    1    2  502    0 -0.25013147829E+02 -0.14891663951E+02 -0.25424260204E+03  0.25590373173E+03  0.00000000000E+00 0. -1.
</event>
<event>
 4    1  0.6225520E+003  0.2874000E+02  0.7546771E-02  0.1430871E+00
          2   -1    0    0  502    0  0.00000000000E+00  0.00000000000E+00  0.17799002389E+04  0.17799002389E+04  0.00000000000E+00 0.  1.
          2   -1    0    0  501    0 -0.00000000000E+00 -0.00000000000E+00 -0.69001434176E+01  0.69001434176E+01  0.00000000000E+00 0.  1.
          2    1    1    2  501    0  0.15617964852E+02  0.24126061211E+02  0.17493348996E+04  0.17495709699E+04  0.00000000000E+00 0.  1.
          2    1    1    2  502    0 -0.15617964852E+02 -0.24126061211E+02  0.23665195908E+02  0.37229412472E+02  0.00000000000E+00 0.  1.
</event>
<event>
 4    1  0.6225520E+003  0.5555343E+02  0.7546771E-02  0.1275738E+00
          2   -1    0    0  501    0  0.00000000000E+00  0.00000000000E+00  0.19820327236E+04  0.19820327236E+04  0.00000000000E+00 0. -1.
          2   -1    0    0  502    0 -0.00000000000E+00 -0.00000000000E+00 -0.18650828156E+01  0.18650828156E+01  0.00000000000E+00 0. -1.
          2    1    1    2  501    0  0.22946355944E+02  0.50592971914E+02  0.58697955767E+03  0.58960256544E+03  0.00000000000E+00 0. -1.
          2    1    1    2  502    0 -0.22946355944E+02 -0.50592971914E+02  0.13931880832E+04  0.13942952410E+04  0.00000000000E+00 0. -1.
</event>
<event>
 4    1  0.6225520E+003  0.2733453E+02  0.7546771E-02  0.1444276E+00
          2   -1    0    0  501    0  0.00000000000E+00  0.00000000000E+00  0.12146340042E+02  0.12146340042E+02  0.00000000000E+00 0. -1.
          2   -1    0    0  502    0 -0.00000000000E+00 -0.00000000000E+00 -0.64705355103E+03  0.64705355103E+03  0.00000000000E+00 0.  1.
          2    1    1    2  501    0 -0.23619438725E+02  0.13758590393E+02 -0.63099503270E+03  0.63158681746E+03  0.00000000000E+00 0.  1.
          2    1    1    2  502    0  0.23619438725E+02 -0.13758590393E+02 -0.39121782858E+01  0.27613073611E+02  0.00000000000E+00 0. -1.
</event>
<event>
 4    1  0.1053357E+004  0.3017807E+02  0.7546771E-02  0.1418055E+00
          2   -1    0    0  502    0  0.00000000000E+00  0.00000000000E+00  0.61928723523E+03  0.61928723523E+03  0.00000000000E+00 0. -1.
          2   -1    0    0  501    0 -0.00000000000E+00 -0.00000000000E+00 -0.91849310949E+03  0.91849310949E+03  0.00000000000E+00 0.  1.
          2    1    1    2  501    0 -0.29268300545E+02 -0.73541002914E+01  0.61867145848E+03  0.61940704689E+03  0.00000000000E+00 0. -1.
          2    1    1    2  502    0  0.29268300545E+02  0.73541002914E+01 -0.91787733274E+03  0.91837329783E+03  0.00000000000E+00 0.  1.
</event>
<event>
 4    1  0.6225520E+003  0.3736316E+02  0.7546771E-02  0.1364671E+00
          2   -1    0    0  501    0  0.00000000000E+00  0.00000000000E+00  0.27287535798E+04  0.27287535798E+04  0.00000000000E+00 0.  1.
          2   -1    0    0  502    0 -0.00000000000E+00 -0.00000000000E+00 -0.11009271266E+01  0.11009271266E+01  0.00000000000E+00 0. -1.
          2    1    1    2  501    0  0.16354734127E+02 -0.33593581007E+02  0.36517997706E+03  0.36708639536E+03  0.00000000000E+00 0. -1.
          2    1    1    2  502    0 -0.16354734127E+02  0.33593581007E+02  0.23624726756E+04  0.23627681115E+04  0.00000000000E+00 0.  1.
</event>
<event>
 4    1  0.6225520E+003  0.2022273E+02  0.7546771E-02  0.1530658E+00
          2   -1    0    0  502    0  0.00000000000E+00  0.00000000000E+00  0.53796979428E+02  0.53796979428E+02  0.00000000000E+00 0.  1.
          2   -1    0    0  501    0 -0.00000000000E+00 -0.00000000000E+00 -0.20774134963E+02  0.20774134963E+02  0.00000000000E+00 0. -1.
          2    1    1    2  501    0 -0.19237355089E+01  0.20131022383E+02  0.46201342528E+02  0.50433350790E+02  0.00000000000E+00 0.  1.
          2    1    1    2  502    0  0.19237355089E+01 -0.20131022383E+02 -0.13178498063E+02  0.24137763601E+02  0.00000000000E+00 0. -1.
</event>
<event>
 4    1  0.6225520E+003  0.2324615E+02  0.7546771E-02  0.1489430E+00
          2   -1    0    0  502    0  0.00000000000E+00  0.00000000000E+00  0.67106541985E+03  0.67106541985E+03  0.00000000000E+00 0.  1.
          2   -1    0    0  501    0 -0.00000000000E+00 -0.00000000000E+00 -0.80878439529E+00  0.80878439529E+00  0.00000000000E+00 0. -1.
          2    1    1    2  501    0  0.13998349751E+02 -0.18558813622E+02  0.31295799765E+03  0.31382015813E+03  0.00000000000E+00 0.  1.
          2    1    1    2  502    0 -0.13998349751E+02  0.18558813622E+02  0.35729863780E+03  0.35805404611E+03  0.00000000000E+00 0. -1.
</event>
<event>
 4    1  0.6225520E+003  0.2076852E+02  0.7546771E-02  0.1522596E+00
          2   -1    0    0  501    0  0.00000000000E+00  0.00000000000E+00  0.70234958543E+03  0.70234958543E+03  0.00000000000E+00 0. -1.
          2   -1    0    0  502    0 -0.00000000000E+00 -0.00000000000E+00 -0.70047104596E+01  0.70047104596E+01  0.00000000000E+00 0. -1.
          2    1    1    2  501    0 -0.10360510778E+01  0.20742665556E+02  0.88997559408E+01  0.22595070967E+02  0.00000000000E+00 0. -1.
          2    1    1    2  502    0  0.10360510778E+01 -0.20742665556E+02  0.68644511903E+03  0.68675922493E+03  0.00000000000E+00 0. -1.
</event>
<event>
 4    1  0.6225520E+003  0.2888566E+02  0.7546771E-02  0.1429534E+00
          2   -1    0    0  501    0  0.00000000000E+00  0.00000000000E+00  0.33812043534E+01  0.33812043534E+01  0.00000000000E+00 0. -1.
          2   -1    0    0  502    0 -0.00000000000E+00 -0.00000000000E+00 -0.12252390234E+04  0.12252390234E+04  0.00000000000E+00 0. -1.
          2    1    1    2  501    0  0.56745786495E+01  0.28322789314E+02 -0.11599015509E+04  0.11602611727E+04  0.00000000000E+00 0. -1.
          2    1    1    2  502    0 -0.56745786495E+01 -0.28322789314E+02 -0.61956268197E+02  0.68359055043E+02  0.00000000000E+00 0. -1.
</event>
<event>
 4    1  0.6225520E+003  0.2117329E+02  0.7546771E-02  0.1516805E+00
          2   -1    0    0  501    0  0.00000000000E+00  0.00000000000E+00  0.21154088269E+02  0.21154088269E+02  0.00000000000E+00 0. -1.
          2   -1    0    0  502    0 -0.00000000000E+00 -0.00000000000E+00 -0.63162317372E+02  0.63162317372E+02  0.00000000000E+00 0. -1.
          2    1    1    2  501    0 -0.11357035040E+02  0.17869691410E+02 -0.55369528240E+02  0.59279783852E+02  0.00000000000E+00 0. -1.
          2    1    1    2  502    0  0.11357035040E+02 -0.17869691410E+02  0.13361299137E+02  0.25036621789E+02  0.00000000000E+00 0. -1.
</event>
<event>
 4    1  0.6225520E+003  0.3427903E+02  0.7546771E-02  0.1385704E+00
          2   -1    0    0  501    0  0.00000000000E+00  0.00000000000E+00  0.82582210697E+03  0.82582210697E+03  0.00000000000E+00 0.  1.
          2   -1    0    0  502    0 -0.00000000000E+00 -0.00000000000E+00 -0.30199608305E+01  0.30199608305E+01  0.00000000000E+00 0.  1.
          2    1    1    2  501    0  0.30942133276E+02  0.14752492268E+02  0.11002857696E+03  0.11524469353E+03  0.00000000000E+00 0.  1.
          2    1    1    2  502    0 -0.30942133276E+02 -0.14752492268E+02  0.71277356919E+03  0.71359737427E+03  0.00000000000E+00 0.  1.
</event>
<event>
 4    1  0.6225520E+003  0.2807258E+02  0.7546771E-02  0.1437121E+00
          2   -1    0    0  502    0  0.00000000000E+00  0.00000000000E+00  0.41851223398E+03  0.41851223398E+03  0.00000000000E+00 0. -1.
          2   -1    0    0  501    0 -0.00000000000E+00 -0.00000000000E+00 -0.76038386830E+01  0.76038386830E+01  0.00000000000E+00 0.  1.
          2    1    1    2  501    0 -0.22006961606E+02  0.17428808660E+02  0.39025774709E+03  0.39126612285E+03  0.00000000000E+00 0. -1.
          2    1    1    2  502    0  0.22006961606E+02 -0.17428808660E+02  0.20650648214E+02  0.34849949815E+02  0.00000000000E+00 0.  1.
</event>
<event>
 4    1  0.6225520E+003  0.2932985E+02  0.7546771E-02  0.1425511E+00
          2   -1    0    0  502    0  0.00000000000E+00  0.00000000000E+00  0.21418123606E+01  0.21418123606E+01  0.00000000000E+00 0.  1.
          2   -1    0    0  501    0 -0.00000000000E+00 -0.00000000000E+00 -0.40657292363E+03  0.40657292363E+03  0.00000000000E+00 0.  1.
          2    1    1    2  501    0 -0.82578699481E+01  0.28143338251E+02 -0.17970821438E+03  0.18208591989E+03  0.00000000000E+00 0.  1.
          2    1    1    2  502    0  0.82578699481E+01 -0.28143338251E+02 -0.22472289688E+03  0.22662881610E+03  0.00000000000E+00 0.  1.
</event>
<event>
 4    1  0.6225520E+003  0.2219326E+02  0.7546771E-02  0.1502885E+00
          2   -1    0    0  502    0  0.00000000000E+00  0.00000000000E+00  0.60303617483E+03  0.60303617483E+03  0.00000000000E+00 0.  1.
          2   -1    0    0  501    0 -0.00000000000E+00 -0.00000000000E+00 -0.23885900635E+02  0.23885900635E+02  0.00000000000E+00 0. -1.
          2    1    1    2  501    0 -0.74755568349E+01 -0.20896335547E+02  0.59763022579E+03  0.59804216203E+03  0.00000000000E+00 0.  1.
          2    1    1    2  502    0  0.74755568349E+01  0.20896335547E+02 -0.18479951591E+02  0.28879913437E+02  0.00000000000E+00 0. -1.
</event>
<event>
 4    1  0.6225520E+003  0.2421752E+02  0.7546771E-02  0.1477751E+00
          2   -1    0    0  502    0  0.00000000000E+00  0.00000000000E+00  0.96831269484E+03  0.96831269484E+03  0.00000000000E+00 0. -1.
          2   -1    0    0  501    0 -0.00000000000E+00 -0.00000000000E+00 -0.30140540933E+01  0.30140540933E+01  0.00000000000E+00 0.  1.
          2    1    1    2  501    0  0.17347115338E+01 -0.24155315868E+02  0.91678124521E+03  0.91710105227E+03  0.00000000000E+00 0. -1.
          2    1    1    2  502    0 -0.17347115338E+01  0.24155315868E+02  0.48517395537E+02  0.54225696662E+02  0.00000000000E+00 0.  1.
</event>
<event>
 4    1  0.6225520E+003  0.3718786E+02  0.7546771E-02  0.1365802E+00
          2   -1    0    0  501    0  0.00000000000E+00  0.00000000000E+00  0.13976076084E+02  0.13976076084E+02  0.00000000000E+00 0.  1.
          2   -1    0    0  502    0 -0.00000000000E+00 -0.00000000000E+00 -0.14100173269E+03  0.14100173269E+03  0.00000000000E+00 0. -1.
          2    1    1    2  501    0 -0.27106234133E+02  0.25459551892E+02 -0.10583011090E+03  0.11217374507E+03  0.00000000000E+00 0. -1.
          2    1    1    2  502    0  0.27106234133E+02 -0.25459551892E+02 -0.21195545710E+02  0.42804063701E+02  0.00000000000E+00 0.  1.
</event>
<event>
 4    1  0.6225520E+003  0.2445396E+02  0.7546771E-02  0.1475006E+00
          2   -1    0    0  502    0  0.00000000000E+00  0.00000000000E+00  0.55964790665E+03  0.55964790665E+03  0.00000000000E+00 0. -1.
          2   -1    0    0  501    0 -0.00000000000E+00 -0.00000000000E+00 -0.24674689661E+03  0.24674689661E+03  0.00000000000E+00 0. -1.
          2    1    1    2  501    0  0.13664184801E+02 -0.20280190903E+02  0.55877394893E+03  0.55930878957E+03  0.00000000000E+00 0. -1.
          2    1    1    2  502    0 -0.13664184801E+02  0.20280190903E+02 -0.24587293888E+03  0.24708601370E+03  0.00000000000E+00 0. -1.
</event>
<event>
 4    1  0.6225520E+003  0.2579910E+02  0.7546771E-02  0.1460059E+00
          2   -1    0    0  502    0  0.00000000000E+00  0.00000000000E+00  0.38896102007E+03  0.38896102007E+03  0.00000000000E+00 0. -1.
          2   -1    0    0  501    0 -0.00000000000E+00 -0.00000000000E+00 -0.50703548547E+03  0.50703548547E+03  0.00000000000E+00 0.  1.
          2    1    1    2  501    0 -0.10812550409E+02 -0.23423968189E+02  0.38820439997E+03  0.38906072750E+03  0.00000000000E+00 0. -1.
          2    1    1    2  502    0  0.10812550409E+02  0.23423968189E+02 -0.50627886537E+03  0.50693577803E+03  0.00000000000E+00 0.  1.
</event>
<event>
 4    1  0.6225520E+003  0.3160152E+02  0.7546771E-02  0.1406172E+00
          2   -1    0    0  502    0  0.00000000000E+00  0.00000000000E+00  0.13995725284E+03  0.13995725284E+03  0.00000000000E+00 0.  1.
          2   -1    0    0  501    0 -0.00000000000E+00 -0.00000000000E+00 -0.75533476441E+02  0.75533476441E+02  0.00000000000E+00 0.  1.
          2    1    1    2  501    0 -0.10573673084E+01  0.31583824948E+02  0.13474182464E+03  0.13839803226E+03  0.00000000000E+00 0.  1.
          2    1    1    2  502    0  0.10573673084E+01 -0.31583824948E+02 -0.70318048251E+02  0.77092697020E+02  0.00000000000E+00 0.  1.
</event>
<event>
 4    1  0.6225520E+003  0.2562941E+02  0.7546771E-02  0.1461884E+00
          2   -1    0    0  501    0  0.00000000000E+00  0.00000000000E+00  0.45496847265E+01  0.45496847265E+01  0.00000000000E+00 0.  1.
          2   -1    0    0  502    0 -0.00000000000E+00 -0.00000000000E+00 -0.17236129418E+03  0.17236129418E+03  0.00000000000E+00 0.  1.
          2    1    1    2  501    0 -0.21613854784E+02 -0.13773451279E+02 -0.48263360964E+02  0.54646305368E+02  0.00000000000E+00 0.  1.
          2    1    1    2  502    0  0.21613854784E+02  0.13773451279E+02 -0.11954824849E+03  0.12226467354E+03  0.00000000000E+00 0.  1.
</event>
<event>
 4    1  0.8787878E+003  0.2548927E+02  0.7546771E-02  0.1463404E+00
          2   -1    0    0  501    0  0.00000000000E+00  0.00000000000E+00  0.78515421480E+03  0.78515421480E+03  0.00000000000E+00 0.  1.
          2   -1    0    0  502    0 -0.00000000000E+00 -0.00000000000E+00 -0.47518353173E+03  0.47518353173E+03  0.00000000000E+00 0.  1.
          2    1    1    2  501    0 -0.12998811053E+02  0.21925637420E+02 -0.47463460491E+03  0.47531853619E+03  0.00000000000E+00 0.  1.
          2    1    1    2  502    0  0.12998811053E+02 -0.21925637420E+02  0.78460528799E+03  0.78501921034E+03  0.00000000000E+00 0.  1.
</event>
<event>
 4    1  0.6225520E+003  0.2340169E+02  0.7546771E-02  0.1487515E+00
          2   -1    0    0  502    0  0.00000000000E+00  0.00000000000E+00  0.66056198424E+03  0.66056198424E+03  0.00000000000E+00 0. -1.
          2   -1    0    0  501    0 -0.00000000000E+00 -0.00000000000E+00 -0.16870990491E+01  0.16870990491E+01  0.00000000000E+00 0. -1.
          2    1    1    2  501    0 -0.22294413531E+02  0.71132353850E+01  0.56558154656E+03  0.56606547749E+03  0.00000000000E+00 0. -1.
          2    1    1    2  502    0  0.22294413531E+02 -0.71132353850E+01  0.93293338626E+02  0.96183605798E+02  0.00000000000E+00 0. -1.
</event>
<event>
 4    1  0.6225520E+003  0.2261888E+02  0.7546771E-02  0.1497340E+00
          2   -1    0    0  501    0  0.00000000000E+00  0.00000000000E+00  0.38748278133E+01  0.38748278133E+01  0.00000000000E+00 0. -1.
          2   -1    0    0  502    0 -0.00000000000E+00 -0.00000000000E+00 -0.20880769941E+03  0.20880769941E+03  0.00000000000E+00 0. -1.
          2    1    1    2  501    0  0.18296743699E+02 -0.13298224973E+02 -0.16694738726E+03  0.16847267948E+03  0.00000000000E+00 0. -1.
          2    1    1    2  502    0 -0.18296743699E+02  0.13298224973E+02 -0.37985484339E+02  0.44209847748E+02  0.00000000000E+00 0. -1.
</event>
<event>
 4    1  0.6225520E+003  0.4680503E+02  0.7546771E-02  0.1312653E+00
          2   -1    0    0  502    0  0.00000000000E+00  0.00000000000E+00  0.16927258718E+04  0.16927258718E+04  0.00000000000E+00 0.  1.
          2   -1    0    0  501    0 -0.00000000000E+00 -0.00000000000E+00 -0.17481337282E+01  0.17481337282E+01  0.00000000000E+00 0. -1.
          2    1    1    2  501    0 -0.33796816124E+02  0.32380330542E+02  0.12772247279E+04  0.12780820460E+04  0.00000000000E+00 0.  1.
          2    1    1    2  502    0  0.33796816124E+02 -0.32380330542E+02  0.41375301013E+03  0.41639195955E+03  0.00000000000E+00 0. -1.
</event>
<event>
 4    1  0.6225520E+003  0.2106340E+02  0.7546771E-02  0.1518362E+00
          2   -1    0    0  501    0  0.00000000000E+00  0.00000000000E+00  0.31529296950E+01  0.31529296950E+01  0.00000000000E+00 0. -1.
          2   -1    0    0  502    0 -0.00000000000E+00 -0.00000000000E+00 -0.14838365819E+03  0.14838365819E+03  0.00000000000E+00 0.  1.
          2    1    1    2  501    0  0.18222423644E+02  0.10564559921E+02 -0.89839398167E+02  0.92275587849E+02  0.00000000000E+00 0.  1.
          2    1    1    2  502    0 -0.18222423644E+02 -0.10564559921E+02 -0.55391330325E+02  0.59261000033E+02  0.00000000000E+00 0. -1.
</event>
<event>
 4    1  0.6225520E+003  0.2565020E+02  0.7546771E-02  0.1461659E+00
          2   -1    0    0  502    0  0.00000000000E+00  0.00000000000E+00  0.22249754516E+03  0.22249754516E+03  0.00000000000E+00 0.  1.
          2   -1    0    0  501    0 -0.00000000000E+00 -0.00000000000E+00 -0.29572492179E+01  0.29572492179E+01  0.00000000000E+00 0.  1.
          2    1    1    2  501    0 -0.16365139201E+02  0.19751332078E+02  0.11073087077E+03  0.11366291674E+03  0.00000000000E+00 0.  1.
          2    1    1    2  502    0  0.16365139201E+02 -0.19751332078E+02  0.10880942517E+03  0.11179187763E+03  0.00000000000E+00 0.  1.
</event>
<event>
 4    1  0.6225520E+003  0.2260464E+02  0.7546771E-02  0.1497523E+00
          2   -1    0    0  501    0  0.00000000000E+00  0.00000000000E+00  0.26861511360E+01  0.26861511360E+01  0.00000000000E+00 0.  1.
          2   -1    0    0  502    0 -0.00000000000E+00 -0.00000000000E+00 -0.28817206950E+03  0.28817206950E+03  0.00000000000E+00 0.  1.
          2    1    1    2  501    0 -0.21917767413E+01 -0.22498126614E+02 -0.22752893594E+03  0.22864904609E+03  0.00000000000E+00 0.  1.
          2    1    1    2  502    0  0.21917767413E+01  0.22498126614E+02 -0.57956982428E+02  0.62209174553E+02  0.00000000000E+00 0.  1.
</event>
<event>
 4    1  0.6225520E+003  0.2544266E+02  0.7546771E-02  0.1463912E+00
          2   -1    0    0  502    0  0.00000000000E+00  0.00000000000E+00  0.14906221359E+01  0.14906221359E+01  0.00000000000E+00 0. -1.
          2   -1    0    0  501    0 -0.00000000000E+00 -0.00000000000E+00 -0.80255277811E+03  0.80255277811E+03  0.00000000000E+00 0. -1.
          2    1    1    2  501    0  0.16224380981E+02  0.19598435146E+02 -0.12819530273E+03  0.13069569557E+03  0.00000000000E+00 0. -1.
          2    1    1    2  502    0 -0.16224380981E+02 -0.19598435146E+02 -0.67286685324E+03  0.67334770467E+03  0.00000000000E+00 0. -1.
</event>
<event>
 4    1  0.6225520E+003  0.2034875E+02  0.7546771E-02  0.1528770E+00
          2   -1    0    0  502    0  0.00000000000E+00  0.00000000000E+00  0.28583617459E+03  0.28583617459E+03  0.00000000000E+00 0.  1.
          2   -1    0    0  501    0 -0.00000000000E+00 -0.00000000000E+00 -0.11718521041E+03  0.11718521041E+03  0.00000000000E+00 0.  1.
          2    1    1    2  501    0  0.81137009263E+01 -0.18661171114E+02  0.28458677364E+03  0.28531334210E+03  0.00000000000E+00 0.  1.
          2    1    1    2  502    0 -0.81137009263E+01  0.18661171114E+02 -0.11593580945E+03  0.11770804290E+03  0.00000000000E+00 0.  1.
</event>
<event>
 4    1  0.6225520E+003  0.6464724E+02  0.7546771E-02  0.1244811E+00
          2   -1    0    0  501    0  0.00000000000E+00  0.00000000000E+00  0.25561324798E+04  0.25561324798E+04  0.00000000000E+00 0.  1.
          2   -1    0    0  502    0 -0.00000000000E+00 -0.00000000000E+00 -0.81506869068E+02  0.81506869068E+02  0.00000000000E+00 0. -1.
          2    1    1    2  501    0 -0.64538716394E+02  0.37443212665E+01 -0.68212358199E+02  0.93979740725E+02  0.00000000000E+00 0. -1.
          2    1    1    2  502    0  0.64538716394E+02 -0.37443212665E+01  0.25428379689E+04  0.25436596081E+04  0.00000000000E+00 0.  1.
</event>
<event>
 4    1  0.6225520E+003  0.2349722E+02  0.7546771E-02  0.1486347E+00
          2   -1    0    0  502    0  0.00000000000E+00  0.00000000000E+00  0.40891708535E+03  0.40891708535E+03  0.00000000000E+00 0. -1.
          2   -1    0    0  501    0 -0.00000000000E+00 -0.00000000000E+00 -0.37108131980E+01  0.37108131980E+01  0.00000000000E+00 0.  1.
          2    1    1    2  501    0  0.89057822203E+01 -0.21744112125E+02  0.36715642596E+03  0.36790754340E+03  0.00000000000E+00 0. -1.
          2    1    1    2  502    0 -0.89057822203E+01  0.21744112125E+02  0.38049846192E+02  0.44720355145E+02  0.00000000000E+00 0.  1.
</event>
<event>
 4    1  0.6225520E+003  0.2018061E+02  0.7546771E-02  0.1531292E+00
          2   -1    0    0  502    0  0.00000000000E+00  0.00000000000E+00  0.48979477065E+01  0.48979477065E+01  0.00000000000E+00 0.  1.
          2   -1    0    0  501    0 -0.00000000000E+00 -0.00000000000E+00 -0.67490411019E+03  0.67490411019E+03  0.00000000000E+00 0. -1.
          2    1    1    2  501    0 -0.96333284989E+01  0.17732909757E+02 -0.16728007704E+02  0.26212274762E+02  0.00000000000E+00 0.  1.
          2    1    1    2  502    0  0.96333284989E+01 -0.17732909757E+02 -0.65327815478E+03  0.65358978313E+03  0.00000000000E+00 0. -1.
</event>
<event>
 4    1  0.6225520E+003  0.2281709E+02  0.7546771E-02  0.1494808E+00
          2   -1    0    0  501    0  0.00000000000E+00  0.00000000000E+00  0.10617550892E+04  0.10617550892E+04  0.00000000000E+00 0.  1.
          2   -1    0    0  502    0 -0.00000000000E+00 -0.00000000000E+00 -0.35840772677E+01  0.35840772677E+01  0.00000000000E+00 0. -1.
          2    1    1    2  501    0 -0.18224679037E+02 -0.13728830095E+02  0.34192842213E+02  0.41106814038E+02  0.00000000000E+00 0. -1.
          2    1    1    2  502    0  0.18224679037E+02  0.13728830095E+02  0.10239781697E+04  0.10242323524E+04  0.00000000000E+00 0.  1.
</event>
<event>
 4    1  0.6225520E+003  0.2515386E+02  0.7546771E-02  0.1467089E+00
          2   -1    0    0  502    0  0.00000000000E+00  0.00000000000E+00  0.79759657812E+03  0.79759657812E+03  0.00000000000E+00 0. -1.
          2   -1    0    0  501    0 -0.00000000000E+00 -0.00000000000E+00 -0.84787479067E+02  0.84787479067E+02  0.00000000000E+00 0.  1.
          2    1    1    2  501    0 -0.24871908681E+02  0.37556195787E+01  0.79552781275E+03  0.79592538431E+03  0.00000000000E+00 0. -1.
          2    1    1    2  502    0  0.24871908681E+02 -0.37556195787E+01 -0.82718713701E+02  0.86458672880E+02  0.00000000000E+00 0.  1.
</event>
<event>
 4    1  0.6225520E+003  0.3995651E+02  0.7546771E-02  0.1348741E+00
          2   -1    0    0  501    0  0.00000000000E+00  0.00000000000E+00  0.27123157447E+03  0.27123157447E+03  0.00000000000E+00 0.  1.
          2   -1    0    0  502    0 -0.00000000000E+00 -0.00000000000E+00 -0.35593119631E+02  0.35593119631E+02  0.00000000000E+00 0.  1.
          2    1    1    2  501    0  0.38528632104E+02  0.10586178938E+02 -0.22334971802E+02  0.45775251411E+02  0.00000000000E+00 0.  1.
          2    1    1    2  502    0 -0.38528632104E+02 -0.10586178938E+02  0.25797342664E+03  0.26104944269E+03  0.00000000000E+00 0.  1.
</event>
<event>
 4    1  0.6225520E+003  0.2702622E+02  0.7546771E-02  0.1447345E+00
          2   -1    0    0  501    0  0.00000000000E+00  0.00000000000E+00  0.95613491685E+01  0.95613491685E+01  0.00000000000E+00 0.  1.
          2   -1    0    0  502    0 -0.00000000000E+00 -0.00000000000E+00 -0.27814523858E+03  0.27814523858E+03  0.00000000000E+00 0.  1.
          2    1    1    2  501    0 -0.20266826349E+02 -0.17879378542E+02 -0.25680816653E+03  0.25822635579E+03  0.00000000000E+00 0.  1.
          2    1    1    2  502    0  0.20266826349E+02  0.17879378542E+02 -0.11775722889E+02  0.29480231968E+02  0.00000000000E+00 0.  1.
</event>
<event>
 4    1  0.6225520E+003  0.2418051E+02  0.7546771E-02  0.1478184E+00
          2   -1    0    0  502    0  0.00000000000E+00  0.00000000000E+00  0.49485132002E+01  0.49485132002E+01  0.00000000000E+00 0. -1.
          2   -1    0    0  501    0 -0.00000000000E+00 -0.00000000000E+00 -0.25547561236E+03  0.25547561236E+03  0.00000000000E+00 0. -1.
          2    1    1    2  501    0 -0.21667263060E+02 -0.10734377990E+02 -0.29798901389E+02  0.38375404667E+02  0.00000000000E+00 0. -1.
          2    1    1    2  502    0  0.21667263060E+02  0.10734377990E+02 -0.22072819777E+03  0.22204872089E+03  0.00000000000E+00 0. -1.
</event>
<event>
 4    1  0.6225520E+003  0.5227131E+02  0.7546771E-02  0.1288614E+00
          2   -1    0    0  502    0  0.00000000000E+00  0.00000000000E+00  0.18215443198E+04  0.18215443198E+04  0.00000000000E+00 0. -1.
          2   -1    0    0  501    0 -0.00000000000E+00 -0.00000000000E+00 -0.16128139668E+01  0.16128139668E+01  0.00000000000E+00 0. -1.
          2    1    1    2  501    0  0.56749825664E+01  0.51962340486E+02  0.11510734704E+04  0.11522597036E+04  0.00000000000E+00 0. -1.
          2    1    1    2  502    0 -0.56749825664E+01 -0.51962340486E+02  0.66885803544E+03  0.67089743019E+03  0.00000000000E+00 0. -1.
</event>
<event>
 4    1  0.6225520E+003  0.2385416E+02  0.7546771E-02  0.1482042E+00
          2   -1    0    0  501    0  0.00000000000E+00  0.00000000000E+00  0.70794216146E+01  0.70794216146E+01  0.00000000000E+00 0.  1.
          2   -1    0    0  502    0 -0.00000000000E+00 -0.00000000000E+00 -0.56723059744E+03  0.56723059744E+03  0.00000000000E+00 0. -1.
          2    1    1    2  501    0 -0.11990477127E+01 -0.23824000726E+02 -0.54610881746E+03  0.54662954662E+03  0.00000000000E+00 0. -1.
          2    1    1    2  502    0  0.11990477127E+01  0.23824000726E+02 -0.14042358366E+02  0.27680472440E+02  0.00000000000E+00 0.  1.
</event>
<event>
 4    1  0.6225520E+003  0.2442546E+02  0.7546771E-02  0.1475334E+00
          2   -1    0    0  502    0  0.00000000000E+00  0.00000000000E+00  0.65371670003E+02  0.65371670003E+02  0.00000000000E+00 0. -1.
          2   -1    0    0  501    0 -0.00000000000E+00 -0.00000000000E+00 -0.42898143808E+02  0.42898143808E+02  0.00000000000E+00 0. -1.
          2    1    1    2  501    0  0.11853869398E+02 -0.21356232676E+02  0.59269285065E+02  0.64105000163E+02  0.00000000000E+00 0. -1.
          2    1    1    2  502    0 -0.11853869398E+02  0.21356232676E+02 -0.36795758869E+02  0.44164813648E+02  0.00000000000E+00 0. -1.
</event>
<event>
 4    1  0.6225520E+003  0.6282705E+02  0.7546771E-02  0.1250518E+00
          2   -1    0    0  502    0  0.00000000000E+00  0.00000000000E+00  0.46175647793E+03  0.46175647793E+03  0.00000000000E+00 0. -1.
          2   -1    0    0  501    0 -0.00000000000E+00 -0.00000000000E+00 -0.21021242082E+02  0.21021242082E+02  0.00000000000E+00 0.  1.
          2    1    1    2  501    0  0.30597396554E+02  0.54872920809E+02  0.40630738954E+03  0.41113614887E+03  0.00000000000E+00 0. -1.
          2    1    1    2  502    0 -0.30597396554E+02 -0.54872920809E+02  0.34427846307E+02  0.71641571140E+02  0.00000000000E+00 0.  1.
</event>
<event>
 4    1  0.6225520E+003  0.3120732E+02  0.7546771E-02  0.1409387E+00
          2   -1    0    0  502    0  0.00000000000E+00  0.00000000000E+00  0.47785999279E+02  0.47785999279E+02  0.00000000000E+00 0. -1.
          2   -1    0    0  501    0 -0.00000000000E+00 -0.00000000000E+00 -0.20755794782E+02  0.20755794782E+02  0.00000000000E+00 0. -1.
          2    1    1    2  501    0 -0.26439265333E+02  0.16578973125E+02  0.18124117202E+02  0.36088512376E+02  0.00000000000E+00 0. -1.
          2    1    1    2  502    0  0.26439265333E+02 -0.16578973125E+02  0.89060872958E+01  0.32453281685E+02  0.00000000000E+00 0. -1.
</event>
<event>
 4    1  0.6225520E+003  0.2896131E+02  0.7546771E-02  0.1428842E+00
          2   -1    0    0  502    0  0.00000000000E+00  0.00000000000E+00  0.10901740561E+02  0.10901740561E+02  0.00000000000E+00 0.  1.
          2   -1    0    0  501    0 -0.00000000000E+00 -0.00000000000E+00 -0.19396809805E+03  0.19396809805E+03  0.00000000000E+00 0.  1.
          2    1    1    2  501    0 -0.20178313350E+02 -0.20774826929E+02 -0.11966410217E+02  0.31336125113E+02  0.00000000000E+00 0.  1.
          2    1    1    2  502    0  0.20178313350E+02  0.20774826929E+02 -0.17109994727E+03  0.17353371349E+03  0.00000000000E+00 0.  1.
</event>
<event>
 4    1  0.6225520E+003  0.3366977E+02  0.7546771E-02  0.1390164E+00
          2   -1    0    0  502    0  0.00000000000E+00  0.00000000000E+00  0.20276167634E+04  0.20276167634E+04  0.00000000000E+00 0.  1.
          2   -1    0    0  501    0 -0.00000000000E+00 -0.00000000000E+00 -0.25687463241E+01  0.25687463241E+01  0.00000000000E+00 0.  1.
          2    1    1    2  501    0 -0.26029834245E+02  0.21356525323E+02  0.19103749608E+04  0.19106716475E+04  0.00000000000E+00 0.  1.
          2    1    1    2  502    0  0.26029834245E+02 -0.21356525323E+02  0.11467305629E+03  0.11951386230E+03  0.00000000000E+00 0.  1.
</event>
<event>
 4    1  0.6225520E+003  0.2300280E+02  0.7546771E-02  0.1492463E+00
          2   -1    0    0  501    0  0.00000000000E+00  0.00000000000E+00  0.68268324554E+03  0.68268324554E+03  0.00000000000E+00 0.  1.
          2   -1    0    0  502    0 -0.00000000000E+00 -0.00000000000E+00 -0.64285448000E+01  0.64285448000E+01  0.00000000000E+00 0.  1.
          2    1    1    2  501    0 -0.29522164250E+01  0.22812566250E+02  0.15009466613E+02  0.27466576939E+02  0.00000000000E+00 0.  1.
          2    1    1    2  502    0  0.29522164250E+01 -0.22812566250E+02  0.66124523413E+03  0.66164521340E+03  0.00000000000E+00 0.  1.
</event>
<event>
 4    1  0.6225520E+003  0.2351792E+02  0.7546771E-02  0.1486095E+00
          2   -1    0    0  502    0  0.00000000000E+00  0.00000000000E+00  0.12568292123E+03  0.12568292123E+03  0.00000000000E+00 0.  1.
          2   -1    0    0  501    0 -0.00000000000E+00 -0.00000000000E+00 -0.43408552730E+03  0.43408552730E+03  0.00000000000E+00 0. -1.
          2    1    1    2  501    0 -0.65143660488E+01  0.22597692661E+02  0.12426059351E+03  0.12646654806E+03  0.00000000000E+00 0.  1.
          2    1    1    2  502    0  0.65143660488E+01 -0.22597692661E+02 -0.43266319959E+03  0.43330190047E+03  0.00000000000E+00 0. -1.
</event>
<event>
 4    1  0.6225520E+003  0.2380110E+02  0.7546771E-02  0.1482676E+00
          2   -1    0    0  501    0  0.00000000000E+00  0.00000000000E+00  0.20892039295E+04  0.20892039295E+04  0.00000000000E+00 0. -1.
          2   -1    0    0  502    0 -0.00000000000E+00 -0.00000000000E+00 -0.43279509596E+00  0.43279509596E+00  0.00000000000E+00 0.  1.
          2    1    1    2  501    0  0.42985965388E+00 -0.23797216597E+02  0.40586056581E+03  0.40655785711E+03  0.00000000000E+00 0.  1.
          2    1    1    2  502    0 -0.42985965388E+00  0.23797216597E+02  0.16829105686E+04  0.16830788675E+04  0.00000000000E+00 0. -1.
</event>
<event>
 4    1  0.6225520E+003  0.2477919E+02  0.7546771E-02  0.1471289E+00
          2   -1    0    0  501    0  0.00000000000E+00  0.00000000000E+00  0.12628362403E+01  0.12628362403E+01  0.00000000000E+00 0.  1.
          2   -1    0    0  502    0 -0.00000000000E+00 -0.00000000000E+00 -0.11464652178E+04  0.11464652178E+04  0.00000000000E+00 0. -1.
          2    1    1    2  501    0 -0.18592301901E+02 -0.16380917721E+02 -0.10080963147E+04  0.10084008071E+04  0.00000000000E+00 0. -1.
          2    1    1    2  502    0  0.18592301901E+02  0.16380917721E+02 -0.13710606684E+03  0.13932724687E+03  0.00000000000E+00 0.  1.
</event>
<event>
 4    1  0.6225520E+003  0.4528906E+02  0.7546771E-02  0.1320000E+00
          2   -1    0    0  501    0  0.00000000000E+00  0.00000000000E+00  0.13279304793E+03  0.13279304793E+03  0.00000000000E+00 0. -1.
          2   -1    0    0  502    0 -0.00000000000E+00 -0.00000000000E+00 -0.16996651909E+04  0.16996651909E+04  0.00000000000E+00 0. -1.
          2    1    1    2  501    0 -0.42513905368E+02  0.15609837204E+02 -0.16954925397E+04  0.16960973001E+04  0.00000000000E+00 0. -1.
          2    1    1    2  502    0  0.42513905368E+02 -0.15609837204E+02  0.12862039672E+03  0.13636093876E+03  0.00000000000E+00 0. -1.
</event>
<event>
 4    1  0.6225520E+003  0.4571647E+02  0.7546771E-02  0.1317895E+00
          2   -1    0    0  502    0  0.00000000000E+00  0.00000000000E+00  0.17287326985E+04  0.17287326985E+04  0.00000000000E+00 0. -1.
          2   -1    0    0  501    0 -0.00000000000E+00 -0.00000000000E+00 -0.25324679829E+02  0.25324679829E+02  0.00000000000E+00 0. -1.
          2    1    1    2  501    0  0.11387392223E+01 -0.45702285532E+02  0.17075424572E+04  0.17081543369E+04  0.00000000000E+00 0. -1.
          2    1    1    2  502    0 -0.11387392223E+01  0.45702285532E+02 -0.41344385094E+01  0.45903041420E+02  0.00000000000E+00 0. -1.
</event>
<event>
 4    1  0.6225520E+003  0.2817706E+02  0.7546771E-02  0.1436130E+00
          2   -1    0    0  502    0  0.00000000000E+00  0.00000000000E+00  0.84266507498E+01  0.84266507498E+01  0.00000000000E+00 0.  1.
          2   -1    0    0  501    0 -0.00000000000E+00 -0.00000000000E+00 -0.64483164523E+03  0.64483164523E+03  0.00000000000E+00 0.  1.
          2    1    1    2  501    0  0.21166997576E+02 -0.18598513486E+02 -0.16377607923E+02  0.32590988502E+02  0.00000000000E+00 0.  1.
          2    1    1    2  502    0 -0.21166997576E+02  0.18598513486E+02 -0.62002738655E+03  0.62066730747E+03  0.00000000000E+00 0.  1.
</event>
<event>
 4    1  0.6225520E+003  0.2116208E+02  0.7546771E-02  0.1516963E+00
          2   -1    0    0  502    0  0.00000000000E+00  0.00000000000E+00  0.13034856374E+04  0.13034856374E+04  0.00000000000E+00 0.  1.
          2   -1    0    0  501    0 -0.00000000000E+00 -0.00000000000E+00 -0.12535918943E+02  0.12535918943E+02  0.00000000000E+00 0.  1.
          2    1    1    2  501    0  0.13787920009E+02 -0.16053879222E+02  0.12944060917E+04  0.12945790683E+04  0.00000000000E+00 0.  1.
          2    1    1    2  502    0 -0.13787920009E+02  0.16053879222E+02 -0.34563732920E+01  0.21442488022E+02  0.00000000000E+00 0.  1.
</event>
<event>
 4    1  0.6225520E+003  0.2274953E+02  0.7546771E-02  0.1495667E+00
          2   -1    0    0  502    0  0.00000000000E+00  0.00000000000E+00  0.16080870252E+04  0.16080870252E+04  0.00000000000E+00 0. -1.
          2   -1    0    0  501    0 -0.00000000000E+00 -0.00000000000E+00 -0.10363891978E+01  0.10363891978E+01  0.00000000000E+00 0.  1.
          2    1    1    2  501    0  0.20692939749E+02  0.94521602979E+01  0.14715846782E+04  0.14717605125E+04  0.00000000000E+00 0. -1.
          2    1    1    2  502    0 -0.20692939749E+02 -0.94521602979E+01  0.13546595774E+03  0.13736290182E+03  0.00000000000E+00 0.  1.
</event>
<event>
 4    1  0.6225520E+003  0.2318772E+02  0.7546771E-02  0.1490154E+00
          2   -1    0    0  501    0  0.00000000000E+00  0.00000000000E+00  0.88344384493E+02  0.88344384493E+02  0.00000000000E+00 0.  1.
          2   -1    0    0  502    0 -0.00000000000E+00 -0.00000000000E+00 -0.66845510621E+02  0.66845510621E+02  0.00000000000E+00 0. -1.
          2    1    1    2  501    0 -0.12213665099E+02 -0.19710319039E+02 -0.63228837557E+02  0.67346538075E+02  0.00000000000E+00 0. -1.
          2    1    1    2  502    0  0.12213665099E+02  0.19710319039E+02  0.84727711430E+02  0.87843357039E+02  0.00000000000E+00 0.  1.
</event>
<event>
 4    1  0.6225520E+003  0.2128356E+02  0.7546771E-02  0.1515255E+00
          2   -1    0    0  502    0  0.00000000000E+00  0.00000000000E+00  0.35093424033E+02  0.35093424033E+02  0.00000000000E+00 0.  1.
          2   -1    0    0  501    0 -0.00000000000E+00 -0.00000000000E+00 -0.94530728445E+03  0.94530728445E+03  0.00000000000E+00 0.  1.
          2    1    1    2  501    0  0.11739057650E+02 -0.17753429096E+02  0.31735093504E+02  0.38211331813E+02  0.00000000000E+00 0.  1.
          2    1    1    2  502    0 -0.11739057650E+02  0.17753429096E+02 -0.94194895392E+03  0.94218937667E+03  0.00000000000E+00 0.  1.
</event>
<event>
 4    1  0.6225520E+003  0.2674880E+02  0.7546771E-02  0.1450148E+00
          2   -1    0    0  501    0  0.00000000000E+00  0.00000000000E+00  0.93882351744E+03  0.93882351744E+03  0.00000000000E+00 0.  1.
          2   -1    0    0  502    0 -0.00000000000E+00 -0.00000000000E+00 -0.14926621867E+01  0.14926621867E+01  0.00000000000E+00 0.  1.
          2    1    1    2  501    0  0.25628417710E+02 -0.76604512281E+01  0.13974933378E+03  0.14228624178E+03  0.00000000000E+00 0.  1.
          2    1    1    2  502    0 -0.25628417710E+02  0.76604512281E+01  0.79758152147E+03  0.79802993784E+03  0.00000000000E+00 0.  1.
</event>
<event>
 4    1  0.6225520E+003  0.2957600E+02  0.7546771E-02  0.1423317E+00
          2   -1    0    0  502    0  0.00000000000E+00  0.00000000000E+00  0.56361201259E+02  0.56361201259E+02  0.00000000000E+00 0.  1.
          2   -1    0    0  501    0 -0.00000000000E+00 -0.00000000000E+00 -0.79608348823E+02  0.79608348823E+02  0.00000000000E+00 0. -1.
          2    1    1    2  501    0  0.59857955306E+01  0.28963943737E+02  0.49375193696E+02  0.57555621250E+02  0.00000000000E+00 0.  1.
          2    1    1    2  502    0 -0.59857955306E+01 -0.28963943737E+02 -0.72622341259E+02  0.78413928832E+02  0.00000000000E+00 0. -1.
</event>
<event>
 4    1  0.6225520E+003  0.2565491E+02  0.7546771E-02  0.1461609E+00
          2   -1    0    0  501    0  0.00000000000E+00  0.00000000000E+00  0.11352250615E+04  0.11352250615E+04  0.00000000000E+00 0.  1.
          2   -1    0    0  502    0 -0.00000000000E+00 -0.00000000000E+00 -0.53400730111E+01  0.53400730111E+01  0.00000000000E+00 0. -1.
          2    1    1    2  501    0  0.25621865747E+02 -0.13016982812E+01  0.26507104360E+02  0.36889036370E+02  0.00000000000E+00 0. -1.
          2    1    1    2  502    0 -0.25621865747E+02  0.13016982812E+01  0.11033778841E+04  0.11036760981E+04  0.00000000000E+00 0.  1.
</event>
<event>
 4    1  0.6225520E+003  0.2120598E+02  0.7546771E-02  0.1516344E+00
          2   -1    0    0  501    0  0.00000000000E+00  0.00000000000E+00  0.42033515055E+01  0.42033515055E+01  0.00000000000E+00 0. -1.
          2   -1    0    0  502    0 -0.00000000000E+00 -0.00000000000E+00 -0.11027515893E+03  0.11027515893E+03  0.00000000000E+00 0. -1.
          2    1    1    2  501    0  0.19344557696E+02  0.86880167612E+01 -0.62923601241E+02  0.66400851959E+02  0.00000000000E+00 0. -1.
          2    1    1    2  502    0 -0.19344557696E+02 -0.86880167612E+01 -0.43148206178E+02  0.48077658472E+02  0.00000000000E+00 0. -1.
</event>
<event>
 4    1  0.6225520E+003  0.2706834E+02  0.7546771E-02  0.1446923E+00
          2   -1    0    0  502    0  0.00000000000E+00  0.00000000000E+00  0.15459173245E+04  0.15459173245E+04  0.00000000000E+00 0.  1.
          2   -1    0    0  501    0 -0.00000000000E+00 -0.00000000000E+00 -0.67496864037E+01  0.67496864037E+01  0.00000000000E+00 0.  1.
          2    1    1    2  501    0 -0.26619551947E+02  0.49085914671E+01  0.15181646741E+04  0.15184059644E+04  0.00000000000E+00 0.  1.
          2    1    1    2  502    0  0.26619551947E+02 -0.49085914671E+01  0.21002964000E+02  0.34261046582E+02  0.00000000000E+00 0.  1.
</event>
<event>
 4    1  0.6225520E+003  0.2587083E+02  0.7546771E-02  0.1459293E+00
          2   -1    0    0  502    0  0.00000000000E+00  0.00000000000E+00  0.43091212398E+03  0.43091212398E+03  0.00000000000E+00 0.  1.
          2   -1    0    0  501    0 -0.00000000000E+00 -0.00000000000E+00 -0.45991321101E+03  0.45991321101E+03  0.00000000000E+00 0.  1.
          2    1    1    2  501    0 -0.25869701902E+02 -0.24206590559E+00  0.43015936493E+03  0.43093663028E+03  0.00000000000E+00 0.  1.
          2    1    1    2  502    0  0.25869701902E+02  0.24206590559E+00 -0.45916045196E+03  0.45988870471E+03  0.00000000000E+00 0.  1.
</event>
<event>
 4    1  0.6225520E+003  0.2010003E+02  0.7546771E-02  0.1532512E+00
          2   -1    0    0  502    0  0.00000000000E+00  0.00000000000E+00  0.49474920488E+01  0.49474920488E+01  0.00000000000E+00 0.  1.
          2   -1    0    0  501    0 -0.00000000000E+00 -0.00000000000E+00 -0.33359247925E+03  0.33359247925E+03  0.00000000000E+00 0.  1.
          2    1    1    2  501    0 -0.20067073294E+02  0.11505940681E+01 -0.17222020486E+02  0.26469025047E+02  0.00000000000E+00 0.  1.
          2    1    1    2  502    0  0.20067073294E+02 -0.11505940681E+01 -0.31142296671E+03  0.31207094625E+03  0.00000000000E+00 0.  1.
</event>
<event>
 4    1  0.6225520E+003  0.3067517E+02  0.7546771E-02  0.1413818E+00
          2   -1    0    0  501    0  0.00000000000E+00  0.00000000000E+00  0.51793108257E+02  0.51793108257E+02  0.00000000000E+00 0.  1.
          2   -1    0    0  502    0 -0.00000000000E+00 -0.00000000000E+00 -0.23829444926E+03  0.23829444926E+03  0.00000000000E+00 0.  1.
          2    1    1    2  501    0  0.15809411111E+02 -0.26287418363E+02 -0.23265570970E+03  0.23466922486E+03  0.00000000000E+00 0.  1.
          2    1    1    2  502    0 -0.15809411111E+02  0.26287418363E+02  0.46154368698E+02  0.55418332650E+02  0.00000000000E+00 0.  1.
</event>
<event>
 4    1  0.6225520E+003  0.3746255E+02  0.7546771E-02  0.1364033E+00
          2   -1    0    0  501    0  0.00000000000E+00  0.00000000000E+00  0.20286719484E+04  0.20286719484E+04  0.00000000000E+00 0.  1.
          2   -1    0    0  502    0 -0.00000000000E+00 -0.00000000000E+00 -0.12126832185E+01  0.12126832185E+01  0.00000000000E+00 0.  1.
          2    1    1    2  501    0 -0.35780109092E+02 -0.11100753598E+02  0.34855407853E+03  0.35056153326E+03  0.00000000000E+00 0.  1.
          2    1    1    2  502    0  0.35780109092E+02  0.11100753598E+02  0.16789051867E+04  0.16793230984E+04  0.00000000000E+00 0.  1.
</event>
<event>
 4    1  0.6225520E+003  0.2028068E+02  0.7546771E-02  0.1529787E+00
          2   -1    0    0  501    0  0.00000000000E+00  0.00000000000E+00  0.10139737852E+04  0.10139737852E+04  0.00000000000E+00 0. -1.
          2   -1    0    0  502    0 -0.00000000000E+00 -0.00000000000E+00 -0.14679134721E+01  0.14679134721E+01  0.00000000000E+00 0. -1.
          2    1    1    2  501    0 -0.47211334746E+01 -0.19723508661E+02  0.74342768297E+02  0.77059412749E+02  0.00000000000E+00 0. -1.
          2    1    1    2  502    0  0.47211334746E+01  0.19723508661E+02  0.93816310339E+03  0.93838228588E+03  0.00000000000E+00 0. -1.
</event>
<event>
 4    1  0.6225520E+003  0.2144865E+02  0.7546771E-02  0.1512955E+00
          2   -1    0    0  501    0  0.00000000000E+00  0.00000000000E+00  0.46862438882E+03  0.46862438882E+03  0.00000000000E+00 0.  1.
          2   -1    0    0  502    0 -0.00000000000E+00 -0.00000000000E+00 -0.26962953114E+02  0.26962953114E+02  0.00000000000E+00 0.  1.
          2    1    1    2  501    0  0.21445049723E+02  0.39286419115E+00 -0.22410181660E+02  0.31020327882E+02  0.00000000000E+00 0.  1.
          2    1    1    2  502    0 -0.21445049723E+02 -0.39286419115E+00  0.46407161736E+03  0.46456701405E+03  0.00000000000E+00 0.  1.
</event>
<event>
 4    1  0.6225520E+003  0.2876144E+02  0.7546771E-02  0.1430674E+00
          2   -1    0    0  502    0  0.00000000000E+00  0.00000000000E+00  0.14786872826E+04  0.14786872826E+04  0.00000000000E+00 0.  1.
          2   -1    0    0  501    0 -0.00000000000E+00 -0.00000000000E+00 -0.11746738372E+01  0.11746738372E+01  0.00000000000E+00 0. -1.
          2    1    1    2  501    0  0.24872432720E+02 -0.14442387109E+02  0.12742527262E+04  0.12745772753E+04  0.00000000000E+00 0.  1.
          2    1    1    2  502    0 -0.24872432720E+02  0.14442387109E+02  0.20325988258E+03  0.20528468116E+03  0.00000000000E+00 0. -1.
</event>
<event>
 4    1  0.6225520E+003  0.3794478E+02  0.7546771E-02  0.1360969E+00
          2   -1    0    0  501    0  0.00000000000E+00  0.00000000000E+00  0.16714294302E+04  0.16714294302E+04  0.00000000000E+00 0. -1.
          2   -1    0    0  502    0 -0.00000000000E+00 -0.00000000000E+00 -0.15009489547E+01  0.15009489547E+01  0.00000000000E+00 0. -1.
          2    1    1    2  501    0 -0.36615940562E+02 -0.99538499692E+01  0.28896214809E+03  0.29144284047E+03  0.00000000000E+00 0. -1.
          2    1    1    2  502    0  0.36615940562E+02  0.99538499692E+01  0.13809663331E+04  0.13814875386E+04  0.00000000000E+00 0. -1.
</event>
<event>
 4    1  0.6225520E+003  0.5106913E+02  0.7546771E-02  0.1293602E+00
          2   -1    0    0  501    0  0.00000000000E+00  0.00000000000E+00  0.35686207034E+01  0.35686207034E+01  0.00000000000E+00 0. -1.
          2   -1    0    0  502    0 -0.00000000000E+00 -0.00000000000E+00 -0.19685627401E+04  0.19685627401E+04  0.00000000000E+00 0.  1.
          2    1    1    2  501    0  0.77097776207E+01 -0.50483816982E+02 -0.17643851263E+04  0.17651240553E+04  0.00000000000E+00 0.  1.
          2    1    1    2  502    0 -0.77097776207E+01  0.50483816982E+02 -0.20060899303E+03  0.20700730550E+03  0.00000000000E+00 0. -1.
</event>
<event>
 4    1  0.6225520E+003  0.2837442E+02  0.7546771E-02  0.1434270E+00
          2   -1    0    0  502    0  0.00000000000E+00  0.00000000000E+00  0.15892881950E+04  0.15892881950E+04  0.00000000000E+00 0.  1.
          2   -1    0    0  501    0 -0.00000000000E+00 -0.00000000000E+00 -0.21777467134E+01  0.21777467134E+01  0.00000000000E+00 0.  1.
          2    1    1    2  501    0  0.16976701939E+02  0.22735413768E+02  0.14906199095E+04  0.14908899430E+04  0.00000000000E+00 0.  1.
          2    1    1    2  502    0 -0.16976701939E+02 -0.22735413768E+02  0.96490538756E+02  0.10057599871E+03  0.00000000000E+00 0.  1.
</event>
<event>
 4    1  0.6225520E+003  0.3779276E+02  0.7546771E-02  0.1361929E+00
          2   -1    0    0  502    0  0.00000000000E+00  0.00000000000E+00  0.17321644741E+03  0.17321644741E+03  0.00000000000E+00 0. -1.
          2   -1    0    0  501    0 -0.00000000000E+00 -0.00000000000E+00 -0.13128518760E+02  0.13128518760E+02  0.00000000000E+00 0. -1.
          2    1    1    2  501    0  0.37746994728E+02 -0.18593056854E+01  0.13686572067E+03  0.14198773934E+03  0.00000000000E+00 0. -1.
          2    1    1    2  502    0 -0.37746994728E+02  0.18593056854E+01  0.23222207984E+02  0.44357226833E+02  0.00000000000E+00 0. -1.
</event>
<event>
 4    1  0.6225520E+003  0.7043842E+02  0.7546771E-02  0.1227975E+00
          2   -1    0    0  502    0  0.00000000000E+00  0.00000000000E+00  0.19487883910E+04  0.19487883910E+04  0.00000000000E+00 0.  1.
          2   -1    0    0  501    0 -0.00000000000E+00 -0.00000000000E+00 -0.28541706898E+02  0.28541706898E+02  0.00000000000E+00 0. -1.
          2    1    1    2  501    0  0.70415071018E+02  0.18134305877E+01  0.19036631263E+04  0.19049658446E+04  0.00000000000E+00 0.  1.
          2    1    1    2  502    0 -0.70415071018E+02 -0.18134305877E+01  0.16583557755E+02  0.72364253225E+02  0.00000000000E+00 0. -1.
</event>
<event>
 4    1  0.6225520E+003  0.2502045E+02  0.7546771E-02  0.1468575E+00
          2   -1    0    0  501    0  0.00000000000E+00  0.00000000000E+00  0.17699275768E+03  0.17699275768E+03  0.00000000000E+00 0.  1.
          2   -1    0    0  502    0 -0.00000000000E+00 -0.00000000000E+00 -0.33627919463E+03  0.33627919463E+03  0.00000000000E+00 0. -1.
          2    1    1    2  501    0 -0.19058233729E+02 -0.16211307162E+02 -0.33492597379E+03  0.33585924235E+03  0.00000000000E+00 0. -1.
          2    1    1    2  502    0  0.19058233729E+02  0.16211307162E+02  0.17563953684E+03  0.17741270996E+03  0.00000000000E+00 0.  1.
</event>
<event>
 4    1  0.6225520E+003  0.2952572E+02  0.7546771E-02  0.1423763E+00
          2   -1    0    0  502    0  0.00000000000E+00  0.00000000000E+00  0.16417573329E+04  0.16417573329E+04  0.00000000000E+00 0.  1.
          2   -1    0    0  501    0 -0.00000000000E+00 -0.00000000000E+00 -0.51170309588E+01  0.51170309588E+01  0.00000000000E+00 0.  1.
          2    1    1    2  501    0 -0.18934415446E+02  0.22655158014E+02  0.15978631630E+04  0.15981359316E+04  0.00000000000E+00 0.  1.
          2    1    1    2  502    0  0.18934415446E+02 -0.22655158014E+02  0.38777138972E+02  0.48738432266E+02  0.00000000000E+00 0.  1.
</event>
<event>
 4    1  0.6225520E+003  0.2675893E+02  0.7546771E-02  0.1450045E+00
          2   -1    0    0  502    0  0.00000000000E+00  0.00000000000E+00  0.17491457973E+02  0.17491457973E+02  0.00000000000E+00 0. -1.
          2   -1    0    0  501    0 -0.00000000000E+00 -0.00000000000E+00 -0.58293345053E+03  0.58293345053E+03  0.00000000000E+00 0. -1.
          2    1    1    2  501    0 -0.19021446351E+02 -0.18820864544E+02  0.67583666478E+01  0.27599200771E+02  0.00000000000E+00 0. -1.
          2    1    1    2  502    0  0.19021446351E+02  0.18820864544E+02 -0.57220035920E+03  0.57282570773E+03  0.00000000000E+00 0. -1.
</event>
<event>
 4    1  0.6225520E+003  0.3512737E+02  0.7546771E-02  0.1379670E+00
          2   -1    0    0  502    0  0.00000000000E+00  0.00000000000E+00  0.14300796371E+03  0.14300796371E+03  0.00000000000E+00 0. -1.
          2   -1    0    0  501    0 -0.00000000000E+00 -0.00000000000E+00 -0.59999031329E+03  0.59999031329E+03  0.00000000000E+00 0. -1.
          2    1    1    2  501    0 -0.16573584420E+02 -0.30971733441E+02  0.14032704005E+03  0.14465687035E+03  0.00000000000E+00 0. -1.
          2    1    1    2  502    0  0.16573584420E+02  0.30971733441E+02 -0.59730938962E+03  0.59834140665E+03  0.00000000000E+00 0. -1.
</event>
<event>
 4    1  0.6225520E+003  0.5141398E+02  0.7546771E-02  0.1292156E+00
          2   -1    0    0  501    0  0.00000000000E+00  0.00000000000E+00  0.13110184397E+04  0.13110184397E+04  0.00000000000E+00 0. -1.
          2   -1    0    0  502    0 -0.00000000000E+00 -0.00000000000E+00 -0.95904437619E+01  0.95904437619E+01  0.00000000000E+00 0.  1.
          2    1    1    2  501    0  0.50052925568E+02 -0.11751687128E+02  0.63911660138E+02  0.82024982840E+02  0.00000000000E+00 0.  1.
          2    1    1    2  502    0 -0.50052925568E+02  0.11751687128E+02  0.12375163358E+04  0.12385839006E+04  0.00000000000E+00 0. -1.
</event>
<event>
 4    1  0.6225520E+003  0.3816337E+02  0.7546771E-02  0.1359598E+00
          2   -1    0    0  502    0  0.00000000000E+00  0.00000000000E+00  0.19599407456E+03  0.19599407456E+03  0.00000000000E+00 0.  1.
          2   -1    0    0  501    0 -0.00000000000E+00 -0.00000000000E+00 -0.17141716330E+02  0.17141716330E+02  0.00000000000E+00 0. -1.
          2    1    1    2  501    0 -0.33374356615E+02  0.18509322236E+02  0.16963527996E+03  0.17387515894E+03  0.00000000000E+00 0.  1.
          2    1    1    2  502    0  0.33374356615E+02 -0.18509322236E+02  0.92170782673E+01  0.39260631947E+02  0.00000000000E+00 0. -1.
</event>
<event>
 4    1  0.6225520E+003  0.2264560E+02  0.7546771E-02  0.1496997E+00
          2   -1    0    0  501    0  0.00000000000E+00  0.00000000000E+00  0.38139252730E+03  0.38139252730E+03  0.00000000000E+00 0.  1.
          2   -1    0    0  502    0 -0.00000000000E+00 -0.00000000000E+00 -0.71003414722E+01  0.71003414722E+01  0.00000000000E+00 0.  1.
          2    1    1    2  501    0 -0.15753989547E+02  0.16267607967E+02  0.12256569628E+02  0.25749694263E+02  0.00000000000E+00 0.  1.
          2    1    1    2  502    0  0.15753989547E+02 -0.16267607967E+02  0.36203561620E+03  0.36274317451E+03  0.00000000000E+00 0.  1.
</event>
<event>
 4    1  0.6225520E+003  0.4346285E+02  0.7546771E-02  0.1329307E+00
          2   -1    0    0  502    0  0.00000000000E+00  0.00000000000E+00  0.33799146857E+03  0.33799146857E+03  0.00000000000E+00 0.  1.
          2   -1    0    0  501    0 -0.00000000000E+00 -0.00000000000E+00 -0.64658944098E+01  0.64658944098E+01  0.00000000000E+00 0.  1.
          2    1    1    2  501    0  0.29715397813E+02  0.31717736842E+02  0.22918998635E+03  0.23327466545E+03  0.00000000000E+00 0.  1.
          2    1    1    2  502    0 -0.29715397813E+02 -0.31717736842E+02  0.10233558780E+03  0.11118269752E+03  0.00000000000E+00 0.  1.
</event>
<event>
 4    1  0.6225520E+003  0.2168928E+02  0.7546771E-02  0.1509647E+00
          2   -1    0    0  501    0  0.00000000000E+00  0.00000000000E+00  0.12150528042E+03  0.12150528042E+03  0.00000000000E+00 0. -1.
          2   -1    0    0  502    0 -0.00000000000E+00 -0.00000000000E+00 -0.80614446676E+01  0.80614446676E+01  0.00000000000E+00 0. -1.
          2    1    1    2  501    0  0.12501280109E+02 -0.17724080260E+02  0.10017947912E+02  0.23891092603E+02  0.00000000000E+00 0. -1.
          2    1    1    2  502    0 -0.12501280109E+02  0.17724080260E+02  0.10342588784E+03  0.10567563248E+03  0.00000000000E+00 0. -1.
</event>
<event>
 4    1  0.6225520E+003  0.2135511E+02  0.7546771E-02  0.1514255E+00
          2   -1    0    0  501    0  0.00000000000E+00  0.00000000000E+00  0.10773308577E+02  0.10773308577E+02  0.00000000000E+00 0.  1.
          2   -1    0    0  502    0 -0.00000000000E+00 -0.00000000000E+00 -0.55100078599E+02  0.55100078599E+02  0.00000000000E+00 0. -1.
          2    1    1    2  501    0 -0.71225038930E+01  0.20132327311E+02 -0.63075033462E+01  0.22267134147E+02  0.00000000000E+00 0.  1.
          2    1    1    2  502    0  0.71225038930E+01 -0.20132327311E+02 -0.38019266675E+02  0.43606253029E+02  0.00000000000E+00 0. -1.
</event>
<event>
 4    1  0.6225520E+003  0.2614520E+02  0.7546771E-02  0.1456389E+00
          2   -1    0    0  501    0  0.00000000000E+00  0.00000000000E+00  0.35238213635E+02  0.35238213635E+02  0.00000000000E+00 0. -1.
          2   -1    0    0  502    0 -0.00000000000E+00 -0.00000000000E+00 -0.22723439185E+02  0.22723439185E+02  0.00000000000E+00 0.  1.
          2    1    1    2  501    0  0.25475395760E+02 -0.58801080447E+01 -0.48282350920E+01  0.26587277292E+02  0.00000000000E+00 0.  1.
          2    1    1    2  502    0 -0.25475395760E+02  0.58801080447E+01  0.17343009542E+02  0.31374375527E+02  0.00000000000E+00 0. -1.
</event>
<event>
 4    1  0.6225520E+003  0.3144151E+02  0.7546771E-02  0.1407470E+00
          2   -1    0    0  501    0  0.00000000000E+00  0.00000000000E+00  0.45622719492E+02  0.45622719492E+02  0.00000000000E+00 0. -1.
          2   -1    0    0  502    0 -0.00000000000E+00 -0.00000000000E+00 -0.87022575227E+03  0.87022575227E+03  0.00000000000E+00 0. -1.
          2    1    1    2  501    0  0.28751087489E+02 -0.12725709228E+02 -0.86448873128E+03  0.86506030727E+03  0.00000000000E+00 0. -1.
          2    1    1    2  502    0 -0.28751087489E+02  0.12725709228E+02  0.39885698503E+02  0.50788164489E+02  0.00000000000E+00 0. -1.
</event>
<event>
 4    1  0.6225520E+003  0.2278282E+02  0.7546771E-02  0.1495243E+00
          2   -1    0    0  501    0  0.00000000000E+00  0.00000000000E+00  0.65564556099E+00  0.65564556099E+00  0.00000000000E+00 0.  1.
          2   -1    0    0  502    0 -0.00000000000E+00 -0.00000000000E+00 -0.79318003988E+03  0.79318003988E+03  0.00000000000E+00 0.  1.
          2    1    1    2  501    0  0.63147896604E+01  0.21890188254E+02 -0.41356323936E+03  0.41419030634E+03  0.00000000000E+00 0.  1.
          2    1    1    2  502    0 -0.63147896604E+01 -0.21890188254E+02 -0.37896115496E+03  0.37964537910E+03  0.00000000000E+00 0.  1.
</event>
<event>
 4    1  0.6225520E+003  0.2037075E+02  0.7546771E-02  0.1528442E+00
          2   -1    0    0  501    0  0.00000000000E+00  0.00000000000E+00  0.14350639325E+01  0.14350639325E+01  0.00000000000E+00 0.  1.
          2   -1    0    0  502    0 -0.00000000000E+00 -0.00000000000E+00 -0.13458363719E+04  0.13458363719E+04  0.00000000000E+00 0.  1.
          2    1    1    2  501    0  0.17640462771E+02  0.10187324864E+02 -0.12690975769E+04  0.12692610555E+04  0.00000000000E+00 0.  1.
          2    1    1    2  502    0 -0.17640462771E+02 -0.10187324864E+02 -0.75303731059E+02  0.78010380246E+02  0.00000000000E+00 0.  1.
</event>
<event>
 4    1  0.6225520E+003  0.2542415E+02  0.7546771E-02  0.1464114E+00
          2   -1    0    0  501    0  0.00000000000E+00  0.00000000000E+00  0.42506732303E+03  0.42506732303E+03  0.00000000000E+00 0. -1.
          2   -1    0    0  502    0 -0.00000000000E+00 -0.00000000000E+00 -0.19251043299E+02  0.19251043299E+02  0.00000000000E+00 0.  1.
          2    1    1    2  501    0  0.19198250233E+02  0.16667773649E+02 -0.10296211313E+02  0.27429900798E+02  0.00000000000E+00 0.  1.
          2    1    1    2  502    0 -0.19198250233E+02 -0.16667773649E+02  0.41611249104E+03  0.41688846553E+03  0.00000000000E+00 0. -1.
</event>
<event>
 4    1  0.6225520E+003  0.2607079E+02  0.7546771E-02  0.1457172E+00
          2   -1    0    0  501    0  0.00000000000E+00  0.00000000000E+00  0.86460206630E+00  0.86460206630E+00  0.00000000000E+00 0.  1.
          2   -1    0    0  502    0 -0.00000000000E+00 -0.00000000000E+00 -0.83148235799E+03  0.83148235799E+03  0.00000000000E+00 0. -1.
          2    1    1    2  501    0 -0.20478810594E+02  0.16133959625E+02 -0.51250882187E+03  0.51317149066E+03  0.00000000000E+00 0. -1.
          2    1    1    2  502    0  0.20478810594E+02 -0.16133959625E+02 -0.31810893405E+03  0.31917546939E+03  0.00000000000E+00 0.  1.
</event>
<event>
 4    1  0.6225520E+003  0.2062118E+02  0.7546771E-02  0.1524743E+00
          2   -1    0    0  501    0  0.00000000000E+00  0.00000000000E+00  0.17868557507E+04  0.17868557507E+04  0.00000000000E+00 0. -1.
          2   -1    0    0  502    0 -0.00000000000E+00 -0.00000000000E+00 -0.34828522821E+00  0.34828522821E+00  0.00000000000E+00 0. -1.
          2    1    1    2  501    0 -0.86180836574E+00  0.20603167118E+02  0.39035833462E+03  0.39090262549E+03  0.00000000000E+00 0. -1.
          2    1    1    2  502    0  0.86180836574E+00 -0.20603167118E+02  0.13961491309E+04  0.13963014105E+04  0.00000000000E+00 0. -1.
</event>
<event>
 4    1  0.6225520E+003  0.2128496E+02  0.7546771E-02  0.1515235E+00
          2   -1    0    0  501    0  0.00000000000E+00  0.00000000000E+00  0.45948472494E+02  0.45948472494E+02  0.00000000000E+00 0. -1.
          2   -1    0    0  502    0 -0.00000000000E+00 -0.00000000000E+00 -0.42658286320E+02  0.42658286320E+02  0.00000000000E+00 0. -1.
          2    1    1    2  501    0 -0.14255726535E+02  0.15805820405E+02 -0.37202225908E+02  0.42860883218E+02  0.00000000000E+00 0. -1.
          2    1    1    2  502    0  0.14255726535E+02 -0.15805820405E+02  0.40492412083E+02  0.45745875595E+02  0.00000000000E+00 0. -1.
</event>
<event>
 4    1  0.6225520E+003  0.2948920E+02  0.7546771E-02  0.1424088E+00
          2   -1    0    0  502    0  0.00000000000E+00  0.00000000000E+00  0.13633519390E+04  0.13633519390E+04  0.00000000000E+00 0. -1.
          2   -1    0    0  501    0 -0.00000000000E+00 -0.00000000000E+00 -0.30117160481E+01  0.30117160481E+01  0.00000000000E+00 0. -1.
          2    1    1    2  501    0  0.16701319692E+02  0.24303884454E+02  0.12867073591E+04  0.12870452365E+04  0.00000000000E+00 0. -1.
          2    1    1    2  502    0 -0.16701319692E+02 -0.24303884454E+02  0.73632863833E+02  0.79318418512E+02  0.00000000000E+00 0. -1.
</event>
<event>
 4    1  0.6225520E+003  0.2263522E+02  0.7546771E-02  0.1497130E+00
          2   -1    0    0  501    0  0.00000000000E+00  0.00000000000E+00  0.15034685354E+04  0.15034685354E+04  0.00000000000E+00 0.  1.
          2   -1    0    0  502    0 -0.00000000000E+00 -0.00000000000E+00 -0.45395870614E+01  0.45395870614E+01  0.00000000000E+00 0. -1.
          2    1    1    2  501    0 -0.36822403012E+01 -0.22333705101E+02  0.24313514429E+02  0.33218974413E+02  0.00000000000E+00 0. -1.
          2    1    1    2  502    0  0.36822403012E+01  0.22333705101E+02  0.14746154339E+04  0.14747891481E+04  0.00000000000E+00 0.  1.
</event>
<event>
 4    1  0.6225520E+003  0.2336777E+02  0.7546771E-02  0.1487931E+00
          2   -1    0    0  502    0  0.00000000000E+00  0.00000000000E+00  0.63157778295E+03  0.63157778295E+03  0.00000000000E+00 0.  1.
          2   -1    0    0  501    0 -0.00000000000E+00 -0.00000000000E+00 -0.16611360499E+02  0.16611360499E+02  0.00000000000E+00 0. -1.
          2    1    1    2  501    0 -0.16958949010E+01 -0.23306149176E+02  0.62303087848E+03  0.62346894726E+03  0.00000000000E+00 0.  1.
          2    1    1    2  502    0  0.16958949010E+01  0.23306149176E+02 -0.80644560288E+01  0.24720196196E+02  0.00000000000E+00 0. -1.
</event>
<event>
 4    1  0.6225520E+003  0.2173850E+02  0.7546771E-02  0.1508977E+00
          2   -1    0    0  502    0  0.00000000000E+00  0.00000000000E+00  0.34927887277E+02  0.34927887277E+02  0.00000000000E+00 0. -1.
          2   -1    0    0  501    0 -0.00000000000E+00 -0.00000000000E+00 -0.91873142511E+02  0.91873142511E+02  0.00000000000E+00 0.  1.
          2    1    1    2  501    0  0.21675476291E+02 -0.16540555092E+01  0.30073740183E+02  0.37107843115E+02  0.00000000000E+00 0. -1.
          2    1    1    2  502    0 -0.21675476291E+02  0.16540555092E+01 -0.87018995417E+02  0.89693186673E+02  0.00000000000E+00 0.  1.
</event>
<event>
 4    1  0.6225520E+003  0.3268624E+02  0.7546771E-02  0.1397602E+00
          2   -1    0    0  501    0  0.00000000000E+00  0.00000000000E+00  0.32222004122E+02  0.32222004122E+02  0.00000000000E+00 0.  1.
          2   -1    0    0  502    0 -0.00000000000E+00 -0.00000000000E+00 -0.29781012593E+03  0.29781012593E+03  0.00000000000E+00 0.  1.
          2    1    1    2  501    0  0.10006200188E+02  0.31116981126E+02 -0.28835296283E+03  0.29019962393E+03  0.00000000000E+00 0.  1.
          2    1    1    2  502    0 -0.10006200188E+02 -0.31116981126E+02  0.22764841027E+02  0.39832506117E+02  0.00000000000E+00 0.  1.
</event>
<event>
 4    1  0.6225520E+003  0.3262590E+02  0.7546771E-02  0.1398069E+00
          2   -1    0    0  502    0  0.00000000000E+00  0.00000000000E+00  0.10482912721E+03  0.10482912721E+03  0.00000000000E+00 0. -1.
          2   -1    0    0  501    0 -0.00000000000E+00 -0.00000000000E+00 -0.91884554246E+02  0.91884554246E+02  0.00000000000E+00 0.  1.
          2    1    1    2  501    0  0.31237652389E+02  0.94158613417E+01  0.99235368787E+02  0.10446103479E+03  0.00000000000E+00 0. -1.
          2    1    1    2  502    0 -0.31237652389E+02 -0.94158613417E+01 -0.86290795826E+02  0.92252646660E+02  0.00000000000E+00 0.  1.
</event>
<event>
 4    1  0.6225520E+003  0.2314701E+02  0.7546771E-02  0.1490660E+00
          2   -1    0    0  501    0  0.00000000000E+00  0.00000000000E+00  0.74689047200E+01  0.74689047200E+01  0.00000000000E+00 0.  1.
          2   -1    0    0  502    0 -0.00000000000E+00 -0.00000000000E+00 -0.78810773829E+03  0.78810773829E+03  0.00000000000E+00 0. -1.
          2    1    1    2  501    0  0.13672943029E+02  0.18677120415E+02 -0.76957210157E+03  0.76992012814E+03  0.00000000000E+00 0. -1.
          2    1    1    2  502    0 -0.13672943029E+02 -0.18677120415E+02 -0.11066731997E+02  0.25656514868E+02  0.00000000000E+00 0.  1.
</event>
<event>
 4    1  0.6225520E+003  0.2089445E+02  0.7546771E-02  0.1520777E+00
          2   -1    0    0  502    0  0.00000000000E+00  0.00000000000E+00  0.45877351624E+01  0.45877351624E+01  0.00000000000E+00 0.  1.
          2   -1    0    0  501    0 -0.00000000000E+00 -0.00000000000E+00 -0.13036764881E+03  0.13036764881E+03  0.00000000000E+00 0. -1.
          2    1    1    2  501    0 -0.15633301328E+02  0.13862830534E+02 -0.27824354109E+02  0.34796161605E+02  0.00000000000E+00 0.  1.
          2    1    1    2  502    0  0.15633301328E+02 -0.13862830534E+02 -0.97955559538E+02  0.10015922237E+03  0.00000000000E+00 0. -1.
</event>
<event>
 4    1  0.6225520E+003  0.2941864E+02  0.7546771E-02  0.1424717E+00
          2   -1    0    0  501    0  0.00000000000E+00  0.00000000000E+00  0.27312470065E+03  0.27312470065E+03  0.00000000000E+00 0. -1.
          2   -1    0    0  502    0 -0.00000000000E+00 -0.00000000000E+00 -0.54865616530E+02  0.54865616530E+02  0.00000000000E+00 0.  1.
          2    1    1    2  501    0  0.73311650585E+01  0.28490531452E+02 -0.50059482366E+02  0.58063828140E+02  0.00000000000E+00 0.  1.
          2    1    1    2  502    0 -0.73311650585E+01 -0.28490531452E+02  0.26831856649E+03  0.26992648904E+03  0.00000000000E+00 0. -1.
</event>
<event>
 4    1  0.6225520E+003  0.2409662E+02  0.7546771E-02  0.1479169E+00
          2   -1    0    0  502    0  0.00000000000E+00  0.00000000000E+00  0.58379096799E+01  0.58379096799E+01  0.00000000000E+00 0. -1.
          2   -1    0    0  501    0 -0.00000000000E+00 -0.00000000000E+00 -0.73640217112E+03  0.73640217112E+03  0.00000000000E+00 0.  1.
          2    1    1    2  501    0 -0.21379132681E+02 -0.11116646111E+02 -0.20133325654E+02  0.31400604084E+02  0.00000000000E+00 0. -1.
          2    1    1    2  502    0  0.21379132681E+02  0.11116646111E+02 -0.71043093578E+03  0.71083947671E+03  0.00000000000E+00 0.  1.
</event>
<event>
 4    1  0.6225520E+003  0.3028857E+02  0.7546771E-02  0.1417105E+00
          2   -1    0    0  501    0  0.00000000000E+00  0.00000000000E+00  0.41146465755E+02  0.41146465755E+02  0.00000000000E+00 0. -1.
          2   -1    0    0  502    0 -0.00000000000E+00 -0.00000000000E+00 -0.34553280978E+03  0.34553280978E+03  0.00000000000E+00 0.  1.
          2    1    1    2  501    0 -0.24470470310E+02  0.17849191705E+02 -0.33919107079E+03  0.34054071719E+03  0.00000000000E+00 0.  1.
          2    1    1    2  502    0  0.24470470310E+02 -0.17849191705E+02  0.34804726759E+02  0.46138558348E+02  0.00000000000E+00 0. -1.
</event>
<event>
 4    1  0.6225520E+003  0.2144373E+02  0.7546771E-02  0.1513023E+00
          2   -1    0    0  502    0  0.00000000000E+00  0.00000000000E+00  0.12449053756E+01  0.12449053756E+01  0.00000000000E+00 0.  1.
          2   -1    0    0  501    0 -0.00000000000E+00 -0.00000000000E+00 -0.45253483391E+03  0.45253483391E+03  0.00000000000E+00 0.  1.
          2    1    1    2  501    0  0.12248839503E+01 -0.21408713604E+02 -0.12838068327E+03  0.13015926089E+03  0.00000000000E+00 0.  1.
          2    1    1    2  502    0 -0.12248839503E+01  0.21408713604E+02 -0.32290924526E+03  0.32362047839E+03  0.00000000000E+00 0.  1.
</event>
<event>
 4    1  0.6225520E+003  0.2792037E+02  0.7546771E-02  0.1438576E+00
          2   -1    0    0  502    0  0.00000000000E+00  0.00000000000E+00  0.23540807195E+03  0.23540807195E+03  0.00000000000E+00 0. -1.
          2   -1    0    0  501    0 -0.00000000000E+00 -0.00000000000E+00 -0.85354928204E+01  0.85354928204E+01  0.00000000000E+00 0. -1.
          2    1    1    2  501    0  0.20687976727E+02  0.18749795150E+02  0.20885807231E+03  0.21071602115E+03  0.00000000000E+00 0. -1.
          2    1    1    2  502    0 -0.20687976727E+02 -0.18749795150E+02  0.18014506819E+02  0.33227543622E+02  0.00000000000E+00 0. -1.
</event>
<event>
 4    1  0.6225520E+003  0.2274376E+02  0.7546771E-02  0.1495741E+00
          2   -1    0    0  502    0  0.00000000000E+00  0.00000000000E+00  0.19983790437E+02  0.19983790437E+02  0.00000000000E+00 0.  1.
          2   -1    0    0  501    0 -0.00000000000E+00 -0.00000000000E+00 -0.51836883113E+03  0.51836883113E+03  0.00000000000E+00 0. -1.
          2    1    1    2  501    0  0.56559175506E+01  0.22029278023E+02  0.13177027745E+02  0.26285215497E+02  0.00000000000E+00 0.  1.
          2    1    1    2  502    0 -0.56559175506E+01 -0.22029278023E+02 -0.51156206844E+03  0.51206740607E+03  0.00000000000E+00 0. -1.
</event>
<event>
 4    1  0.6225520E+003  0.2212056E+02  0.7546771E-02  0.1503847E+00
          2   -1    0    0  501    0  0.00000000000E+00  0.00000000000E+00  0.76452880335E+00  0.76452880335E+00  0.00000000000E+00 0. -1.
          2   -1    0    0  502    0 -0.00000000000E+00 -0.00000000000E+00 -0.78613138565E+03  0.78613138565E+03  0.00000000000E+00 0. -1.
          2    1    1    2  501    0  0.13540273814E+02  0.17492288610E+02 -0.56230112463E+03  0.56273606063E+03  0.00000000000E+00 0. -1.
          2    1    1    2  502    0 -0.13540273814E+02 -0.17492288610E+02 -0.22306573222E+03  0.22415985382E+03  0.00000000000E+00 0. -1.
</event>
<event>
 4    1  0.6225520E+003  0.4243736E+02  0.7546771E-02  0.1334766E+00
          2   -1    0    0  502    0  0.00000000000E+00  0.00000000000E+00  0.41177060777E+02  0.41177060777E+02  0.00000000000E+00 0. -1.
          2   -1    0    0  501    0 -0.00000000000E+00 -0.00000000000E+00 -0.64185146795E+03  0.64185146795E+03  0.00000000000E+00 0. -1.
          2    1    1    2  501    0  0.39714804173E+02 -0.14955396736E+02  0.29336275001E+02  0.51590179230E+02  0.00000000000E+00 0. -1.
          2    1    1    2  502    0 -0.39714804173E+02  0.14955396736E+02 -0.63001068218E+03  0.63143834950E+03  0.00000000000E+00 0. -1.
</event>
<event>
 4    1  0.6225520E+003  0.3861111E+02  0.7546771E-02  0.1356823E+00
          2   -1    0    0  501    0  0.00000000000E+00  0.00000000000E+00  0.13665979951E+01  0.13665979951E+01  0.00000000000E+00 0. -1.
          2   -1    0    0  502    0 -0.00000000000E+00 -0.00000000000E+00 -0.14131480542E+04  0.14131480542E+04  0.00000000000E+00 0.  1.
          2    1    1    2  501    0  0.37534498390E+02 -0.90542571999E+01 -0.10436292156E+04  0.10443432184E+04  0.00000000000E+00 0.  1.
          2    1    1    2  502    0 -0.37534498390E+02  0.90542571999E+01 -0.36815224053E+03  0.37017143373E+03  0.00000000000E+00 0. -1.
</event>
<event>
 4    1  0.6225520E+003  0.2778708E+02  0.7546771E-02  0.1439858E+00
          2   -1    0    0  502    0  0.00000000000E+00  0.00000000000E+00  0.18419378850E+04  0.18419378850E+04  0.00000000000E+00 0. -1.
          2   -1    0    0  501    0 -0.00000000000E+00 -0.00000000000E+00 -0.68225962297E+00  0.68225962297E+00  0.00000000000E+00 0.  1.
          2    1    1    2  501    0 -0.72946615855E+00 -0.27777504235E+02  0.14927204665E+04  0.14929790732E+04  0.00000000000E+00 0. -1.
          2    1    1    2  502    0  0.72946615855E+00  0.27777504235E+02  0.34853515889E+03  0.34964107145E+03  0.00000000000E+00 0.  1.
</event>
<event>
 4    1  0.6225520E+003  0.3204434E+02  0.7546771E-02  0.1402625E+00
          2   -1    0    0  502    0  0.00000000000E+00  0.00000000000E+00  0.13903406371E+03  0.13903406371E+03  0.00000000000E+00 0. -1.
          2   -1    0    0  501    0 -0.00000000000E+00 -0.00000000000E+00 -0.22738587840E+02  0.22738587840E+02  0.00000000000E+00 0. -1.
          2    1    1    2  501    0 -0.31852873611E+02 -0.34977543437E+01  0.12461240715E+03  0.12866659185E+03  0.00000000000E+00 0. -1.
          2    1    1    2  502    0  0.31852873611E+02  0.34977543437E+01 -0.83169312819E+01  0.33106059697E+02  0.00000000000E+00 0. -1.
</event>
<event>
 4    1  0.6225520E+003  0.2231180E+02  0.7546771E-02  0.1501325E+00
          2   -1    0    0  502    0  0.00000000000E+00  0.00000000000E+00  0.85882872987E+01  0.85882872987E+01  0.00000000000E+00 0.  1.
          2   -1    0    0  501    0 -0.00000000000E+00 -0.00000000000E+00 -0.18049198121E+03  0.18049198121E+03  0.00000000000E+00 0. -1.
          2    1    1    2  501    0 -0.21663504287E+02  0.53394025397E+01 -0.80578777663E+01  0.23722268685E+02  0.00000000000E+00 0.  1.
          2    1    1    2  502    0  0.21663504287E+02 -0.53394025397E+01 -0.16384581614E+03  0.16535799982E+03  0.00000000000E+00 0. -1.
</event>
<event>
 4    1  0.6225520E+003  0.2883950E+02  0.7546771E-02  0.1429956E+00
          2   -1    0    0  502    0  0.00000000000E+00  0.00000000000E+00  0.23731573022E+02  0.23731573022E+02  0.00000000000E+00 0. -1.
          2   -1    0    0  501    0 -0.00000000000E+00 -0.00000000000E+00 -0.84948333531E+03  0.84948333531E+03  0.00000000000E+00 0.  1.
          2    1    1    2  501    0 -0.10256581928E+02  0.26954021694E+02  0.14630228959E+02  0.32338218221E+02  0.00000000000E+00 0. -1.
          2    1    1    2  502    0  0.10256581928E+02 -0.26954021694E+02 -0.84038199125E+03  0.84087669011E+03  0.00000000000E+00 0.  1.
</event>
<event>
 4    1  0.6225520E+003  0.2675049E+02  0.7546771E-02  0.1450131E+00
          2   -1    0    0  501    0  0.00000000000E+00  0.00000000000E+00  0.12226644884E+03  0.12226644884E+03  0.00000000000E+00 0.  1.
          2   -1    0    0  502    0 -0.00000000000E+00 -0.00000000000E+00 -0.27696709043E+03  0.27696709043E+03  0.00000000000E+00 0.  1.
          2    1    1    2  501    0  0.22166151027E+02 -0.14975003174E+02 -0.27484673870E+03  0.27614546664E+03  0.00000000000E+00 0.  1.
          2    1    1    2  502    0 -0.22166151027E+02  0.14975003174E+02  0.12014609711E+03  0.12308807262E+03  0.00000000000E+00 0.  1.
</event>
<event>
 4    1  0.6225520E+003  0.2631454E+02  0.7546771E-02  0.1454618E+00
          2   -1    0    0  502    0  0.00000000000E+00  0.00000000000E+00  0.43650108551E+01  0.43650108551E+01  0.00000000000E+00 0.  1.
          2   -1    0    0  501    0 -0.00000000000E+00 -0.00000000000E+00 -0.34715508281E+03  0.34715508281E+03  0.00000000000E+00 0.  1.
          2    1    1    2  501    0 -0.10587267684E+00 -0.26314329116E+02 -0.41875840603E+02  0.49457468112E+02  0.00000000000E+00 0.  1.
          2    1    1    2  502    0  0.10587267684E+00  0.26314329116E+02 -0.30091423135E+03  0.30206262555E+03  0.00000000000E+00 0.  1.
</event>
<event>
 4    1  0.6225520E+003  0.2377285E+02  0.7546771E-02  0.1483015E+00
          2   -1    0    0  502    0  0.00000000000E+00  0.00000000000E+00  0.49454446849E+00  0.49454446849E+00  0.00000000000E+00 0.  1.
          2   -1    0    0  501    0 -0.00000000000E+00 -0.00000000000E+00 -0.19414221200E+04  0.19414221200E+04  0.00000000000E+00 0.  1.
          2    1    1    2  501    0  0.23672188564E+02  0.21853617695E+01 -0.34770383684E+03  0.34851557565E+03  0.00000000000E+00 0.  1.
          2    1    1    2  502    0 -0.23672188564E+02 -0.21853617695E+01 -0.15932237387E+04  0.15934010888E+04  0.00000000000E+00 0.  1.
</event>
<event>
 4    1  0.6225520E+003  0.2294446E+02  0.7546771E-02  0.1493197E+00
          2   -1    0    0  502    0  0.00000000000E+00  0.00000000000E+00  0.18149491240E+03  0.18149491240E+03  0.00000000000E+00 0. -1.
          2   -1    0    0  501    0 -0.00000000000E+00 -0.00000000000E+00 -0.26504653755E+03  0.26504653755E+03  0.00000000000E+00 0.  1.
          2    1    1    2  501    0  0.21142618730E+02  0.89127947681E+01  0.18026983370E+03  0.18172413483E+03  0.00000000000E+00 0. -1.
          2    1    1    2  502    0 -0.21142618730E+02 -0.89127947681E+01 -0.26382145885E+03  0.26481731512E+03  0.00000000000E+00 0.  1.
</event>
<event>
 4    1  0.6225520E+003  0.2330700E+02  0.7546771E-02  0.1488679E+00
          2   -1    0    0  501    0  0.00000000000E+00  0.00000000000E+00  0.17277657473E+01  0.17277657473E+01  0.00000000000E+00 0. -1.
          2   -1    0    0  502    0 -0.00000000000E+00 -0.00000000000E+00 -0.62700387924E+03  0.62700387924E+03  0.00000000000E+00 0.  1.
          2    1    1    2  501    0 -0.21609559287E+02  0.87317434043E+01 -0.53460823957E+03  0.53511604929E+03  0.00000000000E+00 0.  1.
          2    1    1    2  502    0  0.21609559287E+02 -0.87317434043E+01 -0.90667873927E+02  0.93615595697E+02  0.00000000000E+00 0. -1.
</event>
<event>
 4    1  0.6225520E+003  0.2025259E+02  0.7546771E-02  0.1530209E+00
          2   -1    0    0  501    0  0.00000000000E+00  0.00000000000E+00  0.73561701375E+02  0.73561701375E+02  0.00000000000E+00 0.  1.
          2   -1    0    0  502    0 -0.00000000000E+00 -0.00000000000E+00 -0.96269249298E+01  0.96269249298E+01  0.00000000000E+00 0.  1.
          2    1    1    2  501    0  0.20073487597E+02 -0.26874982415E+01  0.49852496997E+01  0.20857139441E+02  0.00000000000E+00 0.  1.
          2    1    1    2  502    0 -0.20073487597E+02  0.26874982415E+01  0.58949526745E+02  0.62331486863E+02  0.00000000000E+00 0.  1.
</event>
<event>
 4    1  0.6225520E+003  0.9079084E+02  0.7546771E-02  0.1180800E+00
          2   -1    0    0  501    0  0.00000000000E+00  0.00000000000E+00  0.10463337128E+04  0.10463337128E+04  0.00000000000E+00 0.  1.
          2   -1    0    0  502    0 -0.00000000000E+00 -0.00000000000E+00 -0.11311893510E+02  0.11311893510E+02  0.00000000000E+00 0. -1.
          2    1    1    2  501    0  0.85496460870E+02 -0.30550482397E+02  0.80887656662E+03  0.81395594280E+03  0.00000000000E+00 0.  1.
          2    1    1    2  502    0 -0.85496460870E+02  0.30550482397E+02  0.22614525267E+03  0.24368966351E+03  0.00000000000E+00 0. -1.
</event>
<event>
 4    1  0.6225520E+003  0.3978643E+02  0.7546771E-02  0.1349742E+00
          2   -1    0    0  501    0  0.00000000000E+00  0.00000000000E+00  0.93027473103E+02  0.93027473103E+02  0.00000000000E+00 0.  1.
          2   -1    0    0  502    0 -0.00000000000E+00 -0.00000000000E+00 -0.18679220740E+02  0.18679220740E+02  0.00000000000E+00 0.  1.
          2    1    1    2  501    0  0.39670480136E+02  0.30353256987E+01  0.20507866076E+02  0.44760839663E+02  0.00000000000E+00 0.  1.
          2    1    1    2  502    0 -0.39670480136E+02 -0.30353256987E+01  0.53840386287E+02  0.66945854180E+02  0.00000000000E+00 0.  1.
</event>
<event>
 4    1  0.6225520E+003  0.2340780E+02  0.7546771E-02  0.1487440E+00
          2   -1    0    0  501    0  0.00000000000E+00  0.00000000000E+00  0.13481260753E+02  0.13481260753E+02  0.00000000000E+00 0. -1.
          2   -1    0    0  502    0 -0.00000000000E+00 -0.00000000000E+00 -0.24546924447E+03  0.24546924447E+03  0.00000000000E+00 0. -1.
          2    1    1    2  501    0  0.16255240091E+02  0.16843171980E+02 -0.23426560560E+03  0.23543215421E+03  0.00000000000E+00 0. -1.
          2    1    1    2  502    0 -0.16255240091E+02 -0.16843171980E+02  0.22776218781E+01  0.23518351009E+02  0.00000000000E+00 0. -1.
</event>
<event>
 4    1  0.6225520E+003  0.2152491E+02  0.7546771E-02  0.1511901E+00
          2   -1    0    0  501    0  0.00000000000E+00  0.00000000000E+00  0.29374713100E+03  0.29374713100E+03  0.00000000000E+00 0. -1.
          2   -1    0    0  502    0 -0.00000000000E+00 -0.00000000000E+00 -0.12132584596E+02  0.12132584596E+02  0.00000000000E+00 0.  1.
          2    1    1    2  501    0 -0.19220286774E+02 -0.96903306921E+01 -0.18452215256E+01  0.21603860189E+02  0.00000000000E+00 0.  1.
          2    1    1    2  502    0  0.19220286774E+02  0.96903306921E+01  0.28345976793E+03  0.28427585541E+03  0.00000000000E+00 0. -1.
</event>
<event>
 4    1  0.6225520E+003  0.4338732E+02  0.7546771E-02  0.1329703E+00
          2   -1    0    0  501    0  0.00000000000E+00  0.00000000000E+00  0.51308831726E+02  0.51308831726E+02  0.00000000000E+00 0.  1.
          2   -1    0    0  502    0 -0.00000000000E+00 -0.00000000000E+00 -0.11279537638E+04  0.11279537638E+04  0.00000000000E+00 0. -1.
          2    1    1    2  501    0 -0.42147805207E+02 -0.10296704895E+02 -0.11182850610E+04  0.11191264171E+04  0.00000000000E+00 0. -1.
          2    1    1    2  502    0  0.42147805207E+02  0.10296704895E+02  0.41640128990E+02  0.60136178443E+02  0.00000000000E+00 0.  1.
</event>
<event>
 4    1  0.6225520E+003  0.2086875E+02  0.7546771E-02  0.1521147E+00
          2   -1    0    0  501    0  0.00000000000E+00  0.00000000000E+00  0.18673463402E+03  0.18673463402E+03  0.00000000000E+00 0.  1.
          2   -1    0    0  502    0 -0.00000000000E+00 -0.00000000000E+00 -0.71072238412E+01  0.71072238412E+01  0.00000000000E+00 0.  1.
          2    1    1    2  501    0 -0.82750272424E+01 -0.19157996267E+02  0.10370864820E+02  0.23303642075E+02  0.00000000000E+00 0.  1.
          2    1    1    2  502    0  0.82750272424E+01  0.19157996267E+02  0.16925654536E+03  0.17053821579E+03  0.00000000000E+00 0.  1.
</event>
<event>
 4    1  0.6225520E+003  0.3407287E+02  0.7546771E-02  0.1387201E+00
          2   -1    0    0  501    0  0.00000000000E+00  0.00000000000E+00  0.32630945303E+02  0.32630945303E+02  0.00000000000E+00 0.  1.
          2   -1    0    0  502    0 -0.00000000000E+00 -0.00000000000E+00 -0.23305986119E+04  0.23305986119E+04  0.00000000000E+00 0. -1.
          2    1    1    2  501    0  0.25526318992E+02  0.22569167726E+02 -0.23215447643E+04  0.23217947913E+04  0.00000000000E+00 0. -1.
          2    1    1    2  502    0 -0.25526318992E+02 -0.22569167726E+02  0.23577097669E+02  0.41434765929E+02  0.00000000000E+00 0.  1.
</event>
<event>
 4    1  0.6225520E+003  0.2397039E+02  0.7546771E-02  0.1480660E+00
          2   -1    0    0  502    0  0.00000000000E+00  0.00000000000E+00  0.51192070369E+01  0.51192070369E+01  0.00000000000E+00 0. -1.
          2   -1    0    0  501    0 -0.00000000000E+00 -0.00000000000E+00 -0.18051771050E+04  0.18051771050E+04  0.00000000000E+00 0. -1.
          2    1    1    2  501    0  0.23571816556E+02 -0.43530645722E+01 -0.23471919700E+02  0.33548632182E+02  0.00000000000E+00 0. -1.
          2    1    1    2  502    0 -0.23571816556E+02  0.43530645722E+01 -0.17765859783E+04  0.17767476799E+04  0.00000000000E+00 0. -1.
</event>
<event>
 4    1  0.6225520E+003  0.2102804E+02  0.7546771E-02  0.1518865E+00
          2   -1    0    0  501    0  0.00000000000E+00  0.00000000000E+00  0.11548269016E+04  0.11548269016E+04  0.00000000000E+00 0.  1.
          2   -1    0    0  502    0 -0.00000000000E+00 -0.00000000000E+00 -0.13357038602E+01  0.13357038602E+01  0.00000000000E+00 0. -1.
          2    1    1    2  501    0  0.18708429042E+02  0.96006913525E+01  0.88502065522E+02  0.90965895770E+02  0.00000000000E+00 0. -1.
          2    1    1    2  502    0 -0.18708429042E+02 -0.96006913525E+01  0.10649891323E+04  0.10651967097E+04  0.00000000000E+00 0.  1.
</event>
<event>
 4    1  0.6225520E+003  0.2505465E+02  0.7546771E-02  0.1468193E+00
          2   -1    0    0  501    0  0.00000000000E+00  0.00000000000E+00  0.77563917683E+02  0.77563917683E+02  0.00000000000E+00 0. -1.
          2   -1    0    0  502    0 -0.00000000000E+00 -0.00000000000E+00 -0.28314139876E+02  0.28314139876E+02  0.00000000000E+00 0. -1.
          2    1    1    2  501    0 -0.60115638194E+01 -0.24322757742E+02 -0.20113014137E+02  0.32128939936E+02  0.00000000000E+00 0. -1.
          2    1    1    2  502    0  0.60115638194E+01  0.24322757742E+02  0.69362791944E+02  0.73749117622E+02  0.00000000000E+00 0. -1.
</event>
<event>
 4    1  0.6225520E+003  0.2767652E+02  0.7546771E-02  0.1440928E+00
          2   -1    0    0  502    0  0.00000000000E+00  0.00000000000E+00  0.15952531627E+02  0.15952531627E+02  0.00000000000E+00 0.  1.
          2   -1    0    0  501    0 -0.00000000000E+00 -0.00000000000E+00 -0.20582321555E+03  0.20582321555E+03  0.00000000000E+00 0. -1.
          2    1    1    2  501    0 -0.19895144274E+02  0.19239880040E+02  0.21601762326E+01  0.27760693633E+02  0.00000000000E+00 0.  1.
          2    1    1    2  502    0  0.19895144274E+02 -0.19239880040E+02 -0.19203086015E+03  0.19401505354E+03  0.00000000000E+00 0. -1.
</event>
<event>
 4    1  0.6225520E+003  0.2520528E+02  0.7546771E-02  0.1466520E+00
          2   -1    0    0  502    0  0.00000000000E+00  0.00000000000E+00  0.35395422576E+03  0.35395422576E+03  0.00000000000E+00 0.  1.
          2   -1    0    0  501    0 -0.00000000000E+00 -0.00000000000E+00 -0.26591104733E+02  0.26591104733E+02  0.00000000000E+00 0. -1.
          2    1    1    2  501    0  0.13287563682E+02  0.21418376947E+02  0.34742040126E+03  0.34833352039E+03  0.00000000000E+00 0.  1.
          2    1    1    2  502    0 -0.13287563682E+02 -0.21418376947E+02 -0.20057280230E+02  0.32211810100E+02  0.00000000000E+00 0. -1.
</event>
<event>
 4    1  0.6225520E+003  0.6516601E+02  0.7546771E-02  0.1243223E+00
          2   -1    0    0  501    0  0.00000000000E+00  0.00000000000E+00  0.15389557645E+04  0.15389557645E+04  0.00000000000E+00 0.  1.
          2   -1    0    0  502    0 -0.00000000000E+00 -0.00000000000E+00 -0.35362271341E+01  0.35362271341E+01  0.00000000000E+00 0. -1.
          2    1    1    2  501    0  0.28820464586E+01 -0.65102251761E+02  0.40623137467E+03  0.41142501035E+03  0.00000000000E+00 0. -1.
          2    1    1    2  502    0 -0.28820464586E+01  0.65102251761E+02  0.11291881627E+04  0.11310669813E+04  0.00000000000E+00 0.  1.
</event>
<event>
 4    1  0.6225520E+003  0.2346035E+02  0.7546771E-02  0.1486797E+00
          2   -1    0    0  501    0  0.00000000000E+00  0.00000000000E+00  0.16283562838E+04  0.16283562838E+04  0.00000000000E+00 0. -1.
          2   -1    0    0  502    0 -0.00000000000E+00 -0.00000000000E+00 -0.74299479984E+02  0.74299479984E+02  0.00000000000E+00 0.  1.
          2    1    1    2  501    0  0.30560153338E-02 -0.23460353290E+02 -0.72360847335E+02  0.76068918836E+02  0.00000000000E+00 0.  1.
          2    1    1    2  502    0 -0.30560153338E-02  0.23460353290E+02  0.16264176511E+04  0.16265868449E+04  0.00000000000E+00 0. -1.
</event>
<event>
 4    1  0.6225520E+003  0.2814726E+02  0.7546771E-02  0.1436412E+00
          2   -1    0    0  502    0  0.00000000000E+00  0.00000000000E+00  0.13616509816E+04  0.13616509816E+04  0.00000000000E+00 0. -1.
          2   -1    0    0  501    0 -0.00000000000E+00 -0.00000000000E+00 -0.42346094343E+02  0.42346094343E+02  0.00000000000E+00 0.  1.
          2    1    1    2  501    0 -0.25924293000E+02 -0.10963543523E+02  0.13568114997E+04  0.13571034279E+04  0.00000000000E+00 0. -1.
          2    1    1    2  502    0  0.25924293000E+02  0.10963543523E+02 -0.37506612427E+02  0.46893648076E+02  0.00000000000E+00 0.  1.
</event>
<event>
 4    1  0.6225520E+003  0.2368916E+02  0.7546771E-02  0.1484021E+00
          2   -1    0    0  502    0  0.00000000000E+00  0.00000000000E+00  0.95880947037E+00  0.95880947037E+00  0.00000000000E+00 0.  1.
          2   -1    0    0  501    0 -0.00000000000E+00 -0.00000000000E+00 -0.15905115983E+04  0.15905115983E+04  0.00000000000E+00 0.  1.
          2    1    1    2  501    0 -0.22459852344E+02 -0.75320307847E+01 -0.16217198397E+03  0.16389304085E+03  0.00000000000E+00 0.  1.
          2    1    1    2  502    0  0.22459852344E+02  0.75320307847E+01 -0.14273808049E+04  0.14275773670E+04  0.00000000000E+00 0.  1.
</event>
<event>
 4    1  0.6225520E+003  0.2641711E+02  0.7546771E-02  0.1453553E+00
          2   -1    0    0  502    0  0.00000000000E+00  0.00000000000E+00  0.12825056400E+04  0.12825056400E+04  0.00000000000E+00 0.  1.
          2   -1    0    0  501    0 -0.00000000000E+00 -0.00000000000E+00 -0.47887450832E+01  0.47887450832E+01  0.00000000000E+00 0. -1.
          2    1    1    2  501    0 -0.10261644292E+02  0.24342598362E+02  0.12448347376E+04  0.12451150097E+04  0.00000000000E+00 0.  1.
          2    1    1    2  502    0  0.10261644292E+02 -0.24342598362E+02  0.32882157341E+02  0.42179375410E+02  0.00000000000E+00 0. -1.
</event>
<event>
 4    1  0.6225520E+003  0.2465410E+02  0.7546771E-02  0.1472710E+00
          2   -1    0    0  502    0  0.00000000000E+00  0.00000000000E+00  0.15240486505E+04  0.15240486505E+04  0.00000000000E+00 0. -1.
          2   -1    0    0  501    0 -0.00000000000E+00 -0.00000000000E+00 -0.65593336261E+00  0.65593336261E+00  0.00000000000E+00 0. -1.
          2    1    1    2  501    0 -0.14141263621E+02  0.20195285454E+02  0.12389904558E+04  0.12392357219E+04  0.00000000000E+00 0. -1.
          2    1    1    2  502    0  0.14141263621E+02 -0.20195285454E+02  0.28440226134E+03  0.28546886195E+03  0.00000000000E+00 0. -1.
</event>
<event>
 4    1  0.6225520E+003  0.2460458E+02  0.7546771E-02  0.1473276E+00
          2   -1    0    0  502    0  0.00000000000E+00  0.00000000000E+00  0.53330529920E+03  0.53330529920E+03  0.00000000000E+00 0.  1.
          2   -1    0    0  501    0 -0.00000000000E+00 -0.00000000000E+00 -0.10160568057E+02  0.10160568057E+02  0.00000000000E+00 0.  1.
          2    1    1    2  501    0  0.16379063453E+02  0.18360604028E+02  0.51767660443E+03  0.51826098857E+03  0.00000000000E+00 0.  1.
          2    1    1    2  502    0 -0.16379063453E+02 -0.18360604028E+02  0.54681267131E+01  0.25204878687E+02  0.00000000000E+00 0.  1.
</event>
<event>
 4    1  0.6225520E+003  0.2136916E+02  0.7546771E-02  0.1514059E+00
          2   -1    0    0  501    0  0.00000000000E+00  0.00000000000E+00  0.10856093942E+04  0.10856093942E+04  0.00000000000E+00 0.  1.
          2   -1    0    0  502    0 -0.00000000000E+00 -0.00000000000E+00 -0.46163282937E+00  0.46163282937E+00  0.00000000000E+00 0. -1.
          2    1    1    2  501    0 -0.21366598248E+02 -0.33112987454E+00  0.70441188636E+03  0.70473594120E+03  0.00000000000E+00 0.  1.
          2    1    1    2  502    0  0.21366598248E+02  0.33112987454E+00  0.38073587500E+03  0.38133508583E+03  0.00000000000E+00 0. -1.
</event>
<event>
 4    1  0.6225520E+003  0.2045629E+02  0.7546771E-02  0.1527171E+00
          2   -1    0    0  501    0  0.00000000000E+00  0.00000000000E+00  0.58125855210E+03  0.58125855210E+03  0.00000000000E+00 0. -1.
          2   -1    0    0  502    0 -0.00000000000E+00 -0.00000000000E+00 -0.10425142463E+02  0.10425142463E+02  0.00000000000E+00 0. -1.
          2    1    1    2  501    0  0.19508188121E+02 -0.61555030500E+01 -0.27582072991E-01  0.20456304220E+02  0.00000000000E+00 0. -1.
          2    1    1    2  502    0 -0.19508188121E+02  0.61555030500E+01  0.57086099171E+03  0.57122739035E+03  0.00000000000E+00 0. -1.
</event>
<event>
 4    1  0.6225520E+003  0.2014443E+02  0.7546771E-02  0.1531839E+00
          2   -1    0    0  502    0  0.00000000000E+00  0.00000000000E+00  0.85819216363E+03  0.85819216363E+03  0.00000000000E+00 0.  1.
          2   -1    0    0  501    0 -0.00000000000E+00 -0.00000000000E+00 -0.51865252479E+01  0.51865252479E+01  0.00000000000E+00 0.  1.
          2    1    1    2  501    0  0.32570165965E+01 -0.19879379932E+02  0.83804354244E+03  0.83828561775E+03  0.00000000000E+00 0.  1.
          2    1    1    2  502    0 -0.32570165965E+01  0.19879379932E+02  0.14962095943E+02  0.25093071127E+02  0.00000000000E+00 0.  1.
</event>
<event>
 4    1  0.6225520E+003  0.6288989E+02  0.7546771E-02  0.1250318E+00
          2   -1    0    0  502    0  0.00000000000E+00  0.00000000000E+00  0.54082990124E+02  0.54082990124E+02  0.00000000000E+00 0.  1.
          2   -1    0    0  501    0 -0.00000000000E+00 -0.00000000000E+00 -0.12355609213E+04  0.12355609213E+04  0.00000000000E+00 0.  1.
          2    1    1    2  501    0 -0.61718849468E+02  0.12079833282E+02  0.34708936148E+02  0.71832088932E+02  0.00000000000E+00 0.  1.
          2    1    1    2  502    0  0.61718849468E+02 -0.12079833282E+02 -0.12161868673E+04  0.12178118225E+04  0.00000000000E+00 0.  1.
</event>
<event>
 4    1  0.6225520E+003  0.2742270E+02  0.7546771E-02  0.1443408E+00
          2   -1    0    0  502    0  0.00000000000E+00  0.00000000000E+00  0.93397062747E+02  0.93397062747E+02  0.00000000000E+00 0. -1.
          2   -1    0    0  501    0 -0.00000000000E+00 -0.00000000000E+00 -0.82223585744E+01  0.82223585744E+01  0.00000000000E+00 0. -1.
          2    1    1    2  501    0 -0.12505974618E+02 -0.24405025841E+02  0.49907478872E+02  0.56945246815E+02  0.00000000000E+00 0. -1.
          2    1    1    2  502    0  0.12505974618E+02  0.24405025841E+02  0.35267225300E+02  0.44674174506E+02  0.00000000000E+00 0. -1.
</event>
<event>
 4    1  0.6225520E+003  0.3067577E+02  0.7546771E-02  0.1413813E+00
          2   -1    0    0  501    0  0.00000000000E+00  0.00000000000E+00  0.27508227411E+01  0.27508227411E+01  0.00000000000E+00 0. -1.
          2   -1    0    0  502    0 -0.00000000000E+00 -0.00000000000E+00 -0.15172343672E+04  0.15172343672E+04  0.00000000000E+00 0. -1.
          2    1    1    2  501    0 -0.30216414899E+02 -0.52888012239E+01 -0.14260942957E+04  0.14264241807E+04  0.00000000000E+00 0. -1.
          2    1    1    2  502    0  0.30216414899E+02  0.52888012239E+01 -0.88389248718E+02  0.93561009168E+02  0.00000000000E+00 0. -1.
</event>
<event>
 4    1  0.6225520E+003  0.2044024E+02  0.7546771E-02  0.1527409E+00
          2   -1    0    0  502    0  0.00000000000E+00  0.00000000000E+00  0.67574421680E+01  0.67574421680E+01  0.00000000000E+00 0. -1.
          2   -1    0    0  501    0 -0.00000000000E+00 -0.00000000000E+00 -0.11824113831E+04  0.11824113831E+04  0.00000000000E+00 0.  1.
          2    1    1    2  501    0  0.14433303848E+02  0.14473535722E+02 -0.89967695370E+01  0.22332607514E+02  0.00000000000E+00 0. -1.
          2    1    1    2  502    0 -0.14433303848E+02 -0.14473535722E+02 -0.11666571714E+04  0.11668362178E+04  0.00000000000E+00 0.  1.
</event>
<event>
 4    1  0.6225520E+003  0.2785439E+02  0.7546771E-02  0.1439209E+00
          2   -1    0    0  502    0  0.00000000000E+00  0.00000000000E+00  0.93522454694E+03  0.93522454694E+03  0.00000000000E+00 0.  1.
          2   -1    0    0  501    0 -0.00000000000E+00 -0.00000000000E+00 -0.25650125990E+01  0.25650125990E+01  0.00000000000E+00 0. -1.
          2    1    1    2  501    0  0.65621319708E+01  0.27070378775E+02  0.85201356126E+03  0.85246875341E+03  0.00000000000E+00 0.  1.
          2    1    1    2  502    0 -0.65621319708E+01 -0.27070378775E+02  0.80645973087E+02  0.85320806127E+02  0.00000000000E+00 0. -1.
</event>
<event>
 4    1  0.6225520E+003  0.2872597E+02  0.7546771E-02  0.1431000E+00
          2   -1    0    0  501    0  0.00000000000E+00  0.00000000000E+00  0.55215601344E+03  0.55215601344E+03  0.00000000000E+00 0. -1.
          2   -1    0    0  502    0 -0.00000000000E+00 -0.00000000000E+00 -0.45276648816E+03  0.45276648816E+03  0.00000000000E+00 0. -1.
          2    1    1    2  501    0  0.27469505642E+02 -0.84028293691E+01 -0.45193655200E+03  0.45284857106E+03  0.00000000000E+00 0. -1.
          2    1    1    2  502    0 -0.27469505642E+02  0.84028293691E+01  0.55132607729E+03  0.55207393054E+03  0.00000000000E+00 0. -1.
</event>
<event>
 4    1  0.6225520E+003  0.2506814E+02  0.7546771E-02  0.1468042E+00
          2   -1    0    0  501    0  0.00000000000E+00  0.00000000000E+00  0.76360401847E+02  0.76360401847E+02  0.00000000000E+00 0. -1.
          2   -1    0    0  502    0 -0.00000000000E+00 -0.00000000000E+00 -0.15741233015E+04  0.15741233015E+04  0.00000000000E+00 0. -1.
          2    1    1    2  501    0 -0.20205905492E+02 -0.14836885468E+02 -0.15719632836E+04  0.15721631520E+04  0.00000000000E+00 0. -1.
          2    1    1    2  502    0  0.20205905492E+02  0.14836885468E+02  0.74200383898E+02  0.78320551312E+02  0.00000000000E+00 0. -1.
</event>
<event>
 4    1  0.6225520E+003  0.2524636E+02  0.7546771E-02  0.1466066E+00
          2   -1    0    0  501    0  0.00000000000E+00  0.00000000000E+00  0.97353206108E+00  0.97353206108E+00  0.00000000000E+00 0. -1.
          2   -1    0    0  502    0 -0.00000000000E+00 -0.00000000000E+00 -0.18214434092E+04  0.18214434092E+04  0.00000000000E+00 0. -1.
          2    1    1    2  501    0  0.64798056395E+01 -0.24400634007E+02 -0.16395180798E+04  0.16397124482E+04  0.00000000000E+00 0. -1.
          2    1    1    2  502    0 -0.64798056395E+01  0.24400634007E+02 -0.18095179731E+03  0.18270449302E+03  0.00000000000E+00 0. -1.
</event>
<event>
 4    1  0.6225520E+003  0.2656169E+02  0.7546771E-02  0.1452061E+00
          2   -1    0    0  502    0  0.00000000000E+00  0.00000000000E+00  0.49910483901E+01  0.49910483901E+01  0.00000000000E+00 0. -1.
          2   -1    0    0  501    0 -0.00000000000E+00 -0.00000000000E+00 -0.34361567484E+03  0.34361567484E+03  0.00000000000E+00 0.  1.
          2    1    1    2  501    0  0.49589135231E+00 -0.26557062973E+02 -0.35584413202E+02  0.44404661522E+02  0.00000000000E+00 0. -1.
          2    1    1    2  502    0 -0.49589135231E+00  0.26557062973E+02 -0.30304021325E+03  0.30420206171E+03  0.00000000000E+00 0.  1.
</event>
<event>
 4    1  0.6225520E+003  0.4168094E+02  0.7546771E-02  0.1338907E+00
          2   -1    0    0  502    0  0.00000000000E+00  0.00000000000E+00  0.56878574489E+01  0.56878574489E+01  0.00000000000E+00 0.  1.
          2   -1    0    0  501    0 -0.00000000000E+00 -0.00000000000E+00 -0.12140149501E+04  0.12140149501E+04  0.00000000000E+00 0. -1.
          2    1    1    2  501    0  0.31184087943E+02  0.27655982968E+02 -0.76578686004E+02  0.87187131418E+02  0.00000000000E+00 0.  1.
          2    1    1    2  502    0 -0.31184087943E+02 -0.27655982968E+02 -0.11317484066E+04  0.11325156761E+04  0.00000000000E+00 0. -1.
</event>
<event>
 4    1  0.6225520E+003  0.2425720E+02  0.7546771E-02  0.1477287E+00
          2   -1    0    0  502    0  0.00000000000E+00  0.00000000000E+00  0.12432561422E+04  0.12432561422E+04  0.00000000000E+00 0. -1.
          2   -1    0    0  501    0 -0.00000000000E+00 -0.00000000000E+00 -0.51894211562E+00  0.51894211562E+00  0.00000000000E+00 0. -1.
          2    1    1    2  501    0  0.11628760217E+01  0.24229311485E+02  0.80583481574E+03  0.80619982763E+03  0.00000000000E+00 0. -1.
          2    1    1    2  502    0 -0.11628760217E+01 -0.24229311485E+02  0.43690238439E+03  0.43757525673E+03  0.00000000000E+00 0. -1.
</event>
<event>
 4    1  0.6225520E+003  0.3714649E+02  0.7546771E-02  0.1366071E+00
          2   -1    0    0  501    0  0.00000000000E+00  0.00000000000E+00  0.99604599994E+00  0.99604599994E+00  0.00000000000E+00 0.  1.
          2   -1    0    0  502    0 -0.00000000000E+00 -0.00000000000E+00 -0.18364651899E+04  0.18364651899E+04  0.00000000000E+00 0.  1.
          2    1    1    2  501    0 -0.24639027530E+02  0.27798916903E+02 -0.13730850711E+04  0.13735874467E+04  0.00000000000E+00 0.  1.
          2    1    1    2  502    0  0.24639027530E+02 -0.27798916903E+02 -0.46238407285E+03  0.46387378917E+03  0.00000000000E+00 0.  1.
</event>
<event>
 4    1  0.6225520E+003  0.2776716E+02  0.7546771E-02  0.1440050E+00
          2   -1    0    0  501    0  0.00000000000E+00  0.00000000000E+00  0.85687434594E+03  0.85687434594E+03  0.00000000000E+00 0.  1.
          2   -1    0    0  502    0 -0.00000000000E+00 -0.00000000000E+00 -0.43239202191E+02  0.43239202191E+02  0.00000000000E+00 0. -1.
          2    1    1    2  501    0  0.27759243912E+02 -0.66287472846E+00 -0.38531786287E+02  0.47494353137E+02  0.00000000000E+00 0. -1.
          2    1    1    2  502    0 -0.27759243912E+02  0.66287472846E+00  0.85216693003E+03  0.85261919499E+03  0.00000000000E+00 0.  1.
</event>
<event>
 4    1  0.6225520E+003  0.2030879E+02  0.7546771E-02  0.1529366E+00
          2   -1    0    0  502    0  0.00000000000E+00  0.00000000000E+00  0.17666199424E+03  0.17666199424E+03  0.00000000000E+00 0.  1.
          2   -1    0    0  501    0 -0.00000000000E+00 -0.00000000000E+00 -0.90895286414E+01  0.90895286414E+01  0.00000000000E+00 0. -1.
          2    1    1    2  501    0  0.11090561308E+02 -0.17013124591E+02  0.16385072057E+03  0.16510452929E+03  0.00000000000E+00 0.  1.
          2    1    1    2  502    0 -0.11090561308E+02  0.17013124591E+02  0.37217450256E+01  0.20646993595E+02  0.00000000000E+00 0. -1.
</event>
<event>
 4    1  0.6225520E+003  0.4506472E+02  0.7546771E-02  0.1321116E+00
          2   -1    0    0  501    0  0.00000000000E+00  0.00000000000E+00  0.16934982741E+02  0.16934982741E+02  0.00000000000E+00 0.  1.
          2   -1    0    0  502    0 -0.00000000000E+00 -0.00000000000E+00 -0.91513110260E+03  0.91513110260E+03  0.00000000000E+00 0. -1.
          2    1    1    2  501    0  0.21303173387E+02  0.39711506893E+02 -0.88352474850E+03  0.88467327879E+03  0.00000000000E+00 0. -1.
          2    1    1    2  502    0 -0.21303173387E+02 -0.39711506893E+02 -0.14671371357E+02  0.47392806559E+02  0.00000000000E+00 0.  1.
</event>
<event>
 4    1  0.6225520E+003  0.2484109E+02  0.7546771E-02  0.1470589E+00
          2   -1    0    0  501    0  0.00000000000E+00  0.00000000000E+00  0.44467460375E+02  0.44467460375E+02  0.00000000000E+00 0. -1.
          2   -1    0    0  502    0 -0.00000000000E+00 -0.00000000000E+00 -0.57110614089E+02  0.57110614089E+02  0.00000000000E+00 0. -1.
          2    1    1    2  501    0  0.21727448765E+02 -0.12041497946E+02 -0.50511352751E+02  0.56289221520E+02  0.00000000000E+00 0. -1.
          2    1    1    2  502    0 -0.21727448765E+02  0.12041497946E+02  0.37868199037E+02  0.45288852943E+02  0.00000000000E+00 0. -1.
</event>
<event>
 4    1  0.6225520E+003  0.2159741E+02  0.7546771E-02  0.1510904E+00
          2   -1    0    0  502    0  0.00000000000E+00  0.00000000000E+00  0.49339308668E+02  0.49339308668E+02  0.00000000000E+00 0. -1.
          2   -1    0    0  501    0 -0.00000000000E+00 -0.00000000000E+00 -0.64279504546E+03  0.64279504546E+03  0.00000000000E+00 0.  1.
          2    1    1    2  501    0 -0.44455855721E+01  0.21134924794E+02  0.46784996041E+02  0.51529449170E+02  0.00000000000E+00 0. -1.
          2    1    1    2  502    0  0.44455855721E+01 -0.21134924794E+02 -0.64024073283E+03  0.64060490495E+03  0.00000000000E+00 0.  1.
</event>
<event>
 4    1  0.6225520E+003  0.3824776E+02  0.7546771E-02  0.1359071E+00
          2   -1    0    0  501    0  0.00000000000E+00  0.00000000000E+00  0.23277791366E+04  0.23277791366E+04  0.00000000000E+00 0.  1.
          2   -1    0    0  502    0 -0.00000000000E+00 -0.00000000000E+00 -0.18959290382E+01  0.18959290382E+01  0.00000000000E+00 0. -1.
          2    1    1    2  501    0  0.37298418001E+02 -0.84687254253E+01  0.21052968849E+03  0.21397579544E+03  0.00000000000E+00 0. -1.
          2    1    1    2  502    0 -0.37298418001E+02  0.84687254253E+01  0.21153535191E+04  0.21156992702E+04  0.00000000000E+00 0.  1.
</event>
<event>
 4    1  0.6225520E+003  0.2619101E+02  0.7546771E-02  0.1455908E+00
          2   -1    0    0  502    0  0.00000000000E+00  0.00000000000E+00  0.14140759182E+03  0.14140759182E+03  0.00000000000E+00 0.  1.
          2   -1    0    0  501    0 -0.00000000000E+00 -0.00000000000E+00 -0.12087147188E+02  0.12087147188E+02  0.00000000000E+00 0. -1.
          2    1    1    2  501    0  0.23708581813E+02 -0.11129787183E+02  0.12404226364E+03  0.12677717533E+03  0.00000000000E+00 0.  1.
          2    1    1    2  502    0 -0.23708581813E+02  0.11129787183E+02  0.52781809868E+01  0.26717563678E+02  0.00000000000E+00 0. -1.
</event>
<event>
 4    1  0.6225520E+003  0.2817837E+02  0.7546771E-02  0.1436117E+00
          2   -1    0    0  501    0  0.00000000000E+00  0.00000000000E+00  0.88272239860E+02  0.88272239860E+02  0.00000000000E+00 0. -1.
          2   -1    0    0  502    0 -0.00000000000E+00 -0.00000000000E+00 -0.19194770014E+04  0.19194770014E+04  0.00000000000E+00 0.  1.
          2    1    1    2  501    0 -0.26702688473E+02 -0.89992739335E+01 -0.19171220398E+04  0.19173291152E+04  0.00000000000E+00 0.  1.
          2    1    1    2  502    0  0.26702688473E+02  0.89992739335E+01  0.85917278232E+02  0.90420126088E+02  0.00000000000E+00 0. -1.
</event>
<event>
 4    1  0.6225520E+003  0.2863446E+02  0.7546771E-02  0.1431846E+00
          2   -1    0    0  501    0  0.00000000000E+00  0.00000000000E+00  0.45102874424E+03  0.45102874424E+03  0.00000000000E+00 0.  1.
          2   -1    0    0  502    0 -0.00000000000E+00 -0.00000000000E+00 -0.28530167710E+03  0.28530167710E+03  0.00000000000E+00 0. -1.
          2    1    1    2  501    0  0.22712211385E+02  0.17438112051E+02 -0.28412684534E+03  0.28556609837E+03  0.00000000000E+00 0. -1.
          2    1    1    2  502    0 -0.22712211385E+02 -0.17438112051E+02  0.44985391247E+03  0.45076432297E+03  0.00000000000E+00 0.  1.
</event>
<event>
 4    1  0.6225520E+003  0.3383171E+02  0.7546771E-02  0.1388968E+00
          2   -1    0    0  502    0  0.00000000000E+00  0.00000000000E+00  0.41124975957E+02  0.41124975957E+02  0.00000000000E+00 0. -1.
          2   -1    0    0  501    0 -0.00000000000E+00 -0.00000000000E+00 -0.15323357054E+03  0.15323357054E+03  0.00000000000E+00 0. -1.
          2    1    1    2  501    0 -0.22918511157E+02  0.24886265072E+02  0.31857756515E+02  0.46470431385E+02  0.00000000000E+00 0. -1.
          2    1    1    2  502    0  0.22918511157E+02 -0.24886265072E+02 -0.14396635109E+03  0.14788811511E+03  0.00000000000E+00 0. -1.
</event>
<event>
 4    1  0.6225520E+003  0.3329217E+02  0.7546771E-02  0.1392984E+00
          2   -1    0    0  501    0  0.00000000000E+00  0.00000000000E+00  0.45463514656E+01  0.45463514656E+01  0.00000000000E+00 0. -1.
          2   -1    0    0  502    0 -0.00000000000E+00 -0.00000000000E+00 -0.81050434903E+03  0.81050434903E+03  0.00000000000E+00 0. -1.
          2    1    1    2  501    0  0.19678508608E+02 -0.26853763114E+02 -0.74374632027E+03  0.74449107261E+03  0.00000000000E+00 0. -1.
          2    1    1    2  502    0 -0.19678508608E+02  0.26853763114E+02 -0.62211677302E+02  0.70559627884E+02  0.00000000000E+00 0. -1.
</event>
<event>
 4    1  0.6225520E+003  0.2563159E+02  0.7546771E-02  0.1461860E+00
          2   -1    0    0  502    0  0.00000000000E+00  0.00000000000E+00  0.60426639188E+03  0.60426639188E+03  0.00000000000E+00 0. -1.
          2   -1    0    0  501    0 -0.00000000000E+00 -0.00000000000E+00 -0.45109820417E+01  0.45109820417E+01  0.00000000000E+00 0.  1.
          2    1    1    2  501    0  0.22029873858E+02  0.13102018511E+02  0.56505963896E+03  0.56564067553E+03  0.00000000000E+00 0. -1.
          2    1    1    2  502    0 -0.22029873858E+02 -0.13102018511E+02  0.34695770872E+02  0.43136698387E+02  0.00000000000E+00 0.  1.
</event>
<event>
 4    1  0.6225520E+003  0.2415898E+02  0.7546771E-02  0.1478436E+00
          2   -1    0    0  501    0  0.00000000000E+00  0.00000000000E+00  0.78610210600E+02  0.78610210600E+02  0.00000000000E+00 0. -1.
          2   -1    0    0  502    0 -0.00000000000E+00 -0.00000000000E+00 -0.22024338270E+03  0.22024338270E+03  0.00000000000E+00 0.  1.
          2    1    1    2  501    0  0.23496854310E+02 -0.56173084709E+01 -0.21770310517E+03  0.21903949032E+03  0.00000000000E+00 0.  1.
          2    1    1    2  502    0 -0.23496854310E+02  0.56173084709E+01  0.76069933073E+02  0.79814102981E+02  0.00000000000E+00 0. -1.
</event>
<event>
 4    1  0.6225520E+003  0.2257596E+02  0.7546771E-02  0.1497893E+00
          2   -1    0    0  501    0  0.00000000000E+00  0.00000000000E+00  0.14040231496E+03  0.14040231496E+03  0.00000000000E+00 0. -1.
          2   -1    0    0  502    0 -0.00000000000E+00 -0.00000000000E+00 -0.36596568978E+03  0.36596568978E+03  0.00000000000E+00 0. -1.
          2    1    1    2  501    0 -0.22254415868E+02 -0.37966922909E+01 -0.36470686578E+03  0.36540494229E+03  0.00000000000E+00 0. -1.
          2    1    1    2  502    0  0.22254415868E+02  0.37966922909E+01  0.13914349096E+03  0.14096306245E+03  0.00000000000E+00 0. -1.
</event>
<event>
 4    1  0.6225520E+003  0.2220606E+02  0.7546771E-02  0.1502716E+00
          2   -1    0    0  502    0  0.00000000000E+00  0.00000000000E+00  0.17339558086E+02  0.17339558086E+02  0.00000000000E+00 0.  1.
          2   -1    0    0  501    0 -0.00000000000E+00 -0.00000000000E+00 -0.36435520849E+02  0.36435520849E+02  0.00000000000E+00 0. -1.
          2    1    1    2  501    0  0.14839312064E+02 -0.16519802407E+02  0.30486890375E+01  0.22414360552E+02  0.00000000000E+00 0.  1.
          2    1    1    2  502    0 -0.14839312064E+02  0.16519802407E+02 -0.22144651801E+02  0.31360718383E+02  0.00000000000E+00 0. -1.
</event>
<event>
 4    1  0.6225520E+003  0.7716155E+02  0.7546771E-02  0.1210595E+00
          2   -1    0    0  501    0  0.00000000000E+00  0.00000000000E+00  0.24055731357E+03  0.24055731357E+03  0.00000000000E+00 0.  1.
          2   -1    0    0  502    0 -0.00000000000E+00 -0.00000000000E+00 -0.43884255200E+02  0.43884255200E+02  0.00000000000E+00 0.  1.
          2    1    1    2  501    0  0.37691511749E+01 -0.77069440985E+02  0.44270971762E+01  0.77288449485E+02  0.00000000000E+00 0.  1.
          2    1    1    2  502    0 -0.37691511749E+01  0.77069440985E+02  0.19224596119E+03  0.20715311928E+03  0.00000000000E+00 0.  1.
</event>
<event>
 4    1  0.6225520E+003  0.7819025E+02  0.7546771E-02  0.1208112E+00
          2   -1    0    0  502    0  0.00000000000E+00  0.00000000000E+00  0.19702674347E+03  0.19702674347E+03  0.00000000000E+00 0.  1.
          2   -1    0    0  501    0 -0.00000000000E+00 -0.00000000000E+00 -0.26842746013E+03  0.26842746013E+03  0.00000000000E+00 0. -1.
          2    1    1    2  501    0 -0.64510159327E+02  0.44183188715E+02  0.18316228515E+03  0.19915355262E+03  0.00000000000E+00 0.  1.
          2    1    1    2  502    0  0.64510159327E+02 -0.44183188715E+02 -0.25456300181E+03  0.26630065098E+03  0.00000000000E+00 0. -1.
</event>
<event>
 4    1  0.6225520E+003  0.9625771E+02  0.7546771E-02  0.1170455E+00
          2   -1    0    0  501    0  0.00000000000E+00  0.00000000000E+00  0.30562769570E+03  0.30562769570E+03  0.00000000000E+00 0. -1.
          2   -1    0    0  502    0 -0.00000000000E+00 -0.00000000000E+00 -0.59181728330E+03  0.59181728330E+03  0.00000000000E+00 0. -1.
          2    1    1    2  501    0 -0.95626629200E+02 -0.11004252789E+02 -0.58017306661E+03  0.58810401547E+03  0.00000000000E+00 0. -1.
          2    1    1    2  502    0  0.95626629200E+02  0.11004252789E+02  0.29398347900E+03  0.30934096353E+03  0.00000000000E+00 0. -1.
</event>
<event>
 4    1  0.6225520E+003  0.2295473E+02  0.7546771E-02  0.1493067E+00
          2   -1    0    0  502    0  0.00000000000E+00  0.00000000000E+00  0.10697712622E+01  0.10697712622E+01  0.00000000000E+00 0.  1.
          2   -1    0    0  501    0 -0.00000000000E+00 -0.00000000000E+00 -0.68894576166E+03  0.68894576166E+03  0.00000000000E+00 0.  1.
          2    1    1    2  501    0  0.47199948283E+00  0.22949881094E+02 -0.15973432194E+03  0.16137525656E+03  0.00000000000E+00 0.  1.
          2    1    1    2  502    0 -0.47199948283E+00 -0.22949881094E+02 -0.52814166846E+03  0.52864027636E+03  0.00000000000E+00 0.  1.
</event>
<event>
 4    1  0.6225520E+003  0.2733249E+02  0.7546771E-02  0.1444296E+00
          2   -1    0    0  501    0  0.00000000000E+00  0.00000000000E+00  0.13200356198E+01  0.13200356198E+01  0.00000000000E+00 0. -1.
          2   -1    0    0  502    0 -0.00000000000E+00 -0.00000000000E+00 -0.11732914930E+04  0.11732914930E+04  0.00000000000E+00 0.  1.
          2    1    1    2  501    0 -0.10562612094E+02 -0.25209048907E+02 -0.10085378448E+04  0.10089081472E+04  0.00000000000E+00 0.  1.
          2    1    1    2  502    0  0.10562612094E+02  0.25209048907E+02 -0.16343361256E+03  0.16570338148E+03  0.00000000000E+00 0. -1.
</event>
<event>
 4    1  0.6225520E+003  0.3914644E+02  0.7546771E-02  0.1353562E+00
          2   -1    0    0  501    0  0.00000000000E+00  0.00000000000E+00  0.97267422084E+01  0.97267422084E+01  0.00000000000E+00 0.  1.
          2   -1    0    0  502    0 -0.00000000000E+00 -0.00000000000E+00 -0.40399581792E+03  0.40399581792E+03  0.00000000000E+00 0. -1.
          2    1    1    2  501    0 -0.24705775228E+02 -0.30365576670E+02 -0.35870126274E+03  0.36083104006E+03  0.00000000000E+00 0. -1.
          2    1    1    2  502    0  0.24705775228E+02  0.30365576670E+02 -0.35567812975E+02  0.52891520076E+02  0.00000000000E+00 0.  1.
</event>
<event>
 4    1  0.6225520E+003  0.4365062E+02  0.7546771E-02  0.1328326E+00
          2   -1    0    0  501    0  0.00000000000E+00  0.00000000000E+00  0.40755339675E+03  0.40755339675E+03  0.00000000000E+00 0. -1.
          2   -1    0    0  502    0 -0.00000000000E+00 -0.00000000000E+00 -0.18845817236E+03  0.18845817236E+03  0.00000000000E+00 0.  1.
          2    1    1    2  501    0 -0.10664182005E+02  0.42327909286E+02 -0.18473858392E+03  0.18982550163E+03  0.00000000000E+00 0.  1.
          2    1    1    2  502    0  0.10664182005E+02 -0.42327909286E+02  0.40383380830E+03  0.40618606747E+03  0.00000000000E+00 0. -1.
</event>
<event>
 4    1  0.6225520E+003  0.4559955E+02  0.7546771E-02  0.1318468E+00
          2   -1    0    0  502    0  0.00000000000E+00  0.00000000000E+00  0.78808965128E+03  0.78808965128E+03  0.00000000000E+00 0. -1.
          2   -1    0    0  501    0 -0.00000000000E+00 -0.00000000000E+00 -0.29425534250E+01  0.29425534250E+01  0.00000000000E+00 0. -1.
          2    1    1    2  501    0  0.43488992717E+00  0.45597478991E+02  0.51972668368E+03  0.52172324555E+03  0.00000000000E+00 0. -1.
          2    1    1    2  502    0 -0.43488992717E+00 -0.45597478991E+02  0.26542041417E+03  0.26930895915E+03  0.00000000000E+00 0. -1.
</event>
<event>
 4    1  0.6225520E+003  0.2337405E+02  0.7546771E-02  0.1487854E+00
          2   -1    0    0  502    0  0.00000000000E+00  0.00000000000E+00  0.12984452834E+03  0.12984452834E+03  0.00000000000E+00 0.  1.
          2   -1    0    0  501    0 -0.00000000000E+00 -0.00000000000E+00 -0.52058366226E+01  0.52058366226E+01  0.00000000000E+00 0. -1.
          2    1    1    2  501    0  0.22718239852E+02  0.54979677625E+01  0.91886991999E+02  0.94813318527E+02  0.00000000000E+00 0.  1.
          2    1    1    2  502    0 -0.22718239852E+02 -0.54979677625E+01  0.32751699722E+02  0.40237046439E+02  0.00000000000E+00 0. -1.
</event>
<event>
 4    1  0.6225520E+003  0.8574414E+02  0.7546771E-02  0.1191105E+00
          2   -1    0    0  502    0  0.00000000000E+00  0.00000000000E+00  0.20002984541E+02  0.20002984541E+02  0.00000000000E+00 0. -1.
          2   -1    0    0  501    0 -0.00000000000E+00 -0.00000000000E+00 -0.78191225158E+03  0.78191225158E+03  0.00000000000E+00 0.  1.
          2    1    1    2  501    0  0.84787541509E+02 -0.12772217101E+02 -0.89070420088E+02  0.12363493220E+03  0.00000000000E+00 0. -1.
          2    1    1    2  502    0 -0.84787541509E+02  0.12772217101E+02 -0.67283884695E+03  0.67828030392E+03  0.00000000000E+00 0.  1.
</event>
<event>
 4    1  0.6225520E+003  0.2520710E+02  0.7546771E-02  0.1466500E+00
          2   -1    0    0  502    0  0.00000000000E+00  0.00000000000E+00  0.82296301629E+03  0.82296301629E+03  0.00000000000E+00 0.  1.
          2   -1    0    0  501    0 -0.00000000000E+00 -0.00000000000E+00 -0.44609909452E+02  0.44609909452E+02  0.00000000000E+00 0. -1.
          2    1    1    2  501    0 -0.49555285169E+01  0.24715194920E+02  0.81919275266E+03  0.81958048057E+03  0.00000000000E+00 0.  1.
          2    1    1    2  502    0  0.49555285169E+01 -0.24715194920E+02 -0.40839645821E+02  0.47992445172E+02  0.00000000000E+00 0. -1.
</event>
<event>
 4    1  0.6225520E+003  0.2669698E+02  0.7546771E-02  0.1450676E+00
          2   -1    0    0  502    0  0.00000000000E+00  0.00000000000E+00  0.12730797847E+03  0.12730797847E+03  0.00000000000E+00 0. -1.
          2   -1    0    0  501    0 -0.00000000000E+00 -0.00000000000E+00 -0.27179557341E+02  0.27179557341E+02  0.00000000000E+00 0.  1.
          2    1    1    2  501    0 -0.25280919209E+02  0.85792604237E+01  0.11889440962E+03  0.12185486952E+03  0.00000000000E+00 0. -1.
          2    1    1    2  502    0  0.25280919209E+02 -0.85792604237E+01 -0.18765988493E+02  0.32632666296E+02  0.00000000000E+00 0.  1.
</event>
<event>
 4    1  0.6225520E+003  0.2476451E+02  0.7546771E-02  0.1471455E+00
          2   -1    0    0  501    0  0.00000000000E+00  0.00000000000E+00  0.91878446072E+02  0.91878446072E+02  0.00000000000E+00 0.  1.
          2   -1    0    0  502    0 -0.00000000000E+00 -0.00000000000E+00 -0.72059935415E+02  0.72059935415E+02  0.00000000000E+00 0.  1.
          2    1    1    2  501    0  0.43914333713E+01 -0.24372042829E+02 -0.68171289072E+02  0.72530033864E+02  0.00000000000E+00 0.  1.
          2    1    1    2  502    0 -0.43914333713E+01  0.24372042829E+02  0.87989799729E+02  0.91408347622E+02  0.00000000000E+00 0.  1.
</event>
<event>
 4    1  0.6225520E+003  0.3043713E+02  0.7546771E-02  0.1415835E+00
          2   -1    0    0  502    0  0.00000000000E+00  0.00000000000E+00  0.53283274689E+01  0.53283274689E+01  0.00000000000E+00 0. -1.
          2   -1    0    0  501    0 -0.00000000000E+00 -0.00000000000E+00 -0.61321242071E+03  0.61321242071E+03  0.00000000000E+00 0. -1.
          2    1    1    2  501    0  0.11076820454E+02 -0.28350011732E+02 -0.42162319220E+02  0.52000771904E+02  0.00000000000E+00 0. -1.
          2    1    1    2  502    0 -0.11076820454E+02  0.28350011732E+02 -0.56572177402E+03  0.56653997627E+03  0.00000000000E+00 0. -1.
</event>
<event>
 4    1  0.6225520E+003  0.2236563E+02  0.7546771E-02  0.1500621E+00
          2   -1    0    0  502    0  0.00000000000E+00  0.00000000000E+00  0.10871276965E+04  0.10871276965E+04  0.00000000000E+00 0.  1.
          2   -1    0    0  501    0 -0.00000000000E+00 -0.00000000000E+00 -0.15501074083E+03  0.15501074083E+03  0.00000000000E+00 0. -1.
          2    1    1    2  501    0 -0.15264237842E+02 -0.16346997454E+02  0.10862052260E+04  0.10864354626E+04  0.00000000000E+00 0.  1.
          2    1    1    2  502    0  0.15264237842E+02  0.16346997454E+02 -0.15408827036E+03  0.15570297475E+03  0.00000000000E+00 0. -1.
</event>
<event>
 4    1  0.6225520E+003  0.3426225E+02  0.7546771E-02  0.1385825E+00
          2   -1    0    0  501    0  0.00000000000E+00  0.00000000000E+00  0.94667528906E+02  0.94667528906E+02  0.00000000000E+00 0.  1.
          2   -1    0    0  502    0 -0.00000000000E+00 -0.00000000000E+00 -0.27607710612E+03  0.27607710612E+03  0.00000000000E+00 0.  1.
          2    1    1    2  501    0  0.20466038953E+02 -0.27478046251E+02 -0.27186619432E+03  0.27401665897E+03  0.00000000000E+00 0.  1.
          2    1    1    2  502    0 -0.20466038953E+02  0.27478046251E+02  0.90456617102E+02  0.96727976065E+02  0.00000000000E+00 0.  1.
</event>
<event>
 4    1  0.6225520E+003  0.3286641E+02  0.7546771E-02  0.1396217E+00
          2   -1    0    0  502    0  0.00000000000E+00  0.00000000000E+00  0.61987975360E+02  0.61987975360E+02  0.00000000000E+00 0. -1.
          2   -1    0    0  501    0 -0.00000000000E+00 -0.00000000000E+00 -0.10901956226E+03  0.10901956226E+03  0.00000000000E+00 0. -1.
          2    1    1    2  501    0  0.20481859444E+02  0.25703971845E+02  0.54857046045E+02  0.63949169155E+02  0.00000000000E+00 0. -1.
          2    1    1    2  502    0 -0.20481859444E+02 -0.25703971845E+02 -0.10188863295E+03  0.10705836847E+03  0.00000000000E+00 0. -1.
</event>
<event>
 4    1  0.6225520E+003  0.5510772E+02  0.7546771E-02  0.1277426E+00
          2   -1    0    0  501    0  0.00000000000E+00  0.00000000000E+00  0.28357668380E+03  0.28357668380E+03  0.00000000000E+00 0.  1.
          2   -1    0    0  502    0 -0.00000000000E+00 -0.00000000000E+00 -0.86421810759E+02  0.86421810759E+02  0.00000000000E+00 0. -1.
          2    1    1    2  501    0  0.28718224197E+02 -0.47033227154E+02 -0.74580570769E+02  0.92731453099E+02  0.00000000000E+00 0. -1.
          2    1    1    2  502    0 -0.28718224197E+02  0.47033227154E+02  0.27173544381E+03  0.27726704146E+03  0.00000000000E+00 0.  1.
</event>
<event>
 4    1  0.6225520E+003  0.2064470E+02  0.7546771E-02  0.1524399E+00
          2   -1    0    0  502    0  0.00000000000E+00  0.00000000000E+00  0.31472784977E+02  0.31472784977E+02  0.00000000000E+00 0.  1.
          2   -1    0    0  501    0 -0.00000000000E+00 -0.00000000000E+00 -0.40910380758E+02  0.40910380758E+02  0.00000000000E+00 0. -1.
          2    1    1    2  501    0 -0.16556835679E+02  0.12331860187E+02  0.24882829532E+02  0.32332008736E+02  0.00000000000E+00 0.  1.
          2    1    1    2  502    0  0.16556835679E+02 -0.12331860187E+02 -0.34320425313E+02  0.40051157000E+02  0.00000000000E+00 0. -1.
</event>
<event>
 4    1  0.6225520E+003  0.2286794E+02  0.7546771E-02  0.1494163E+00
          2   -1    0    0  501    0  0.00000000000E+00  0.00000000000E+00  0.69109230893E+03  0.69109230893E+03  0.00000000000E+00 0.  1.
          2   -1    0    0  502    0 -0.00000000000E+00 -0.00000000000E+00 -0.11776399466E+03  0.11776399466E+03  0.00000000000E+00 0. -1.
          2    1    1    2  501    0  0.15257883813E+02  0.17033481855E+02 -0.11646257886E+03  0.11868645583E+03  0.00000000000E+00 0. -1.
          2    1    1    2  502    0 -0.15257883813E+02 -0.17033481855E+02  0.68979089313E+03  0.69016984777E+03  0.00000000000E+00 0.  1.
</event>
<event>
 4    1  0.6225520E+003  0.3974933E+02  0.7546771E-02  0.1349961E+00
          2   -1    0    0  501    0  0.00000000000E+00  0.00000000000E+00  0.91898497470E+01  0.91898497470E+01  0.00000000000E+00 0.  1.
          2   -1    0    0  502    0 -0.00000000000E+00 -0.00000000000E+00 -0.21142678039E+03  0.21142678039E+03  0.00000000000E+00 0.  1.
          2    1    1    2  501    0 -0.72912522429E+01  0.39074884984E+02 -0.14879560798E+03  0.15401344730E+03  0.00000000000E+00 0.  1.
          2    1    1    2  502    0  0.72912522429E+01 -0.39074884984E+02 -0.53441322666E+02  0.66603182838E+02  0.00000000000E+00 0.  1.
</event>
<event>
 4    1  0.6225520E+003  0.3642889E+02  0.7546771E-02  0.1370787E+00
          2   -1    0    0  501    0  0.00000000000E+00  0.00000000000E+00  0.47366768820E+01  0.47366768820E+01  0.00000000000E+00 0.  1.
          2   -1    0    0  502    0 -0.00000000000E+00 -0.00000000000E+00 -0.68144715860E+03  0.68144715860E+03  0.00000000000E+00 0.  1.
          2    1    1    2  501    0 -0.25190684667E+02 -0.26315268005E+02 -0.60163523094E+03  0.60273710275E+03  0.00000000000E+00 0.  1.
          2    1    1    2  502    0  0.25190684667E+02  0.26315268005E+02 -0.75075250780E+02  0.83446732733E+02  0.00000000000E+00 0.  1.
</event>
<event>
 4    1  0.6225520E+003  0.2284673E+02  0.7546771E-02  0.1494432E+00
          2   -1    0    0  501    0  0.00000000000E+00  0.00000000000E+00  0.38692678716E+02  0.38692678716E+02  0.00000000000E+00 0.  1.
          2   -1    0    0  502    0 -0.00000000000E+00 -0.00000000000E+00 -0.72775585535E+03  0.72775585535E+03  0.00000000000E+00 0.  1.
          2    1    1    2  501    0  0.17034549178E+02  0.15224886517E+02 -0.72418737502E+03  0.72454767074E+03  0.00000000000E+00 0.  1.
          2    1    1    2  502    0 -0.17034549178E+02 -0.15224886517E+02  0.35124198386E+02  0.41900863326E+02  0.00000000000E+00 0.  1.
</event>
<event>
 4    1  0.6225520E+003  0.3840504E+02  0.7546771E-02  0.1358094E+00
          2   -1    0    0  502    0  0.00000000000E+00  0.00000000000E+00  0.19522198982E+01  0.19522198982E+01  0.00000000000E+00 0. -1.
          2   -1    0    0  501    0 -0.00000000000E+00 -0.00000000000E+00 -0.21417315012E+04  0.21417315012E+04  0.00000000000E+00 0.  1.
          2    1    1    2  501    0  0.27836766530E+02 -0.26458672592E+02 -0.20758149282E+03  0.21110429434E+03  0.00000000000E+00 0. -1.
          2    1    1    2  502    0 -0.27836766530E+02  0.26458672592E+02 -0.19321977884E+04  0.19325794267E+04  0.00000000000E+00 0.  1.
</event>
<event>
 4    1  0.6225520E+003  0.2787576E+02  0.7546771E-02  0.1439004E+00
          2   -1    0    0  501    0  0.00000000000E+00  0.00000000000E+00  0.11410702411E+02  0.11410702411E+02  0.00000000000E+00 0.  1.
          2   -1    0    0  502    0 -0.00000000000E+00 -0.00000000000E+00 -0.42986385136E+03  0.42986385136E+03  0.00000000000E+00 0.  1.
          2    1    1    2  501    0  0.21259015948E+02  0.18030864533E+02 -0.41163406895E+03  0.41257685897E+03  0.00000000000E+00 0.  1.
          2    1    1    2  502    0 -0.21259015948E+02 -0.18030864533E+02 -0.68190799974E+01  0.28697694801E+02  0.00000000000E+00 0.  1.
</event>
<event>
 4    1  0.6225520E+003  0.2827114E+02  0.7546771E-02  0.1435241E+00
          2   -1    0    0  502    0  0.00000000000E+00  0.00000000000E+00  0.29983175719E+03  0.29983175719E+03  0.00000000000E+00 0.  1.
          2   -1    0    0  501    0 -0.00000000000E+00 -0.00000000000E+00 -0.16689071349E+03  0.16689071349E+03  0.00000000000E+00 0. -1.
          2    1    1    2  501    0  0.20519731168E+02  0.19447308131E+02  0.29796055748E+03  0.29929876540E+03  0.00000000000E+00 0.  1.
          2    1    1    2  502    0 -0.20519731168E+02 -0.19447308131E+02 -0.16501951377E+03  0.16742370527E+03  0.00000000000E+00 0. -1.
</event>
<event>
 4    1  0.6225520E+003  0.3490068E+02  0.7546771E-02  0.1381263E+00
          2   -1    0    0  501    0  0.00000000000E+00  0.00000000000E+00  0.18685600957E+04  0.18685600957E+04  0.00000000000E+00 0.  1.
          2   -1    0    0  502    0 -0.00000000000E+00 -0.00000000000E+00 -0.54117130688E+02  0.54117130688E+02  0.00000000000E+00 0. -1.
          2    1    1    2  501    0 -0.53119167928E+01 -0.34494071613E+02 -0.48309672380E+02  0.59597666749E+02  0.00000000000E+00 0. -1.
          2    1    1    2  502    0  0.53119167928E+01  0.34494071613E+02  0.18627526374E+04  0.18630795596E+04  0.00000000000E+00 0.  1.
</event>
<event>
 4    1  0.6225520E+003  0.2481856E+02  0.7546771E-02  0.1470843E+00
          2   -1    0    0  501    0  0.00000000000E+00  0.00000000000E+00  0.10907114286E+02  0.10907114286E+02  0.00000000000E+00 0. -1.
          2   -1    0    0  502    0 -0.00000000000E+00 -0.00000000000E+00 -0.21316443337E+03  0.21316443337E+03  0.00000000000E+00 0. -1.
          2    1    1    2  501    0 -0.12550157280E+02 -0.21411555219E+02 -0.19718399771E+03  0.19873975470E+03  0.00000000000E+00 0. -1.
          2    1    1    2  502    0  0.12550157280E+02  0.21411555219E+02 -0.50733213732E+01  0.25331792956E+02  0.00000000000E+00 0. -1.
</event>
<event>
 4    1  0.6225520E+003  0.2426710E+02  0.7546771E-02  0.1477172E+00
          2   -1    0    0  501    0  0.00000000000E+00  0.00000000000E+00  0.14816104244E+01  0.14816104244E+01  0.00000000000E+00 0.  1.
          2   -1    0    0  502    0 -0.00000000000E+00 -0.00000000000E+00 -0.10750958665E+04  0.10750958665E+04  0.00000000000E+00 0. -1.
          2    1    1    2  501    0  0.47092035281E+01  0.23805784752E+02 -0.96416084747E+03  0.96446619007E+03  0.00000000000E+00 0. -1.
          2    1    1    2  502    0 -0.47092035281E+01 -0.23805784752E+02 -0.10945340856E+03  0.11211128682E+03  0.00000000000E+00 0.  1.
</event>
<event>
 4    1  0.6225520E+003  0.3000370E+02  0.7546771E-02  0.1419564E+00
          2   -1    0    0  501    0  0.00000000000E+00  0.00000000000E+00  0.60488661785E+03  0.60488661785E+03  0.00000000000E+00 0.  1.
          2   -1    0    0  502    0 -0.00000000000E+00 -0.00000000000E+00 -0.21662194178E+02  0.21662194178E+02  0.00000000000E+00 0.  1.
          2    1    1    2  501    0 -0.10194676476E+02 -0.28218624066E+02 -0.10709338724E+02  0.31857685235E+02  0.00000000000E+00 0.  1.
          2    1    1    2  502    0  0.10194676476E+02  0.28218624066E+02  0.59393376240E+03  0.59469112679E+03  0.00000000000E+00 0.  1.
</event>
<event>
 4    1  0.7655944E+003  0.3189385E+02  0.7546771E-02  0.1403823E+00
          2   -1    0    0  501    0  0.00000000000E+00  0.00000000000E+00  0.43067953480E+03  0.43067953480E+03  0.00000000000E+00 0.  1.
          2   -1    0    0  502    0 -0.00000000000E+00 -0.00000000000E+00 -0.15677300830E+04  0.15677300830E+04  0.00000000000E+00 0.  1.
          2    1    1    2  501    0 -0.28122170405E+02 -0.15045314447E+02 -0.15669771147E+04  0.15673016608E+04  0.00000000000E+00 0.  1.
          2    1    1    2  502    0  0.28122170405E+02  0.15045314447E+02  0.42992656653E+03  0.43110795697E+03  0.00000000000E+00 0.  1.
</event>
<event>
 4    1  0.6225520E+003  0.2708804E+02  0.7546771E-02  0.1446726E+00
          2   -1    0    0  502    0  0.00000000000E+00  0.00000000000E+00  0.10011177746E+02  0.10011177746E+02  0.00000000000E+00 0.  1.
          2   -1    0    0  501    0 -0.00000000000E+00 -0.00000000000E+00 -0.40992274091E+03  0.40992274091E+03  0.00000000000E+00 0.  1.
          2    1    1    2  501    0 -0.20381347324E+02  0.17842721612E+02 -0.96835679662E+01  0.28766882379E+02  0.00000000000E+00 0.  1.
          2    1    1    2  502    0  0.20381347324E+02 -0.17842721612E+02 -0.39022799520E+03  0.39116703628E+03  0.00000000000E+00 0.  1.
</event>
<event>
 4    1  0.6225520E+003  0.2365554E+02  0.7546771E-02  0.1484427E+00
          2   -1    0    0  502    0  0.00000000000E+00  0.00000000000E+00  0.62268258194E+03  0.62268258194E+03  0.00000000000E+00 0.  1.
          2   -1    0    0  501    0 -0.00000000000E+00 -0.00000000000E+00 -0.21068444593E+01  0.21068444593E+01  0.00000000000E+00 0.  1.
          2    1    1    2  501    0 -0.21555474995E+02 -0.97440221318E+01  0.54685409953E+03  0.54736550005E+03  0.00000000000E+00 0.  1.
          2    1    1    2  502    0  0.21555474995E+02  0.97440221318E+01  0.73721637946E+02  0.77423926347E+02  0.00000000000E+00 0.  1.
</event>
<event>
 4    1  0.6225520E+003  0.2098551E+02  0.7546771E-02  0.1519472E+00
          2   -1    0    0  502    0  0.00000000000E+00  0.00000000000E+00  0.24276446453E+03  0.24276446453E+03  0.00000000000E+00 0. -1.
          2   -1    0    0  501    0 -0.00000000000E+00 -0.00000000000E+00 -0.18772983673E+02  0.18772983673E+02  0.00000000000E+00 0. -1.
          2    1    1    2  501    0 -0.12381512947E+02 -0.16943722424E+02  0.23628576025E+03  0.23721583440E+03  0.00000000000E+00 0. -1.
          2    1    1    2  502    0  0.12381512947E+02  0.16943722424E+02 -0.12294279390E+02  0.24321613807E+02  0.00000000000E+00 0. -1.
</event>
<event>
 4    1  0.6325345E+003  0.2487841E+02  0.7546771E-02  0.1470168E+00
          2   -1    0    0  502    0  0.00000000000E+00  0.00000000000E+00  0.16732004122E+04  0.16732004122E+04  0.00000000000E+00 0.  1.
          2   -1    0    0  501    0 -0.00000000000E+00 -0.00000000000E+00 -0.29057788714E+03  0.29057788714E+03  0.00000000000E+00 0. -1.
          2    1    1    2  501    0 -0.12153036269E+02 -0.21708035831E+02  0.16725752318E+04  0.16727602462E+04  0.00000000000E+00 0.  1.
          2    1    1    2  502    0  0.12153036269E+02  0.21708035831E+02 -0.28995270676E+03  0.29101805316E+03  0.00000000000E+00 0. -1.
</event>
<event>
 4    1  0.6225520E+003  0.3405668E+02  0.7546771E-02  0.1387319E+00
          2   -1    0    0  501    0  0.00000000000E+00  0.00000000000E+00  0.15157201181E+04  0.15157201181E+04  0.00000000000E+00 0. -1.
          2   -1    0    0  502    0 -0.00000000000E+00 -0.00000000000E+00 -0.26405018023E+02  0.26405018023E+02  0.00000000000E+00 0.  1.
          2    1    1    2  501    0 -0.10949506072E+02  0.32248495416E+02 -0.15150164029E+02  0.37274449827E+02  0.00000000000E+00 0.  1.
          2    1    1    2  502    0  0.10949506072E+02 -0.32248495416E+02  0.15044652641E+04  0.15048506863E+04  0.00000000000E+00 0. -1.
</event>
<event>
 4    1  0.6225520E+003  0.3394788E+02  0.7546771E-02  0.1388115E+00
          2   -1    0    0  502    0  0.00000000000E+00  0.00000000000E+00  0.40761495750E+03  0.40761495750E+03  0.00000000000E+00 0. -1.
          2   -1    0    0  501    0 -0.00000000000E+00 -0.00000000000E+00 -0.95931363664E+01  0.95931363664E+01  0.00000000000E+00 0. -1.
          2    1    1    2  501    0  0.12696290512E+02  0.31484326336E+02  0.37419815051E+03  0.37573489916E+03  0.00000000000E+00 0. -1.
          2    1    1    2  502    0 -0.12696290512E+02 -0.31484326336E+02  0.23823670623E+02  0.41473194711E+02  0.00000000000E+00 0. -1.
</event>
<event>
 4    1  0.6225520E+003  0.2456375E+02  0.7546771E-02  0.1473743E+00
          2   -1    0    0  502    0  0.00000000000E+00  0.00000000000E+00  0.78972879299E+03  0.78972879299E+03  0.00000000000E+00 0.  1.
          2   -1    0    0  501    0 -0.00000000000E+00 -0.00000000000E+00 -0.30277367582E+03  0.30277367582E+03  0.00000000000E+00 0. -1.
          2    1    1    2  501    0  0.14579620216E+01  0.24520438740E+02  0.78903914139E+03  0.78942139837E+03  0.00000000000E+00 0.  1.
          2    1    1    2  502    0 -0.14579620216E+01 -0.24520438740E+02 -0.30208402422E+03  0.30308107043E+03  0.00000000000E+00 0. -1.
</event>
<event>
 4    1  0.6225520E+003  0.2026744E+02  0.7546771E-02  0.1529986E+00
          2   -1    0    0  501    0  0.00000000000E+00  0.00000000000E+00  0.30953260965E+01  0.30953260965E+01  0.00000000000E+00 0.  1.
          2   -1    0    0  502    0 -0.00000000000E+00 -0.00000000000E+00 -0.15665759530E+03  0.15665759530E+03  0.00000000000E+00 0. -1.
          2    1    1    2  501    0 -0.21628573748E+01  0.20151704726E+02 -0.10801371985E+03  0.10989873899E+03  0.00000000000E+00 0. -1.
          2    1    1    2  502    0  0.21628573748E+01 -0.20151704726E+02 -0.45548549352E+02  0.49854182407E+02  0.00000000000E+00 0.  1.
</event>
<event>
 4    1  0.6225520E+003  0.2134902E+02  0.7546771E-02  0.1514340E+00
          2   -1    0    0  502    0  0.00000000000E+00  0.00000000000E+00  0.16255802831E+04  0.16255802831E+04  0.00000000000E+00 0.  1.
          2   -1    0    0  501    0 -0.00000000000E+00 -0.00000000000E+00 -0.17655762339E+01  0.17655762339E+01  0.00000000000E+00 0.  1.
          2    1    1    2  501    0 -0.17186572486E+02  0.12665001828E+02  0.15581817106E+04  0.15583279577E+04  0.00000000000E+00 0.  1.
          2    1    1    2  502    0  0.17186572486E+02 -0.12665001828E+02  0.65632996260E+02  0.69017901614E+02  0.00000000000E+00 0.  1.
</event>
<event>
 4    1  0.6225520E+003  0.2045746E+02  0.7546771E-02  0.1527154E+00
          2   -1    0    0  501    0  0.00000000000E+00  0.00000000000E+00  0.78580339202E+02  0.78580339202E+02  0.00000000000E+00 0. -1.
          2   -1    0    0  502    0 -0.00000000000E+00 -0.00000000000E+00 -0.60003912208E+01  0.60003912208E+01  0.00000000000E+00 0. -1.
          2    1    1    2  501    0 -0.92200682066E+01 -0.18261927679E+02  0.22110712814E+02  0.30122936136E+02  0.00000000000E+00 0. -1.
          2    1    1    2  502    0  0.92200682066E+01  0.18261927679E+02  0.50469235167E+02  0.54457794287E+02  0.00000000000E+00 0. -1.
</event>
<event>
 4    1  0.6225520E+003  0.5088805E+02  0.7546771E-02  0.1294367E+00
          2   -1    0    0  501    0  0.00000000000E+00  0.00000000000E+00  0.44042588050E+03  0.44042588050E+03  0.00000000000E+00 0. -1.
          2   -1    0    0  502    0 -0.00000000000E+00 -0.00000000000E+00 -0.14704082691E+02  0.14704082691E+02  0.00000000000E+00 0.  1.
          2    1    1    2  501    0  0.23666908540E+02  0.45049645891E+02  0.36570990574E+02  0.62666023540E+02  0.00000000000E+00 0.  1.
          2    1    1    2  502    0 -0.23666908540E+02 -0.45049645891E+02  0.38915080724E+03  0.39246393965E+03  0.00000000000E+00 0. -1.
</event>
<event>
 4    1  0.6225520E+003  0.2020515E+02  0.7546771E-02  0.1530923E+00
          2   -1    0    0  501    0  0.00000000000E+00  0.00000000000E+00  0.13846529297E+04  0.13846529297E+04  0.00000000000E+00 0. -1.
          2   -1    0    0  502    0 -0.00000000000E+00 -0.00000000000E+00 -0.40370601665E+00  0.40370601665E+00  0.00000000000E+00 0.  1.
          2    1    1    2  501    0  0.13823248830E+02  0.14736542311E+02  0.33249480804E+03  0.33310815850E+03  0.00000000000E+00 0.  1.
          2    1    1    2  502    0 -0.13823248830E+02 -0.14736542311E+02  0.10517544156E+04  0.10519484772E+04  0.00000000000E+00 0. -1.
</event>
<event>
 4    1  0.6225520E+003  0.3115404E+02  0.7546771E-02  0.1409826E+00
          2   -1    0    0  501    0  0.00000000000E+00  0.00000000000E+00  0.94449524802E+00  0.94449524802E+00  0.00000000000E+00 0. -1.
          2   -1    0    0  502    0 -0.00000000000E+00 -0.00000000000E+00 -0.11285749814E+04  0.11285749814E+04  0.00000000000E+00 0. -1.
          2    1    1    2  501    0 -0.30545129548E+02 -0.61293638430E+01 -0.73273521197E+03  0.73339720814E+03  0.00000000000E+00 0. -1.
          2    1    1    2  502    0  0.30545129548E+02  0.61293638430E+01 -0.39489527416E+03  0.39612226849E+03  0.00000000000E+00 0. -1.
</event>
<event>
 4    1  0.6225520E+003  0.2037934E+02  0.7546771E-02  0.1528314E+00
          2   -1    0    0  501    0  0.00000000000E+00  0.00000000000E+00  0.34634335320E+02  0.34634335320E+02  0.00000000000E+00 0. -1.
          2   -1    0    0  502    0 -0.00000000000E+00 -0.00000000000E+00 -0.28820187311E+02  0.28820187311E+02  0.00000000000E+00 0. -1.
          2    1    1    2  501    0 -0.10774643940E+02 -0.17298108381E+02 -0.21337209487E+02  0.29505830174E+02  0.00000000000E+00 0. -1.
          2    1    1    2  502    0  0.10774643940E+02  0.17298108381E+02  0.27151357496E+02  0.33948692456E+02  0.00000000000E+00 0. -1.
</event>
<event>
 4    1  0.6225520E+003  0.2718999E+02  0.7546771E-02  0.1445709E+00
          2   -1    0    0  501    0  0.00000000000E+00  0.00000000000E+00  0.34061468855E+03  0.34061468855E+03  0.00000000000E+00 0. -1.
          2   -1    0    0  502    0 -0.00000000000E+00 -0.00000000000E+00 -0.45579805751E+03  0.45579805751E+03  0.00000000000E+00 0. -1.
          2    1    1    2  501    0 -0.85758713750E+01  0.25802131267E+02 -0.45484881232E+03  0.45566077033E+03  0.00000000000E+00 0. -1.
          2    1    1    2  502    0  0.85758713750E+01 -0.25802131267E+02  0.33966544336E+03  0.34075197572E+03  0.00000000000E+00 0. -1.
</event>
<event>
 4    1  0.6225520E+003  0.2881325E+02  0.7546771E-02  0.1430197E+00
          2   -1    0    0  501    0  0.00000000000E+00  0.00000000000E+00  0.15437272956E+04  0.15437272956E+04  0.00000000000E+00 0. -1.
          2   -1    0    0  502    0 -0.00000000000E+00 -0.00000000000E+00 -0.10838672602E+01  0.10838672602E+01  0.00000000000E+00 0.  1.
          2    1    1    2  501    0 -0.16015742123E+02  0.23952021686E+02  0.22306516996E+03  0.22491837050E+03  0.00000000000E+00 0.  1.
          2    1    1    2  502    0  0.16015742123E+02 -0.23952021686E+02  0.13195782584E+04  0.13198927924E+04  0.00000000000E+00 0. -1.
</event>
<event>
 4    1  0.6225520E+003  0.3359646E+02  0.7546771E-02  0.1390708E+00
          2   -1    0    0  502    0  0.00000000000E+00  0.00000000000E+00  0.62268989056E+00  0.62268989056E+00  0.00000000000E+00 0.  1.
          2   -1    0    0  501    0 -0.00000000000E+00 -0.00000000000E+00 -0.19205035940E+04  0.19205035940E+04  0.00000000000E+00 0.  1.
          2    1    1    2  501    0  0.33516887450E+02  0.23109180802E+01 -0.73231273790E+03  0.73308298860E+03  0.00000000000E+00 0.  1.
          2    1    1    2  502    0 -0.33516887450E+02 -0.23109180802E+01 -0.11875681662E+04  0.11880432953E+04  0.00000000000E+00 0.  1.
</event>
<event>
 4    1  0.6225520E+003  0.2894902E+02  0.7546771E-02  0.1428955E+00
          2   -1    0    0  502    0  0.00000000000E+00  0.00000000000E+00  0.22627944294E+01  0.22627944294E+01  0.00000000000E+00 0.  1.
          2   -1    0    0  501    0 -0.00000000000E+00 -0.00000000000E+00 -0.37519212124E+03  0.37519212124E+03  0.00000000000E+00 0.  1.
          2    1    1    2  501    0 -0.28929269297E+02  0.10690635612E+01 -0.16504378721E+03  0.16756341252E+03  0.00000000000E+00 0.  1.
          2    1    1    2  502    0  0.28929269297E+02 -0.10690635612E+01 -0.20788553960E+03  0.20989150315E+03  0.00000000000E+00 0.  1.
</event>
<event>
 4    1  0.6225520E+003  0.2735008E+02  0.7546771E-02  0.1444123E+00
          2   -1    0    0  502    0  0.00000000000E+00  0.00000000000E+00  0.53853698570E+03  0.53853698570E+03  0.00000000000E+00 0. -1.
          2   -1    0    0  501    0 -0.00000000000E+00 -0.00000000000E+00 -0.15569280637E+03  0.15569280637E+03  0.00000000000E+00 0.  1.
          2    1    1    2  501    0  0.23769601792E+02 -0.13528971620E+02  0.53698514064E+03  0.53768119580E+03  0.00000000000E+00 0. -1.
          2    1    1    2  502    0 -0.23769601792E+02  0.13528971620E+02 -0.15414096131E+03  0.15654859628E+03  0.00000000000E+00 0.  1.
</event>
<event>
 4    1  0.6225520E+003  0.2206306E+02  0.7546771E-02  0.1504611E+00
          2   -1    0    0  501    0  0.00000000000E+00  0.00000000000E+00  0.87802783929E+03  0.87802783929E+03  0.00000000000E+00 0.  1.
          2   -1    0    0  502    0 -0.00000000000E+00 -0.00000000000E+00 -0.15101470098E+02  0.15101470098E+02  0.00000000000E+00 0. -1.
          2    1    1    2  501    0 -0.12546250842E+02  0.18148555942E+02 -0.68277627400E+01  0.23095385621E+02  0.00000000000E+00 0. -1.
          2    1    1    2  502    0  0.12546250842E+02 -0.18148555942E+02  0.86975413193E+03  0.87003392377E+03  0.00000000000E+00 0.  1.
</event>
<event>
 4    1  0.6225520E+003  0.2859923E+02  0.7546771E-02  0.1432173E+00
          2   -1    0    0  502    0  0.00000000000E+00  0.00000000000E+00  0.66610761071E+02  0.66610761071E+02  0.00000000000E+00 0.  1.
          2   -1    0    0  501    0 -0.00000000000E+00 -0.00000000000E+00 -0.26780856097E+03  0.26780856097E+03  0.00000000000E+00 0. -1.
          2    1    1    2  501    0 -0.28596754421E+02 -0.37621905603E+00  0.62732499308E+02  0.68944052489E+02  0.00000000000E+00 0.  1.
          2    1    1    2  502    0  0.28596754421E+02  0.37621905603E+00 -0.26393029920E+03  0.26547526955E+03  0.00000000000E+00 0. -1.
</event>
<event>
 4    1  0.6225520E+003  0.2409653E+02  0.7546771E-02  0.1479170E+00
          2   -1    0    0  502    0  0.00000000000E+00  0.00000000000E+00  0.22475972598E+04  0.22475972598E+04  0.00000000000E+00 0.  1.
          2   -1    0    0  501    0 -0.00000000000E+00 -0.00000000000E+00 -0.26841251062E+00  0.26841251062E+00  0.00000000000E+00 0.  1.
          2    1    1    2  501    0  0.17419186015E+01 -0.24033487848E+02  0.90593264048E+03  0.90625305070E+03  0.00000000000E+00 0.  1.
          2    1    1    2  502    0 -0.17419186015E+01  0.24033487848E+02  0.13413962068E+04  0.13416126216E+04  0.00000000000E+00 0.  1.
</event>
<event>
 4    1  0.6225520E+003  0.2053991E+02  0.7546771E-02  0.1525936E+00
          2   -1    0    0  501    0  0.00000000000E+00  0.00000000000E+00  0.10314931262E+02  0.10314931262E+02  0.00000000000E+00 0. -1.
          2   -1    0    0  502    0 -0.00000000000E+00 -0.00000000000E+00 -0.10979795954E+03  0.10979795954E+03  0.00000000000E+00 0. -1.
          2    1    1    2  501    0 -0.16521199450E+02  0.12204016407E+02 -0.97314829752E+02  0.99458856506E+02  0.00000000000E+00 0. -1.
          2    1    1    2  502    0  0.16521199450E+02 -0.12204016407E+02 -0.21681985218E+01  0.20654034292E+02  0.00000000000E+00 0. -1.
</event>
<event>
 4    1  0.6225520E+003  0.2870377E+02  0.7546771E-02  0.1431205E+00
          2   -1    0    0  502    0  0.00000000000E+00  0.00000000000E+00  0.19187461327E+03  0.19187461327E+03  0.00000000000E+00 0. -1.
          2   -1    0    0  501    0 -0.00000000000E+00 -0.00000000000E+00 -0.85450643913E+01  0.85450643913E+01  0.00000000000E+00 0. -1.
          2    1    1    2  501    0 -0.14697701793E+02 -0.24655304700E+02  0.16234572168E+03  0.16486370078E+03  0.00000000000E+00 0. -1.
          2    1    1    2  502    0  0.14697701793E+02  0.24655304700E+02  0.20983827196E+02  0.35555976877E+02  0.00000000000E+00 0. -1.
</event>
<event>
 4    1  0.6225520E+003  0.6137566E+02  0.7546771E-02  0.1255229E+00
          2   -1    0    0  502    0  0.00000000000E+00  0.00000000000E+00  0.27554514943E+03  0.27554514943E+03  0.00000000000E+00 0. -1.
          2   -1    0    0  501    0 -0.00000000000E+00 -0.00000000000E+00 -0.18232524446E+02  0.18232524446E+02  0.00000000000E+00 0.  1.
          2    1    1    2  501    0  0.46873351590E+02 -0.39621467252E+02  0.20212823882E+03  0.21124108664E+03  0.00000000000E+00 0. -1.
          2    1    1    2  502    0 -0.46873351590E+02  0.39621467252E+02  0.55184386168E+02  0.82536587240E+02  0.00000000000E+00 0.  1.
</event>
<event>
 4    1  0.6225520E+003  0.3018794E+02  0.7546771E-02  0.1417970E+00
          2   -1    0    0  501    0  0.00000000000E+00  0.00000000000E+00  0.42503575551E+03  0.42503575551E+03  0.00000000000E+00 0. -1.
          2   -1    0    0  502    0 -0.00000000000E+00 -0.00000000000E+00 -0.14020069947E+03  0.14020069947E+03  0.00000000000E+00 0.  1.
          2    1    1    2  501    0  0.41938140153E+01  0.29895210000E+02 -0.13803134028E+03  0.14129388719E+03  0.00000000000E+00 0.  1.
          2    1    1    2  502    0 -0.41938140153E+01 -0.29895210000E+02  0.42286639632E+03  0.42394256780E+03  0.00000000000E+00 0. -1.
</event>
<event>
 4    1  0.6225520E+003  0.2382256E+02  0.7546771E-02  0.1482420E+00
          2   -1    0    0  502    0  0.00000000000E+00  0.00000000000E+00  0.18219170311E+04  0.18219170311E+04  0.00000000000E+00 0.  1.
          2   -1    0    0  501    0 -0.00000000000E+00 -0.00000000000E+00 -0.10280495816E+01  0.10280495816E+01  0.00000000000E+00 0.  1.
          2    1    1    2  501    0 -0.19270084936E+02  0.14006361952E+02  0.16714044626E+04  0.16715742257E+04  0.00000000000E+00 0.  1.
          2    1    1    2  502    0  0.19270084936E+02 -0.14006361952E+02  0.14948451892E+03  0.15137085501E+03  0.00000000000E+00 0.  1.
</event>
<event>
 4    1  0.6225520E+003  0.2877766E+02  0.7546771E-02  0.1430524E+00
          2   -1    0    0  501    0  0.00000000000E+00  0.00000000000E+00  0.11379375063E+04  0.11379375063E+04  0.00000000000E+00 0. -1.
          2   -1    0    0  502    0 -0.00000000000E+00 -0.00000000000E+00 -0.77988176804E+01  0.77988176804E+01  0.00000000000E+00 0.  1.
          2    1    1    2  501    0 -0.11958605817E+02  0.26175282838E+02  0.19585027255E+02  0.34809868964E+02  0.00000000000E+00 0.  1.
          2    1    1    2  502    0  0.11958605817E+02 -0.26175282838E+02  0.11105536613E+04  0.11109264550E+04  0.00000000000E+00 0. -1.
</event>
<event>
 4    1  0.6225520E+003  0.2502194E+02  0.7546771E-02  0.1468558E+00
          2   -1    0    0  502    0  0.00000000000E+00  0.00000000000E+00  0.17603743575E+04  0.17603743575E+04  0.00000000000E+00 0. -1.
          2   -1    0    0  501    0 -0.00000000000E+00 -0.00000000000E+00 -0.44276911271E+00  0.44276911271E+00  0.00000000000E+00 0. -1.
          2    1    1    2  501    0  0.20174290434E+02 -0.14801869810E+02  0.12704681985E+04  0.12707145788E+04  0.00000000000E+00 0. -1.
          2    1    1    2  502    0 -0.20174290434E+02  0.14801869810E+02  0.48946338989E+03  0.49010254783E+03  0.00000000000E+00 0. -1.
</event>
<event>
 4    1  0.6225520E+003  0.2201192E+02  0.7546771E-02  0.1505293E+00
          2   -1    0    0  501    0  0.00000000000E+00  0.00000000000E+00  0.11876998700E+04  0.11876998700E+04  0.00000000000E+00 0.  1.
          2   -1    0    0  502    0 -0.00000000000E+00 -0.00000000000E+00 -0.31481984009E+01  0.31481984009E+01  0.00000000000E+00 0.  1.
          2    1    1    2  501    0  0.20029084335E+02 -0.91301995415E+01  0.36768105490E+02  0.42853451953E+02  0.00000000000E+00 0.  1.
          2    1    1    2  502    0 -0.20029084335E+02  0.91301995415E+01  0.11477835661E+04  0.11479946164E+04  0.00000000000E+00 0.  1.
</event>
<event>
 4    1  0.6225520E+003  0.2386951E+02  0.7546771E-02  0.1481859E+00
          2   -1    0    0  501    0  0.00000000000E+00  0.00000000000E+00  0.94502281679E+03  0.94502281679E+03  0.00000000000E+00 0.  1.
          2   -1    0    0  502    0 -0.00000000000E+00 -0.00000000000E+00 -0.42322673676E+02  0.42322673676E+02  0.00000000000E+00 0.  1.
          2    1    1    2  501    0 -0.18606821802E+02 -0.14951249347E+02 -0.38793801781E+02  0.45549014602E+02  0.00000000000E+00 0.  1.
          2    1    1    2  502    0  0.18606821802E+02  0.14951249347E+02  0.94149394490E+03  0.94179647587E+03  0.00000000000E+00 0.  1.
</event>
<event>
 4    1  0.6225520E+003  0.2012811E+02  0.7546771E-02  0.1532086E+00
          2   -1    0    0  502    0  0.00000000000E+00  0.00000000000E+00  0.97414158313E+00  0.97414158313E+00  0.00000000000E+00 0.  1.
          2   -1    0    0  501    0 -0.00000000000E+00 -0.00000000000E+00 -0.65797929947E+03  0.65797929947E+03  0.00000000000E+00 0. -1.
          2    1    1    2  501    0  0.84811133028E+01  0.18254084997E+02 -0.12865372328E+03  0.13021874449E+03  0.00000000000E+00 0.  1.
          2    1    1    2  502    0 -0.84811133028E+01 -0.18254084997E+02 -0.52835143460E+03  0.52873469656E+03  0.00000000000E+00 0. -1.
</event>
<event>
 4    1  0.6225520E+003  0.2787173E+02  0.7546771E-02  0.1439043E+00
          2   -1    0    0  501    0  0.00000000000E+00  0.00000000000E+00  0.46035942904E+01  0.46035942904E+01  0.00000000000E+00 0. -1.
          2   -1    0    0  502    0 -0.00000000000E+00 -0.00000000000E+00 -0.24482015988E+03  0.24482015988E+03  0.00000000000E+00 0. -1.
          2    1    1    2  501    0 -0.14595230714E+02 -0.23744739590E+02 -0.18962763662E+03  0.19166500460E+03  0.00000000000E+00 0. -1.
          2    1    1    2  502    0  0.14595230714E+02  0.23744739590E+02 -0.50588928973E+02  0.57758749575E+02  0.00000000000E+00 0. -1.
</event>
<event>
 4    1  0.6225520E+003  0.3931089E+02  0.7546771E-02  0.1352572E+00
          2   -1    0    0  501    0  0.00000000000E+00  0.00000000000E+00  0.14803005205E+04  0.14803005205E+04  0.00000000000E+00 0. -1.
          2   -1    0    0  502    0 -0.00000000000E+00 -0.00000000000E+00 -0.42145607455E+01  0.42145607455E+01  0.00000000000E+00 0. -1.
          2    1    1    2  501    0  0.25396465197E+01 -0.39228764378E+02  0.94243577391E+02  0.10211365060E+03  0.00000000000E+00 0. -1.
          2    1    1    2  502    0 -0.25396465197E+01  0.39228764378E+02  0.13818423824E+04  0.13824014307E+04  0.00000000000E+00 0. -1.
</event>
<event>
 4    1  0.6225520E+003  0.3145919E+02  0.7546771E-02  0.1407326E+00
          2   -1    0    0  502    0  0.00000000000E+00  0.00000000000E+00  0.91451225655E+02  0.91451225655E+02  0.00000000000E+00 0. -1.
          2   -1    0    0  501    0 -0.00000000000E+00 -0.00000000000E+00 -0.32380332479E+03  0.32380332479E+03  0.00000000000E+00 0.  1.
          2    1    1    2  501    0 -0.20442849520E+02 -0.23911723116E+02  0.87952147427E+02  0.93409104673E+02  0.00000000000E+00 0. -1.
          2    1    1    2  502    0  0.20442849520E+02  0.23911723116E+02 -0.32030424656E+03  0.32184544577E+03  0.00000000000E+00 0.  1.
</event>
<event>
 4    1  0.6225520E+003  0.2007512E+02  0.7546771E-02  0.1532890E+00
          2   -1    0    0  502    0  0.00000000000E+00  0.00000000000E+00  0.21350052053E+01  0.21350052053E+01  0.00000000000E+00 0. -1.
          2   -1    0    0  501    0 -0.00000000000E+00 -0.00000000000E+00 -0.33337157919E+03  0.33337157919E+03  0.00000000000E+00 0. -1.
          2    1    1    2  501    0  0.15961534845E+02 -0.12175384264E+02 -0.55133271433E+02  0.58674425395E+02  0.00000000000E+00 0. -1.
          2    1    1    2  502    0 -0.15961534845E+02  0.12175384264E+02 -0.27610330255E+03  0.27683215900E+03  0.00000000000E+00 0. -1.
</event>
<event>
 4    1  0.6225520E+003  0.3833776E+02  0.7546771E-02  0.1358512E+00
          2   -1    0    0  502    0  0.00000000000E+00  0.00000000000E+00  0.33320271214E+02  0.33320271214E+02  0.00000000000E+00 0. -1.
          2   -1    0    0  501    0 -0.00000000000E+00 -0.00000000000E+00 -0.20794359925E+03  0.20794359925E+03  0.00000000000E+00 0. -1.
          2    1    1    2  501    0 -0.22853807713E+02 -0.30781285093E+02  0.19763792263E+02  0.43132256185E+02  0.00000000000E+00 0. -1.
          2    1    1    2  502    0  0.22853807713E+02  0.30781285093E+02 -0.19438712030E+03  0.19813161428E+03  0.00000000000E+00 0. -1.
</event>
<event>
 4    1  0.6225520E+003  0.2885989E+02  0.7546771E-02  0.1429769E+00
          2   -1    0    0  502    0  0.00000000000E+00  0.00000000000E+00  0.28293438939E+03  0.28293438939E+03  0.00000000000E+00 0. -1.
          2   -1    0    0  501    0 -0.00000000000E+00 -0.00000000000E+00 -0.81755507674E+01  0.81755507674E+01  0.00000000000E+00 0. -1.
          2    1    1    2  501    0  0.10528686576E+01 -0.28840681742E+02  0.25381704572E+03  0.25545251252E+03  0.00000000000E+00 0. -1.
          2    1    1    2  502    0 -0.10528686576E+01  0.28840681742E+02  0.20941792907E+02  0.35657427640E+02  0.00000000000E+00 0. -1.
</event>
<event>
 4    1  0.6225520E+003  0.2588024E+02  0.7546771E-02  0.1459193E+00
          2   -1    0    0  502    0  0.00000000000E+00  0.00000000000E+00  0.44664156227E+03  0.44664156227E+03  0.00000000000E+00 0. -1.
          2   -1    0    0  501    0 -0.00000000000E+00 -0.00000000000E+00 -0.10672742512E+02  0.10672742512E+02  0.00000000000E+00 0.  1.
          2    1    1    2  501    0  0.25842609241E+02  0.13950607095E+01  0.42996968162E+03  0.43074785404E+03  0.00000000000E+00 0. -1.
          2    1    1    2  502    0 -0.25842609241E+02 -0.13950607095E+01  0.59991381414E+01  0.26566450746E+02  0.00000000000E+00 0.  1.
</event>
<event>
 4    1  0.6225520E+003  0.3892744E+02  0.7546771E-02  0.1354888E+00
          2   -1    0    0  502    0  0.00000000000E+00  0.00000000000E+00  0.28791235792E+02  0.28791235792E+02  0.00000000000E+00 0.  1.
          2   -1    0    0  501    0 -0.00000000000E+00 -0.00000000000E+00 -0.40453338757E+03  0.40453338757E+03  0.00000000000E+00 0.  1.
          2    1    1    2  501    0 -0.16190537367E+02 -0.35400741146E+02  0.14205770384E+02  0.41438507286E+02  0.00000000000E+00 0.  1.
          2    1    1    2  502    0  0.16190537367E+02  0.35400741146E+02 -0.38994792216E+03  0.39188611607E+03  0.00000000000E+00 0.  1.
</event>
<event>
 4    1  0.6225520E+003  0.2086428E+02  0.7546771E-02  0.1521211E+00
          2   -1    0    0  502    0  0.00000000000E+00  0.00000000000E+00  0.34894367211E+03  0.34894367211E+03  0.00000000000E+00 0. -1.
          2   -1    0    0  501    0 -0.00000000000E+00 -0.00000000000E+00 -0.16360659435E+01  0.16360659435E+01  0.00000000000E+00 0. -1.
          2    1    1    2  501    0 -0.12329886321E+02 -0.16831286063E+02  0.25907606626E+03  0.25991484451E+03  0.00000000000E+00 0. -1.
          2    1    1    2  502    0  0.12329886321E+02  0.16831286063E+02  0.88231539911E+02  0.90664893550E+02  0.00000000000E+00 0. -1.
</event>
<event>
 4    1  0.6225520E+003  0.2784903E+02  0.7546771E-02  0.1439261E+00
          2   -1    0    0  502    0  0.00000000000E+00  0.00000000000E+00  0.38138522609E+02  0.38138522609E+02  0.00000000000E+00 0. -1.
          2   -1    0    0  501    0 -0.00000000000E+00 -0.00000000000E+00 -0.45011030722E+03  0.45011030722E+03  0.00000000000E+00 0. -1.
          2    1    1    2  501    0 -0.27401013337E+02  0.49752326687E+01  0.32560130303E+02  0.42845426330E+02  0.00000000000E+00 0. -1.
          2    1    1    2  502    0  0.27401013337E+02 -0.49752326687E+01 -0.44453191491E+03  0.44540340350E+03  0.00000000000E+00 0. -1.
</event>
<event>
 4    1  0.6225520E+003  0.2345423E+02  0.7546771E-02  0.1486872E+00
          2   -1    0    0  502    0  0.00000000000E+00  0.00000000000E+00  0.27115493876E+03  0.27115493876E+03  0.00000000000E+00 0.  1.
          2   -1    0    0  501    0 -0.00000000000E+00 -0.00000000000E+00 -0.88952267854E+02  0.88952267854E+02  0.00000000000E+00 0.  1.
          2    1    1    2  501    0 -0.21224713565E+02 -0.99806118385E+01  0.26908985600E+03  0.27011007327E+03  0.00000000000E+00 0.  1.
          2    1    1    2  502    0  0.21224713565E+02  0.99806118385E+01 -0.86887185089E+02  0.89997133351E+02  0.00000000000E+00 0.  1.
</event>
<event>
 4    1  0.6225520E+003  0.2939341E+02  0.7546771E-02  0.1424942E+00
          2   -1    0    0  502    0  0.00000000000E+00  0.00000000000E+00  0.54943238381E+02  0.54943238381E+02  0.00000000000E+00 0.  1.
          2   -1    0    0  501    0 -0.00000000000E+00 -0.00000000000E+00 -0.42172196577E+02  0.42172196577E+02  0.00000000000E+00 0. -1.
          2    1    1    2  501    0  0.20902441201E+02 -0.20665448856E+02  0.44839068177E+02  0.53614502325E+02  0.00000000000E+00 0.  1.
          2    1    1    2  502    0 -0.20902441201E+02  0.20665448856E+02 -0.32068026373E+02  0.43500932634E+02  0.00000000000E+00 0. -1.
</event>
<event>
 4    1  0.6225520E+003  0.3241166E+02  0.7546771E-02  0.1399734E+00
          2   -1    0    0  502    0  0.00000000000E+00  0.00000000000E+00  0.81535494299E+01  0.81535494299E+01  0.00000000000E+00 0. -1.
          2   -1    0    0  501    0 -0.00000000000E+00 -0.00000000000E+00 -0.85752225868E+03  0.85752225868E+03  0.00000000000E+00 0.  1.
          2    1    1    2  501    0  0.10928855250E+00  0.32411474469E+02 -0.25685882772E+02  0.41355534032E+02  0.00000000000E+00 0. -1.
          2    1    1    2  502    0 -0.10928855250E+00 -0.32411474469E+02 -0.82368282647E+03  0.82432027407E+03  0.00000000000E+00 0.  1.
</event>
<event>
 4    1  0.6225520E+003  0.2025723E+02  0.7546771E-02  0.1530139E+00
          2   -1    0    0  501    0  0.00000000000E+00  0.00000000000E+00  0.18944672033E+02  0.18944672033E+02  0.00000000000E+00 0.  1.
          2   -1    0    0  502    0 -0.00000000000E+00 -0.00000000000E+00 -0.13481310847E+03  0.13481310847E+03  0.00000000000E+00 0.  1.
          2    1    1    2  501    0 -0.10359553210E+02  0.17407897005E+02 -0.12836668657E+03  0.12995522860E+03  0.00000000000E+00 0.  1.
          2    1    1    2  502    0  0.10359553210E+02 -0.17407897005E+02  0.12498250128E+02  0.23802551904E+02  0.00000000000E+00 0.  1.
</event>
<event>
 4    1  0.6225520E+003  0.8249884E+02  0.7546771E-02  0.1198162E+00
          2   -1    0    0  502    0  0.00000000000E+00  0.00000000000E+00  0.25182169803E+01  0.25182169803E+01  0.00000000000E+00 0.  1.
          2   -1    0    0  501    0 -0.00000000000E+00 -0.00000000000E+00 -0.27082042118E+04  0.27082042118E+04  0.00000000000E+00 0.  1.
          2    1    1    2  501    0 -0.82461047735E+02 -0.24969656168E+01 -0.14137821460E+04  0.14161871400E+04  0.00000000000E+00 0.  1.
          2    1    1    2  502    0  0.82461047735E+02  0.24969656168E+01 -0.12919038488E+04  0.12945352888E+04  0.00000000000E+00 0.  1.
</event>
<event>
 4    1  0.6225520E+003  0.2136579E+02  0.7546771E-02  0.1514106E+00
          2   -1    0    0  501    0  0.00000000000E+00  0.00000000000E+00  0.18710718052E+04  0.18710718052E+04  0.00000000000E+00 0. -1.
          2   -1    0    0  502    0 -0.00000000000E+00 -0.00000000000E+00 -0.43429780131E+00  0.43429780131E+00  0.00000000000E+00 0. -1.
          2    1    1    2  501    0  0.15751154370E+02  0.14436007343E+02  0.31586146605E+03  0.31658326379E+03  0.00000000000E+00 0. -1.
          2    1    1    2  502    0 -0.15751154370E+02 -0.14436007343E+02  0.15547760414E+04  0.15549228392E+04  0.00000000000E+00 0. -1.
</event>
<event>
 4    1  0.6225520E+003  0.2656065E+02  0.7546771E-02  0.1452072E+00
          2   -1    0    0  501    0  0.00000000000E+00  0.00000000000E+00  0.50358947917E+03  0.50358947917E+03  0.00000000000E+00 0. -1.
          2   -1    0    0  502    0 -0.00000000000E+00 -0.00000000000E+00 -0.16938920097E+03  0.16938920097E+03  0.00000000000E+00 0. -1.
          2    1    1    2  501    0  0.26513923115E+02  0.15747221340E+01 -0.16799489879E+03  0.17008160950E+03  0.00000000000E+00 0. -1.
          2    1    1    2  502    0 -0.26513923115E+02 -0.15747221340E+01  0.50219517699E+03  0.50289707064E+03  0.00000000000E+00 0. -1.
</event>
<event>
 4    1  0.1717727E+004  0.2669089E+02  0.7546771E-02  0.1450738E+00
          2   -1    0    0  502    0  0.00000000000E+00  0.00000000000E+00  0.94386085335E+03  0.94386085335E+03  0.00000000000E+00 0. -1.
          2   -1    0    0  501    0 -0.00000000000E+00 -0.00000000000E+00 -0.13638901099E+04  0.13638901099E+04  0.00000000000E+00 0. -1.
          2    1    1    2  501    0 -0.25114532306E+02  0.90367981429E+01  0.94354153219E+03  0.94391897238E+03  0.00000000000E+00 0. -1.
          2    1    1    2  502    0  0.25114532306E+02 -0.90367981429E+01 -0.13635707887E+04  0.13638319908E+04  0.00000000000E+00 0. -1.
</event>
<event>
 4    1  0.6225520E+003  0.2832447E+02  0.7546771E-02  0.1434739E+00
          2   -1    0    0  502    0  0.00000000000E+00  0.00000000000E+00  0.20238978102E+04  0.20238978102E+04  0.00000000000E+00 0.  1.
          2   -1    0    0  501    0 -0.00000000000E+00 -0.00000000000E+00 -0.11453515189E+01  0.11453515189E+01  0.00000000000E+00 0. -1.
          2    1    1    2  501    0  0.21731448197E+02  0.18166446016E+02  0.18301452157E+04  0.18303643861E+04  0.00000000000E+00 0.  1.
          2    1    1    2  502    0 -0.21731448197E+02 -0.18166446016E+02  0.19260724304E+03  0.19467877561E+03  0.00000000000E+00 0. -1.
</event>
<event>
 4    1  0.6225520E+003  0.2038062E+02  0.7546771E-02  0.1528295E+00
          2   -1    0    0  501    0  0.00000000000E+00  0.00000000000E+00  0.53288526518E+01  0.53288526518E+01  0.00000000000E+00 0.  1.
          2   -1    0    0  502    0 -0.00000000000E+00 -0.00000000000E+00 -0.91521785847E+03  0.91521785847E+03  0.00000000000E+00 0.  1.
          2    1    1    2  501    0 -0.69659292200E+01 -0.19153211611E+02 -0.89518146383E+03  0.89541343684E+03  0.00000000000E+00 0.  1.
          2    1    1    2  502    0  0.69659292200E+01  0.19153211611E+02 -0.14707541988E+02  0.25133274284E+02  0.00000000000E+00 0.  1.
</event>
<event>
 4    1  0.6225520E+003  0.2083490E+02  0.7546771E-02  0.1521635E+00
          2   -1    0    0  501    0  0.00000000000E+00  0.00000000000E+00  0.29139935223E+00  0.29139935223E+00  0.00000000000E+00 0. -1.
          2   -1    0    0  502    0 -0.00000000000E+00 -0.00000000000E+00 -0.17358833713E+04  0.17358833713E+04  0.00000000000E+00 0.  1.
          2    1    1    2  501    0 -0.20527989572E+02  0.35629759170E+01 -0.54087256385E+03  0.54127370478E+03  0.00000000000E+00 0. -1.
          2    1    1    2  502    0  0.20527989572E+02 -0.35629759170E+01 -0.11947194081E+04  0.11949010659E+04  0.00000000000E+00 0.  1.
</event>
<event>
 4    1  0.6225520E+003  0.3430625E+02  0.7546771E-02  0.1385507E+00
          2   -1    0    0  501    0  0.00000000000E+00  0.00000000000E+00  0.27556633891E+02  0.27556633891E+02  0.00000000000E+00 0. -1.
          2   -1    0    0  502    0 -0.00000000000E+00 -0.00000000000E+00 -0.45266962845E+02  0.45266962845E+02  0.00000000000E+00 0.  1.
          2    1    1    2  501    0  0.23555858595E+02  0.24940738991E+02 -0.17510628910E+02  0.38516763369E+02  0.00000000000E+00 0. -1.
          2    1    1    2  502    0 -0.23555858595E+02 -0.24940738991E+02 -0.19970004305E+00  0.34306833367E+02  0.00000000000E+00 0.  1.
</event>
<event>
 4    1  0.6225520E+003  0.2857205E+02  0.7546771E-02  0.1432425E+00
          2   -1    0    0  501    0  0.00000000000E+00  0.00000000000E+00  0.56400271325E+03  0.56400271325E+03  0.00000000000E+00 0. -1.
          2   -1    0    0  502    0 -0.00000000000E+00 -0.00000000000E+00 -0.43538795139E+01  0.43538795139E+01  0.00000000000E+00 0. -1.
          2    1    1    2  501    0  0.31199712723E+01  0.28401193896E+02  0.47639988715E+02  0.55551152645E+02  0.00000000000E+00 0. -1.
          2    1    1    2  502    0 -0.31199712723E+01 -0.28401193896E+02  0.51200884502E+03  0.51280544012E+03  0.00000000000E+00 0. -1.
</event>
<event>
 4    1  0.6225520E+003  0.2083300E+02  0.7546771E-02  0.1521663E+00
          2   -1    0    0  502    0  0.00000000000E+00  0.00000000000E+00  0.60157594927E+03  0.60157594927E+03  0.00000000000E+00 0.  1.
          2   -1    0    0  501    0 -0.00000000000E+00 -0.00000000000E+00 -0.16040957502E+01  0.16040957502E+01  0.00000000000E+00 0.  1.
          2    1    1    2  501    0 -0.20224496442E+02  0.49983798113E+01  0.52369940179E+03  0.52411361124E+03  0.00000000000E+00 0.  1.
          2    1    1    2  502    0  0.20224496442E+02 -0.49983798113E+01  0.76272451732E+02  0.79066433777E+02  0.00000000000E+00 0.  1.
</event>
<event>
 4    1  0.6225520E+003  0.3019120E+02  0.7546771E-02  0.1417942E+00
          2   -1    0    0  501    0  0.00000000000E+00  0.00000000000E+00  0.14058094459E+01  0.14058094459E+01  0.00000000000E+00 0.  1.
          2   -1    0    0  502    0 -0.00000000000E+00 -0.00000000000E+00 -0.12724673999E+04  0.12724673999E+04  0.00000000000E+00 0. -1.
          2    1    1    2  501    0  0.80646890028E+01  0.29094141746E+02 -0.10815907296E+04  0.10820120215E+04  0.00000000000E+00 0. -1.
          2    1    1    2  502    0 -0.80646890028E+01 -0.29094141746E+02 -0.18947086087E+03  0.19186118787E+03  0.00000000000E+00 0.  1.
</event>
<event>
 4    1  0.6225520E+003  0.2589449E+02  0.7546771E-02  0.1459041E+00
          2   -1    0    0  502    0  0.00000000000E+00  0.00000000000E+00  0.11607579392E+03  0.11607579392E+03  0.00000000000E+00 0. -1.
          2   -1    0    0  501    0 -0.00000000000E+00 -0.00000000000E+00 -0.29432888062E+03  0.29432888062E+03  0.00000000000E+00 0. -1.
          2    1    1    2  501    0  0.25830222276E+02 -0.18233023786E+01  0.11405212536E+03  0.11695474387E+03  0.00000000000E+00 0. -1.
          2    1    1    2  502    0 -0.25830222276E+02  0.18233023786E+01 -0.29230521206E+03  0.29344993067E+03  0.00000000000E+00 0. -1.
</event>
<event>
 4    1  0.6225520E+003  0.3891378E+02  0.7546771E-02  0.1354971E+00
          2   -1    0    0  502    0  0.00000000000E+00  0.00000000000E+00  0.21286851137E+04  0.21286851137E+04  0.00000000000E+00 0.  1.
          2   -1    0    0  501    0 -0.00000000000E+00 -0.00000000000E+00 -0.11842989457E+02  0.11842989457E+02  0.00000000000E+00 0.  1.
          2    1    1    2  501    0 -0.32003341654E+02  0.22137485924E+02  0.20960437233E+04  0.20964049160E+04  0.00000000000E+00 0.  1.
          2    1    1    2  502    0  0.32003341654E+02 -0.22137485924E+02  0.20798401019E+02  0.44123187158E+02  0.00000000000E+00 0.  1.
</event>
<event>
 4    1  0.6225520E+003  0.2080426E+02  0.7546771E-02  0.1522078E+00
          2   -1    0    0  502    0  0.00000000000E+00  0.00000000000E+00  0.31540340222E+01  0.31540340222E+01  0.00000000000E+00 0. -1.
          2   -1    0    0  501    0 -0.00000000000E+00 -0.00000000000E+00 -0.88474648077E+03  0.88474648077E+03  0.00000000000E+00 0. -1.
          2    1    1    2  501    0  0.19260162406E+02  0.78653262183E+01 -0.32724710579E+02  0.38777878937E+02  0.00000000000E+00 0. -1.
          2    1    1    2  502    0 -0.19260162406E+02 -0.78653262183E+01 -0.84886773617E+03  0.84912263585E+03  0.00000000000E+00 0. -1.
</event>
<event>
 4    1  0.6225520E+003  0.2538030E+02  0.7546771E-02  0.1464594E+00
          2   -1    0    0  501    0  0.00000000000E+00  0.00000000000E+00  0.89843324327E+02  0.89843324327E+02  0.00000000000E+00 0.  1.
          2   -1    0    0  502    0 -0.00000000000E+00 -0.00000000000E+00 -0.18612194796E+03  0.18612194796E+03  0.00000000000E+00 0. -1.
          2    1    1    2  501    0 -0.11611347257E+02 -0.22568479111E+02 -0.18343815643E+03  0.18518562814E+03  0.00000000000E+00 0. -1.
          2    1    1    2  502    0  0.11611347257E+02  0.22568479111E+02  0.87159532796E+02  0.90779644149E+02  0.00000000000E+00 0.  1.
</event>
<event>
 4    1  0.6225520E+003  0.3544107E+02  0.7546771E-02  0.1377489E+00
          2   -1    0    0  501    0  0.00000000000E+00  0.00000000000E+00  0.13405851875E+02  0.13405851875E+02  0.00000000000E+00 0.  1.
          2   -1    0    0  502    0 -0.00000000000E+00 -0.00000000000E+00 -0.67622912786E+03  0.67622912786E+03  0.00000000000E+00 0. -1.
          2    1    1    2  501    0 -0.25060375392E+02 -0.25060860378E+02 -0.65145057399E+03  0.65241391731E+03  0.00000000000E+00 0. -1.
          2    1    1    2  502    0  0.25060375392E+02  0.25060860378E+02 -0.11372701990E+02  0.37221062428E+02  0.00000000000E+00 0.  1.
</event>
<event>
 4    1  0.6225520E+003  0.4672495E+02  0.7546771E-02  0.1313033E+00
          2   -1    0    0  502    0  0.00000000000E+00  0.00000000000E+00  0.66897117637E+03  0.66897117637E+03  0.00000000000E+00 0. -1.
          2   -1    0    0  501    0 -0.00000000000E+00 -0.00000000000E+00 -0.71000583989E+01  0.71000583989E+01  0.00000000000E+00 0. -1.
          2    1    1    2  501    0  0.28547919503E+02  0.36989692150E+02  0.57942020918E+03  0.58130112664E+03  0.00000000000E+00 0. -1.
          2    1    1    2  502    0 -0.28547919503E+02 -0.36989692150E+02  0.82450908795E+02  0.94770108127E+02  0.00000000000E+00 0. -1.
</event>
<event>
 4    1  0.7124102E+003  0.2475686E+02  0.7546771E-02  0.1471542E+00
          2   -1    0    0  502    0  0.00000000000E+00  0.00000000000E+00  0.46094989094E+03  0.46094989094E+03  0.00000000000E+00 0.  1.
          2   -1    0    0  501    0 -0.00000000000E+00 -0.00000000000E+00 -0.77827457422E+03  0.77827457422E+03  0.00000000000E+00 0. -1.
          2    1    1    2  501    0  0.10330548937E+02  0.22498491495E+02  0.46042037342E+03  0.46108548299E+03  0.00000000000E+00 0.  1.
          2    1    1    2  502    0 -0.10330548937E+02 -0.22498491495E+02 -0.77774505669E+03  0.77813898217E+03  0.00000000000E+00 0. -1.
</event>
<event>
 4    1  0.6225520E+003  0.2287000E+02  0.7546771E-02  0.1494137E+00
          2   -1    0    0  501    0  0.00000000000E+00  0.00000000000E+00  0.73129728992E+00  0.73129728992E+00  0.00000000000E+00 0.  1.
          2   -1    0    0  502    0 -0.00000000000E+00 -0.00000000000E+00 -0.71693072502E+03  0.71693072502E+03  0.00000000000E+00 0.  1.
          2    1    1    2  501    0  0.12228258733E+02 -0.19326322338E+02 -0.34056153453E+03  0.34132857461E+03  0.00000000000E+00 0.  1.
          2    1    1    2  502    0 -0.12228258733E+02  0.19326322338E+02 -0.37563789321E+03  0.37633344770E+03  0.00000000000E+00 0.  1.
</event>
<event>
 4    1  0.6225520E+003  0.3243692E+02  0.7546771E-02  0.1399537E+00
          2   -1    0    0  502    0  0.00000000000E+00  0.00000000000E+00  0.11674805219E+04  0.11674805219E+04  0.00000000000E+00 0.  1.
          2   -1    0    0  501    0 -0.00000000000E+00 -0.00000000000E+00 -0.30448269101E+01  0.30448269101E+01  0.00000000000E+00 0. -1.
          2    1    1    2  501    0 -0.13414488351E+02  0.29533126477E+02  0.10732866391E+04  0.10737766824E+04  0.00000000000E+00 0.  1.
          2    1    1    2  502    0  0.13414488351E+02 -0.29533126477E+02  0.91149055913E+02  0.96748666404E+02  0.00000000000E+00 0. -1.
</event>
<event>
 4    1  0.6225520E+003  0.2829261E+02  0.7546771E-02  0.1435039E+00
          2   -1    0    0  502    0  0.00000000000E+00  0.00000000000E+00  0.76892673636E+01  0.76892673636E+01  0.00000000000E+00 0.  1.
          2   -1    0    0  501    0 -0.00000000000E+00 -0.00000000000E+00 -0.31268562856E+03  0.31268562856E+03  0.00000000000E+00 0.  1.
          2    1    1    2  501    0  0.27953809522E+02 -0.43653491779E+01 -0.21666132601E+02  0.35635558676E+02  0.00000000000E+00 0.  1.
          2    1    1    2  502    0 -0.27953809522E+02  0.43653491779E+01 -0.28333022860E+03  0.28473933725E+03  0.00000000000E+00 0.  1.
</event>
<event>
 4    1  0.6225520E+003  0.3187317E+02  0.7546771E-02  0.1403988E+00
          2   -1    0    0  501    0  0.00000000000E+00  0.00000000000E+00  0.57802790435E+01  0.57802790435E+01  0.00000000000E+00 0. -1.
          2   -1    0    0  502    0 -0.00000000000E+00 -0.00000000000E+00 -0.16133018840E+04  0.16133018840E+04  0.00000000000E+00 0. -1.
          2    1    1    2  501    0 -0.36700576330E+01  0.31661166265E+02 -0.15679351438E+04  0.15682590710E+04  0.00000000000E+00 0. -1.
          2    1    1    2  502    0  0.36700576330E+01 -0.31661166265E+02 -0.39586461135E+02  0.50823091971E+02  0.00000000000E+00 0. -1.
</event>
<event>
 4    1  0.6225520E+003  0.2921308E+02  0.7546771E-02  0.1426560E+00
          2   -1    0    0  502    0  0.00000000000E+00  0.00000000000E+00  0.74066478542E+03  0.74066478542E+03  0.00000000000E+00 0. -1.
          2   -1    0    0  501    0 -0.00000000000E+00 -0.00000000000E+00 -0.41716775689E+02  0.41716775689E+02  0.00000000000E+00 0. -1.
          2    1    1    2  501    0  0.23469246064E+02  0.17395357439E+02  0.73522463156E+03  0.73580477222E+03  0.00000000000E+00 0. -1.
          2    1    1    2  502    0 -0.23469246064E+02 -0.17395357439E+02 -0.36276621833E+02  0.46576788885E+02  0.00000000000E+00 0. -1.
</event>
<event>
 4    1  0.6225520E+003  0.2075173E+02  0.7546771E-02  0.1522839E+00
          2   -1    0    0  501    0  0.00000000000E+00  0.00000000000E+00  0.54729306018E+01  0.54729306018E+01  0.00000000000E+00 0. -1.
          2   -1    0    0  502    0 -0.00000000000E+00 -0.00000000000E+00 -0.16860554049E+03  0.16860554049E+03  0.00000000000E+00 0. -1.
          2    1    1    2  501    0  0.16665008771E+02 -0.12365743104E+02 -0.14513014300E+03  0.14660624996E+03  0.00000000000E+00 0. -1.
          2    1    1    2  502    0 -0.16665008771E+02  0.12365743104E+02 -0.18002466885E+02  0.27472221130E+02  0.00000000000E+00 0. -1.
</event>
<event>
 4    1  0.6225520E+003  0.2370513E+02  0.7546771E-02  0.1483829E+00
          2   -1    0    0  501    0  0.00000000000E+00  0.00000000000E+00  0.17212806952E+01  0.17212806952E+01  0.00000000000E+00 0. -1.
          2   -1    0    0  502    0 -0.00000000000E+00 -0.00000000000E+00 -0.53385515092E+03  0.53385515092E+03  0.00000000000E+00 0. -1.
          2    1    1    2  501    0 -0.23639974022E+02  0.17563727711E+01 -0.43297474432E+03  0.43362318023E+03  0.00000000000E+00 0. -1.
          2    1    1    2  502    0  0.23639974022E+02 -0.17563727711E+01 -0.99159125909E+02  0.10195325139E+03  0.00000000000E+00 0. -1.
</event>
<event>
 4    1  0.6225520E+003  0.2259080E+02  0.7546771E-02  0.1497701E+00
          2   -1    0    0  502    0  0.00000000000E+00  0.00000000000E+00  0.11283681699E+04  0.11283681699E+04  0.00000000000E+00 0. -1.
          2   -1    0    0  501    0 -0.00000000000E+00 -0.00000000000E+00 -0.24970515923E+01  0.24970515923E+01  0.00000000000E+00 0. -1.
          2    1    1    2  501    0 -0.18144361882E+02  0.13458321716E+02  0.10746043610E+04  0.10748417916E+04  0.00000000000E+00 0. -1.
          2    1    1    2  502    0  0.18144361882E+02 -0.13458321716E+02  0.51266757262E+02  0.56023429845E+02  0.00000000000E+00 0. -1.
</event>
<event>
 4    1  0.6225520E+003  0.8827827E+02  0.7546771E-02  0.1185833E+00
          2   -1    0    0  501    0  0.00000000000E+00  0.00000000000E+00  0.83166267959E+03  0.83166267959E+03  0.00000000000E+00 0. -1.
          2   -1    0    0  502    0 -0.00000000000E+00 -0.00000000000E+00 -0.11570870028E+02  0.11570870028E+02  0.00000000000E+00 0.  1.
          2    1    1    2  501    0  0.85284437505E+02  0.22795139738E+02  0.22618573603E+03  0.24280247292E+03  0.00000000000E+00 0.  1.
          2    1    1    2  502    0 -0.85284437505E+02 -0.22795139738E+02  0.59390607353E+03  0.60043107669E+03  0.00000000000E+00 0. -1.
</event>
<event>
 4    1  0.6225520E+003  0.2364371E+02  0.7546771E-02  0.1484569E+00
          2   -1    0    0  502    0  0.00000000000E+00  0.00000000000E+00  0.12262830768E+02  0.12262830768E+02  0.00000000000E+00 0.  1.
          2   -1    0    0  501    0 -0.00000000000E+00 -0.00000000000E+00 -0.47948767836E+03  0.47948767836E+03  0.00000000000E+00 0.  1.
          2    1    1    2  501    0  0.22274101295E+01 -0.23538560032E+02  0.28276145997E+00  0.23645403746E+02  0.00000000000E+00 0.  1.
          2    1    1    2  502    0 -0.22274101295E+01  0.23538560032E+02 -0.46750760905E+03  0.46810510538E+03  0.00000000000E+00 0.  1.
</event>
<event>
 4    1  0.6225520E+003  0.3642583E+02  0.7546771E-02  0.1370807E+00
          2   -1    0    0  501    0  0.00000000000E+00  0.00000000000E+00  0.43440456714E+01  0.43440456714E+01  0.00000000000E+00 0.  1.
          2   -1    0    0  502    0 -0.00000000000E+00 -0.00000000000E+00 -0.33217136274E+03  0.33217136274E+03  0.00000000000E+00 0.  1.
          2    1    1    2  501    0  0.25403410185E+02 -0.26105712001E+02 -0.21164587877E+03  0.21475758298E+03  0.00000000000E+00 0.  1.
          2    1    1    2  502    0 -0.25403410185E+02  0.26105712001E+02 -0.11618143830E+03  0.12175782543E+03  0.00000000000E+00 0.  1.
</event>
<event>
 4    1  0.6225520E+003  0.2310131E+02  0.7546771E-02  0.1491230E+00
          2   -1    0    0  501    0  0.00000000000E+00  0.00000000000E+00  0.18453120855E+01  0.18453120855E+01  0.00000000000E+00 0. -1.
          2   -1    0    0  502    0 -0.00000000000E+00 -0.00000000000E+00 -0.87066002222E+03  0.87066002222E+03  0.00000000000E+00 0.  1.
          2    1    1    2  501    0 -0.12336108805E+02  0.19531796101E+02 -0.79091794234E+03  0.79125524463E+03  0.00000000000E+00 0.  1.
          2    1    1    2  502    0  0.12336108805E+02 -0.19531796101E+02 -0.77896767789E+02  0.81250089670E+02  0.00000000000E+00 0. -1.
</event>
<event>
 4    1  0.6225520E+003  0.2000015E+02  0.7546771E-02  0.1534033E+00
          2   -1    0    0  501    0  0.00000000000E+00  0.00000000000E+00  0.80587862519E+00  0.80587862519E+00  0.00000000000E+00 0. -1.
          2   -1    0    0  502    0 -0.00000000000E+00 -0.00000000000E+00 -0.86149253267E+03  0.86149253267E+03  0.00000000000E+00 0. -1.
          2    1    1    2  501    0  0.54770345977E+01  0.19235590847E+02 -0.71103345216E+03  0.71131468138E+03  0.00000000000E+00 0. -1.
          2    1    1    2  502    0 -0.54770345977E+01 -0.19235590847E+02 -0.14965320189E+03  0.15098372991E+03  0.00000000000E+00 0. -1.
</event>
<event>
 4    1  0.6225520E+003  0.2214829E+02  0.7546771E-02  0.1503479E+00
          2   -1    0    0  502    0  0.00000000000E+00  0.00000000000E+00  0.19302462934E+03  0.19302462934E+03  0.00000000000E+00 0.  1.
          2   -1    0    0  501    0 -0.00000000000E+00 -0.00000000000E+00 -0.37549680695E+01  0.37549680695E+01  0.00000000000E+00 0.  1.
          2    1    1    2  501    0 -0.20219794681E+02 -0.90391719561E+01  0.15056995936E+03  0.15219020793E+03  0.00000000000E+00 0.  1.
          2    1    1    2  502    0  0.20219794681E+02  0.90391719561E+01  0.38699701909E+02  0.44589389483E+02  0.00000000000E+00 0.  1.
</event>
<event>
 4    1  0.6225520E+003  0.2730039E+02  0.7546771E-02  0.1444614E+00
          2   -1    0    0  501    0  0.00000000000E+00  0.00000000000E+00  0.12847940458E+02  0.12847940458E+02  0.00000000000E+00 0. -1.
          2   -1    0    0  502    0 -0.00000000000E+00 -0.00000000000E+00 -0.14024886715E+04  0.14024886715E+04  0.00000000000E+00 0.  1.
          2    1    1    2  501    0  0.65324508234E+01 -0.26507322485E+02 -0.13876987252E+04  0.13879672414E+04  0.00000000000E+00 0.  1.
          2    1    1    2  502    0 -0.65324508234E+01  0.26507322485E+02 -0.19420057766E+01  0.27369370572E+02  0.00000000000E+00 0. -1.
</event>
<event>
 4    1  0.6225520E+003  0.3270819E+02  0.7546771E-02  0.1397433E+00
          2   -1    0    0  502    0  0.00000000000E+00  0.00000000000E+00  0.48231155313E+02  0.48231155313E+02  0.00000000000E+00 0.  1.
          2   -1    0    0  501    0 -0.00000000000E+00 -0.00000000000E+00 -0.41655426143E+02  0.41655426143E+02  0.00000000000E+00 0.  1.
          2    1    1    2  501    0 -0.30951527784E+01  0.32561414990E+02  0.34017612197E+02  0.47191351501E+02  0.00000000000E+00 0.  1.
          2    1    1    2  502    0  0.30951527784E+01 -0.32561414990E+02 -0.27441883027E+02  0.42695229955E+02  0.00000000000E+00 0.  1.
</event>
<event>
 4    1  0.6225520E+003  0.2549013E+02  0.7546771E-02  0.1463394E+00
          2   -1    0    0  501    0  0.00000000000E+00  0.00000000000E+00  0.58389312003E+01  0.58389312003E+01  0.00000000000E+00 0.  1.
          2   -1    0    0  502    0 -0.00000000000E+00 -0.00000000000E+00 -0.31650783519E+03  0.31650783519E+03  0.00000000000E+00 0.  1.
          2    1    1    2  501    0 -0.13840196152E+02 -0.21405504975E+02 -0.28511839355E+03  0.28625555892E+03  0.00000000000E+00 0.  1.
          2    1    1    2  502    0  0.13840196152E+02  0.21405504975E+02 -0.25550510436E+02  0.36091207465E+02  0.00000000000E+00 0.  1.
</event>
<event>
 4    1  0.6225520E+003  0.2922331E+02  0.7546771E-02  0.1426468E+00
          2   -1    0    0  502    0  0.00000000000E+00  0.00000000000E+00  0.19810345900E+02  0.19810345900E+02  0.00000000000E+00 0.  1.
          2   -1    0    0  501    0 -0.00000000000E+00 -0.00000000000E+00 -0.10028050467E+03  0.10028050467E+03  0.00000000000E+00 0. -1.
          2    1    1    2  501    0 -0.12386093552E+01  0.29197054210E+02  0.51028705414E+01  0.29665491997E+02  0.00000000000E+00 0.  1.
          2    1    1    2  502    0  0.12386093552E+01 -0.29197054210E+02 -0.85573029313E+02  0.90425358575E+02  0.00000000000E+00 0. -1.
</event>
<event>
 4    1  0.6225520E+003  0.2488483E+02  0.7546771E-02  0.1470096E+00
          2   -1    0    0  501    0  0.00000000000E+00  0.00000000000E+00  0.33261463229E+01  0.33261463229E+01  0.00000000000E+00 0. -1.
          2   -1    0    0  502    0 -0.00000000000E+00 -0.00000000000E+00 -0.17625519639E+04  0.17625519639E+04  0.00000000000E+00 0. -1.
          2    1    1    2  501    0 -0.15435070327E+02  0.19519562616E+02 -0.17146185546E+04  0.17147991260E+04  0.00000000000E+00 0. -1.
          2    1    1    2  502    0  0.15435070327E+02 -0.19519562616E+02 -0.44607263042E+02  0.51078984297E+02  0.00000000000E+00 0. -1.
</event>
<event>
 4    1  0.6225520E+003  0.2819251E+02  0.7546771E-02  0.1435983E+00
          2   -1    0    0  502    0  0.00000000000E+00  0.00000000000E+00  0.86329973177E+03  0.86329973177E+03  0.00000000000E+00 0.  1.
          2   -1    0    0  501    0 -0.00000000000E+00 -0.00000000000E+00 -0.15908183280E+01  0.15908183280E+01  0.00000000000E+00 0.  1.
          2    1    1    2  501    0  0.10696521290E+02 -0.26084522565E+02  0.71153023520E+03  0.71208854330E+03  0.00000000000E+00 0.  1.
          2    1    1    2  502    0 -0.10696521290E+02  0.26084522565E+02  0.15017867824E+03  0.15280200680E+03  0.00000000000E+00 0.  1.
</event>
<event>
 4    1  0.6225520E+003  0.2914760E+02  0.7546771E-02  0.1427151E+00
          2   -1    0    0  501    0  0.00000000000E+00  0.00000000000E+00  0.14117854031E+01  0.14117854031E+01  0.00000000000E+00 0. -1.
          2   -1    0    0  502    0 -0.00000000000E+00 -0.00000000000E+00 -0.16512070394E+04  0.16512070394E+04  0.00000000000E+00 0. -1.
          2    1    1    2  501    0  0.17253377115E+02 -0.23492628152E+02 -0.14836440903E+04  0.14839303789E+04  0.00000000000E+00 0. -1.
          2    1    1    2  502    0 -0.17253377115E+02  0.23492628152E+02 -0.16615116370E+03  0.16868844595E+03  0.00000000000E+00 0. -1.
</event>
<event>
 4    1  0.6225520E+003  0.2024219E+02  0.7546771E-02  0.1530365E+00
          2   -1    0    0  501    0  0.00000000000E+00  0.00000000000E+00  0.40196125191E+02  0.40196125191E+02  0.00000000000E+00 0. -1.
          2   -1    0    0  502    0 -0.00000000000E+00 -0.00000000000E+00 -0.55793774260E+03  0.55793774260E+03  0.00000000000E+00 0. -1.
          2    1    1    2  501    0  0.15019769255E+02  0.13570295181E+02 -0.55519313035E+03  0.55556202027E+03  0.00000000000E+00 0. -1.
          2    1    1    2  502    0 -0.15019769255E+02 -0.13570295181E+02  0.37451512940E+02  0.42571847520E+02  0.00000000000E+00 0. -1.
</event>
<event>
 4    1  0.6225520E+003  0.2221401E+02  0.7546771E-02  0.1502611E+00
          2   -1    0    0  501    0  0.00000000000E+00  0.00000000000E+00  0.55434960047E+02  0.55434960047E+02  0.00000000000E+00 0. -1.
          2   -1    0    0  502    0 -0.00000000000E+00 -0.00000000000E+00 -0.18312663273E+02  0.18312663273E+02  0.00000000000E+00 0. -1.
          2    1    1    2  501    0  0.96561369463E+01 -0.20005531422E+02 -0.78727133634E+01  0.23567814576E+02  0.00000000000E+00 0. -1.
          2    1    1    2  502    0 -0.96561369463E+01  0.20005531422E+02  0.44995010138E+02  0.50179808743E+02  0.00000000000E+00 0. -1.
</event>
<event>
 4    1  0.6225520E+003  0.5347464E+02  0.7546771E-02  0.1283772E+00
          2   -1    0    0  501    0  0.00000000000E+00  0.00000000000E+00  0.70156567412E+02  0.70156567412E+02  0.00000000000E+00 0. -1.
          2   -1    0    0  502    0 -0.00000000000E+00 -0.00000000000E+00 -0.21305614994E+04  0.21305614994E+04  0.00000000000E+00 0. -1.
          2    1    1    2  501    0 -0.47606138532E+02 -0.24355541655E+02 -0.21199852942E+04  0.21206596107E+04  0.00000000000E+00 0. -1.
          2    1    1    2  502    0  0.47606138532E+02  0.24355541655E+02  0.59580362206E+02  0.80058456117E+02  0.00000000000E+00 0. -1.
</event>
<event>
 4    1  0.6225520E+003  0.2097499E+02  0.7546771E-02  0.1519622E+00
          2   -1    0    0  502    0  0.00000000000E+00  0.00000000000E+00  0.50645464574E+00  0.50645464574E+00  0.00000000000E+00 0. -1.
          2   -1    0    0  501    0 -0.00000000000E+00 -0.00000000000E+00 -0.89584562246E+03  0.89584562246E+03  0.00000000000E+00 0. -1.
          2    1    1    2  501    0  0.90108233168E+01  0.18940833883E+02 -0.36963396310E+03  0.37022860074E+03  0.00000000000E+00 0. -1.
          2    1    1    2  502    0 -0.90108233168E+01 -0.18940833883E+02 -0.52570520472E+03  0.52612347637E+03  0.00000000000E+00 0. -1.
</event>
<event>
 4    1  0.6225520E+003  0.5089819E+02  0.7546771E-02  0.1294324E+00
          2   -1    0    0  502    0  0.00000000000E+00  0.00000000000E+00  0.53141545007E+01  0.53141545007E+01  0.00000000000E+00 0. -1.
          2   -1    0    0  501    0 -0.00000000000E+00 -0.00000000000E+00 -0.84104374391E+03  0.84104374391E+03  0.00000000000E+00 0. -1.
          2    1    1    2  501    0 -0.50883188366E+02  0.12358607352E+01 -0.14349321213E+03  0.15225284279E+03  0.00000000000E+00 0. -1.
          2    1    1    2  502    0  0.50883188366E+02 -0.12358607352E+01 -0.69223637728E+03  0.69410505563E+03  0.00000000000E+00 0. -1.
</event>
<event>
 4    1  0.6225520E+003  0.2429070E+02  0.7546771E-02  0.1476897E+00
          2   -1    0    0  501    0  0.00000000000E+00  0.00000000000E+00  0.48147212076E+01  0.48147212076E+01  0.00000000000E+00 0.  1.
          2   -1    0    0  502    0 -0.00000000000E+00 -0.00000000000E+00 -0.53603807778E+03  0.53603807778E+03  0.00000000000E+00 0. -1.
          2    1    1    2  501    0  0.21846589600E+02 -0.10619063190E+02 -0.50312251361E+03  0.50370854835E+03  0.00000000000E+00 0. -1.
          2    1    1    2  502    0 -0.21846589600E+02  0.10619063190E+02 -0.28100842960E+02  0.37144250635E+02  0.00000000000E+00 0.  1.
</event>
<event>
 4    1  0.6225520E+003  0.2730067E+02  0.7546771E-02  0.1444611E+00
          2   -1    0    0  502    0  0.00000000000E+00  0.00000000000E+00  0.55195620179E+03  0.55195620179E+03  0.00000000000E+00 0.  1.
          2   -1    0    0  501    0 -0.00000000000E+00 -0.00000000000E+00 -0.11695056737E+02  0.11695056737E+02  0.00000000000E+00 0.  1.
          2    1    1    2  501    0 -0.49811477927E+01 -0.26842409316E+02  0.53518721208E+03  0.53588308309E+03  0.00000000000E+00 0.  1.
          2    1    1    2  502    0  0.49811477927E+01  0.26842409316E+02  0.50739329763E+01  0.27768175437E+02  0.00000000000E+00 0.  1.
</event>
<event>
 4    1  0.6225520E+003  0.3361644E+02  0.7546771E-02  0.1390560E+00
          2   -1    0    0  501    0  0.00000000000E+00  0.00000000000E+00  0.48934292417E+01  0.48934292417E+01  0.00000000000E+00 0.  1.
          2   -1    0    0  502    0 -0.00000000000E+00 -0.00000000000E+00 -0.28121249822E+03  0.28121249822E+03  0.00000000000E+00 0.  1.
          2    1    1    2  501    0  0.30951056531E+02  0.13118580644E+02 -0.19864701821E+03  0.20147134511E+03  0.00000000000E+00 0.  1.
          2    1    1    2  502    0 -0.30951056531E+02 -0.13118580644E+02 -0.77672050768E+02  0.84634582347E+02  0.00000000000E+00 0.  1.
</event>
<event>
 4    1  0.6225520E+003  0.2909640E+02  0.7546771E-02  0.1427615E+00
          2   -1    0    0  502    0  0.00000000000E+00  0.00000000000E+00  0.95777191454E+02  0.95777191454E+02  0.00000000000E+00 0.  1.
          2   -1    0    0  501    0 -0.00000000000E+00 -0.00000000000E+00 -0.23789701854E+02  0.23789701854E+02  0.00000000000E+00 0.  1.
          2    1    1    2  501    0 -0.17939753208E+02 -0.22907763603E+02  0.83386649835E+02  0.88317233591E+02  0.00000000000E+00 0.  1.
          2    1    1    2  502    0  0.17939753208E+02  0.22907763603E+02 -0.11399160234E+02  0.31249659718E+02  0.00000000000E+00 0.  1.
</event>
<event>
 4    1  0.6225520E+003  0.3040942E+02  0.7546771E-02  0.1416071E+00
          2   -1    0    0  502    0  0.00000000000E+00  0.00000000000E+00  0.11938748603E+01  0.11938748603E+01  0.00000000000E+00 0. -1.
          2   -1    0    0  501    0 -0.00000000000E+00 -0.00000000000E+00 -0.13154091347E+04  0.13154091347E+04  0.00000000000E+00 0. -1.
          2    1    1    2  501    0 -0.18530491851E+02 -0.24111275851E+02 -0.23499261953E+03  0.23695202887E+03  0.00000000000E+00 0. -1.
          2    1    1    2  502    0  0.18530491851E+02  0.24111275851E+02 -0.10792226403E+04  0.10796509807E+04  0.00000000000E+00 0. -1.
</event>
<event>
 4    1  0.6225520E+003  0.4733623E+02  0.7546771E-02  0.1310154E+00
          2   -1    0    0  501    0  0.00000000000E+00  0.00000000000E+00  0.67714578893E+01  0.67714578893E+01  0.00000000000E+00 0. -1.
          2   -1    0    0  502    0 -0.00000000000E+00 -0.00000000000E+00 -0.24298246640E+04  0.24298246640E+04  0.00000000000E+00 0. -1.
          2    1    1    2  501    0 -0.42471994545E+02  0.20900908407E+02 -0.23438327248E+04  0.23443106791E+04  0.00000000000E+00 0. -1.
          2    1    1    2  502    0  0.42471994545E+02 -0.20900908407E+02 -0.79220481345E+02  0.92285442825E+02  0.00000000000E+00 0. -1.
</event>
<event>
 4    1  0.6225520E+003  0.2063065E+02  0.7546771E-02  0.1524604E+00
          2   -1    0    0  501    0  0.00000000000E+00  0.00000000000E+00  0.35247067532E+03  0.35247067532E+03  0.00000000000E+00 0.  1.
          2   -1    0    0  502    0 -0.00000000000E+00 -0.00000000000E+00 -0.38216241245E+03  0.38216241245E+03  0.00000000000E+00 0. -1.
          2    1    1    2  501    0 -0.99608144172E+01  0.18066702307E+02 -0.38158163645E+03  0.38213893917E+03  0.00000000000E+00 0. -1.
          2    1    1    2  502    0  0.99608144172E+01 -0.18066702307E+02  0.35188989931E+03  0.35249414860E+03  0.00000000000E+00 0.  1.
</event>
<event>
 4    1  0.6225520E+003  0.5072786E+02  0.7546771E-02  0.1295047E+00
          2   -1    0    0  502    0  0.00000000000E+00  0.00000000000E+00  0.27251921646E+03  0.27251921646E+03  0.00000000000E+00 0. -1.
          2   -1    0    0  501    0 -0.00000000000E+00 -0.00000000000E+00 -0.27192751854E+02  0.27192751854E+02  0.00000000000E+00 0. -1.
          2    1    1    2  501    0 -0.35405379414E+02  0.36328702251E+02  0.24373625918E+03  0.24895919251E+03  0.00000000000E+00 0. -1.
          2    1    1    2  502    0  0.35405379414E+02 -0.36328702251E+02  0.15902054338E+01  0.50752775806E+02  0.00000000000E+00 0. -1.
</event>
<event>
 4    1  0.6225520E+003  0.2250307E+02  0.7546771E-02  0.1498834E+00
          2   -1    0    0  501    0  0.00000000000E+00  0.00000000000E+00  0.28985851407E+03  0.28985851407E+03  0.00000000000E+00 0. -1.
          2   -1    0    0  502    0 -0.00000000000E+00 -0.00000000000E+00 -0.22712807262E+03  0.22712807262E+03  0.00000000000E+00 0. -1.
          2    1    1    2  501    0  0.14780803635E+02  0.16968086777E+02 -0.22613201729E+03  0.22724893261E+03  0.00000000000E+00 0. -1.
          2    1    1    2  502    0 -0.14780803635E+02 -0.16968086777E+02  0.28886245875E+03  0.28973765409E+03  0.00000000000E+00 0. -1.
</event>
<event>
 4    1  0.6225520E+003  0.2942213E+02  0.7546771E-02  0.1424685E+00
          2   -1    0    0  501    0  0.00000000000E+00  0.00000000000E+00  0.20486569046E+03  0.20486569046E+03  0.00000000000E+00 0.  1.
          2   -1    0    0  502    0 -0.00000000000E+00 -0.00000000000E+00 -0.32827961914E+02  0.32827961914E+02  0.00000000000E+00 0.  1.
          2    1    1    2  501    0 -0.90565165123E+01  0.27993594154E+02 -0.24915798647E+02  0.38554621347E+02  0.00000000000E+00 0.  1.
          2    1    1    2  502    0  0.90565165123E+01 -0.27993594154E+02  0.19695352719E+03  0.19913903103E+03  0.00000000000E+00 0.  1.
</event>
<event>
 4    1  0.6225520E+003  0.3097279E+02  0.7546771E-02  0.1411327E+00
          2   -1    0    0  502    0  0.00000000000E+00  0.00000000000E+00  0.27268112314E+03  0.27268112314E+03  0.00000000000E+00 0. -1.
          2   -1    0    0  501    0 -0.00000000000E+00 -0.00000000000E+00 -0.78482443164E+01  0.78482443164E+01  0.00000000000E+00 0. -1.
          2    1    1    2  501    0  0.28022249660E+02 -0.13193460386E+02  0.23660362163E+03  0.23862226979E+03  0.00000000000E+00 0. -1.
          2    1    1    2  502    0 -0.28022249660E+02  0.13193460386E+02  0.28229257198E+02  0.41907097667E+02  0.00000000000E+00 0. -1.
</event>
<event>
 4    1  0.6225520E+003  0.2210116E+02  0.7546771E-02  0.1504104E+00
          2   -1    0    0  502    0  0.00000000000E+00  0.00000000000E+00  0.21922422085E+03  0.21922422085E+03  0.00000000000E+00 0. -1.
          2   -1    0    0  501    0 -0.00000000000E+00 -0.00000000000E+00 -0.37049137602E+01  0.37049137602E+01  0.00000000000E+00 0. -1.
          2    1    1    2  501    0  0.86737938859E+01  0.20327973627E+02  0.17813255644E+03  0.17949838127E+03  0.00000000000E+00 0. -1.
          2    1    1    2  502    0 -0.86737938859E+01 -0.20327973627E+02  0.37386750649E+02  0.43430753346E+02  0.00000000000E+00 0. -1.
</event>
<event>
 4    1  0.6225520E+003  0.2289898E+02  0.7546771E-02  0.1493771E+00
          2   -1    0    0  502    0  0.00000000000E+00  0.00000000000E+00  0.17054391203E+04  0.17054391203E+04  0.00000000000E+00 0. -1.
          2   -1    0    0  501    0 -0.00000000000E+00 -0.00000000000E+00 -0.55666672244E+00  0.55666672244E+00  0.00000000000E+00 0. -1.
          2    1    1    2  501    0  0.12311571488E+02 -0.19307733344E+02  0.14231645000E+04  0.14233487125E+04  0.00000000000E+00 0. -1.
          2    1    1    2  502    0 -0.12311571488E+02  0.19307733344E+02  0.28171795357E+03  0.28264707450E+03  0.00000000000E+00 0. -1.
</event>
<event>
 4    1  0.6918542E+003  0.2971733E+02  0.7546771E-02  0.1422069E+00
          2   -1    0    0  502    0  0.00000000000E+00  0.00000000000E+00  0.64601475236E+03  0.64601475236E+03  0.00000000000E+00 0.  1.
          2   -1    0    0  501    0 -0.00000000000E+00 -0.00000000000E+00 -0.43509063088E+03  0.43509063088E+03  0.00000000000E+00 0. -1.
          2    1    1    2  501    0  0.37536415234E+01  0.29479317233E+02  0.64516489290E+03  0.64584894441E+03  0.00000000000E+00 0.  1.
          2    1    1    2  502    0 -0.37536415234E+01 -0.29479317233E+02 -0.43424077142E+03  0.43525643882E+03  0.00000000000E+00 0. -1.
</event>
<event>
 4    1  0.6225520E+003  0.2541900E+02  0.7546771E-02  0.1464170E+00
          2   -1    0    0  502    0  0.00000000000E+00  0.00000000000E+00  0.11047603189E+03  0.11047603189E+03  0.00000000000E+00 0.  1.
          2   -1    0    0  501    0 -0.00000000000E+00 -0.00000000000E+00 -0.59379028153E+02  0.59379028153E+02  0.00000000000E+00 0. -1.
          2    1    1    2  501    0 -0.20801406935E+02 -0.14609137037E+02  0.10618515282E+03  0.10918521922E+03  0.00000000000E+00 0.  1.
          2    1    1    2  502    0  0.20801406935E+02  0.14609137037E+02 -0.55088149089E+02  0.60669840823E+02  0.00000000000E+00 0. -1.
</event>
<event>
 4    1  0.6225520E+003  0.2058178E+02  0.7546771E-02  0.1525321E+00
          2   -1    0    0  502    0  0.00000000000E+00  0.00000000000E+00  0.93103192045E+03  0.93103192045E+03  0.00000000000E+00 0.  1.
          2   -1    0    0  501    0 -0.00000000000E+00 -0.00000000000E+00 -0.25933470099E+02  0.25933470099E+02  0.00000000000E+00 0.  1.
          2    1    1    2  501    0 -0.16274955844E+02  0.12599026769E+02  0.92681598047E+03  0.92704448184E+03  0.00000000000E+00 0.  1.
          2    1    1    2  502    0  0.16274955844E+02 -0.12599026769E+02 -0.21717530119E+02  0.29920908705E+02  0.00000000000E+00 0.  1.
</event>
<event>
 4    1  0.6225520E+003  0.3271171E+02  0.7546771E-02  0.1397406E+00
          2   -1    0    0  502    0  0.00000000000E+00  0.00000000000E+00  0.26829110701E+02  0.26829110701E+02  0.00000000000E+00 0.  1.
          2   -1    0    0  501    0 -0.00000000000E+00 -0.00000000000E+00 -0.11845296060E+04  0.11845296060E+04  0.00000000000E+00 0. -1.
          2    1    1    2  501    0  0.23183403514E+01 -0.32629459005E+02  0.16544922420E+02  0.36657751634E+02  0.00000000000E+00 0.  1.
          2    1    1    2  502    0 -0.23183403514E+01  0.32629459005E+02 -0.11742454177E+04  0.11747009650E+04  0.00000000000E+00 0. -1.
</event>
<event>
 4    1  0.6225520E+003  0.2112130E+02  0.7546771E-02  0.1517540E+00
          2   -1    0    0  502    0  0.00000000000E+00  0.00000000000E+00  0.37911696764E+00  0.37911696764E+00  0.00000000000E+00 0. -1.
          2   -1    0    0  501    0 -0.00000000000E+00 -0.00000000000E+00 -0.13738768981E+04  0.13738768981E+04  0.00000000000E+00 0. -1.
          2    1    1    2  501    0  0.18883455434E+02  0.94617320675E+01 -0.42644240080E+03  0.42696513963E+03  0.00000000000E+00 0. -1.
          2    1    1    2  502    0 -0.18883455434E+02 -0.94617320675E+01 -0.94705538031E+03  0.94729087541E+03  0.00000000000E+00 0. -1.
</event>
<event>
 4    1  0.6225520E+003  0.3952592E+02  0.7546771E-02  0.1351286E+00
          2   -1    0    0  502    0  0.00000000000E+00  0.00000000000E+00  0.39493260903E+02  0.39493260903E+02  0.00000000000E+00 0. -1.
          2   -1    0    0  501    0 -0.00000000000E+00 -0.00000000000E+00 -0.45545017209E+02  0.45545017209E+02  0.00000000000E+00 0. -1.
          2    1    1    2  501    0 -0.29233997797E+02 -0.26602102380E+02  0.12389251428E+02  0.41422120046E+02  0.00000000000E+00 0. -1.
          2    1    1    2  502    0  0.29233997797E+02  0.26602102380E+02 -0.18441007734E+02  0.43616158066E+02  0.00000000000E+00 0. -1.
</event>
<event>
 4    1  0.6225520E+003  0.2018593E+02  0.7546771E-02  0.1531212E+00
          2   -1    0    0  502    0  0.00000000000E+00  0.00000000000E+00  0.12099880876E+03  0.12099880876E+03  0.00000000000E+00 0.  1.
          2   -1    0    0  501    0 -0.00000000000E+00 -0.00000000000E+00 -0.36201152612E+03  0.36201152612E+03  0.00000000000E+00 0. -1.
          2    1    1    2  501    0  0.13534790395E+02  0.14976015723E+02  0.11987289840E+03  0.12156061603E+03  0.00000000000E+00 0.  1.
          2    1    1    2  502    0 -0.13534790395E+02 -0.14976015723E+02 -0.36088561576E+03  0.36144971886E+03  0.00000000000E+00 0. -1.
</event>
<event>
 4    1  0.6225520E+003  0.3606665E+02  0.7546771E-02  0.1373216E+00
          2   -1    0    0  501    0  0.00000000000E+00  0.00000000000E+00  0.18419292631E+04  0.18419292631E+04  0.00000000000E+00 0. -1.
          2   -1    0    0  502    0 -0.00000000000E+00 -0.00000000000E+00 -0.15106170060E+01  0.15106170060E+01  0.00000000000E+00 0.  1.
          2    1    1    2  501    0  0.35831975807E+02  0.41076660303E+01  0.24760819924E+03  0.25022114967E+03  0.00000000000E+00 0.  1.
          2    1    1    2  502    0 -0.35831975807E+02 -0.41076660303E+01  0.15928104468E+04  0.15932187304E+04  0.00000000000E+00 0. -1.
</event>
<event>
 4    1  0.6225520E+003  0.2737401E+02  0.7546771E-02  0.1443887E+00
          2   -1    0    0  502    0  0.00000000000E+00  0.00000000000E+00  0.26278185762E+03  0.26278185762E+03  0.00000000000E+00 0.  1.
          2   -1    0    0  501    0 -0.00000000000E+00 -0.00000000000E+00 -0.59077644707E+01  0.59077644707E+01  0.00000000000E+00 0.  1.
          2    1    1    2  501    0  0.19480510416E+02 -0.19231380590E+02  0.22506461273E+03  0.22672321493E+03  0.00000000000E+00 0.  1.
          2    1    1    2  502    0 -0.19480510416E+02  0.19231380590E+02  0.31809480427E+02  0.41966407168E+02  0.00000000000E+00 0.  1.
</event>
<event>
 4    1  0.6225520E+003  0.2248092E+02  0.7546771E-02  0.1499121E+00
          2   -1    0    0  501    0  0.00000000000E+00  0.00000000000E+00  0.41444203946E+00  0.41444203946E+00  0.00000000000E+00 0.  1.
          2   -1    0    0  502    0 -0.00000000000E+00 -0.00000000000E+00 -0.12687088137E+04  0.12687088137E+04  0.00000000000E+00 0.  1.
          2    1    1    2  501    0 -0.10742898440E+02 -0.19747963955E+02 -0.50911310768E+03  0.50960921142E+03  0.00000000000E+00 0.  1.
          2    1    1    2  502    0  0.10742898440E+02  0.19747963955E+02 -0.75918126394E+03  0.75951404428E+03  0.00000000000E+00 0.  1.
</event>
<event>
 4    1  0.6225520E+003  0.2432472E+02  0.7546771E-02  0.1476501E+00
          2   -1    0    0  501    0  0.00000000000E+00  0.00000000000E+00  0.12736285172E+03  0.12736285172E+03  0.00000000000E+00 0.  1.
          2   -1    0    0  502    0 -0.00000000000E+00 -0.00000000000E+00 -0.47689954608E+01  0.47689954608E+01  0.00000000000E+00 0.  1.
          2    1    1    2  501    0  0.24022809443E+02  0.38205349416E+01  0.50674927105E+02  0.56210676013E+02  0.00000000000E+00 0.  1.
          2    1    1    2  502    0 -0.24022809443E+02 -0.38205349416E+01  0.71918929151E+02  0.75921171165E+02  0.00000000000E+00 0.  1.
</event>
<event>
 4    1  0.6225520E+003  0.2391892E+02  0.7546771E-02  0.1481271E+00
          2   -1    0    0  501    0  0.00000000000E+00  0.00000000000E+00  0.38283337390E+02  0.38283337390E+02  0.00000000000E+00 0.  1.
          2   -1    0    0  502    0 -0.00000000000E+00 -0.00000000000E+00 -0.75039308143E+03  0.75039308143E+03  0.00000000000E+00 0.  1.
          2    1    1    2  501    0 -0.90260245178E+01  0.22150519512E+02 -0.74644667416E+03  0.74682980123E+03  0.00000000000E+00 0.  1.
          2    1    1    2  502    0  0.90260245178E+01 -0.22150519512E+02  0.34336930126E+02  0.41846617590E+02  0.00000000000E+00 0.  1.
</event>
<event>
 4    1  0.6225520E+003  0.2205081E+02  0.7546771E-02  0.1504774E+00
          2   -1    0    0  501    0  0.00000000000E+00  0.00000000000E+00  0.16847318279E+03  0.16847318279E+03  0.00000000000E+00 0.  1.
          2   -1    0    0  502    0 -0.00000000000E+00 -0.00000000000E+00 -0.33270471354E+03  0.33270471354E+03  0.00000000000E+00 0. -1.
          2    1    1    2  501    0 -0.22005859430E+02  0.14072041903E+01 -0.33161544220E+03  0.33234776903E+03  0.00000000000E+00 0. -1.
          2    1    1    2  502    0  0.22005859430E+02 -0.14072041903E+01  0.16738391145E+03  0.16883012730E+03  0.00000000000E+00 0.  1.
</event>
<event>
 4    1  0.6225520E+003  0.2355743E+02  0.7546771E-02  0.1485615E+00
          2   -1    0    0  501    0  0.00000000000E+00  0.00000000000E+00  0.34661023629E+01  0.34661023629E+01  0.00000000000E+00 0.  1.
          2   -1    0    0  502    0 -0.00000000000E+00 -0.00000000000E+00 -0.87283090926E+03  0.87283090926E+03  0.00000000000E+00 0. -1.
          2    1    1    2  501    0 -0.21697881139E+02 -0.91735824849E+01 -0.83061063010E+03  0.83094462601E+03  0.00000000000E+00 0. -1.
          2    1    1    2  502    0  0.21697881139E+02  0.91735824849E+01 -0.38754176802E+02  0.45352385616E+02  0.00000000000E+00 0.  1.
</event>
<event>
 4    1  0.6225520E+003  0.2665321E+02  0.7546771E-02  0.1451123E+00
          2   -1    0    0  501    0  0.00000000000E+00  0.00000000000E+00  0.12853398172E+04  0.12853398172E+04  0.00000000000E+00 0. -1.
          2   -1    0    0  502    0 -0.00000000000E+00 -0.00000000000E+00 -0.13874673904E+01  0.13874673904E+01  0.00000000000E+00 0. -1.
          2    1    1    2  501    0  0.22606441495E+02 -0.14118860392E+02  0.14294155756E+03  0.14540523476E+03  0.00000000000E+00 0. -1.
          2    1    1    2  502    0 -0.22606441495E+02  0.14118860392E+02  0.11410107923E+04  0.11413220499E+04  0.00000000000E+00 0. -1.
</event>
<event>
 4    1  0.6225520E+003  0.2394591E+02  0.7546771E-02  0.1480950E+00
          2   -1    0    0  502    0  0.00000000000E+00  0.00000000000E+00  0.58005224343E+02  0.58005224343E+02  0.00000000000E+00 0. -1.
          2   -1    0    0  501    0 -0.00000000000E+00 -0.00000000000E+00 -0.94595365010E+03  0.94595365010E+03  0.00000000000E+00 0. -1.
          2    1    1    2  501    0 -0.23579943220E+02 -0.41704577878E+01  0.55375437059E+02  0.60331131847E+02  0.00000000000E+00 0. -1.
          2    1    1    2  502    0  0.23579943220E+02  0.41704577878E+01 -0.94332386281E+03  0.94362774259E+03  0.00000000000E+00 0. -1.
</event>
<event>
 4    1  0.6225520E+003  0.2159848E+02  0.7546771E-02  0.1510889E+00
          2   -1    0    0  501    0  0.00000000000E+00  0.00000000000E+00  0.80527876093E+01  0.80527876093E+01  0.00000000000E+00 0. -1.
          2   -1    0    0  502    0 -0.00000000000E+00 -0.00000000000E+00 -0.27242445373E+03  0.27242445373E+03  0.00000000000E+00 0.  1.
          2    1    1    2  501    0  0.63089799627E+01  0.20656506686E+02 -0.25662384365E+03  0.25753114691E+03  0.00000000000E+00 0.  1.
          2    1    1    2  502    0 -0.63089799627E+01 -0.20656506686E+02 -0.77478224666E+01  0.22946094430E+02  0.00000000000E+00 0. -1.
</event>
<event>
 4    1  0.1334993E+004  0.2942785E+02  0.7546771E-02  0.1424635E+00
          2   -1    0    0  502    0  0.00000000000E+00  0.00000000000E+00  0.76763560949E+03  0.76763560949E+03  0.00000000000E+00 0. -1.
          2   -1    0    0  501    0 -0.00000000000E+00 -0.00000000000E+00 -0.92563316996E+03  0.92563316996E+03  0.00000000000E+00 0.  1.
          2    1    1    2  501    0 -0.18201732290E+02  0.23123474350E+02  0.76711952450E+03  0.76768376497E+03  0.00000000000E+00 0. -1.
          2    1    1    2  502    0  0.18201732290E+02 -0.23123474350E+02 -0.92511708497E+03  0.92558501448E+03  0.00000000000E+00 0.  1.
</event>
<event>
 4    1  0.6225520E+003  0.2538044E+02  0.7546771E-02  0.1464592E+00
          2   -1    0    0  502    0  0.00000000000E+00  0.00000000000E+00  0.96359375245E+02  0.96359375245E+02  0.00000000000E+00 0. -1.
          2   -1    0    0  501    0 -0.00000000000E+00 -0.00000000000E+00 -0.98729265428E+03  0.98729265428E+03  0.00000000000E+00 0. -1.
          2    1    1    2  501    0 -0.15640535091E+02  0.19988503827E+02  0.94521884207E+02  0.97870083361E+02  0.00000000000E+00 0. -1.
          2    1    1    2  502    0  0.15640535091E+02 -0.19988503827E+02 -0.98545516324E+03  0.98578194617E+03  0.00000000000E+00 0. -1.
</event>
<event>
 4    1  0.6225520E+003  0.2033242E+02  0.7546771E-02  0.1529013E+00
          2   -1    0    0  502    0  0.00000000000E+00  0.00000000000E+00  0.75202919638E+03  0.75202919638E+03  0.00000000000E+00 0. -1.
          2   -1    0    0  501    0 -0.00000000000E+00 -0.00000000000E+00 -0.11256289936E+03  0.11256289936E+03  0.00000000000E+00 0.  1.
          2    1    1    2  501    0 -0.13954453572E+02  0.14787844130E+02  0.75097230477E+03  0.75124750225E+03  0.00000000000E+00 0. -1.
          2    1    1    2  502    0  0.13954453572E+02 -0.14787844130E+02 -0.11150600775E+03  0.11334459349E+03  0.00000000000E+00 0.  1.
</event>
<event>
 4    1  0.6225520E+003  0.3326404E+02  0.7546771E-02  0.1393196E+00
          2   -1    0    0  501    0  0.00000000000E+00  0.00000000000E+00  0.45057880187E+02  0.45057880187E+02  0.00000000000E+00 0.  1.
          2   -1    0    0  502    0 -0.00000000000E+00 -0.00000000000E+00 -0.11053817752E+04  0.11053817752E+04  0.00000000000E+00 0. -1.
          2    1    1    2  501    0 -0.25199583691E+01 -0.33168447903E+02 -0.10989563316E+04  0.10994596468E+04  0.00000000000E+00 0. -1.
          2    1    1    2  502    0  0.25199583691E+01  0.33168447903E+02  0.38632436557E+02  0.50980008639E+02  0.00000000000E+00 0.  1.
</event>
<event>
 4    1  0.6225520E+003  0.2596360E+02  0.7546771E-02  0.1458306E+00
          2   -1    0    0  502    0  0.00000000000E+00  0.00000000000E+00  0.13607073160E+02  0.13607073160E+02  0.00000000000E+00 0.  1.
          2   -1    0    0  501    0 -0.00000000000E+00 -0.00000000000E+00 -0.25775636993E+03  0.25775636993E+03  0.00000000000E+00 0. -1.
          2    1    1    2  501    0  0.46549431621E+00  0.25959424894E+02 -0.12711997736E+00  0.25963909283E+02  0.00000000000E+00 0.  1.
          2    1    1    2  502    0 -0.46549431621E+00 -0.25959424894E+02 -0.24402217679E+03  0.24539953380E+03  0.00000000000E+00 0. -1.
</event>
<event>
 4    1  0.6225520E+003  0.2307306E+02  0.7546771E-02  0.1491583E+00
          2   -1    0    0  501    0  0.00000000000E+00  0.00000000000E+00  0.27493514614E+02  0.27493514614E+02  0.00000000000E+00 0. -1.
          2   -1    0    0  502    0 -0.00000000000E+00 -0.00000000000E+00 -0.36386497054E+03  0.36386497054E+03  0.00000000000E+00 0. -1.
          2    1    1    2  501    0 -0.14985209941E+02  0.17544500708E+02 -0.35858719108E+03  0.35932873476E+03  0.00000000000E+00 0. -1.
          2    1    1    2  502    0  0.14985209941E+02 -0.17544500708E+02  0.22215735149E+02  0.32029750393E+02  0.00000000000E+00 0. -1.
</event>
<event>
 4    1  0.6225520E+003  0.2390520E+02  0.7546771E-02  0.1481434E+00
          2   -1    0    0  502    0  0.00000000000E+00  0.00000000000E+00  0.66938317409E+00  0.66938317409E+00  0.00000000000E+00 0. -1.
          2   -1    0    0  501    0 -0.00000000000E+00 -0.00000000000E+00 -0.11599277188E+04  0.11599277188E+04  0.00000000000E+00 0.  1.
          2    1    1    2  501    0  0.23884330781E+02  0.99878310152E+00 -0.28146772383E+03  0.28248104075E+03  0.00000000000E+00 0. -1.
          2    1    1    2  502    0 -0.23884330781E+02 -0.99878310152E+00 -0.87779061176E+03  0.87811606119E+03  0.00000000000E+00 0.  1.
</event>
<event>
 4    1  0.6225520E+003  0.4217588E+02  0.7546771E-02  0.1336186E+00
          2   -1    0    0  501    0  0.00000000000E+00  0.00000000000E+00  0.94333294520E+02  0.94333294520E+02  0.00000000000E+00 0.  1.
          2   -1    0    0  502    0 -0.00000000000E+00 -0.00000000000E+00 -0.17507455421E+04  0.17507455421E+04  0.00000000000E+00 0.  1.
          2    1    1    2  501    0 -0.39821191486E+02  0.13895224661E+02 -0.17457639370E+04  0.17462733258E+04  0.00000000000E+00 0.  1.
          2    1    1    2  502    0  0.39821191486E+02 -0.13895224661E+02  0.89351689454E+02  0.98805510818E+02  0.00000000000E+00 0.  1.
</event>
<event>
 4    1  0.6225520E+003  0.2238525E+02  0.7546771E-02  0.1500365E+00
          2   -1    0    0  501    0  0.00000000000E+00  0.00000000000E+00  0.28438215571E+03  0.28438215571E+03  0.00000000000E+00 0.  1.
          2   -1    0    0  502    0 -0.00000000000E+00 -0.00000000000E+00 -0.28064070600E+03  0.28064070600E+03  0.00000000000E+00 0. -1.
          2    1    1    2  501    0 -0.85187720352E+00  0.22369035250E+02 -0.27975240480E+03  0.28064658812E+03  0.00000000000E+00 0. -1.
          2    1    1    2  502    0  0.85187720352E+00 -0.22369035250E+02  0.28349385451E+03  0.28437627359E+03  0.00000000000E+00 0.  1.
</event>
<event>
 4    1  0.6225520E+003  0.2235308E+02  0.7546771E-02  0.1500785E+00
          2   -1    0    0  502    0  0.00000000000E+00  0.00000000000E+00  0.23485993090E+02  0.23485993090E+02  0.00000000000E+00 0.  1.
          2   -1    0    0  501    0 -0.00000000000E+00 -0.00000000000E+00 -0.16226079495E+03  0.16226079495E+03  0.00000000000E+00 0. -1.
          2    1    1    2  501    0  0.21021401890E+02 -0.76000601817E+01  0.17183607161E+02  0.28194620183E+02  0.00000000000E+00 0.  1.
          2    1    1    2  502    0 -0.21021401890E+02  0.76000601817E+01 -0.15595840903E+03  0.15755216786E+03  0.00000000000E+00 0. -1.
</event>
<event>
 4    1  0.6225520E+003  0.2350373E+02  0.7546771E-02  0.1486268E+00
          2   -1    0    0  501    0  0.00000000000E+00  0.00000000000E+00  0.17626237498E+01  0.17626237498E+01  0.00000000000E+00 0.  1.
          2   -1    0    0  502    0 -0.00000000000E+00 -0.00000000000E+00 -0.31427424567E+03  0.31427424567E+03  0.00000000000E+00 0. -1.
          2    1    1    2  501    0  0.11584467291E+02  0.20450566209E+02 -0.14797373307E+03  0.14982873963E+03  0.00000000000E+00 0.  1.
          2    1    1    2  502    0 -0.11584467291E+02 -0.20450566209E+02 -0.16453788885E+03  0.16620812979E+03  0.00000000000E+00 0. -1.
</event>
<event>
 4    1  0.6225520E+003  0.2871394E+02  0.7546771E-02  0.1431111E+00
          2   -1    0    0  502    0  0.00000000000E+00  0.00000000000E+00  0.12505804077E+01  0.12505804077E+01  0.00000000000E+00 0.  1.
          2   -1    0    0  501    0 -0.00000000000E+00 -0.00000000000E+00 -0.10642736441E+04  0.10642736441E+04  0.00000000000E+00 0.  1.
          2    1    1    2  501    0  0.28616178319E+02 -0.23674259019E+01 -0.20286619525E+03  0.20488822206E+03  0.00000000000E+00 0.  1.
          2    1    1    2  502    0 -0.28616178319E+02  0.23674259019E+01 -0.86015686844E+03  0.86063600244E+03  0.00000000000E+00 0.  1.
</event>
<event>
 4    1  0.6225520E+003  0.4478310E+02  0.7546771E-02  0.1322528E+00
          2   -1    0    0  501    0  0.00000000000E+00  0.00000000000E+00  0.67295260419E+02  0.67295260419E+02  0.00000000000E+00 0.  1.
          2   -1    0    0  502    0 -0.00000000000E+00 -0.00000000000E+00 -0.33937688550E+02  0.33937688550E+02  0.00000000000E+00 0.  1.
          2    1    1    2  501    0 -0.12907993673E+02  0.42882513406E+02 -0.99095615888E+00  0.44794064906E+02  0.00000000000E+00 0.  1.
          2    1    1    2  502    0  0.12907993673E+02 -0.42882513406E+02  0.34348528028E+02  0.56438884063E+02  0.00000000000E+00 0.  1.
</event>
<event>
 4    1  0.6225520E+003  0.4355893E+02  0.7546771E-02  0.1328804E+00
          2   -1    0    0  501    0  0.00000000000E+00  0.00000000000E+00  0.73381306961E+03  0.73381306961E+03  0.00000000000E+00 0.  1.
          2   -1    0    0  502    0 -0.00000000000E+00 -0.00000000000E+00 -0.49469163285E+03  0.49469163285E+03  0.00000000000E+00 0. -1.
          2    1    1    2  501    0 -0.43246455845E+02  0.52081346163E+01 -0.49308424793E+03  0.49500450116E+03  0.00000000000E+00 0. -1.
          2    1    1    2  502    0  0.43246455845E+02 -0.52081346163E+01  0.73220568470E+03  0.73350020130E+03  0.00000000000E+00 0.  1.
</event>
<event>
 4    1  0.6225520E+003  0.2501813E+02  0.7546771E-02  0.1468601E+00
          2   -1    0    0  501    0  0.00000000000E+00  0.00000000000E+00  0.16193133668E+03  0.16193133668E+03  0.00000000000E+00 0. -1.
          2   -1    0    0  502    0 -0.00000000000E+00 -0.00000000000E+00 -0.14429620661E+03  0.14429620661E+03  0.00000000000E+00 0.  1.
          2    1    1    2  501    0 -0.22418082215E+02 -0.11105695128E+02 -0.14223155783E+03  0.14441510627E+03  0.00000000000E+00 0.  1.
          2    1    1    2  502    0  0.22418082215E+02  0.11105695128E+02  0.15986668790E+03  0.16181243702E+03  0.00000000000E+00 0. -1.
</event>
<event>
 4    1  0.6225520E+003  0.2153063E+02  0.7546771E-02  0.1511822E+00
          2   -1    0    0  502    0  0.00000000000E+00  0.00000000000E+00  0.13664188941E+02  0.13664188941E+02  0.00000000000E+00 0.  1.
          2   -1    0    0  501    0 -0.00000000000E+00 -0.00000000000E+00 -0.45423276859E+03  0.45423276859E+03  0.00000000000E+00 0. -1.
          2    1    1    2  501    0  0.18210040376E+02  0.11487489082E+02  0.47580898721E+01  0.22050111000E+02  0.00000000000E+00 0.  1.
          2    1    1    2  502    0 -0.18210040376E+02 -0.11487489082E+02 -0.44532666952E+03  0.44584684653E+03  0.00000000000E+00 0. -1.
</event>
<event>
 4    1  0.6225520E+003  0.2569339E+02  0.7546771E-02  0.1461194E+00
          2   -1    0    0  502    0  0.00000000000E+00  0.00000000000E+00  0.50334374053E+02  0.50334374053E+02  0.00000000000E+00 0. -1.
          2   -1    0    0  501    0 -0.00000000000E+00 -0.00000000000E+00 -0.85191815252E+02  0.85191815252E+02  0.00000000000E+00 0. -1.
          2    1    1    2  501    0 -0.20751308209E+02  0.15150365353E+02  0.44900427221E+02  0.51731989401E+02  0.00000000000E+00 0. -1.
          2    1    1    2  502    0  0.20751308209E+02 -0.15150365353E+02 -0.79757868420E+02  0.83794199904E+02  0.00000000000E+00 0. -1.
</event>
<event>
 4    1  0.6225520E+003  0.2128071E+02  0.7546771E-02  0.1515295E+00
          2   -1    0    0  502    0  0.00000000000E+00  0.00000000000E+00  0.54438995077E+03  0.54438995077E+03  0.00000000000E+00 0. -1.
          2   -1    0    0  501    0 -0.00000000000E+00 -0.00000000000E+00 -0.13046696958E+02  0.13046696958E+02  0.00000000000E+00 0.  1.
          2    1    1    2  501    0 -0.21268768373E+02  0.71290235532E+00  0.53535778890E+03  0.53578058091E+03  0.00000000000E+00 0. -1.
          2    1    1    2  502    0  0.21268768373E+02 -0.71290235532E+00 -0.40145350970E+01  0.21656066816E+02  0.00000000000E+00 0.  1.
</event>
<event>
 4    1  0.6225520E+003  0.6761238E+02  0.7546771E-02  0.1235953E+00
          2   -1    0    0  502    0  0.00000000000E+00  0.00000000000E+00  0.56451057822E+03  0.56451057822E+03  0.00000000000E+00 0.  1.
          2   -1    0    0  501    0 -0.00000000000E+00 -0.00000000000E+00 -0.41536887492E+03  0.41536887492E+03  0.00000000000E+00 0.  1.
          2    1    1    2  501    0 -0.44906994322E+02  0.50544994358E+02  0.55971112750E+03  0.56378008198E+03  0.00000000000E+00 0.  1.
          2    1    1    2  502    0  0.44906994322E+02 -0.50544994358E+02 -0.41056942420E+03  0.41609937116E+03  0.00000000000E+00 0.  1.
</event>
<event>
 4    1  0.6225520E+003  0.3214506E+02  0.7546771E-02  0.1401828E+00
          2   -1    0    0  502    0  0.00000000000E+00  0.00000000000E+00  0.12837233565E+03  0.12837233565E+03  0.00000000000E+00 0. -1.
          2   -1    0    0  501    0 -0.00000000000E+00 -0.00000000000E+00 -0.40118796939E+03  0.40118796939E+03  0.00000000000E+00 0. -1.
          2    1    1    2  501    0 -0.28192969138E+02 -0.15442184698E+02  0.12570265450E+03  0.12974768563E+03  0.00000000000E+00 0. -1.
          2    1    1    2  502    0  0.28192969138E+02  0.15442184698E+02 -0.39851828824E+03  0.39981261941E+03  0.00000000000E+00 0. -1.
</event>
<event>
 4    1  0.6225520E+003  0.6381510E+02  0.7546771E-02  0.1247393E+00
          2   -1    0    0  502    0  0.00000000000E+00  0.00000000000E+00  0.98681239243E+02  0.98681239243E+02  0.00000000000E+00 0.  1.
          2   -1    0    0  501    0 -0.00000000000E+00 -0.00000000000E+00 -0.14665594543E+04  0.14665594543E+04  0.00000000000E+00 0. -1.
          2    1    1    2  501    0 -0.58849639665E+02  0.24679695264E+02  0.87591489102E+02  0.10837267372E+03  0.00000000000E+00 0.  1.
          2    1    1    2  502    0  0.58849639665E+02 -0.24679695264E+02 -0.14554697041E+04  0.14568680198E+04  0.00000000000E+00 0. -1.
</event>
<event>
 4    1  0.6225520E+003  0.4171147E+02  0.7546771E-02  0.1338738E+00
          2   -1    0    0  501    0  0.00000000000E+00  0.00000000000E+00  0.11236411957E+03  0.11236411957E+03  0.00000000000E+00 0. -1.
          2   -1    0    0  502    0 -0.00000000000E+00 -0.00000000000E+00 -0.97216110300E+03  0.97216110300E+03  0.00000000000E+00 0. -1.
          2    1    1    2  501    0  0.32296833471E+02  0.26396230887E+02 -0.96782535121E+03  0.96872377740E+03  0.00000000000E+00 0. -1.
          2    1    1    2  502    0 -0.32296833471E+02 -0.26396230887E+02  0.10802836778E+03  0.11580144517E+03  0.00000000000E+00 0. -1.
</event>
<event>
 4    1  0.6225520E+003  0.4136964E+02  0.7546771E-02  0.1340641E+00
          2   -1    0    0  502    0  0.00000000000E+00  0.00000000000E+00  0.50274473989E+02  0.50274473989E+02  0.00000000000E+00 0. -1.
          2   -1    0    0  501    0 -0.00000000000E+00 -0.00000000000E+00 -0.47512464422E+03  0.47512464422E+03  0.00000000000E+00 0. -1.
          2    1    1    2  501    0  0.33244239385E+01  0.41235849748E+02  0.40688535456E+02  0.58025890915E+02  0.00000000000E+00 0. -1.
          2    1    1    2  502    0 -0.33244239385E+01 -0.41235849748E+02 -0.46553870569E+03  0.46737322729E+03  0.00000000000E+00 0. -1.
</event>
<event>
 4    1  0.6225520E+003  0.3699690E+02  0.7546771E-02  0.1367043E+00
          2   -1    0    0  501    0  0.00000000000E+00  0.00000000000E+00  0.80160099294E+03  0.80160099294E+03  0.00000000000E+00 0. -1.
          2   -1    0    0  502    0 -0.00000000000E+00 -0.00000000000E+00 -0.39900555700E+01  0.39900555700E+01  0.00000000000E+00 0. -1.
          2    1    1    2  501    0 -0.35826078828E+02  0.92337951933E+01  0.94155296034E+02  0.10116318831E+03  0.00000000000E+00 0. -1.
          2    1    1    2  502    0  0.35826078828E+02 -0.92337951933E+01  0.70345564134E+03  0.70442786020E+03  0.00000000000E+00 0. -1.
</event>
<event>
 4    1  0.6225520E+003  0.2551439E+02  0.7546771E-02  0.1463130E+00
          2   -1    0    0  501    0  0.00000000000E+00  0.00000000000E+00  0.37823391311E+02  0.37823391311E+02  0.00000000000E+00 0. -1.
          2   -1    0    0  502    0 -0.00000000000E+00 -0.00000000000E+00 -0.13296754625E+03  0.13296754625E+03  0.00000000000E+00 0.  1.
          2    1    1    2  501    0  0.17708378800E+02 -0.18368376227E+02 -0.12724935848E+03  0.12978206024E+03  0.00000000000E+00 0.  1.
          2    1    1    2  502    0 -0.17708378800E+02  0.18368376227E+02  0.32105203543E+02  0.41008877325E+02  0.00000000000E+00 0. -1.
</event>
<event>
 4    1  0.6225520E+003  0.2752816E+02  0.7546771E-02  0.1442374E+00
          2   -1    0    0  501    0  0.00000000000E+00  0.00000000000E+00  0.37578186605E+03  0.37578186605E+03  0.00000000000E+00 0. -1.
          2   -1    0    0  502    0 -0.00000000000E+00 -0.00000000000E+00 -0.23730450141E+02  0.23730450141E+02  0.00000000000E+00 0.  1.
          2    1    1    2  501    0 -0.21827498240E+02  0.16773783259E+02 -0.15054482647E+02  0.31375737951E+02  0.00000000000E+00 0.  1.
          2    1    1    2  502    0  0.21827498240E+02 -0.16773783259E+02  0.36710589856E+03  0.36813657824E+03  0.00000000000E+00 0. -1.
</event>
<event>
 4    1  0.1803790E+004  0.2745759E+02  0.7546771E-02  0.1443065E+00
          2   -1    0    0  502    0  0.00000000000E+00  0.00000000000E+00  0.17747375271E+04  0.17747375271E+04  0.00000000000E+00 0.  1.
          2   -1    0    0  501    0 -0.00000000000E+00 -0.00000000000E+00 -0.10666050861E+04  0.10666050861E+04  0.00000000000E+00 0. -1.
          2    1    1    2  501    0  0.26568711996E+02  0.69298467583E+01  0.17744545874E+04  0.17746670116E+04  0.00000000000E+00 0.  1.
          2    1    1    2  502    0 -0.26568711996E+02 -0.69298467583E+01 -0.10663221464E+04  0.10666756016E+04  0.00000000000E+00 0. -1.
</event>
<event>
 4    1  0.6225520E+003  0.2420861E+02  0.7546771E-02  0.1477855E+00
          2   -1    0    0  502    0  0.00000000000E+00  0.00000000000E+00  0.14357582966E+04  0.14357582966E+04  0.00000000000E+00 0.  1.
          2   -1    0    0  501    0 -0.00000000000E+00 -0.00000000000E+00 -0.30243560219E+01  0.30243560219E+01  0.00000000000E+00 0.  1.
          2    1    1    2  501    0 -0.62644602462E+01 -0.23384041093E+02  0.13854525951E+04  0.13856640827E+04  0.00000000000E+00 0.  1.
          2    1    1    2  502    0  0.62644602462E+01  0.23384041093E+02  0.47281345531E+02  0.53118569966E+02  0.00000000000E+00 0.  1.
</event>
<event>
 4    1  0.6225520E+003  0.2196811E+02  0.7546771E-02  0.1505879E+00
          2   -1    0    0  502    0  0.00000000000E+00  0.00000000000E+00  0.20450448863E+03  0.20450448863E+03  0.00000000000E+00 0. -1.
          2   -1    0    0  501    0 -0.00000000000E+00 -0.00000000000E+00 -0.97605821498E+02  0.97605821498E+02  0.00000000000E+00 0.  1.
          2    1    1    2  501    0 -0.21914671074E+02  0.15313437407E+01  0.20266726729E+03  0.20385440651E+03  0.00000000000E+00 0. -1.
          2    1    1    2  502    0  0.21914671074E+02 -0.15313437407E+01 -0.95768600153E+02  0.98255903625E+02  0.00000000000E+00 0.  1.
</event>
<event>
 4    1  0.6225520E+003  0.2280020E+02  0.7546771E-02  0.1495022E+00
          2   -1    0    0  501    0  0.00000000000E+00  0.00000000000E+00  0.76604913418E+03  0.76604913418E+03  0.00000000000E+00 0.  1.
          2   -1    0    0  502    0 -0.00000000000E+00 -0.00000000000E+00 -0.32955371375E+01  0.32955371375E+01  0.00000000000E+00 0. -1.
          2    1    1    2  501    0 -0.20943210678E+02 -0.90128300043E+01  0.38590383144E+02  0.44822615379E+02  0.00000000000E+00 0. -1.
          2    1    1    2  502    0  0.20943210678E+02  0.90128300043E+01  0.72416321390E+03  0.72452205594E+03  0.00000000000E+00 0.  1.
</event>
<event>
 4    1  0.6225520E+003  0.2371981E+02  0.7546771E-02  0.1483652E+00
          2   -1    0    0  501    0  0.00000000000E+00  0.00000000000E+00  0.10796330507E+01  0.10796330507E+01  0.00000000000E+00 0.  1.
          2   -1    0    0  502    0 -0.00000000000E+00 -0.00000000000E+00 -0.12046469785E+04  0.12046469785E+04  0.00000000000E+00 0. -1.
          2    1    1    2  501    0  0.23505665494E+01  0.23603058208E+02 -0.10558962221E+04  0.10561626113E+04  0.00000000000E+00 0. -1.
          2    1    1    2  502    0 -0.23505665494E+01 -0.23603058208E+02 -0.14767112331E+03  0.14956400028E+03  0.00000000000E+00 0.  1.
</event>
<event>
 4    1  0.6225520E+003  0.5947459E+02  0.7546771E-02  0.1261628E+00
          2   -1    0    0  502    0  0.00000000000E+00  0.00000000000E+00  0.11056234688E+02  0.11056234688E+02  0.00000000000E+00 0. -1.
          2   -1    0    0  501    0 -0.00000000000E+00 -0.00000000000E+00 -0.50838740548E+03  0.50838740548E+03  0.00000000000E+00 0. -1.
          2    1    1    2  501    0  0.22971911367E+02  0.54859077972E+02 -0.90534582096E+02  0.10832237859E+03  0.00000000000E+00 0. -1.
          2    1    1    2  502    0 -0.22971911367E+02 -0.54859077972E+02 -0.40679658870E+03  0.41112126158E+03  0.00000000000E+00 0. -1.
</event>
<event>
 4    1  0.6225520E+003  0.2876689E+02  0.7546771E-02  0.1430624E+00
          2   -1    0    0  501    0  0.00000000000E+00  0.00000000000E+00  0.11567653139E+04  0.11567653139E+04  0.00000000000E+00 0. -1.
          2   -1    0    0  502    0 -0.00000000000E+00 -0.00000000000E+00 -0.76142810236E+00  0.76142810236E+00  0.00000000000E+00 0. -1.
          2    1    1    2  501    0  0.75958145470E+01  0.27745945911E+02  0.43568279497E+03  0.43663145986E+03  0.00000000000E+00 0. -1.
          2    1    1    2  502    0 -0.75958145470E+01 -0.27745945911E+02  0.72032109082E+03  0.72089528213E+03  0.00000000000E+00 0. -1.
</event>
<event>
 4    1  0.6225520E+003  0.2225944E+02  0.7546771E-02  0.1502013E+00
          2   -1    0    0  501    0  0.00000000000E+00  0.00000000000E+00  0.84195195162E+00  0.84195195162E+00  0.00000000000E+00 0. -1.
          2   -1    0    0  502    0 -0.00000000000E+00 -0.00000000000E+00 -0.13660030712E+04  0.13660030712E+04  0.00000000000E+00 0.  1.
          2    1    1    2  501    0  0.20784369387E+02  0.79682412265E+01 -0.11981847492E+04  0.11983914953E+04  0.00000000000E+00 0.  1.
          2    1    1    2  502    0 -0.20784369387E+02 -0.79682412265E+01 -0.16697637012E+03  0.16845352788E+03  0.00000000000E+00 0. -1.
</event>
<event>
 4    1  0.6225520E+003  0.2865844E+02  0.7546771E-02  0.1431624E+00
          2   -1    0    0  502    0  0.00000000000E+00  0.00000000000E+00  0.30445838547E+03  0.30445838547E+03  0.00000000000E+00 0. -1.
          2   -1    0    0  501    0 -0.00000000000E+00 -0.00000000000E+00 -0.54380698226E+03  0.54380698226E+03  0.00000000000E+00 0.  1.
          2    1    1    2  501    0 -0.12128715968E+02  0.25965371394E+02  0.30340510567E+03  0.30475558143E+03  0.00000000000E+00 0. -1.
          2    1    1    2  502    0  0.12128715968E+02 -0.25965371394E+02 -0.54275370247E+03  0.54350978630E+03  0.00000000000E+00 0.  1.
</event>
<event>
 4    1  0.6225520E+003  0.2034450E+02  0.7546771E-02  0.1528833E+00
          2   -1    0    0  501    0  0.00000000000E+00  0.00000000000E+00  0.70636456758E+03  0.70636456758E+03  0.00000000000E+00 0. -1.
          2   -1    0    0  502    0 -0.00000000000E+00 -0.00000000000E+00 -0.69250900714E+00  0.69250900714E+00  0.00000000000E+00 0. -1.
          2    1    1    2  501    0  0.93468036112E+01 -0.18070305502E+02  0.49150978172E+03  0.49193064979E+03  0.00000000000E+00 0. -1.
          2    1    1    2  502    0 -0.93468036112E+01  0.18070305502E+02  0.21416227686E+03  0.21512642680E+03  0.00000000000E+00 0. -1.
</event>
<event>
 4    1  0.6225520E+003  0.5728138E+02  0.7546771E-02  0.1269360E+00
          2   -1    0    0  501    0  0.00000000000E+00  0.00000000000E+00  0.71848843139E+01  0.71848843139E+01  0.00000000000E+00 0.  1.
          2   -1    0    0  502    0 -0.00000000000E+00 -0.00000000000E+00 -0.57946639962E+03  0.57946639962E+03  0.00000000000E+00 0.  1.
          2    1    1    2  501    0 -0.32545490081E+02  0.47137532897E+02 -0.15111390366E+03  0.16160621217E+03  0.00000000000E+00 0.  1.
          2    1    1    2  502    0  0.32545490081E+02 -0.47137532897E+02 -0.42116761165E+03  0.42504507177E+03  0.00000000000E+00 0.  1.
</event>
<event>
 4    1  0.6225520E+003  0.3175613E+02  0.7546771E-02  0.1404926E+00
          2   -1    0    0  501    0  0.00000000000E+00  0.00000000000E+00  0.88670981422E+03  0.88670981422E+03  0.00000000000E+00 0. -1.
          2   -1    0    0  502    0 -0.00000000000E+00 -0.00000000000E+00 -0.43325631255E+01  0.43325631255E+01  0.00000000000E+00 0.  1.
          2    1    1    2  501    0 -0.25403571378E+02  0.19055452815E+02  0.58584644478E+02  0.66637919305E+02  0.00000000000E+00 0.  1.
          2    1    1    2  502    0  0.25403571378E+02 -0.19055452815E+02  0.82379260662E+03  0.82440445804E+03  0.00000000000E+00 0. -1.
</event>
<event>
 4    1  0.6225520E+003  0.3654537E+02  0.7546771E-02  0.1370012E+00
          2   -1    0    0  501    0  0.00000000000E+00  0.00000000000E+00  0.10612999135E+04  0.10612999135E+04  0.00000000000E+00 0.  1.
          2   -1    0    0  502    0 -0.00000000000E+00 -0.00000000000E+00 -0.12754560764E+01  0.12754560764E+01  0.00000000000E+00 0. -1.
          2    1    1    2  501    0 -0.36118119868E+02 -0.55718559834E+01  0.46861563839E+03  0.47003848853E+03  0.00000000000E+00 0. -1.
          2    1    1    2  502    0  0.36118119868E+02  0.55718559834E+01  0.59140881900E+03  0.59253688101E+03  0.00000000000E+00 0.  1.
</event>
<event>
 4    1  0.6225520E+003  0.2051388E+02  0.7546771E-02  0.1526320E+00
          2   -1    0    0  501    0  0.00000000000E+00  0.00000000000E+00  0.14122537740E+02  0.14122537740E+02  0.00000000000E+00 0. -1.
          2   -1    0    0  502    0 -0.00000000000E+00 -0.00000000000E+00 -0.84732311836E+03  0.84732311836E+03  0.00000000000E+00 0.  1.
          2    1    1    2  501    0  0.31214501599E+01  0.20275005861E+02 -0.83968174687E+03  0.83993229211E+03  0.00000000000E+00 0.  1.
          2    1    1    2  502    0 -0.31214501599E+01 -0.20275005861E+02  0.64811662518E+01  0.21513363981E+02  0.00000000000E+00 0. -1.
</event>
<event>
 4    1  0.6225520E+003  0.3611618E+02  0.7546771E-02  0.1372881E+00
          2   -1    0    0  501    0  0.00000000000E+00  0.00000000000E+00  0.25811681545E+03  0.25811681545E+03  0.00000000000E+00 0. -1.
          2   -1    0    0  502    0 -0.00000000000E+00 -0.00000000000E+00 -0.48708282148E+02  0.48708282148E+02  0.00000000000E+00 0. -1.
          2    1    1    2  501    0  0.22518743986E+02 -0.28236231664E+02 -0.40532200121E+02  0.54288468903E+02  0.00000000000E+00 0. -1.
          2    1    1    2  502    0 -0.22518743986E+02  0.28236231664E+02  0.24994073343E+03  0.25253662870E+03  0.00000000000E+00 0. -1.
</event>
<event>
 4    1  0.6225520E+003  0.5416050E+02  0.7546771E-02  0.1281076E+00
          2   -1    0    0  502    0  0.00000000000E+00  0.00000000000E+00  0.34561522471E+03  0.34561522471E+03  0.00000000000E+00 0.  1.
          2   -1    0    0  501    0 -0.00000000000E+00 -0.00000000000E+00 -0.34673950625E+03  0.34673950625E+03  0.00000000000E+00 0. -1.
          2    1    1    2  501    0 -0.14302047124E+02  0.52238028531E+02  0.34135217665E+03  0.34562214727E+03  0.00000000000E+00 0.  1.
          2    1    1    2  502    0  0.14302047124E+02 -0.52238028531E+02 -0.34247645819E+03  0.34673258369E+03  0.00000000000E+00 0. -1.
</event>
<event>
 4    1  0.6225520E+003  0.2705222E+02  0.7546771E-02  0.1447084E+00
          2   -1    0    0  502    0  0.00000000000E+00  0.00000000000E+00  0.12473582933E+04  0.12473582933E+04  0.00000000000E+00 0. -1.
          2   -1    0    0  501    0 -0.00000000000E+00 -0.00000000000E+00 -0.39828882348E+01  0.39828882348E+01  0.00000000000E+00 0.  1.
          2    1    1    2  501    0 -0.15168979176E+02  0.22399215644E+02  0.11994413253E+04  0.11997463547E+04  0.00000000000E+00 0. -1.
          2    1    1    2  502    0  0.15168979176E+02 -0.22399215644E+02  0.43934079763E+02  0.51594826827E+02  0.00000000000E+00 0.  1.
</event>
<event>
 4    1  0.6225520E+003  0.2541118E+02  0.7546771E-02  0.1464256E+00
          2   -1    0    0  502    0  0.00000000000E+00  0.00000000000E+00  0.22967628811E+02  0.22967628811E+02  0.00000000000E+00 0.  1.
          2   -1    0    0  501    0 -0.00000000000E+00 -0.00000000000E+00 -0.83094649911E+02  0.83094649911E+02  0.00000000000E+00 0. -1.
          2    1    1    2  501    0 -0.12730553323E+02 -0.21992291398E+02  0.13073159655E+02  0.28576832788E+02  0.00000000000E+00 0.  1.
          2    1    1    2  502    0  0.12730553323E+02  0.21992291398E+02 -0.73200180755E+02  0.77485445933E+02  0.00000000000E+00 0. -1.
</event>
<event>
 4    1  0.6225520E+003  0.4859861E+02  0.7546771E-02  0.1304365E+00
          2   -1    0    0  502    0  0.00000000000E+00  0.00000000000E+00  0.36877594111E+01  0.36877594111E+01  0.00000000000E+00 0.  1.
          2   -1    0    0  501    0 -0.00000000000E+00 -0.00000000000E+00 -0.12470854605E+04  0.12470854605E+04  0.00000000000E+00 0.  1.
          2    1    1    2  501    0  0.67713749812E+01 -0.48124558667E+02 -0.18552015494E+03  0.19177995869E+03  0.00000000000E+00 0.  1.
          2    1    1    2  502    0 -0.67713749812E+01  0.48124558667E+02 -0.10578775462E+04  0.10589932613E+04  0.00000000000E+00 0.  1.
</event>
<event>
 4    1  0.6225520E+003  0.2432064E+02  0.7546771E-02  0.1476549E+00
          2   -1    0    0  502    0  0.00000000000E+00  0.00000000000E+00  0.22086865336E+02  0.22086865336E+02  0.00000000000E+00 0. -1.
          2   -1    0    0  501    0 -0.00000000000E+00 -0.00000000000E+00 -0.49213974014E+02  0.49213974014E+02  0.00000000000E+00 0. -1.
          2    1    1    2  501    0  0.13744796378E+02 -0.20064243443E+02  0.10506133087E+02  0.26492869321E+02  0.00000000000E+00 0. -1.
          2    1    1    2  502    0 -0.13744796378E+02  0.20064243443E+02 -0.37633241765E+02  0.44807970029E+02  0.00000000000E+00 0. -1.
</event>
<event>
 4    1  0.6225520E+003  0.2244890E+02  0.7546771E-02  0.1499537E+00
          2   -1    0    0  501    0  0.00000000000E+00  0.00000000000E+00  0.42092152936E+01  0.42092152936E+01  0.00000000000E+00 0. -1.
          2   -1    0    0  502    0 -0.00000000000E+00 -0.00000000000E+00 -0.12370050817E+03  0.12370050817E+03  0.00000000000E+00 0. -1.
          2    1    1    2  501    0 -0.14651909507E+02  0.17008071862E+02 -0.48281976513E+02  0.53245677915E+02  0.00000000000E+00 0. -1.
          2    1    1    2  502    0  0.14651909507E+02 -0.17008071862E+02 -0.71209316366E+02  0.74664045551E+02  0.00000000000E+00 0. -1.
</event>
<event>
 4    1  0.6225520E+003  0.2097404E+02  0.7546771E-02  0.1519636E+00
          2   -1    0    0  502    0  0.00000000000E+00  0.00000000000E+00  0.34110349616E+03  0.34110349616E+03  0.00000000000E+00 0. -1.
          2   -1    0    0  501    0 -0.00000000000E+00 -0.00000000000E+00 -0.85208683346E+01  0.85208683346E+01  0.00000000000E+00 0. -1.
          2    1    1    2  501    0  0.92414130372E+01 -0.18828346375E+02  0.32733175701E+03  0.32800303275E+03  0.00000000000E+00 0. -1.
          2    1    1    2  502    0 -0.92414130372E+01  0.18828346375E+02  0.52508708087E+01  0.21621331744E+02  0.00000000000E+00 0. -1.
</event>
<event>
 4    1  0.6225520E+003  0.2744789E+02  0.7546771E-02  0.1443160E+00
          2   -1    0    0  501    0  0.00000000000E+00  0.00000000000E+00  0.89270838081E+03  0.89270838081E+03  0.00000000000E+00 0.  1.
          2   -1    0    0  502    0 -0.00000000000E+00 -0.00000000000E+00 -0.10569317895E+01  0.10569317895E+01  0.00000000000E+00 0. -1.
          2    1    1    2  501    0 -0.11679250118E+01  0.27423034286E+02  0.24521336876E+03  0.24674477315E+03  0.00000000000E+00 0. -1.
          2    1    1    2  502    0  0.11679250118E+01 -0.27423034286E+02  0.64643808026E+03  0.64702053945E+03  0.00000000000E+00 0.  1.
</event>
<event>
 4    1  0.6225520E+003  0.2804967E+02  0.7546771E-02  0.1437340E+00
          2   -1    0    0  502    0  0.00000000000E+00  0.00000000000E+00  0.50705800508E+03  0.50705800508E+03  0.00000000000E+00 0.  1.
          2   -1    0    0  501    0 -0.00000000000E+00 -0.00000000000E+00 -0.39685001402E+01  0.39685001402E+01  0.00000000000E+00 0. -1.
          2    1    1    2  501    0 -0.25499344481E+02  0.11686213935E+02  0.45094410459E+03  0.45181563677E+03  0.00000000000E+00 0.  1.
          2    1    1    2  502    0  0.25499344481E+02 -0.11686213935E+02  0.52145400353E+02  0.59210868454E+02  0.00000000000E+00 0. -1.
</event>
<event>
 4    1  0.6225520E+003  0.2575033E+02  0.7546771E-02  0.1460582E+00
          2   -1    0    0  502    0  0.00000000000E+00  0.00000000000E+00  0.35393079131E+03  0.35393079131E+03  0.00000000000E+00 0.  1.
          2   -1    0    0  501    0 -0.00000000000E+00 -0.00000000000E+00 -0.20341312118E+01  0.20341312118E+01  0.00000000000E+00 0.  1.
          2    1    1    2  501    0  0.47654143772E+01 -0.25305538369E+02  0.22596795952E+03  0.22743042492E+03  0.00000000000E+00 0.  1.
          2    1    1    2  502    0 -0.47654143772E+01  0.25305538369E+02  0.12592870058E+03  0.12853449761E+03  0.00000000000E+00 0.  1.
</event>
<event>
 4    1  0.6225520E+003  0.3272541E+02  0.7546771E-02  0.1397300E+00
          2   -1    0    0  501    0  0.00000000000E+00  0.00000000000E+00  0.60452061824E+02  0.60452061824E+02  0.00000000000E+00 0. -1.
          2   -1    0    0  502    0 -0.00000000000E+00 -0.00000000000E+00 -0.11295068938E+04  0.11295068938E+04  0.00000000000E+00 0.  1.
          2    1    1    2  501    0  0.17914801878E+02  0.27386358206E+02 -0.11248224792E+04  0.11252984327E+04  0.00000000000E+00 0.  1.
          2    1    1    2  502    0 -0.17914801878E+02 -0.27386358206E+02  0.55767647292E+02  0.64660522938E+02  0.00000000000E+00 0. -1.
</event>
<event>
 4    1  0.6225520E+003  0.5040311E+02  0.7546771E-02  0.1296434E+00
          2   -1    0    0  501    0  0.00000000000E+00  0.00000000000E+00  0.18670615286E+04  0.18670615286E+04  0.00000000000E+00 0.  1.
          2   -1    0    0  502    0 -0.00000000000E+00 -0.00000000000E+00 -0.87467873203E+02  0.87467873203E+02  0.00000000000E+00 0.  1.
          2    1    1    2  501    0 -0.48965412538E+02  0.11952475688E+02 -0.79836747601E+02  0.94415992118E+02  0.00000000000E+00 0.  1.
          2    1    1    2  502    0  0.48965412538E+02 -0.11952475688E+02  0.18594304030E+04  0.18601134097E+04  0.00000000000E+00 0.  1.
</event>
<event>
 4    1  0.6225520E+003  0.3274533E+02  0.7546771E-02  0.1397147E+00
          2   -1    0    0  501    0  0.00000000000E+00  0.00000000000E+00  0.30993823203E+03  0.30993823203E+03  0.00000000000E+00 0.  1.
          2   -1    0    0  502    0 -0.00000000000E+00 -0.00000000000E+00 -0.21568938271E+02  0.21568938271E+02  0.00000000000E+00 0.  1.
          2    1    1    2  501    0  0.32665555829E+02 -0.22843394801E+01 -0.76951657701E+01  0.33637364949E+02  0.00000000000E+00 0.  1.
          2    1    1    2  502    0 -0.32665555829E+02  0.22843394801E+01  0.29606445953E+03  0.29786980535E+03  0.00000000000E+00 0.  1.
</event>
<event>
 4    1  0.6225520E+003  0.3969570E+02  0.7546771E-02  0.1350278E+00
          2   -1    0    0  501    0  0.00000000000E+00  0.00000000000E+00  0.25530254320E+04  0.25530254320E+04  0.00000000000E+00 0.  1.
          2   -1    0    0  502    0 -0.00000000000E+00 -0.00000000000E+00 -0.14405846490E+02  0.14405846490E+02  0.00000000000E+00 0. -1.
          2    1    1    2  501    0  0.60727131162E+01 -0.39228445760E+02  0.13395141349E+02  0.41894851869E+02  0.00000000000E+00 0. -1.
          2    1    1    2  502    0 -0.60727131162E+01  0.39228445760E+02  0.25252244441E+04  0.25255364266E+04  0.00000000000E+00 0.  1.
</event>
<event>
 4    1  0.6225520E+003  0.6171590E+02  0.7546771E-02  0.1254111E+00
          2   -1    0    0  502    0  0.00000000000E+00  0.00000000000E+00  0.13159963570E+02  0.13159963570E+02  0.00000000000E+00 0. -1.
          2   -1    0    0  501    0 -0.00000000000E+00 -0.00000000000E+00 -0.13946071336E+04  0.13946071336E+04  0.00000000000E+00 0. -1.
          2    1    1    2  501    0 -0.60403184358E+01 -0.61419595587E+02 -0.64122189473E+02  0.88997232270E+02  0.00000000000E+00 0. -1.
          2    1    1    2  502    0  0.60403184358E+01  0.61419595587E+02 -0.13173249805E+04  0.13187698649E+04  0.00000000000E+00 0. -1.
</event>
<event>
 4    1  0.6225520E+003  0.2345954E+02  0.7546771E-02  0.1486807E+00
          2   -1    0    0  501    0  0.00000000000E+00  0.00000000000E+00  0.74236411772E+03  0.74236411772E+03  0.00000000000E+00 0. -1.
          2   -1    0    0  502    0 -0.00000000000E+00 -0.00000000000E+00 -0.89624187388E+00  0.89624187388E+00  0.00000000000E+00 0.  1.
          2    1    1    2  501    0  0.79881197661E+01 -0.22057648858E+02  0.21623841360E+03  0.21750724458E+03  0.00000000000E+00 0.  1.
          2    1    1    2  502    0 -0.79881197661E+01  0.22057648858E+02  0.52522946225E+03  0.52575311501E+03  0.00000000000E+00 0. -1.
</event>
<event>
 4    1  0.6225520E+003  0.4349457E+02  0.7546771E-02  0.1329141E+00
          2   -1    0    0  501    0  0.00000000000E+00  0.00000000000E+00  0.14791368813E+02  0.14791368813E+02  0.00000000000E+00 0.  1.
          2   -1    0    0  502    0 -0.00000000000E+00 -0.00000000000E+00 -0.44861711066E+03  0.44861711066E+03  0.00000000000E+00 0.  1.
          2    1    1    2  501    0 -0.73548270566E+01  0.42868217021E+02 -0.41282390368E+03  0.41510884471E+03  0.00000000000E+00 0.  1.
          2    1    1    2  502    0  0.73548270566E+01 -0.42868217021E+02 -0.21001838172E+02  0.48299634763E+02  0.00000000000E+00 0.  1.
</event>
<event>
 4    1  0.6225520E+003  0.3676315E+02  0.7546771E-02  0.1368574E+00
          2   -1    0    0  501    0  0.00000000000E+00  0.00000000000E+00  0.13098760991E+02  0.13098760991E+02  0.00000000000E+00 0. -1.
          2   -1    0    0  502    0 -0.00000000000E+00 -0.00000000000E+00 -0.14606437531E+03  0.14606437531E+03  0.00000000000E+00 0.  1.
          2    1    1    2  501    0  0.25683761978E+02  0.26303486343E+02 -0.10960395602E+03  0.11560517375E+03  0.00000000000E+00 0.  1.
          2    1    1    2  502    0 -0.25683761978E+02 -0.26303486343E+02 -0.23361658306E+02  0.43557962556E+02  0.00000000000E+00 0. -1.
</event>
<event>
 4    1  0.6225520E+003  0.2651125E+02  0.7546771E-02  0.1452580E+00
          2   -1    0    0  502    0  0.00000000000E+00  0.00000000000E+00  0.18327824672E+03  0.18327824672E+03  0.00000000000E+00 0. -1.
          2   -1    0    0  501    0 -0.00000000000E+00 -0.00000000000E+00 -0.59502672518E+03  0.59502672518E+03  0.00000000000E+00 0.  1.
          2    1    1    2  501    0  0.34128932316E+01 -0.26290659652E+02  0.18202220397E+03  0.18394273392E+03  0.00000000000E+00 0. -1.
          2    1    1    2  502    0 -0.34128932316E+01  0.26290659652E+02 -0.59377068242E+03  0.59436223797E+03  0.00000000000E+00 0.  1.
</event>
<event>
 4    1  0.6225520E+003  0.2545323E+02  0.7546771E-02  0.1463796E+00
          2   -1    0    0  501    0  0.00000000000E+00  0.00000000000E+00  0.87681341807E+02  0.87681341807E+02  0.00000000000E+00 0. -1.
          2   -1    0    0  502    0 -0.00000000000E+00 -0.00000000000E+00 -0.75367066556E+01  0.75367066556E+01  0.00000000000E+00 0. -1.
          2    1    1    2  501    0 -0.24134908975E+02  0.80853602703E+01  0.33404628065E+02  0.41996857717E+02  0.00000000000E+00 0. -1.
          2    1    1    2  502    0  0.24134908975E+02 -0.80853602703E+01  0.46740007087E+02  0.53221190746E+02  0.00000000000E+00 0. -1.
</event>
<event>
 4    1  0.6225520E+003  0.2993674E+02  0.7546771E-02  0.1420147E+00
          2   -1    0    0  501    0  0.00000000000E+00  0.00000000000E+00  0.24884784655E+04  0.24884784655E+04  0.00000000000E+00 0.  1.
          2   -1    0    0  502    0 -0.00000000000E+00 -0.00000000000E+00 -0.75579833989E+00  0.75579833989E+00  0.00000000000E+00 0. -1.
          2    1    1    2  501    0  0.29771966009E+02  0.31366736649E+01  0.34334582770E+03  0.34464846740E+03  0.00000000000E+00 0. -1.
          2    1    1    2  502    0 -0.29771966009E+02 -0.31366736649E+01  0.21443768395E+04  0.21445857964E+04  0.00000000000E+00 0.  1.
</event>
<event>
 4    1  0.6225520E+003  0.2139718E+02  0.7546771E-02  0.1513669E+00
          2   -1    0    0  501    0  0.00000000000E+00  0.00000000000E+00  0.72348180519E+03  0.72348180519E+03  0.00000000000E+00 0.  1.
          2   -1    0    0  502    0 -0.00000000000E+00 -0.00000000000E+00 -0.17065520012E+03  0.17065520012E+03  0.00000000000E+00 0.  1.
          2    1    1    2  501    0 -0.20676221945E+02  0.55075662691E+01 -0.16982551497E+03  0.17116817746E+03  0.00000000000E+00 0.  1.
          2    1    1    2  502    0  0.20676221945E+02 -0.55075662691E+01  0.72265212004E+03  0.72296882785E+03  0.00000000000E+00 0.  1.
</event>
<event>
 4    1  0.6225520E+003  0.2858811E+02  0.7546771E-02  0.1432276E+00
          2   -1    0    0  501    0  0.00000000000E+00  0.00000000000E+00  0.29416421979E+02  0.29416421979E+02  0.00000000000E+00 0. -1.
          2   -1    0    0  502    0 -0.00000000000E+00 -0.00000000000E+00 -0.13213808708E+03  0.13213808708E+03  0.00000000000E+00 0. -1.
          2    1    1    2  501    0  0.85964890692E+01  0.27265003553E+02 -0.12314549109E+03  0.12642029908E+03  0.00000000000E+00 0. -1.
          2    1    1    2  502    0 -0.85964890692E+01 -0.27265003553E+02  0.20423825989E+02  0.35134209982E+02  0.00000000000E+00 0. -1.
</event>
<event>
 4    1  0.6225520E+003  0.4527603E+02  0.7546771E-02  0.1320065E+00
          2   -1    0    0  502    0  0.00000000000E+00  0.00000000000E+00  0.11413368802E+04  0.11413368802E+04  0.00000000000E+00 0.  1.
          2   -1    0    0  501    0 -0.00000000000E+00 -0.00000000000E+00 -0.44710742227E+03  0.44710742227E+03  0.00000000000E+00 0. -1.
          2    1    1    2  501    0 -0.59054960069E+01  0.44889244414E+02  0.11397400461E+04  0.11406389840E+04  0.00000000000E+00 0.  1.
          2    1    1    2  502    0  0.59054960069E+01 -0.44889244414E+02 -0.44551058813E+03  0.44780531851E+03  0.00000000000E+00 0. -1.
</event>
<event>
 4    1  0.6225520E+003  0.2533807E+02  0.7546771E-02  0.1465057E+00
          2   -1    0    0  502    0  0.00000000000E+00  0.00000000000E+00  0.63000636339E+00  0.63000636339E+00  0.00000000000E+00 0. -1.
          2   -1    0    0  501    0 -0.00000000000E+00 -0.00000000000E+00 -0.14594263757E+04  0.14594263757E+04  0.00000000000E+00 0.  1.
          2    1    1    2  501    0  0.23802712972E+02  0.86861214288E+01 -0.32839038434E+03  0.32936645606E+03  0.00000000000E+00 0. -1.
          2    1    1    2  502    0 -0.23802712972E+02 -0.86861214288E+01 -0.11304059850E+04  0.11306899260E+04  0.00000000000E+00 0.  1.
</event>
<event>
 4    1  0.6225520E+003  0.2342340E+02  0.7546771E-02  0.1487249E+00
          2   -1    0    0  502    0  0.00000000000E+00  0.00000000000E+00  0.18777407606E+03  0.18777407606E+03  0.00000000000E+00 0. -1.
          2   -1    0    0  501    0 -0.00000000000E+00 -0.00000000000E+00 -0.17252768897E+04  0.17252768897E+04  0.00000000000E+00 0. -1.
          2    1    1    2  501    0  0.22743278145E+02 -0.56034599649E+01  0.18696375744E+03  0.18842532224E+03  0.00000000000E+00 0. -1.
          2    1    1    2  502    0 -0.22743278145E+02  0.56034599649E+01 -0.17244665711E+04  0.17246256436E+04  0.00000000000E+00 0. -1.
</event>
<event>
 4    1  0.6225520E+003  0.2330300E+02  0.7546771E-02  0.1488728E+00
          2   -1    0    0  501    0  0.00000000000E+00  0.00000000000E+00  0.60056117903E+03  0.60056117903E+03  0.00000000000E+00 0. -1.
          2   -1    0    0  502    0 -0.00000000000E+00 -0.00000000000E+00 -0.52994492469E+02  0.52994492469E+02  0.00000000000E+00 0.  1.
          2    1    1    2  501    0  0.23273844234E+02  0.11652370698E+01 -0.50194721005E+02  0.55340217018E+02  0.00000000000E+00 0.  1.
          2    1    1    2  502    0 -0.23273844234E+02 -0.11652370698E+01  0.59776140757E+03  0.59821545448E+03  0.00000000000E+00 0. -1.
</event>
<event>
 4    1  0.6225520E+003  0.3401857E+02  0.7546771E-02  0.1387597E+00
          2   -1    0    0  501    0  0.00000000000E+00  0.00000000000E+00  0.66317914681E+03  0.66317914681E+03  0.00000000000E+00 0.  1.
          2   -1    0    0  502    0 -0.00000000000E+00 -0.00000000000E+00 -0.84785146096E+01  0.84785146096E+01  0.00000000000E+00 0. -1.
          2    1    1    2  501    0 -0.34007824932E+02 -0.85488324616E+00  0.28069935955E+02  0.44104243407E+02  0.00000000000E+00 0. -1.
          2    1    1    2  502    0  0.34007824932E+02  0.85488324616E+00  0.62663069624E+03  0.62755341801E+03  0.00000000000E+00 0.  1.
</event>
<event>
 4    1  0.6225520E+003  0.2373960E+02  0.7546771E-02  0.1483414E+00
          2   -1    0    0  502    0  0.00000000000E+00  0.00000000000E+00  0.98150533451E+02  0.98150533451E+02  0.00000000000E+00 0. -1.
          2   -1    0    0  501    0 -0.00000000000E+00 -0.00000000000E+00 -0.30599218805E+02  0.30599218805E+02  0.00000000000E+00 0.  1.
          2    1    1    2  501    0 -0.23187602366E+02 -0.50895761853E+01  0.91797102709E+02  0.94817069956E+02  0.00000000000E+00 0. -1.
          2    1    1    2  502    0  0.23187602366E+02  0.50895761853E+01 -0.24245788064E+02  0.33932682300E+02  0.00000000000E+00 0.  1.
</event>
<event>
 4    1  0.6225520E+003  0.3086404E+02  0.7546771E-02  0.1412233E+00
          2   -1    0    0  502    0  0.00000000000E+00  0.00000000000E+00  0.12835580333E+02  0.12835580333E+02  0.00000000000E+00 0.  1.
          2   -1    0    0  501    0 -0.00000000000E+00 -0.00000000000E+00 -0.10317912353E+03  0.10317912353E+03  0.00000000000E+00 0.  1.
          2    1    1    2  501    0  0.24919088303E+02 -0.18210649560E+02 -0.14437736572E+02  0.34073992378E+02  0.00000000000E+00 0.  1.
          2    1    1    2  502    0 -0.24919088303E+02  0.18210649560E+02 -0.75905806622E+02  0.81940711482E+02  0.00000000000E+00 0.  1.
</event>
<event>
 4    1  0.6225520E+003  0.2071412E+02  0.7546771E-02  0.1523386E+00
          2   -1    0    0  502    0  0.00000000000E+00  0.00000000000E+00  0.24623955120E+01  0.24623955120E+01  0.00000000000E+00 0. -1.
          2   -1    0    0  501    0 -0.00000000000E+00 -0.00000000000E+00 -0.25322736096E+03  0.25322736096E+03  0.00000000000E+00 0. -1.
          2    1    1    2  501    0  0.11805598927E+02  0.17020649943E+02 -0.53986004359E+02  0.57823553654E+02  0.00000000000E+00 0. -1.
          2    1    1    2  502    0 -0.11805598927E+02 -0.17020649943E+02 -0.19677896108E+03  0.19786620281E+03  0.00000000000E+00 0. -1.
</event>
<event>
 4    1  0.6225520E+003  0.2260589E+02  0.7546771E-02  0.1497507E+00
          2   -1    0    0  502    0  0.00000000000E+00  0.00000000000E+00  0.66347029126E+00  0.66347029126E+00  0.00000000000E+00 0.  1.
          2   -1    0    0  501    0 -0.00000000000E+00 -0.00000000000E+00 -0.16469920833E+04  0.16469920833E+04  0.00000000000E+00 0. -1.
          2    1    1    2  501    0  0.16251120124E+02  0.15713926328E+02 -0.22208616623E+03  0.22323371523E+03  0.00000000000E+00 0.  1.
          2    1    1    2  502    0 -0.16251120124E+02 -0.15713926328E+02 -0.14242424468E+04  0.14244218384E+04  0.00000000000E+00 0. -1.
</event>
<event>
 4    1  0.6225520E+003  0.5776474E+02  0.7546771E-02  0.1267622E+00
          2   -1    0    0  502    0  0.00000000000E+00  0.00000000000E+00  0.35044485346E+04  0.35044485346E+04  0.00000000000E+00 0.  1.
          2   -1    0    0  501    0 -0.00000000000E+00 -0.00000000000E+00 -0.57720692179E+01  0.57720692179E+01  0.00000000000E+00 0.  1.
          2    1    1    2  501    0  0.53110207903E+02  0.22717193226E+02  0.33531687528E+04  0.33536662698E+04  0.00000000000E+00 0.  1.
          2    1    1    2  502    0 -0.53110207903E+02 -0.22717193226E+02  0.14550771264E+03  0.15655433398E+03  0.00000000000E+00 0.  1.
</event>
<event>
 4    1  0.6225520E+003  0.2430155E+02  0.7546771E-02  0.1476771E+00
          2   -1    0    0  501    0  0.00000000000E+00  0.00000000000E+00  0.20684173166E+02  0.20684173166E+02  0.00000000000E+00 0. -1.
          2   -1    0    0  502    0 -0.00000000000E+00 -0.00000000000E+00 -0.32159719565E+02  0.32159719565E+02  0.00000000000E+00 0. -1.
          2    1    1    2  501    0  0.84121814639E+01 -0.22799129766E+02 -0.14587959430E+02  0.28343847223E+02  0.00000000000E+00 0. -1.
          2    1    1    2  502    0 -0.84121814639E+01  0.22799129766E+02  0.31124130313E+01  0.24500045509E+02  0.00000000000E+00 0. -1.
</event>
<event>
 4    1  0.6225520E+003  0.2708865E+02  0.7546771E-02  0.1446720E+00
          2   -1    0    0  502    0  0.00000000000E+00  0.00000000000E+00  0.11727226726E+02  0.11727226726E+02  0.00000000000E+00 0.  1.
          2   -1    0    0  501    0 -0.00000000000E+00 -0.00000000000E+00 -0.66092522522E+02  0.66092522522E+02  0.00000000000E+00 0.  1.
          2    1    1    2  501    0 -0.25483587706E+02 -0.91859381799E+01 -0.18202278193E+02  0.32636139998E+02  0.00000000000E+00 0.  1.
          2    1    1    2  502    0  0.25483587706E+02  0.91859381799E+01 -0.36163017603E+02  0.45183609249E+02  0.00000000000E+00 0.  1.
</event>
<event>
 4    1  0.6225520E+003  0.3377018E+02  0.7546771E-02  0.1389422E+00
          2   -1    0    0  501    0  0.00000000000E+00  0.00000000000E+00  0.42168653613E+01  0.42168653613E+01  0.00000000000E+00 0. -1.
          2   -1    0    0  502    0 -0.00000000000E+00 -0.00000000000E+00 -0.56601631545E+03  0.56601631545E+03  0.00000000000E+00 0. -1.
          2    1    1    2  501    0  0.72582040265E+01 -0.32980952516E+02 -0.48693429549E+03  0.48810391607E+03  0.00000000000E+00 0. -1.
          2    1    1    2  502    0 -0.72582040265E+01  0.32980952516E+02 -0.74865154599E+02  0.82129264746E+02  0.00000000000E+00 0. -1.
</event>
<event>
 4    1  0.6225520E+003  0.4463896E+02  0.7546771E-02  0.1323255E+00
          2   -1    0    0  501    0  0.00000000000E+00  0.00000000000E+00  0.95901947654E+02  0.95901947654E+02  0.00000000000E+00 0.  1.
          2   -1    0    0  502    0 -0.00000000000E+00 -0.00000000000E+00 -0.15687372934E+03  0.15687372934E+03  0.00000000000E+00 0.  1.
          2    1    1    2  501    0 -0.24536426020E+02  0.37290761458E+02 -0.14820654060E+03  0.15478312495E+03  0.00000000000E+00 0.  1.
          2    1    1    2  502    0  0.24536426020E+02 -0.37290761458E+02  0.87234758919E+02  0.97992552041E+02  0.00000000000E+00 0.  1.
</event>
<event>
 4    1  0.6225520E+003  0.4810377E+02  0.7546771E-02  0.1306610E+00
          2   -1    0    0  501    0  0.00000000000E+00  0.00000000000E+00  0.83032836032E+01  0.83032836032E+01  0.00000000000E+00 0. -1.
          2   -1    0    0  502    0 -0.00000000000E+00 -0.00000000000E+00 -0.29774043473E+03  0.29774043473E+03  0.00000000000E+00 0. -1.
          2    1    1    2  501    0 -0.47444901143E+02 -0.79343445428E+01 -0.18343387200E+03  0.18963638328E+03  0.00000000000E+00 0. -1.
          2    1    1    2  502    0  0.47444901143E+02  0.79343445428E+01 -0.10600327912E+03  0.11640733505E+03  0.00000000000E+00 0. -1.
</event>
<event>
 4    1  0.6225520E+003  0.2165461E+02  0.7546771E-02  0.1510120E+00
          2   -1    0    0  502    0  0.00000000000E+00  0.00000000000E+00  0.42427952258E+01  0.42427952258E+01  0.00000000000E+00 0. -1.
          2   -1    0    0  501    0 -0.00000000000E+00 -0.00000000000E+00 -0.61841230374E+03  0.61841230374E+03  0.00000000000E+00 0.  1.
          2    1    1    2  501    0  0.97012094782E+01  0.19359978806E+02 -0.24945541506E+02  0.33033351113E+02  0.00000000000E+00 0. -1.
          2    1    1    2  502    0 -0.97012094782E+01 -0.19359978806E+02 -0.58922396701E+03  0.58962174786E+03  0.00000000000E+00 0.  1.
</event>
<event>
 4    1  0.6225520E+003  0.2054039E+02  0.7546771E-02  0.1525929E+00
          2   -1    0    0  502    0  0.00000000000E+00  0.00000000000E+00  0.28711987362E+01  0.28711987362E+01  0.00000000000E+00 0. -1.
          2   -1    0    0  501    0 -0.00000000000E+00 -0.00000000000E+00 -0.14903023521E+04  0.14903023521E+04  0.00000000000E+00 0. -1.
          2    1    1    2  501    0  0.17486454238E+02 -0.10776437345E+02 -0.34890763238E+02  0.40487937006E+02  0.00000000000E+00 0. -1.
          2    1    1    2  502    0 -0.17486454238E+02  0.10776437345E+02 -0.14525403901E+04  0.14526856138E+04  0.00000000000E+00 0. -1.
</event>
<event>
 4    1  0.6225520E+003  0.7508683E+02  0.7546771E-02  0.1215737E+00
          2   -1    0    0  502    0  0.00000000000E+00  0.00000000000E+00  0.10501985531E+02  0.10501985531E+02  0.00000000000E+00 0. -1.
          2   -1    0    0  501    0 -0.00000000000E+00 -0.00000000000E+00 -0.27748785088E+04  0.27748785088E+04  0.00000000000E+00 0.  1.
          2    1    1    2  501    0 -0.74883728648E+02  0.55189935256E+01 -0.13145420823E+03  0.15138771736E+03  0.00000000000E+00 0. -1.
          2    1    1    2  502    0  0.74883728648E+02 -0.55189935256E+01 -0.26329223151E+04  0.26339927770E+04  0.00000000000E+00 0.  1.
</event>
<event>
 4    1  0.6225520E+003  0.3400671E+02  0.7546771E-02  0.1387684E+00
          2   -1    0    0  502    0  0.00000000000E+00  0.00000000000E+00  0.38710019487E+02  0.38710019487E+02  0.00000000000E+00 0.  1.
          2   -1    0    0  501    0 -0.00000000000E+00 -0.00000000000E+00 -0.88536232628E+02  0.88536232628E+02  0.00000000000E+00 0.  1.
          2    1    1    2  501    0  0.33651907835E+02  0.48995621415E+01  0.26875064803E+02  0.43344269728E+02  0.00000000000E+00 0.  1.
          2    1    1    2  502    0 -0.33651907835E+02 -0.48995621415E+01 -0.76701277944E+02  0.83901982386E+02  0.00000000000E+00 0.  1.
</event>
<event>
 4    1  0.6225520E+003  0.2582847E+02  0.7546771E-02  0.1459745E+00
          2   -1    0    0  501    0  0.00000000000E+00  0.00000000000E+00  0.11381642691E+03  0.11381642691E+03  0.00000000000E+00 0. -1.
          2   -1    0    0  502    0 -0.00000000000E+00 -0.00000000000E+00 -0.32613164251E+03  0.32613164251E+03  0.00000000000E+00 0. -1.
          2    1    1    2  501    0  0.17914415308E+02  0.18606009477E+02 -0.32414597978E+03  0.32517337848E+03  0.00000000000E+00 0. -1.
          2    1    1    2  502    0 -0.17914415308E+02 -0.18606009477E+02  0.11183076418E+03  0.11477469094E+03  0.00000000000E+00 0. -1.
</event>
<event>
 4    1  0.6225520E+003  0.3271920E+02  0.7546771E-02  0.1397348E+00
          2   -1    0    0  501    0  0.00000000000E+00  0.00000000000E+00  0.60632027830E+00  0.60632027830E+00  0.00000000000E+00 0.  1.
          2   -1    0    0  502    0 -0.00000000000E+00 -0.00000000000E+00 -0.18989218662E+04  0.18989218662E+04  0.00000000000E+00 0.  1.
          2    1    1    2  501    0 -0.28226205356E+02  0.16547736650E+02 -0.12007747167E+04  0.12012204071E+04  0.00000000000E+00 0.  1.
          2    1    1    2  502    0  0.28226205356E+02 -0.16547736650E+02 -0.69754082932E+03  0.69830777944E+03  0.00000000000E+00 0.  1.
</event>
<event>
 4    1  0.6225520E+003  0.6217023E+02  0.7546771E-02  0.1252632E+00
          2   -1    0    0  501    0  0.00000000000E+00  0.00000000000E+00  0.32849373621E+03  0.32849373621E+03  0.00000000000E+00 0.  1.
          2   -1    0    0  502    0 -0.00000000000E+00 -0.00000000000E+00 -0.30593332515E+03  0.30593332515E+03  0.00000000000E+00 0. -1.
          2    1    1    2  501    0  0.51981933389E+02  0.34103015694E+02 -0.29977347663E+03  0.30615237116E+03  0.00000000000E+00 0. -1.
          2    1    1    2  502    0 -0.51981933389E+02 -0.34103015694E+02  0.32233388768E+03  0.32827469020E+03  0.00000000000E+00 0.  1.
</event>
<event>
 4    1  0.6225520E+003  0.2018401E+02  0.7546771E-02  0.1531241E+00
          2   -1    0    0  501    0  0.00000000000E+00  0.00000000000E+00  0.26816386575E+01  0.26816386575E+01  0.00000000000E+00 0. -1.
          2   -1    0    0  502    0 -0.00000000000E+00 -0.00000000000E+00 -0.34366330760E+03  0.34366330760E+03  0.00000000000E+00 0.  1.
          2    1    1    2  501    0 -0.20118668013E+02  0.16227604322E+01 -0.29984265601E+03  0.30052123472E+03  0.00000000000E+00 0.  1.
          2    1    1    2  502    0  0.20118668013E+02 -0.16227604322E+01 -0.41139012928E+02  0.45823711533E+02  0.00000000000E+00 0. -1.
</event>
<event>
 4    1  0.6225520E+003  0.3990011E+02  0.7546771E-02  0.1349072E+00
          2   -1    0    0  501    0  0.00000000000E+00  0.00000000000E+00  0.83513769463E+02  0.83513769463E+02  0.00000000000E+00 0.  1.
          2   -1    0    0  502    0 -0.00000000000E+00 -0.00000000000E+00 -0.30078967674E+03  0.30078967674E+03  0.00000000000E+00 0. -1.
          2    1    1    2  501    0 -0.37720485267E+01 -0.39721405831E+02 -0.29460108396E+03  0.29729079552E+03  0.00000000000E+00 0. -1.
          2    1    1    2  502    0  0.37720485267E+01  0.39721405831E+02  0.77325176677E+02  0.87012650686E+02  0.00000000000E+00 0.  1.
</event>
<event>
 4    1  0.6225520E+003  0.2162831E+02  0.7546771E-02  0.1510480E+00
          2   -1    0    0  501    0  0.00000000000E+00  0.00000000000E+00  0.14984048817E+01  0.14984048817E+01  0.00000000000E+00 0. -1.
          2   -1    0    0  502    0 -0.00000000000E+00 -0.00000000000E+00 -0.38537575312E+03  0.38537575312E+03  0.00000000000E+00 0. -1.
          2    1    1    2  501    0  0.73965775138E+00 -0.21615656112E+02 -0.10764064643E+03  0.10979204181E+03  0.00000000000E+00 0. -1.
          2    1    1    2  502    0 -0.73965775138E+00  0.21615656112E+02 -0.27623670181E+03  0.27708211618E+03  0.00000000000E+00 0. -1.
</event>
<event>
 4    1  0.6225520E+003  0.2274027E+02  0.7546771E-02  0.1495786E+00
          2   -1    0    0  502    0  0.00000000000E+00  0.00000000000E+00  0.11200571929E+04  0.11200571929E+04  0.00000000000E+00 0. -1.
          2   -1    0    0  501    0 -0.00000000000E+00 -0.00000000000E+00 -0.31518624287E+03  0.31518624287E+03  0.00000000000E+00 0.  1.
          2    1    1    2  501    0  0.10254288012E+02  0.20297033742E+02  0.11195314075E+04  0.11197623374E+04  0.00000000000E+00 0. -1.
          2    1    1    2  502    0 -0.10254288012E+02 -0.20297033742E+02 -0.31466045739E+03  0.31548109840E+03  0.00000000000E+00 0.  1.
</event>
<event>
 4    1  0.6225520E+003  0.6118033E+02  0.7546771E-02  0.1255874E+00
          2   -1    0    0  501    0  0.00000000000E+00  0.00000000000E+00  0.18085637719E+04  0.18085637719E+04  0.00000000000E+00 0. -1.
          2   -1    0    0  502    0 -0.00000000000E+00 -0.00000000000E+00 -0.30333665004E+03  0.30333665004E+03  0.00000000000E+00 0. -1.
          2    1    1    2  501    0  0.14805985949E+02 -0.59361733054E+02 -0.29972819731E+03  0.30590852363E+03  0.00000000000E+00 0. -1.
          2    1    1    2  502    0 -0.14805985949E+02  0.59361733054E+02  0.18049553192E+04  0.18059918983E+04  0.00000000000E+00 0. -1.
</event>
<event>
 4    1  0.6225520E+003  0.2863120E+02  0.7546771E-02  0.1431876E+00
          2   -1    0    0  502    0  0.00000000000E+00  0.00000000000E+00  0.11034144449E+04  0.11034144449E+04  0.00000000000E+00 0. -1.
          2   -1    0    0  501    0 -0.00000000000E+00 -0.00000000000E+00 -0.15302770471E+03  0.15302770471E+03  0.00000000000E+00 0. -1.
          2    1    1    2  501    0  0.21424534675E+02 -0.18993017209E+02  0.11018876496E+04  0.11022595600E+04  0.00000000000E+00 0. -1.
          2    1    1    2  502    0 -0.21424534675E+02  0.18993017209E+02 -0.15150090938E+03  0.15418258958E+03  0.00000000000E+00 0. -1.
</event>
<event>
 4    1  0.6225520E+003  0.2028107E+02  0.7546771E-02  0.1529782E+00
          2   -1    0    0  501    0  0.00000000000E+00  0.00000000000E+00  0.24352817038E+01  0.24352817038E+01  0.00000000000E+00 0. -1.
          2   -1    0    0  502    0 -0.00000000000E+00 -0.00000000000E+00 -0.79556119244E+03  0.79556119244E+03  0.00000000000E+00 0.  1.
          2    1    1    2  501    0  0.15451253323E+02 -0.13136992107E+02 -0.75068274407E+03  0.75095665923E+03  0.00000000000E+00 0.  1.
          2    1    1    2  502    0 -0.15451253323E+02  0.13136992107E+02 -0.42443166666E+02  0.47039814918E+02  0.00000000000E+00 0. -1.
</event>
<event>
 4    1  0.6225520E+003  0.6823881E+02  0.7546771E-02  0.1234147E+00
          2   -1    0    0  501    0  0.00000000000E+00  0.00000000000E+00  0.12350134479E+03  0.12350134479E+03  0.00000000000E+00 0. -1.
          2   -1    0    0  502    0 -0.00000000000E+00 -0.00000000000E+00 -0.17275994508E+03  0.17275994508E+03  0.00000000000E+00 0.  1.
          2    1    1    2  501    0  0.60723932998E+02 -0.31131002768E+02 -0.15560167690E+03  0.16990708410E+03  0.00000000000E+00 0.  1.
          2    1    1    2  502    0 -0.60723932998E+02  0.31131002768E+02  0.10634307661E+03  0.12635420577E+03  0.00000000000E+00 0. -1.
</event>
<event>
 4    1  0.6225520E+003  0.2109885E+02  0.7546771E-02  0.1517858E+00
          2   -1    0    0  502    0  0.00000000000E+00  0.00000000000E+00  0.10186822060E+02  0.10186822060E+02  0.00000000000E+00 0. -1.
          2   -1    0    0  501    0 -0.00000000000E+00 -0.00000000000E+00 -0.56646234302E+03  0.56646234302E+03  0.00000000000E+00 0.  1.
          2    1    1    2  501    0  0.92133939356E+00 -0.21078719255E+02 -0.11577585735E+01  0.21130586283E+02  0.00000000000E+00 0. -1.
          2    1    1    2  502    0 -0.92133939356E+00  0.21078719255E+02 -0.55511776239E+03  0.55551857880E+03  0.00000000000E+00 0.  1.
</event>
<event>
 4    1  0.6225520E+003  0.2750147E+02  0.7546771E-02  0.1442635E+00
          2   -1    0    0  502    0  0.00000000000E+00  0.00000000000E+00  0.32520778171E+02  0.32520778171E+02  0.00000000000E+00 0.  1.
          2   -1    0    0  501    0 -0.00000000000E+00 -0.00000000000E+00 -0.29956229086E+02  0.29956229086E+02  0.00000000000E+00 0. -1.
          2    1    1    2  501    0 -0.12584683695E+02 -0.24453152900E+02  0.16055109197E+02  0.31844897264E+02  0.00000000000E+00 0.  1.
          2    1    1    2  502    0  0.12584683695E+02  0.24453152900E+02 -0.13490560113E+02  0.30632109993E+02  0.00000000000E+00 0. -1.
</event>
<event>
 4    1  0.6225520E+003  0.4171502E+02  0.7546771E-02  0.1338719E+00
          2   -1    0    0  501    0  0.00000000000E+00  0.00000000000E+00  0.51945011393E+02  0.51945011393E+02  0.00000000000E+00 0. -1.
          2   -1    0    0  502    0 -0.00000000000E+00 -0.00000000000E+00 -0.13810663569E+04  0.13810663569E+04  0.00000000000E+00 0.  1.
          2    1    1    2  501    0 -0.17275454220E+02  0.37969747536E+02 -0.13723230828E+04  0.13729569500E+04  0.00000000000E+00 0.  1.
          2    1    1    2  502    0  0.17275454220E+02 -0.37969747536E+02  0.43201737300E+02  0.60054418257E+02  0.00000000000E+00 0. -1.
</event>
<event>
 4    1  0.6225520E+003  0.2954724E+02  0.7546771E-02  0.1423572E+00
          2   -1    0    0  502    0  0.00000000000E+00  0.00000000000E+00  0.10752804468E+04  0.10752804468E+04  0.00000000000E+00 0.  1.
          2   -1    0    0  501    0 -0.00000000000E+00 -0.00000000000E+00 -0.14072188390E+02  0.14072188390E+02  0.00000000000E+00 0.  1.
          2    1    1    2  501    0  0.43940541377E+01  0.29218691020E+02  0.10593340178E+04  0.10597460077E+04  0.00000000000E+00 0.  1.
          2    1    1    2  502    0 -0.43940541377E+01 -0.29218691020E+02  0.18742406926E+01  0.29606627550E+02  0.00000000000E+00 0.  1.
</event>
<event>
 4    1  0.6225520E+003  0.2030162E+02  0.7546771E-02  0.1529474E+00
          2   -1    0    0  502    0  0.00000000000E+00  0.00000000000E+00  0.46594356375E+03  0.46594356375E+03  0.00000000000E+00 0.  1.
          2   -1    0    0  501    0 -0.00000000000E+00 -0.00000000000E+00 -0.35046795626E+01  0.35046795626E+01  0.00000000000E+00 0.  1.
          2    1    1    2  501    0  0.18464499736E+02  0.84390768061E+01  0.43417174786E+03  0.43464613470E+03  0.00000000000E+00 0.  1.
          2    1    1    2  502    0 -0.18464499736E+02 -0.84390768061E+01  0.28267136324E+02  0.34802108611E+02  0.00000000000E+00 0.  1.
</event>
<event>
 4    1  0.6225520E+003  0.2196501E+02  0.7546771E-02  0.1505920E+00
          2   -1    0    0  502    0  0.00000000000E+00  0.00000000000E+00  0.16148483714E+01  0.16148483714E+01  0.00000000000E+00 0.  1.
          2   -1    0    0  501    0 -0.00000000000E+00 -0.00000000000E+00 -0.91797737504E+03  0.91797737504E+03  0.00000000000E+00 0.  1.
          2    1    1    2  501    0 -0.10983455927E+02  0.19021703719E+02 -0.80549229528E+02  0.83490358090E+02  0.00000000000E+00 0.  1.
          2    1    1    2  502    0  0.10983455927E+02 -0.19021703719E+02 -0.83581329714E+03  0.83610186532E+03  0.00000000000E+00 0.  1.
</event>
<event>
 4    1  0.6225520E+003  0.3008727E+02  0.7546771E-02  0.1418840E+00
          2   -1    0    0  502    0  0.00000000000E+00  0.00000000000E+00  0.44180279060E+03  0.44180279060E+03  0.00000000000E+00 0. -1.
          2   -1    0    0  501    0 -0.00000000000E+00 -0.00000000000E+00 -0.69515511034E+02  0.69515511034E+02  0.00000000000E+00 0. -1.
          2    1    1    2  501    0  0.29104109266E+02  0.76285296313E+01  0.43800682004E+03  0.43903897098E+03  0.00000000000E+00 0. -1.
          2    1    1    2  502    0 -0.29104109266E+02 -0.76285296313E+01 -0.65719540469E+02  0.72279330655E+02  0.00000000000E+00 0. -1.
</event>
<event>
 4    1  0.6225520E+003  0.2164009E+02  0.7546771E-02  0.1510319E+00
          2   -1    0    0  501    0  0.00000000000E+00  0.00000000000E+00  0.14630631454E+03  0.14630631454E+03  0.00000000000E+00 0. -1.
          2   -1    0    0  502    0 -0.00000000000E+00 -0.00000000000E+00 -0.25746659687E+02  0.25746659687E+02  0.00000000000E+00 0.  1.
          2    1    1    2  501    0 -0.19733037747E+02  0.88826178296E+01 -0.20221933002E+02  0.29617904257E+02  0.00000000000E+00 0.  1.
          2    1    1    2  502    0  0.19733037747E+02 -0.88826178296E+01  0.14078158786E+03  0.14243506997E+03  0.00000000000E+00 0. -1.
</event>
<event>
 4    1  0.6225520E+003  0.5190002E+02  0.7546771E-02  0.1290138E+00
          2   -1    0    0  502    0  0.00000000000E+00  0.00000000000E+00  0.26785550536E+04  0.26785550536E+04  0.00000000000E+00 0. -1.
          2   -1    0    0  501    0 -0.00000000000E+00 -0.00000000000E+00 -0.33162320254E+01  0.33162320254E+01  0.00000000000E+00 0.  1.
          2    1    1    2  501    0  0.22189329623E+01 -0.51852559749E+02  0.24569255522E+04  0.24574736582E+04  0.00000000000E+00 0. -1.
          2    1    1    2  502    0 -0.22189329623E+01  0.51852559749E+02  0.21831326936E+03  0.22439762743E+03  0.00000000000E+00 0.  1.
</event>
<event>
 4    1  0.6225520E+003  0.4792608E+02  0.7546771E-02  0.1307424E+00
          2   -1    0    0  502    0  0.00000000000E+00  0.00000000000E+00  0.73801671105E+03  0.73801671105E+03  0.00000000000E+00 0.  1.
          2   -1    0    0  501    0 -0.00000000000E+00 -0.00000000000E+00 -0.36945048177E+01  0.36945048177E+01  0.00000000000E+00 0.  1.
          2    1    1    2  501    0 -0.47908507016E+02 -0.12975994920E+01  0.51438389196E+03  0.51661174698E+03  0.00000000000E+00 0.  1.
          2    1    1    2  502    0  0.47908507016E+02  0.12975994920E+01  0.21993831427E+03  0.22509946889E+03  0.00000000000E+00 0.  1.
</event>
<event>
 4    1  0.6225520E+003  0.2193324E+02  0.7546771E-02  0.1506346E+00
          2   -1    0    0  502    0  0.00000000000E+00  0.00000000000E+00  0.39785566019E+01  0.39785566019E+01  0.00000000000E+00 0. -1.
          2   -1    0    0  501    0 -0.00000000000E+00 -0.00000000000E+00 -0.24905435329E+03  0.24905435329E+03  0.00000000000E+00 0.  1.
          2    1    1    2  501    0  0.19506026923E+02  0.10029053702E+02 -0.31789016906E+02  0.38621349023E+02  0.00000000000E+00 0. -1.
          2    1    1    2  502    0 -0.19506026923E+02 -0.10029053702E+02 -0.21328677978E+03  0.21441156087E+03  0.00000000000E+00 0.  1.
</event>
<event>
 4    1  0.6225520E+003  0.2781702E+02  0.7546771E-02  0.1439569E+00
          2   -1    0    0  502    0  0.00000000000E+00  0.00000000000E+00  0.46860728852E+03  0.46860728852E+03  0.00000000000E+00 0. -1.
          2   -1    0    0  501    0 -0.00000000000E+00 -0.00000000000E+00 -0.95033298069E+01  0.95033298069E+01  0.00000000000E+00 0. -1.
          2    1    1    2  501    0 -0.18433930835E+02  0.20832104858E+02  0.44684857732E+03  0.44771356630E+03  0.00000000000E+00 0. -1.
          2    1    1    2  502    0  0.18433930835E+02 -0.20832104858E+02  0.12255381399E+02  0.30397052030E+02  0.00000000000E+00 0. -1.
</event>
<event>
 4    1  0.6225520E+003  0.2709077E+02  0.7546771E-02  0.1446698E+00
          2   -1    0    0  501    0  0.00000000000E+00  0.00000000000E+00  0.17262278574E+04  0.17262278574E+04  0.00000000000E+00 0. -1.
          2   -1    0    0  502    0 -0.00000000000E+00 -0.00000000000E+00 -0.30884235941E+01  0.30884235941E+01  0.00000000000E+00 0. -1.
          2    1    1    2  501    0  0.14250582814E+02  0.23039758167E+02  0.58628565960E+02  0.64584969718E+02  0.00000000000E+00 0. -1.
          2    1    1    2  502    0 -0.14250582814E+02 -0.23039758167E+02  0.16645108678E+04  0.16647313113E+04  0.00000000000E+00 0. -1.
</event>
<event>
 4    1  0.6225520E+003  0.2290059E+02  0.7546771E-02  0.1493750E+00
          2   -1    0    0  502    0  0.00000000000E+00  0.00000000000E+00  0.47127991490E+03  0.47127991490E+03  0.00000000000E+00 0.  1.
          2   -1    0    0  501    0 -0.00000000000E+00 -0.00000000000E+00 -0.54361650114E+02  0.54361650114E+02  0.00000000000E+00 0.  1.
          2    1    1    2  501    0 -0.68251647666E+01  0.21859873306E+02  0.46857601135E+03  0.46913528470E+03  0.00000000000E+00 0.  1.
          2    1    1    2  502    0  0.68251647666E+01 -0.21859873306E+02 -0.51657746564E+02  0.56506280316E+02  0.00000000000E+00 0.  1.
</event>
<event>
 4    1  0.6225520E+003  0.2205553E+02  0.7546771E-02  0.1504711E+00
          2   -1    0    0  501    0  0.00000000000E+00  0.00000000000E+00  0.15425458056E+04  0.15425458056E+04  0.00000000000E+00 0.  1.
          2   -1    0    0  502    0 -0.00000000000E+00 -0.00000000000E+00 -0.43761417681E+01  0.43761417681E+01  0.00000000000E+00 0.  1.
          2    1    1    2  501    0  0.22035208574E+02 -0.94652643838E+00  0.24013389514E+02  0.32605048768E+02  0.00000000000E+00 0.  1.
          2    1    1    2  502    0 -0.22035208574E+02  0.94652643838E+00  0.15141562743E+04  0.15143168986E+04  0.00000000000E+00 0.  1.
</event>
<event>
 4    1  0.6225520E+003  0.2134437E+02  0.7546771E-02  0.1514405E+00
          2   -1    0    0  501    0  0.00000000000E+00  0.00000000000E+00  0.15287161223E+03  0.15287161223E+03  0.00000000000E+00 0. -1.
          2   -1    0    0  502    0 -0.00000000000E+00 -0.00000000000E+00 -0.34861167229E+01  0.34861167229E+01  0.00000000000E+00 0. -1.
          2    1    1    2  501    0  0.94416624711E+01  0.19142544994E+02  0.44909322260E+02  0.49723528082E+02  0.00000000000E+00 0. -1.
          2    1    1    2  502    0 -0.94416624711E+01 -0.19142544994E+02  0.10447617324E+03  0.10663420087E+03  0.00000000000E+00 0. -1.
</event>
<event>
 4    1  0.6225520E+003  0.2020197E+02  0.7546771E-02  0.1530970E+00
          2   -1    0    0  501    0  0.00000000000E+00  0.00000000000E+00  0.82939058520E+03  0.82939058520E+03  0.00000000000E+00 0.  1.
          2   -1    0    0  502    0 -0.00000000000E+00 -0.00000000000E+00 -0.76437090835E+03  0.76437090835E+03  0.00000000000E+00 0.  1.
          2    1    1    2  501    0  0.19960739915E+02  0.31125978074E+01 -0.76411436708E+03  0.76438137430E+03  0.00000000000E+00 0.  1.
          2    1    1    2  502    0 -0.19960739915E+02 -0.31125978074E+01  0.82913404393E+03  0.82938011925E+03  0.00000000000E+00 0.  1.
</event>
<event>
 4    1  0.6225520E+003  0.2089468E+02  0.7546771E-02  0.1520774E+00
          2   -1    0    0  501    0  0.00000000000E+00  0.00000000000E+00  0.11292353070E+04  0.11292353070E+04  0.00000000000E+00 0.  1.
          2   -1    0    0  502    0 -0.00000000000E+00 -0.00000000000E+00 -0.14037410515E+01  0.14037410515E+01  0.00000000000E+00 0.  1.
          2    1    1    2  501    0 -0.20024233881E+02  0.59680521842E+01  0.82703939444E+02  0.85302574340E+02  0.00000000000E+00 0.  1.
          2    1    1    2  502    0  0.20024233881E+02 -0.59680521842E+01  0.10451276265E+04  0.10453364737E+04  0.00000000000E+00 0.  1.
</event>
<event>
 4    1  0.6225520E+003  0.2640522E+02  0.7546771E-02  0.1453676E+00
          2   -1    0    0  502    0  0.00000000000E+00  0.00000000000E+00  0.79617983735E+02  0.79617983735E+02  0.00000000000E+00 0.  1.
          2   -1    0    0  501    0 -0.00000000000E+00 -0.00000000000E+00 -0.90730848607E+01  0.90730848607E+01  0.00000000000E+00 0. -1.
          2    1    1    2  501    0 -0.26380056711E+02  0.11524834196E+01  0.43546032121E+02  0.50926344102E+02  0.00000000000E+00 0.  1.
          2    1    1    2  502    0  0.26380056711E+02 -0.11524834196E+01  0.26998866753E+02  0.37764724493E+02  0.00000000000E+00 0. -1.
</event>
<event>
 4    1  0.6225520E+003  0.2299711E+02  0.7546771E-02  0.1492534E+00
          2   -1    0    0  502    0  0.00000000000E+00  0.00000000000E+00  0.10302086392E+03  0.10302086392E+03  0.00000000000E+00 0. -1.
          2   -1    0    0  501    0 -0.00000000000E+00 -0.00000000000E+00 -0.19686647157E+03  0.19686647157E+03  0.00000000000E+00 0. -1.
          2    1    1    2  501    0  0.19373384338E+02  0.12391083562E+02  0.10105294614E+03  0.10363669666E+03  0.00000000000E+00 0. -1.
          2    1    1    2  502    0 -0.19373384338E+02 -0.12391083562E+02 -0.19489855379E+03  0.19625063883E+03  0.00000000000E+00 0. -1.
</event>
<event>
 4    1  0.6225520E+003  0.2762715E+02  0.7546771E-02  0.1441408E+00
          2   -1    0    0  502    0  0.00000000000E+00  0.00000000000E+00  0.75917568967E+03  0.75917568967E+03  0.00000000000E+00 0.  1.
          2   -1    0    0  501    0 -0.00000000000E+00 -0.00000000000E+00 -0.12091178979E+03  0.12091178979E+03  0.00000000000E+00 0. -1.
          2    1    1    2  501    0 -0.44976749818E+01 -0.27258579354E+02  0.75734239368E+03  0.75784613247E+03  0.00000000000E+00 0.  1.
          2    1    1    2  502    0  0.44976749818E+01  0.27258579354E+02 -0.11907849381E+03  0.12224134700E+03  0.00000000000E+00 0. -1.
</event>
<event>
 4    1  0.6225520E+003  0.9168969E+02  0.7546771E-02  0.1179043E+00
          2   -1    0    0  501    0  0.00000000000E+00  0.00000000000E+00  0.18715596503E+04  0.18715596503E+04  0.00000000000E+00 0. -1.
          2   -1    0    0  502    0 -0.00000000000E+00 -0.00000000000E+00 -0.16699720572E+02  0.16699720572E+02  0.00000000000E+00 0. -1.
          2    1    1    2  501    0 -0.22567065121E+02 -0.88869151099E+02  0.12020461432E+03  0.15118249815E+03  0.00000000000E+00 0. -1.
          2    1    1    2  502    0  0.22567065121E+02  0.88869151099E+02  0.17346553154E+04  0.17370768727E+04  0.00000000000E+00 0. -1.
</event>
<event>
 4    1  0.6225520E+003  0.3230271E+02  0.7546771E-02  0.1400587E+00
          2   -1    0    0  501    0  0.00000000000E+00  0.00000000000E+00  0.41955278364E+02  0.41955278364E+02  0.00000000000E+00 0.  1.
          2   -1    0    0  502    0 -0.00000000000E+00 -0.00000000000E+00 -0.85347092984E+03  0.85347092984E+03  0.00000000000E+00 0. -1.
          2    1    1    2  501    0  0.22063365019E+02  0.23593917288E+02 -0.84689932507E+03  0.84751515138E+03  0.00000000000E+00 0. -1.
          2    1    1    2  502    0 -0.22063365019E+02 -0.23593917288E+02  0.35383673596E+02  0.47911056825E+02  0.00000000000E+00 0.  1.
</event>
<event>
 4    1  0.6225520E+003  0.4469429E+02  0.7546771E-02  0.1322975E+00
          2   -1    0    0  502    0  0.00000000000E+00  0.00000000000E+00  0.14764509409E+03  0.14764509409E+03  0.00000000000E+00 0.  1.
          2   -1    0    0  501    0 -0.00000000000E+00 -0.00000000000E+00 -0.88475398462E+02  0.88475398462E+02  0.00000000000E+00 0.  1.
          2    1    1    2  501    0 -0.41418287040E+02  0.16795977303E+02  0.13824393717E+03  0.14528924777E+03  0.00000000000E+00 0.  1.
          2    1    1    2  502    0  0.41418287040E+02 -0.16795977303E+02 -0.79074241534E+02  0.90831244784E+02  0.00000000000E+00 0.  1.
</event>
<event>
 4    1  0.6225520E+003  0.2059901E+02  0.7546771E-02  0.1525068E+00
          2   -1    0    0  502    0  0.00000000000E+00  0.00000000000E+00  0.62990073609E+02  0.62990073609E+02  0.00000000000E+00 0.  1.
          2   -1    0    0  501    0 -0.00000000000E+00 -0.00000000000E+00 -0.34989838998E+02  0.34989838998E+02  0.00000000000E+00 0. -1.
          2    1    1    2  501    0 -0.20523363951E+02  0.17637013950E+01  0.58022406241E+02  0.61570437195E+02  0.00000000000E+00 0.  1.
          2    1    1    2  502    0  0.20523363951E+02 -0.17637013950E+01 -0.30022171629E+02  0.36409475412E+02  0.00000000000E+00 0. -1.
</event>
<event>
 4    1  0.6225520E+003  0.2634494E+02  0.7546771E-02  0.1454302E+00
          2   -1    0    0  501    0  0.00000000000E+00  0.00000000000E+00  0.54409580046E+01  0.54409580046E+01  0.00000000000E+00 0.  1.
          2   -1    0    0  502    0 -0.00000000000E+00 -0.00000000000E+00 -0.25179530822E+03  0.25179530822E+03  0.00000000000E+00 0.  1.
          2    1    1    2  501    0  0.21653086970E+02  0.15006653233E+02 -0.21352102392E+03  0.21514014844E+03  0.00000000000E+00 0.  1.
          2    1    1    2  502    0 -0.21653086970E+02 -0.15006653233E+02 -0.32833326296E+02  0.42096117782E+02  0.00000000000E+00 0.  1.
</event>
<event>
 4    1  0.6225520E+003  0.2228639E+02  0.7546771E-02  0.1501659E+00
          2   -1    0    0  502    0  0.00000000000E+00  0.00000000000E+00  0.12670590234E+04  0.12670590234E+04  0.00000000000E+00 0.  1.
          2   -1    0    0  501    0 -0.00000000000E+00 -0.00000000000E+00 -0.16842904776E+03  0.16842904776E+03  0.00000000000E+00 0. -1.
          2    1    1    2  501    0 -0.18842369623E+02  0.11901607417E+02  0.12662233086E+04  0.12664194212E+04  0.00000000000E+00 0.  1.
          2    1    1    2  502    0  0.18842369623E+02 -0.11901607417E+02 -0.16759333295E+03  0.16906864996E+03  0.00000000000E+00 0. -1.
</event>
<event>
 4    1  0.6225520E+003  0.4509782E+02  0.7546771E-02  0.1320951E+00
          2   -1    0    0  501    0  0.00000000000E+00  0.00000000000E+00  0.37520005009E+02  0.37520005009E+02  0.00000000000E+00 0. -1.
          2   -1    0    0  502    0 -0.00000000000E+00 -0.00000000000E+00 -0.78448976051E+02  0.78448976051E+02  0.00000000000E+00 0. -1.
          2    1    1    2  501    0  0.36043037243E+02 -0.27105586531E+02 -0.52698190452E+02  0.69360742728E+02  0.00000000000E+00 0. -1.
          2    1    1    2  502    0 -0.36043037243E+02  0.27105586531E+02  0.11769219409E+02  0.46608238332E+02  0.00000000000E+00 0. -1.
</event>
<event>
 4    1  0.6225520E+003  0.2028622E+02  0.7546771E-02  0.1529704E+00
          2   -1    0    0  501    0  0.00000000000E+00  0.00000000000E+00  0.35234609863E+03  0.35234609863E+03  0.00000000000E+00 0. -1.
          2   -1    0    0  502    0 -0.00000000000E+00 -0.00000000000E+00 -0.14244322275E+01  0.14244322275E+01  0.00000000000E+00 0.  1.
          2    1    1    2  501    0  0.29215135113E+01 -0.20074751035E+02  0.10040584008E+03  0.10243467964E+03  0.00000000000E+00 0.  1.
          2    1    1    2  502    0 -0.29215135113E+01  0.20074751035E+02  0.25051582631E+03  0.25133585121E+03  0.00000000000E+00 0. -1.
</event>
<event>
 4    1  0.6225520E+003  0.2045228E+02  0.7546771E-02  0.1527230E+00
          2   -1    0    0  502    0  0.00000000000E+00  0.00000000000E+00  0.17717188085E+02  0.17717188085E+02  0.00000000000E+00 0. -1.
          2   -1    0    0  501    0 -0.00000000000E+00 -0.00000000000E+00 -0.35000380145E+02  0.35000380145E+02  0.00000000000E+00 0. -1.
          2    1    1    2  501    0 -0.19392580625E+02 -0.64979613063E+01  0.63955621982E+01  0.21428926717E+02  0.00000000000E+00 0. -1.
          2    1    1    2  502    0  0.19392580625E+02  0.64979613063E+01 -0.23678754259E+02  0.31288641512E+02  0.00000000000E+00 0. -1.
</event>
<event>
 4    1  0.6225520E+003  0.2603383E+02  0.7546771E-02  0.1457562E+00
          2   -1    0    0  501    0  0.00000000000E+00  0.00000000000E+00  0.13818511726E+04  0.13818511726E+04  0.00000000000E+00 0. -1.
          2   -1    0    0  502    0 -0.00000000000E+00 -0.00000000000E+00 -0.11769568903E+03  0.11769568903E+03  0.00000000000E+00 0. -1.
          2    1    1    2  501    0 -0.13636654545E+02 -0.22176610664E+02 -0.11613179405E+03  0.11901409159E+03  0.00000000000E+00 0. -1.
          2    1    1    2  502    0  0.13636654545E+02  0.22176610664E+02  0.13802872776E+04  0.13805327700E+04  0.00000000000E+00 0. -1.
</event>
<event>
 4    1  0.6225520E+003  0.2540455E+02  0.7546771E-02  0.1464328E+00
          2   -1    0    0  501    0  0.00000000000E+00  0.00000000000E+00  0.81520497016E+03  0.81520497016E+03  0.00000000000E+00 0.  1.
          2   -1    0    0  502    0 -0.00000000000E+00 -0.00000000000E+00 -0.11165063005E+02  0.11165063005E+02  0.00000000000E+00 0.  1.
          2    1    1    2  501    0  0.13092637840E+02  0.21770943100E+02  0.37533102953E+01  0.25680312834E+02  0.00000000000E+00 0.  1.
          2    1    1    2  502    0 -0.13092637840E+02 -0.21770943100E+02  0.80028659686E+03  0.80068972033E+03  0.00000000000E+00 0.  1.
</event>
<event>
 4    1  0.6225520E+003  0.2022907E+02  0.7546771E-02  0.1530562E+00
          2   -1    0    0  502    0  0.00000000000E+00  0.00000000000E+00  0.51655094245E+01  0.51655094245E+01  0.00000000000E+00 0. -1.
          2   -1    0    0  501    0 -0.00000000000E+00 -0.00000000000E+00 -0.80576170328E+02  0.80576170328E+02  0.00000000000E+00 0. -1.
          2    1    1    2  501    0 -0.19444485304E+02 -0.55791936745E+01 -0.43265645486E+02  0.47761192302E+02  0.00000000000E+00 0. -1.
          2    1    1    2  502    0  0.19444485304E+02  0.55791936745E+01 -0.32145015417E+02  0.37980487450E+02  0.00000000000E+00 0. -1.
</event>
<event>
 4    1  0.6225520E+003  0.2467717E+02  0.7546771E-02  0.1472447E+00
          2   -1    0    0  502    0  0.00000000000E+00  0.00000000000E+00  0.72646299383E+03  0.72646299383E+03  0.00000000000E+00 0. -1.
          2   -1    0    0  501    0 -0.00000000000E+00 -0.00000000000E+00 -0.41927486415E+01  0.41927486415E+01  0.00000000000E+00 0. -1.
          2    1    1    2  501    0 -0.16452747846E+02 -0.18392113224E+02  0.68790855904E+03  0.68835103570E+03  0.00000000000E+00 0. -1.
          2    1    1    2  502    0  0.16452747846E+02  0.18392113224E+02  0.34361686146E+02  0.42304706775E+02  0.00000000000E+00 0. -1.
</event>
<event>
 4    1  0.6225520E+003  0.2039909E+02  0.7546771E-02  0.1528020E+00
          2   -1    0    0  501    0  0.00000000000E+00  0.00000000000E+00  0.29691221119E+00  0.29691221119E+00  0.00000000000E+00 0. -1.
          2   -1    0    0  502    0 -0.00000000000E+00 -0.00000000000E+00 -0.14827115806E+04  0.14827115806E+04  0.00000000000E+00 0. -1.
          2    1    1    2  501    0 -0.20079070688E+02  0.35991342343E+01 -0.91474383468E+03  0.91497125962E+03  0.00000000000E+00 0. -1.
          2    1    1    2  502    0  0.20079070688E+02 -0.35991342343E+01 -0.56767083368E+03  0.56803723316E+03  0.00000000000E+00 0. -1.
</event>
<event>
 4    1  0.6225520E+003  0.4297487E+02  0.7546771E-02  0.1331883E+00
          2   -1    0    0  501    0  0.00000000000E+00  0.00000000000E+00  0.16402185281E+04  0.16402185281E+04  0.00000000000E+00 0. -1.
          2   -1    0    0  502    0 -0.00000000000E+00 -0.00000000000E+00 -0.29646234242E+01  0.29646234242E+01  0.00000000000E+00 0.  1.
          2    1    1    2  501    0  0.12222644225E+02 -0.41200076517E+02  0.17160209080E+03  0.17690143274E+03  0.00000000000E+00 0.  1.
          2    1    1    2  502    0 -0.12222644225E+02  0.41200076517E+02  0.14656518138E+04  0.14662817187E+04  0.00000000000E+00 0. -1.
</event>
<event>
 4    1  0.6225520E+003  0.6229060E+02  0.7546771E-02  0.1252242E+00
          2   -1    0    0  501    0  0.00000000000E+00  0.00000000000E+00  0.67551820284E+01  0.67551820284E+01  0.00000000000E+00 0.  1.
          2   -1    0    0  502    0 -0.00000000000E+00 -0.00000000000E+00 -0.97371202455E+03  0.97371202455E+03  0.00000000000E+00 0.  1.
          2    1    1    2  501    0 -0.82404975680E+01 -0.61743118182E+02 -0.79741988778E+03  0.79984910818E+03  0.00000000000E+00 0.  1.
          2    1    1    2  502    0  0.82404975680E+01  0.61743118182E+02 -0.16953695475E+03  0.18061809839E+03  0.00000000000E+00 0.  1.
</event>
<event>
 4    1  0.6225520E+003  0.3156150E+02  0.7546771E-02  0.1406496E+00
          2   -1    0    0  502    0  0.00000000000E+00  0.00000000000E+00  0.49197714150E+03  0.49197714150E+03  0.00000000000E+00 0. -1.
          2   -1    0    0  501    0 -0.00000000000E+00 -0.00000000000E+00 -0.30203160615E+02  0.30203160615E+02  0.00000000000E+00 0. -1.
          2    1    1    2  501    0  0.26876288598E+02 -0.16546703147E+02  0.48307392252E+03  0.48410385549E+03  0.00000000000E+00 0. -1.
          2    1    1    2  502    0 -0.26876288598E+02  0.16546703147E+02 -0.21299941641E+02  0.38076446627E+02  0.00000000000E+00 0. -1.
</event>
<event>
 4    1  0.6225520E+003  0.3527041E+02  0.7546771E-02  0.1378672E+00
          2   -1    0    0  501    0  0.00000000000E+00  0.00000000000E+00  0.17131048377E+04  0.17131048377E+04  0.00000000000E+00 0.  1.
          2   -1    0    0  502    0 -0.00000000000E+00 -0.00000000000E+00 -0.58336172454E+01  0.58336172454E+01  0.00000000000E+00 0.  1.
          2    1    1    2  501    0  0.35270052977E+02  0.15816858612E+00  0.49436843823E+02  0.60728931997E+02  0.00000000000E+00 0.  1.
          2    1    1    2  502    0 -0.35270052977E+02 -0.15816858612E+00  0.16578343766E+04  0.16582095229E+04  0.00000000000E+00 0.  1.
</event>
<event>
 4    1  0.6225520E+003  0.2897193E+02  0.7546771E-02  0.1428746E+00
          2   -1    0    0  501    0  0.00000000000E+00  0.00000000000E+00  0.26241180048E+01  0.26241180048E+01  0.00000000000E+00 0. -1.
          2   -1    0    0  502    0 -0.00000000000E+00 -0.00000000000E+00 -0.68669022663E+03  0.68669022663E+03  0.00000000000E+00 0. -1.
          2    1    1    2  501    0 -0.26864949049E+02 -0.10846541263E+02 -0.59393664343E+03  0.59464284184E+03  0.00000000000E+00 0. -1.
          2    1    1    2  502    0  0.26864949049E+02  0.10846541263E+02 -0.90129465197E+02  0.94671502795E+02  0.00000000000E+00 0. -1.
</event>
<event>
 4    1  0.6225520E+003  0.3868847E+02  0.7546771E-02  0.1356348E+00
          2   -1    0    0  501    0  0.00000000000E+00  0.00000000000E+00  0.31863113693E+03  0.31863113693E+03  0.00000000000E+00 0. -1.
          2   -1    0    0  502    0 -0.00000000000E+00 -0.00000000000E+00 -0.85157099069E+02  0.85157099069E+02  0.00000000000E+00 0.  1.
          2    1    1    2  501    0 -0.19193761709E+02  0.33591622798E+02 -0.79509487106E+02  0.88422599773E+02  0.00000000000E+00 0.  1.
          2    1    1    2  502    0  0.19193761709E+02 -0.33591622798E+02  0.31298352497E+03  0.31536563623E+03  0.00000000000E+00 0. -1.
</event>
<event>
 4    1  0.6225520E+003  0.5375328E+02  0.7546771E-02  0.1282671E+00
          2   -1    0    0  502    0  0.00000000000E+00  0.00000000000E+00  0.20350665109E+02  0.20350665109E+02  0.00000000000E+00 0. -1.
          2   -1    0    0  501    0 -0.00000000000E+00 -0.00000000000E+00 -0.17049026199E+03  0.17049026199E+03  0.00000000000E+00 0. -1.
          2    1    1    2  501    0 -0.43486065138E+02 -0.31597116125E+02 -0.36050290223E+02  0.64722786048E+02  0.00000000000E+00 0. -1.
          2    1    1    2  502    0  0.43486065138E+02  0.31597116125E+02 -0.11408930665E+03  0.12611814105E+03  0.00000000000E+00 0. -1.
</event>
<event>
 4    1  0.6225520E+003  0.3108181E+02  0.7546771E-02  0.1410423E+00
          2   -1    0    0  502    0  0.00000000000E+00  0.00000000000E+00  0.12053745494E+03  0.12053745494E+03  0.00000000000E+00 0. -1.
          2   -1    0    0  501    0 -0.00000000000E+00 -0.00000000000E+00 -0.94386480143E+01  0.94386480143E+01  0.00000000000E+00 0. -1.
          2    1    1    2  501    0 -0.26690288388E+02 -0.15928198847E+02  0.80790965873E+02  0.86563613484E+02  0.00000000000E+00 0. -1.
          2    1    1    2  502    0  0.26690288388E+02  0.15928198847E+02  0.30307841053E+02  0.43412489471E+02  0.00000000000E+00 0. -1.
</event>
<event>
 4    1  0.6225520E+003  0.2314572E+02  0.7546771E-02  0.1490676E+00
          2   -1    0    0  501    0  0.00000000000E+00  0.00000000000E+00  0.68208988157E+01  0.68208988157E+01  0.00000000000E+00 0.  1.
          2   -1    0    0  502    0 -0.00000000000E+00 -0.00000000000E+00 -0.15054438111E+03  0.15054438111E+03  0.00000000000E+00 0. -1.
          2    1    1    2  501    0  0.12767886445E+02  0.19305586216E+02 -0.12627705782E+03  0.12838076147E+03  0.00000000000E+00 0. -1.
          2    1    1    2  502    0 -0.12767886445E+02 -0.19305586216E+02 -0.17446424479E+02  0.28984518463E+02  0.00000000000E+00 0.  1.
</event>
<event>
 4    1  0.6225520E+003  0.2195104E+02  0.7546771E-02  0.1506107E+00
          2   -1    0    0  501    0  0.00000000000E+00  0.00000000000E+00  0.15805571561E+01  0.15805571561E+01  0.00000000000E+00 0. -1.
          2   -1    0    0  502    0 -0.00000000000E+00 -0.00000000000E+00 -0.49258602872E+03  0.49258602872E+03  0.00000000000E+00 0.  1.
          2    1    1    2  501    0 -0.21088979017E+02  0.60912213807E+01 -0.39803617100E+03  0.39864099317E+03  0.00000000000E+00 0.  1.
          2    1    1    2  502    0  0.21088979017E+02 -0.60912213807E+01 -0.92969300564E+02  0.95525592703E+02  0.00000000000E+00 0. -1.
</event>
<event>
 4    1  0.6225520E+003  0.4353696E+02  0.7546771E-02  0.1328919E+00
          2   -1    0    0  502    0  0.00000000000E+00  0.00000000000E+00  0.28424704380E+03  0.28424704380E+03  0.00000000000E+00 0. -1.
          2   -1    0    0  501    0 -0.00000000000E+00 -0.00000000000E+00 -0.17603655358E+02  0.17603655358E+02  0.00000000000E+00 0.  1.
          2    1    1    2  501    0  0.42770591715E+02 -0.81328727025E+01  0.25227475879E+03  0.25600394734E+03  0.00000000000E+00 0. -1.
          2    1    1    2  502    0 -0.42770591715E+02  0.81328727025E+01  0.14368629657E+02  0.45846751818E+02  0.00000000000E+00 0.  1.
</event>
<event>
 4    1  0.6225520E+003  0.2285793E+02  0.7546771E-02  0.1494290E+00
          2   -1    0    0  502    0  0.00000000000E+00  0.00000000000E+00  0.83317315432E+03  0.83317315432E+03  0.00000000000E+00 0.  1.
          2   -1    0    0  501    0 -0.00000000000E+00 -0.00000000000E+00 -0.18358235363E+02  0.18358235363E+02  0.00000000000E+00 0. -1.
          2    1    1    2  501    0 -0.20642835749E+02 -0.98162149161E+01  0.82583806682E+03  0.82615434234E+03  0.00000000000E+00 0.  1.
          2    1    1    2  502    0  0.20642835749E+02  0.98162149161E+01 -0.11023147870E+02  0.25377047346E+02  0.00000000000E+00 0. -1.
</event>
<event>
 4    1  0.6225520E+003  0.2257240E+02  0.7546771E-02  0.1497939E+00
          2   -1    0    0  502    0  0.00000000000E+00  0.00000000000E+00  0.63359499473E+01  0.63359499473E+01  0.00000000000E+00 0. -1.
          2   -1    0    0  501    0 -0.00000000000E+00 -0.00000000000E+00 -0.84666061913E+03  0.84666061913E+03  0.00000000000E+00 0.  1.
          2    1    1    2  501    0 -0.19910147657E+02  0.10634803480E+02 -0.14423786594E+02  0.26787285127E+02  0.00000000000E+00 0. -1.
          2    1    1    2  502    0  0.19910147657E+02 -0.10634803480E+02 -0.82590088259E+03  0.82620928395E+03  0.00000000000E+00 0.  1.
</event>
<event>
 4    1  0.6225520E+003  0.2056115E+02  0.7546771E-02  0.1525624E+00
          2   -1    0    0  502    0  0.00000000000E+00  0.00000000000E+00  0.49860256460E+03  0.49860256460E+03  0.00000000000E+00 0.  1.
          2   -1    0    0  501    0 -0.00000000000E+00 -0.00000000000E+00 -0.39682228964E+01  0.39682228964E+01  0.00000000000E+00 0. -1.
          2    1    1    2  501    0 -0.44492707826E+01 -0.20073983018E+02  0.47014508073E+03  0.47059447270E+03  0.00000000000E+00 0.  1.
          2    1    1    2  502    0  0.44492707826E+01  0.20073983018E+02  0.24489260976E+02  0.31976314795E+02  0.00000000000E+00 0. -1.
</event>
<event>
 4    1  0.6225520E+003  0.2300550E+02  0.7546771E-02  0.1492429E+00
          2   -1    0    0  501    0  0.00000000000E+00  0.00000000000E+00  0.78211985790E+03  0.78211985790E+03  0.00000000000E+00 0. -1.
          2   -1    0    0  502    0 -0.00000000000E+00 -0.00000000000E+00 -0.10888981630E+03  0.10888981630E+03  0.00000000000E+00 0.  1.
          2    1    1    2  501    0  0.22988813384E+02  0.87614401645E+00 -0.10750337457E+03  0.10993738542E+03  0.00000000000E+00 0.  1.
          2    1    1    2  502    0 -0.22988813384E+02 -0.87614401645E+00  0.78073341618E+03  0.78107228878E+03  0.00000000000E+00 0. -1.
</event>
<event>
 4    1  0.6225520E+003  0.2007071E+02  0.7546771E-02  0.1532958E+00
          2   -1    0    0  501    0  0.00000000000E+00  0.00000000000E+00  0.15164938848E+02  0.15164938848E+02  0.00000000000E+00 0. -1.
          2   -1    0    0  502    0 -0.00000000000E+00 -0.00000000000E+00 -0.10958036588E+03  0.10958036588E+03  0.00000000000E+00 0. -1.
          2    1    1    2  501    0 -0.90533558969E+01 -0.17912845048E+02 -0.10149662159E+03  0.10346205810E+03  0.00000000000E+00 0. -1.
          2    1    1    2  502    0  0.90533558969E+01  0.17912845048E+02  0.70811945613E+01  0.21283246631E+02  0.00000000000E+00 0. -1.
</event>
<event>
 4    1  0.6225520E+003  0.8062471E+02  0.7546771E-02  0.1202405E+00
          2   -1    0    0  501    0  0.00000000000E+00  0.00000000000E+00  0.12354419231E+04  0.12354419231E+04  0.00000000000E+00 0.  1.
          2   -1    0    0  502    0 -0.00000000000E+00 -0.00000000000E+00 -0.22758611824E+02  0.22758611824E+02  0.00000000000E+00 0. -1.
          2    1    1    2  501    0  0.78604533114E+02  0.17935182588E+02  0.54734985523E+02  0.97448766235E+02  0.00000000000E+00 0. -1.
          2    1    1    2  502    0 -0.78604533114E+02 -0.17935182588E+02  0.11579483258E+04  0.11607517687E+04  0.00000000000E+00 0.  1.
</event>
<event>
 4    1  0.6225520E+003  0.4401665E+02  0.7546771E-02  0.1326430E+00
          2   -1    0    0  501    0  0.00000000000E+00  0.00000000000E+00  0.15947161024E+04  0.15947161024E+04  0.00000000000E+00 0.  1.
          2   -1    0    0  502    0 -0.00000000000E+00 -0.00000000000E+00 -0.61631977133E+01  0.61631977133E+01  0.00000000000E+00 0.  1.
          2    1    1    2  501    0 -0.36222499904E+02 -0.25007923685E+02  0.77056749869E+02  0.88742371203E+02  0.00000000000E+00 0.  1.
          2    1    1    2  502    0  0.36222499904E+02  0.25007923685E+02  0.15114961548E+04  0.15121369289E+04  0.00000000000E+00 0.  1.
</event>
<event>
 4    1  0.6225520E+003  0.2134287E+02  0.7546771E-02  0.1514425E+00
          2   -1    0    0  501    0  0.00000000000E+00  0.00000000000E+00  0.49494758016E+02  0.49494758016E+02  0.00000000000E+00 0.  1.
          2   -1    0    0  502    0 -0.00000000000E+00 -0.00000000000E+00 -0.60538261988E+02  0.60538261988E+02  0.00000000000E+00 0.  1.
          2    1    1    2  501    0 -0.19548864212E+02  0.85650513263E+01 -0.56183995881E+02  0.60101244491E+02  0.00000000000E+00 0.  1.
          2    1    1    2  502    0  0.19548864212E+02 -0.85650513263E+01  0.45140491908E+02  0.49931775513E+02  0.00000000000E+00 0.  1.
</event>
<event>
 4    1  0.1535568E+004  0.3032897E+02  0.7546771E-02  0.1416759E+00
          2   -1    0    0  501    0  0.00000000000E+00  0.00000000000E+00  0.90509071007E+03  0.90509071007E+03  0.00000000000E+00 0. -1.
          2   -1    0    0  502    0 -0.00000000000E+00 -0.00000000000E+00 -0.13866928554E+04  0.13866928554E+04  0.00000000000E+00 0.  1.
          2    1    1    2  501    0  0.15438299605E+00  0.30328573559E+02 -0.13862728682E+04  0.13866045980E+04  0.00000000000E+00 0.  1.
          2    1    1    2  502    0 -0.15438299605E+00 -0.30328573559E+02  0.90467072288E+03  0.90517896741E+03  0.00000000000E+00 0. -1.
</event>
<event>
 4    1  0.6225520E+003  0.1132519E+03  0.7546771E-02  0.1142637E+00
          2   -1    0    0  502    0  0.00000000000E+00  0.00000000000E+00  0.61157604334E+03  0.61157604334E+03  0.00000000000E+00 0. -1.
          2   -1    0    0  501    0 -0.00000000000E+00 -0.00000000000E+00 -0.35812748073E+03  0.35812748073E+03  0.00000000000E+00 0.  1.
          2    1    1    2  501    0  0.75044123666E+02  0.84819613304E+02  0.59716537512E+03  0.60780956930E+03  0.00000000000E+00 0. -1.
          2    1    1    2  502    0 -0.75044123666E+02 -0.84819613304E+02 -0.34371681250E+03  0.36189395476E+03  0.00000000000E+00 0.  1.
</event>
<event>
 4    1  0.6225520E+003  0.6067088E+02  0.7546771E-02  0.1257570E+00
          2   -1    0    0  502    0  0.00000000000E+00  0.00000000000E+00  0.18170752481E+03  0.18170752481E+03  0.00000000000E+00 0.  1.
          2   -1    0    0  501    0 -0.00000000000E+00 -0.00000000000E+00 -0.44912464213E+02  0.44912464213E+02  0.00000000000E+00 0.  1.
          2    1    1    2  501    0  0.60083299272E+02 -0.84233305637E+01  0.15235053217E+03  0.16398670678E+03  0.00000000000E+00 0.  1.
          2    1    1    2  502    0 -0.60083299272E+02  0.84233305637E+01 -0.15555471566E+02  0.62633282246E+02  0.00000000000E+00 0.  1.
</event>
<event>
 4    1  0.6225520E+003  0.2037774E+02  0.7546771E-02  0.1528337E+00
          2   -1    0    0  501    0  0.00000000000E+00  0.00000000000E+00  0.13902161834E+04  0.13902161834E+04  0.00000000000E+00 0.  1.
          2   -1    0    0  502    0 -0.00000000000E+00 -0.00000000000E+00 -0.32510168759E+00  0.32510168759E+00  0.00000000000E+00 0.  1.
          2    1    1    2  501    0  0.12130880754E+02 -0.16373581397E+02  0.49679716310E+03  0.49721491702E+03  0.00000000000E+00 0.  1.
          2    1    1    2  502    0 -0.12130880754E+02  0.16373581397E+02  0.89309391864E+03  0.89332636810E+03  0.00000000000E+00 0.  1.
</event>
<event>
 4    1  0.6225520E+003  0.2969064E+02  0.7546771E-02  0.1422304E+00
          2   -1    0    0  501    0  0.00000000000E+00  0.00000000000E+00  0.15156417032E+01  0.15156417032E+01  0.00000000000E+00 0. -1.
          2   -1    0    0  502    0 -0.00000000000E+00 -0.00000000000E+00 -0.10037107091E+04  0.10037107091E+04  0.00000000000E+00 0. -1.
          2    1    1    2  501    0  0.74215033394E+01  0.28748135731E+02 -0.82703199610E+03  0.82756477487E+03  0.00000000000E+00 0. -1.
          2    1    1    2  502    0 -0.74215033394E+01 -0.28748135731E+02 -0.17516307133E+03  0.17766157597E+03  0.00000000000E+00 0. -1.
</event>
<event>
 4    1  0.6225520E+003  0.2045034E+02  0.7546771E-02  0.1527259E+00
          2   -1    0    0  501    0  0.00000000000E+00  0.00000000000E+00  0.44838467376E+03  0.44838467376E+03  0.00000000000E+00 0.  1.
          2   -1    0    0  502    0 -0.00000000000E+00 -0.00000000000E+00 -0.20227091319E+02  0.20227091319E+02  0.00000000000E+00 0.  1.
          2    1    1    2  501    0  0.96318172451E+01  0.18040085469E+02 -0.14761140751E+02  0.25221178867E+02  0.00000000000E+00 0.  1.
          2    1    1    2  502    0 -0.96318172451E+01 -0.18040085469E+02  0.44291872319E+03  0.44339058621E+03  0.00000000000E+00 0.  1.
</event>
<event>
 4    1  0.6225520E+003  0.2951158E+02  0.7546771E-02  0.1423889E+00
          2   -1    0    0  501    0  0.00000000000E+00  0.00000000000E+00  0.33926020019E+01  0.33926020019E+01  0.00000000000E+00 0.  1.
          2   -1    0    0  502    0 -0.00000000000E+00 -0.00000000000E+00 -0.28040684332E+03  0.28040684332E+03  0.00000000000E+00 0.  1.
          2    1    1    2  501    0  0.83068624902E+00 -0.29499891177E+02 -0.17975311861E+03  0.18215959285E+03  0.00000000000E+00 0.  1.
          2    1    1    2  502    0 -0.83068624902E+00  0.29499891177E+02 -0.97261122710E+02  0.10163985247E+03  0.00000000000E+00 0.  1.
</event>
<event>
 4    1  0.6225520E+003  0.2541905E+02  0.7546771E-02  0.1464170E+00
          2   -1    0    0  501    0  0.00000000000E+00  0.00000000000E+00  0.67668171524E+02  0.67668171524E+02  0.00000000000E+00 0. -1.
          2   -1    0    0  502    0 -0.00000000000E+00 -0.00000000000E+00 -0.18891285587E+03  0.18891285587E+03  0.00000000000E+00 0.  1.
          2    1    1    2  501    0 -0.23234610480E+02  0.10309269063E+02 -0.18562863709E+03  0.18736093259E+03  0.00000000000E+00 0.  1.
          2    1    1    2  502    0  0.23234610480E+02 -0.10309269063E+02  0.64383952748E+02  0.69220094801E+02  0.00000000000E+00 0. -1.
</event>
<event>
 4    1  0.6225520E+003  0.2227015E+02  0.7546771E-02  0.1501872E+00
          2   -1    0    0  501    0  0.00000000000E+00  0.00000000000E+00  0.55586392425E+01  0.55586392425E+01  0.00000000000E+00 0. -1.
          2   -1    0    0  502    0 -0.00000000000E+00 -0.00000000000E+00 -0.16630820018E+03  0.16630820018E+03  0.00000000000E+00 0.  1.
          2    1    1    2  501    0  0.20004100277E+02 -0.97875232157E+01 -0.13887940179E+03  0.14065364510E+03  0.00000000000E+00 0.  1.
          2    1    1    2  502    0 -0.20004100277E+02  0.97875232157E+01 -0.21870159145E+02  0.31213194319E+02  0.00000000000E+00 0. -1.
</event>
<event>
 4    1  0.6225520E+003  0.2538878E+02  0.7546771E-02  0.1464501E+00
          2   -1    0    0  502    0  0.00000000000E+00  0.00000000000E+00  0.29250805264E+03  0.29250805264E+03  0.00000000000E+00 0.  1.
          2   -1    0    0  501    0 -0.00000000000E+00 -0.00000000000E+00 -0.81120527020E+01  0.81120527020E+01  0.00000000000E+00 0. -1.
          2    1    1    2  501    0  0.25371993777E+02 -0.92312501459E+00  0.27047744693E+03  0.27166641221E+03  0.00000000000E+00 0.  1.
          2    1    1    2  502    0 -0.25371993777E+02  0.92312501459E+00  0.13918553013E+02  0.28953693132E+02  0.00000000000E+00 0. -1.
</event>
<event>
 4    1  0.6225520E+003  0.2596139E+02  0.7546771E-02  0.1458330E+00
          2   -1    0    0  501    0  0.00000000000E+00  0.00000000000E+00  0.30043249799E+03  0.30043249799E+03  0.00000000000E+00 0. -1.
          2   -1    0    0  502    0 -0.00000000000E+00 -0.00000000000E+00 -0.26082544197E+01  0.26082544197E+01  0.00000000000E+00 0.  1.
          2    1    1    2  501    0 -0.25498688867E+02 -0.48796375596E+01  0.20558150412E+03  0.20721425828E+03  0.00000000000E+00 0. -1.
          2    1    1    2  502    0  0.25498688867E+02  0.48796375596E+01  0.92242739452E+02  0.95826494135E+02  0.00000000000E+00 0.  1.
</event>
<event>
 4    1  0.6225520E+003  0.2155810E+02  0.7546771E-02  0.1511444E+00
          2   -1    0    0  501    0  0.00000000000E+00  0.00000000000E+00  0.28781153026E+03  0.28781153026E+03  0.00000000000E+00 0. -1.
          2   -1    0    0  502    0 -0.00000000000E+00 -0.00000000000E+00 -0.12144211289E+03  0.12144211289E+03  0.00000000000E+00 0. -1.
          2    1    1    2  501    0 -0.21225841362E+02 -0.37703354262E+01 -0.12007713054E+03  0.12199700427E+03  0.00000000000E+00 0. -1.
          2    1    1    2  502    0  0.21225841362E+02  0.37703354262E+01  0.28644654792E+03  0.28725663889E+03  0.00000000000E+00 0. -1.
</event>
<event>
 4    1  0.6225520E+003  0.3681393E+02  0.7546771E-02  0.1368240E+00
          2   -1    0    0  501    0  0.00000000000E+00  0.00000000000E+00  0.10727124709E+03  0.10727124709E+03  0.00000000000E+00 0.  1.
          2   -1    0    0  502    0 -0.00000000000E+00 -0.00000000000E+00 -0.30638898789E+02  0.30638898789E+02  0.00000000000E+00 0.  1.
          2    1    1    2  501    0 -0.31080922793E+02 -0.19729211002E+02 -0.14543553570E+02  0.39582577972E+02  0.00000000000E+00 0.  1.
          2    1    1    2  502    0  0.31080922793E+02  0.19729211002E+02  0.91175901867E+02  0.98327567903E+02  0.00000000000E+00 0.  1.
</event>
<event>
 4    1  0.6225520E+003  0.2767825E+02  0.7546771E-02  0.1440911E+00
          2   -1    0    0  502    0  0.00000000000E+00  0.00000000000E+00  0.45842614116E+03  0.45842614116E+03  0.00000000000E+00 0. -1.
          2   -1    0    0  501    0 -0.00000000000E+00 -0.00000000000E+00 -0.12891469544E+02  0.12891469544E+02  0.00000000000E+00 0.  1.
          2    1    1    2  501    0 -0.71237496230E+01  0.26745800871E+02  0.44262197141E+03  0.44348652206E+03  0.00000000000E+00 0. -1.
          2    1    1    2  502    0  0.71237496230E+01 -0.26745800871E+02  0.29127002102E+01  0.27831088650E+02  0.00000000000E+00 0.  1.
</event>
<event>
 4    1  0.1393145E+004  0.2389394E+02  0.7546771E-02  0.1481568E+00
          2   -1    0    0  502    0  0.00000000000E+00  0.00000000000E+00  0.66175731496E+03  0.66175731496E+03  0.00000000000E+00 0. -1.
          2   -1    0    0  501    0 -0.00000000000E+00 -0.00000000000E+00 -0.13732667355E+04  0.13732667355E+04  0.00000000000E+00 0.  1.
          2    1    1    2  501    0  0.14390403731E+02  0.19074498295E+02  0.66143764668E+03  0.66186908120E+03  0.00000000000E+00 0. -1.
          2    1    1    2  502    0 -0.14390403731E+02 -0.19074498295E+02 -0.13729470672E+04  0.13731549693E+04  0.00000000000E+00 0.  1.
</event>
<event>
 4    1  0.6225520E+003  0.3693262E+02  0.7546771E-02  0.1367463E+00
          2   -1    0    0  501    0  0.00000000000E+00  0.00000000000E+00  0.19206184750E+03  0.19206184750E+03  0.00000000000E+00 0. -1.
          2   -1    0    0  502    0 -0.00000000000E+00 -0.00000000000E+00 -0.59274918169E+03  0.59274918169E+03  0.00000000000E+00 0. -1.
          2    1    1    2  501    0  0.27920615759E+02 -0.24175551862E+02 -0.59039131134E+03  0.59154536479E+03  0.00000000000E+00 0. -1.
          2    1    1    2  502    0 -0.27920615759E+02  0.24175551862E+02  0.18970397715E+03  0.19326566440E+03  0.00000000000E+00 0. -1.
</event>
<event>
 4    1  0.6225520E+003  0.3328450E+02  0.7546771E-02  0.1393042E+00
          2   -1    0    0  502    0  0.00000000000E+00  0.00000000000E+00  0.15267644291E+02  0.15267644291E+02  0.00000000000E+00 0.  1.
          2   -1    0    0  501    0 -0.00000000000E+00 -0.00000000000E+00 -0.22963569471E+03  0.22963569471E+03  0.00000000000E+00 0. -1.
          2    1    1    2  501    0  0.31180261920E+02  0.11646855081E+02 -0.59104612002E+01  0.33805199575E+02  0.00000000000E+00 0.  1.
          2    1    1    2  502    0 -0.31180261920E+02 -0.11646855081E+02 -0.20845758922E+03  0.21109813942E+03  0.00000000000E+00 0. -1.
</event>
<event>
 4    1  0.6225520E+003  0.3321505E+02  0.7546771E-02  0.1393566E+00
          2   -1    0    0  501    0  0.00000000000E+00  0.00000000000E+00  0.50127970225E+01  0.50127970225E+01  0.00000000000E+00 0.  1.
          2   -1    0    0  502    0 -0.00000000000E+00 -0.00000000000E+00 -0.59491021461E+03  0.59491021461E+03  0.00000000000E+00 0.  1.
          2    1    1    2  501    0  0.33212069251E+02 -0.44480360576E+00 -0.53304599584E+03  0.53407983774E+03  0.00000000000E+00 0.  1.
          2    1    1    2  502    0 -0.33212069251E+02  0.44480360576E+00 -0.56851421746E+02  0.65843173896E+02  0.00000000000E+00 0.  1.
</event>
<event>
 4    1  0.6225520E+003  0.2711722E+02  0.7546771E-02  0.1446434E+00
          2   -1    0    0  501    0  0.00000000000E+00  0.00000000000E+00  0.14776691510E+02  0.14776691510E+02  0.00000000000E+00 0. -1.
          2   -1    0    0  502    0 -0.00000000000E+00 -0.00000000000E+00 -0.14456347764E+03  0.14456347764E+03  0.00000000000E+00 0.  1.
          2    1    1    2  501    0 -0.18358858961E+02 -0.19957357312E+02 -0.12940969914E+03  0.13222032387E+03  0.00000000000E+00 0.  1.
          2    1    1    2  502    0  0.18358858961E+02  0.19957357312E+02 -0.37708698921E+00  0.27119845277E+02  0.00000000000E+00 0. -1.
</event>
<event>
 4    1  0.6225520E+003  0.2601776E+02  0.7546771E-02  0.1457732E+00
          2   -1    0    0  501    0  0.00000000000E+00  0.00000000000E+00  0.14532130942E+02  0.14532130942E+02  0.00000000000E+00 0.  1.
          2   -1    0    0  502    0 -0.00000000000E+00 -0.00000000000E+00 -0.51590060791E+02  0.51590060791E+02  0.00000000000E+00 0.  1.
          2    1    1    2  501    0 -0.15936247566E+02 -0.20565985831E+02 -0.28830565688E+02  0.38834588674E+02  0.00000000000E+00 0.  1.
          2    1    1    2  502    0  0.15936247566E+02  0.20565985831E+02 -0.82273641611E+01  0.27287603059E+02  0.00000000000E+00 0.  1.
</event>
<event>
 4    1  0.6225520E+003  0.2065021E+02  0.7546771E-02  0.1524318E+00
          2   -1    0    0  502    0  0.00000000000E+00  0.00000000000E+00  0.25118122862E+02  0.25118122862E+02  0.00000000000E+00 0. -1.
          2   -1    0    0  501    0 -0.00000000000E+00 -0.00000000000E+00 -0.23447617201E+02  0.23447617201E+02  0.00000000000E+00 0. -1.
          2    1    1    2  501    0  0.20109302783E+02 -0.46954527578E+01 -0.11920973751E+02  0.23844096758E+02  0.00000000000E+00 0. -1.
          2    1    1    2  502    0 -0.20109302783E+02  0.46954527578E+01  0.13591479412E+02  0.24721643304E+02  0.00000000000E+00 0. -1.
</event>
<event>
 4    1  0.6225520E+003  0.2877714E+02  0.7546771E-02  0.1430529E+00
          2   -1    0    0  501    0  0.00000000000E+00  0.00000000000E+00  0.14213981368E+03  0.14213981368E+03  0.00000000000E+00 0.  1.
          2   -1    0    0  502    0 -0.00000000000E+00 -0.00000000000E+00 -0.79482408748E+03  0.79482408748E+03  0.00000000000E+00 0. -1.
          2    1    1    2  501    0  0.19410976863E+02  0.21244717684E+02 -0.79310392467E+03  0.79362583084E+03  0.00000000000E+00 0. -1.
          2    1    1    2  502    0 -0.19410976863E+02 -0.21244717684E+02  0.14041965087E+03  0.14333807031E+03  0.00000000000E+00 0.  1.
</event>
<event>
 4    1  0.6225520E+003  0.2635090E+02  0.7546771E-02  0.1454240E+00
          2   -1    0    0  502    0  0.00000000000E+00  0.00000000000E+00  0.38119100285E+01  0.38119100285E+01  0.00000000000E+00 0.  1.
          2   -1    0    0  501    0 -0.00000000000E+00 -0.00000000000E+00 -0.32034219380E+03  0.32034219380E+03  0.00000000000E+00 0. -1.
          2    1    1    2  501    0  0.14448823214E+02 -0.22036365544E+02 -0.51815637496E+02  0.58131146451E+02  0.00000000000E+00 0.  1.
          2    1    1    2  502    0 -0.14448823214E+02  0.22036365544E+02 -0.26471464627E+03  0.26602295738E+03  0.00000000000E+00 0. -1.
</event>
<event>
 4    1  0.6225520E+003  0.3651768E+02  0.7546771E-02  0.1370196E+00
          2   -1    0    0  501    0  0.00000000000E+00  0.00000000000E+00  0.49114996538E+03  0.49114996538E+03  0.00000000000E+00 0.  1.
          2   -1    0    0  502    0 -0.00000000000E+00 -0.00000000000E+00 -0.20117850635E+02  0.20117850635E+02  0.00000000000E+00 0.  1.
          2    1    1    2  501    0  0.12763883076E+02  0.34214389506E+02 -0.22424759149E+01  0.36586470979E+02  0.00000000000E+00 0.  1.
          2    1    1    2  502    0 -0.12763883076E+02 -0.34214389506E+02  0.47327459066E+03  0.47468134503E+03  0.00000000000E+00 0.  1.
</event>
<event>
 4    1  0.6225520E+003  0.2774545E+02  0.7546771E-02  0.1440260E+00
          2   -1    0    0  502    0  0.00000000000E+00  0.00000000000E+00  0.85788730225E+03  0.85788730225E+03  0.00000000000E+00 0.  1.
          2   -1    0    0  501    0 -0.00000000000E+00 -0.00000000000E+00 -0.13184752525E+01  0.13184752525E+01  0.00000000000E+00 0. -1.
          2    1    1    2  501    0  0.26450727345E+02 -0.83766930850E+01  0.67108290473E+03  0.67165621786E+03  0.00000000000E+00 0.  1.
          2    1    1    2  502    0 -0.26450727345E+02  0.83766930850E+01  0.18548592227E+03  0.18754955965E+03  0.00000000000E+00 0. -1.
</event>
<event>
 4    1  0.6225520E+003  0.2382994E+02  0.7546771E-02  0.1482331E+00
          2   -1    0    0  502    0  0.00000000000E+00  0.00000000000E+00  0.94659624500E+01  0.94659624500E+01  0.00000000000E+00 0. -1.
          2   -1    0    0  501    0 -0.00000000000E+00 -0.00000000000E+00 -0.61109956434E+03  0.61109956434E+03  0.00000000000E+00 0. -1.
          2    1    1    2  501    0  0.20962718717E+02  0.11332722292E+02 -0.61572590518E+01  0.24612557966E+02  0.00000000000E+00 0. -1.
          2    1    1    2  502    0 -0.20962718717E+02 -0.11332722292E+02 -0.59547634284E+03  0.59595296883E+03  0.00000000000E+00 0. -1.
</event>
<event>
 4    1  0.6225520E+003  0.2293050E+02  0.7546771E-02  0.1493373E+00
          2   -1    0    0  502    0  0.00000000000E+00  0.00000000000E+00  0.26533335819E+01  0.26533335819E+01  0.00000000000E+00 0. -1.
          2   -1    0    0  501    0 -0.00000000000E+00 -0.00000000000E+00 -0.13050895427E+04  0.13050895427E+04  0.00000000000E+00 0.  1.
          2    1    1    2  501    0  0.11364894601E+02 -0.19915994153E+02 -0.49032324447E+02  0.54129257274E+02  0.00000000000E+00 0. -1.
          2    1    1    2  502    0 -0.11364894601E+02  0.19915994153E+02 -0.12534038847E+04  0.12536136190E+04  0.00000000000E+00 0.  1.
</event>
<event>
 4    1  0.6225520E+003  0.2159100E+02  0.7546771E-02  0.1510992E+00
          2   -1    0    0  502    0  0.00000000000E+00  0.00000000000E+00  0.71588000926E+03  0.71588000926E+03  0.00000000000E+00 0.  1.
          2   -1    0    0  501    0 -0.00000000000E+00 -0.00000000000E+00 -0.29881516106E+01  0.29881516106E+01  0.00000000000E+00 0.  1.
          2    1    1    2  501    0 -0.20739313783E+02  0.60043503132E+01  0.67431191525E+03  0.67465749118E+03  0.00000000000E+00 0.  1.
          2    1    1    2  502    0  0.20739313783E+02 -0.60043503132E+01  0.38579942401E+02  0.44210669691E+02  0.00000000000E+00 0.  1.
</event>
<event>
 4    1  0.6225520E+003  0.3098499E+02  0.7546771E-02  0.1411226E+00
          2   -1    0    0  501    0  0.00000000000E+00  0.00000000000E+00  0.18019371855E+02  0.18019371855E+02  0.00000000000E+00 0. -1.
          2   -1    0    0  502    0 -0.00000000000E+00 -0.00000000000E+00 -0.10583213808E+04  0.10583213808E+04  0.00000000000E+00 0. -1.
          2    1    1    2  501    0  0.11802242755E+02  0.28649197379E+02 -0.10445996972E+04  0.10450591356E+04  0.00000000000E+00 0. -1.
          2    1    1    2  502    0 -0.11802242755E+02 -0.28649197379E+02  0.42976882369E+01  0.31281617105E+02  0.00000000000E+00 0. -1.
</event>
<event>
 4    1  0.6225520E+003  0.2521031E+02  0.7546771E-02  0.1466464E+00
          2   -1    0    0  502    0  0.00000000000E+00  0.00000000000E+00  0.52919255828E+03  0.52919255828E+03  0.00000000000E+00 0.  1.
          2   -1    0    0  501    0 -0.00000000000E+00 -0.00000000000E+00 -0.60746403768E+02  0.60746403768E+02  0.00000000000E+00 0. -1.
          2    1    1    2  501    0  0.22902624277E+02 -0.10537049543E+02  0.52626212561E+03  0.52686562278E+03  0.00000000000E+00 0.  1.
          2    1    1    2  502    0 -0.22902624277E+02  0.10537049543E+02 -0.57815971102E+02  0.63073339267E+02  0.00000000000E+00 0. -1.
</event>
<event>
 4    1  0.6225520E+003  0.3335846E+02  0.7546771E-02  0.1392486E+00
          2   -1    0    0  501    0  0.00000000000E+00  0.00000000000E+00  0.56987911806E+01  0.56987911806E+01  0.00000000000E+00 0.  1.
          2   -1    0    0  502    0 -0.00000000000E+00 -0.00000000000E+00 -0.89996064832E+03  0.89996064832E+03  0.00000000000E+00 0. -1.
          2    1    1    2  501    0  0.32383933929E+02  0.80042375329E+01 -0.84783456105E+03  0.84849055970E+03  0.00000000000E+00 0. -1.
          2    1    1    2  502    0 -0.32383933929E+02 -0.80042375329E+01 -0.46427296095E+02  0.57168879803E+02  0.00000000000E+00 0.  1.
</event>
<event>
 4    1  0.6225520E+003  0.2405089E+02  0.7546771E-02  0.1479708E+00
          2   -1    0    0  501    0  0.00000000000E+00  0.00000000000E+00  0.19461877794E+04  0.19461877794E+04  0.00000000000E+00 0. -1.
          2   -1    0    0  502    0 -0.00000000000E+00 -0.00000000000E+00 -0.40886043651E+00  0.40886043651E+00  0.00000000000E+00 0.  1.
          2    1    1    2  501    0  0.21365063356E+02 -0.11044421300E+02  0.46429696131E+03  0.46491946986E+03  0.00000000000E+00 0.  1.
          2    1    1    2  502    0 -0.21365063356E+02  0.11044421300E+02  0.14814819577E+04  0.14816771700E+04  0.00000000000E+00 0. -1.
</event>
<event>
 4    1  0.6225520E+003  0.2348574E+02  0.7546771E-02  0.1486487E+00
          2   -1    0    0  502    0  0.00000000000E+00  0.00000000000E+00  0.77842544905E+03  0.77842544905E+03  0.00000000000E+00 0. -1.
          2   -1    0    0  501    0 -0.00000000000E+00 -0.00000000000E+00 -0.93411483570E+00  0.93411483570E+00  0.00000000000E+00 0.  1.
          2    1    1    2  501    0  0.21421275857E+02  0.96285380680E+01  0.58022006843E+03  0.58069519338E+03  0.00000000000E+00 0. -1.
          2    1    1    2  502    0 -0.21421275857E+02 -0.96285380680E+01  0.19727126579E+03  0.19866437051E+03  0.00000000000E+00 0.  1.
</event>
<event>
 4    1  0.6225520E+003  0.2378974E+02  0.7546771E-02  0.1482812E+00
          2   -1    0    0  501    0  0.00000000000E+00  0.00000000000E+00  0.22661131013E+02  0.22661131013E+02  0.00000000000E+00 0.  1.
          2   -1    0    0  502    0 -0.00000000000E+00 -0.00000000000E+00 -0.36249797505E+02  0.36249797505E+02  0.00000000000E+00 0.  1.
          2    1    1    2  501    0 -0.19184377354E+02 -0.14068100793E+02 -0.23222001109E+02  0.33244745899E+02  0.00000000000E+00 0.  1.
          2    1    1    2  502    0  0.19184377354E+02  0.14068100793E+02  0.96333346170E+01  0.25666182619E+02  0.00000000000E+00 0.  1.
</event>
<event>
 4    1  0.6225520E+003  0.2505075E+02  0.7546771E-02  0.1468236E+00
          2   -1    0    0  502    0  0.00000000000E+00  0.00000000000E+00  0.30276995130E+01  0.30276995130E+01  0.00000000000E+00 0.  1.
          2   -1    0    0  501    0 -0.00000000000E+00 -0.00000000000E+00 -0.11058329794E+04  0.11058329794E+04  0.00000000000E+00 0. -1.
          2    1    1    2  501    0  0.24536916462E+02 -0.50477608912E+01 -0.51624372594E+02  0.57381321048E+02  0.00000000000E+00 0.  1.
          2    1    1    2  502    0 -0.24536916462E+02  0.50477608912E+01 -0.10511809073E+04  0.10514793578E+04  0.00000000000E+00 0. -1.
</event>
<event>
 4    1  0.6225520E+003  0.2672928E+02  0.7546771E-02  0.1450347E+00
          2   -1    0    0  501    0  0.00000000000E+00  0.00000000000E+00  0.35234318183E+01  0.35234318183E+01  0.00000000000E+00 0.  1.
          2   -1    0    0  502    0 -0.00000000000E+00 -0.00000000000E+00 -0.36212151057E+03  0.36212151057E+03  0.00000000000E+00 0. -1.
          2    1    1    2  501    0  0.13430872820E+02 -0.23109869936E+02 -0.30057573305E+03  0.30176186925E+03  0.00000000000E+00 0. -1.
          2    1    1    2  502    0 -0.13430872820E+02  0.23109869936E+02 -0.58022345698E+02  0.63883073137E+02  0.00000000000E+00 0.  1.
</event>
<event>
 4    1  0.6225520E+003  0.2435717E+02  0.7546771E-02  0.1476125E+00
          2   -1    0    0  502    0  0.00000000000E+00  0.00000000000E+00  0.69481659440E+01  0.69481659440E+01  0.00000000000E+00 0.  1.
          2   -1    0    0  501    0 -0.00000000000E+00 -0.00000000000E+00 -0.47659101632E+03  0.47659101632E+03  0.00000000000E+00 0. -1.
          2    1    1    2  501    0  0.20265793256E+02 -0.13511824083E+02 -0.15777454397E+02  0.29020679413E+02  0.00000000000E+00 0.  1.
          2    1    1    2  502    0 -0.20265793256E+02  0.13511824083E+02 -0.45386539598E+03  0.45451850285E+03  0.00000000000E+00 0. -1.
</event>
<event>
 4    1  0.6225520E+003  0.2299753E+02  0.7546771E-02  0.1492529E+00
          2   -1    0    0  502    0  0.00000000000E+00  0.00000000000E+00  0.35025402843E+03  0.35025402843E+03  0.00000000000E+00 0.  1.
          2   -1    0    0  501    0 -0.00000000000E+00 -0.00000000000E+00 -0.94831147443E+01  0.94831147443E+01  0.00000000000E+00 0. -1.
          2    1    1    2  501    0  0.14345549818E+02 -0.17974743111E+02  0.33531315110E+03  0.33610087100E+03  0.00000000000E+00 0.  1.
          2    1    1    2  502    0 -0.14345549818E+02  0.17974743111E+02  0.54577625814E+01  0.23636272165E+02  0.00000000000E+00 0. -1.
</event>
<event>
 4    1  0.6225520E+003  0.2128387E+02  0.7546771E-02  0.1515250E+00
          2   -1    0    0  502    0  0.00000000000E+00  0.00000000000E+00  0.11160537746E+02  0.11160537746E+02  0.00000000000E+00 0.  1.
          2   -1    0    0  501    0 -0.00000000000E+00 -0.00000000000E+00 -0.81475317025E+03  0.81475317025E+03  0.00000000000E+00 0.  1.
          2    1    1    2  501    0  0.28556000369E+01 -0.21091432650E+02  0.74270281656E+00  0.21296821131E+02  0.00000000000E+00 0.  1.
          2    1    1    2  502    0 -0.28556000369E+01  0.21091432650E+02 -0.80433533532E+03  0.80461688687E+03  0.00000000000E+00 0.  1.
</event>
<event>
 4    1  0.6225520E+003  0.2296726E+02  0.7546771E-02  0.1492910E+00
          2   -1    0    0  501    0  0.00000000000E+00  0.00000000000E+00  0.54781361354E+01  0.54781361354E+01  0.00000000000E+00 0.  1.
          2   -1    0    0  502    0 -0.00000000000E+00 -0.00000000000E+00 -0.90278607962E+03  0.90278607962E+03  0.00000000000E+00 0. -1.
          2    1    1    2  501    0  0.69323165175E+01 -0.21896070905E+02 -0.87788455241E+03  0.87818493627E+03  0.00000000000E+00 0. -1.
          2    1    1    2  502    0 -0.69323165175E+01  0.21896070905E+02 -0.19423391071E+02  0.30079279481E+02  0.00000000000E+00 0.  1.
</event>
<event>
 4    1  0.6225520E+003  0.2906915E+02  0.7546771E-02  0.1427862E+00
          2   -1    0    0  501    0  0.00000000000E+00  0.00000000000E+00  0.11218130310E+02  0.11218130310E+02  0.00000000000E+00 0.  1.
          2   -1    0    0  502    0 -0.00000000000E+00 -0.00000000000E+00 -0.87412083226E+02  0.87412083226E+02  0.00000000000E+00 0.  1.
          2    1    1    2  501    0 -0.12475034687E+02 -0.26256222245E+02 -0.19759526853E+02  0.35149034104E+02  0.00000000000E+00 0.  1.
          2    1    1    2  502    0  0.12475034687E+02  0.26256222245E+02 -0.56434426063E+02  0.63481179432E+02  0.00000000000E+00 0.  1.
</event>
<event>
 4    1  0.6225520E+003  0.2475614E+02  0.7546771E-02  0.1471550E+00
          2   -1    0    0  502    0  0.00000000000E+00  0.00000000000E+00  0.22412243157E+02  0.22412243157E+02  0.00000000000E+00 0. -1.
          2   -1    0    0  501    0 -0.00000000000E+00 -0.00000000000E+00 -0.95451250241E+03  0.95451250241E+03  0.00000000000E+00 0.  1.
          2    1    1    2  501    0  0.34568679606E+01 -0.24513596383E+02  0.15364592770E+02  0.29136524411E+02  0.00000000000E+00 0. -1.
          2    1    1    2  502    0 -0.34568679606E+01  0.24513596383E+02 -0.94746485203E+03  0.94778822116E+03  0.00000000000E+00 0.  1.
</event>
<event>
 4    1  0.6225520E+003  0.2333817E+02  0.7546771E-02  0.1488295E+00
          2   -1    0    0  501    0  0.00000000000E+00  0.00000000000E+00  0.31906411841E+02  0.31906411841E+02  0.00000000000E+00 0.  1.
          2   -1    0    0  502    0 -0.00000000000E+00 -0.00000000000E+00 -0.20249509186E+02  0.20249509186E+02  0.00000000000E+00 0.  1.
          2    1    1    2  501    0 -0.22791854248E+02 -0.50201161834E+01 -0.45036114631E+01  0.23768733722E+02  0.00000000000E+00 0.  1.
          2    1    1    2  502    0  0.22791854248E+02  0.50201161834E+01  0.16160514118E+02  0.28387187305E+02  0.00000000000E+00 0.  1.
</event>
<event>
 4    1  0.6225520E+003  0.2753092E+02  0.7546771E-02  0.1442347E+00
          2   -1    0    0  501    0  0.00000000000E+00  0.00000000000E+00  0.44315886773E+01  0.44315886773E+01  0.00000000000E+00 0. -1.
          2   -1    0    0  502    0 -0.00000000000E+00 -0.00000000000E+00 -0.70761772296E+03  0.70761772296E+03  0.00000000000E+00 0. -1.
          2    1    1    2  501    0  0.27443285094E+02 -0.21949030664E+01 -0.66162008901E+03  0.66219264091E+03  0.00000000000E+00 0. -1.
          2    1    1    2  502    0 -0.27443285094E+02  0.21949030664E+01 -0.41566045274E+02  0.49856670727E+02  0.00000000000E+00 0. -1.
</event>
<event>
 4    1  0.6225520E+003  0.2355328E+02  0.7546771E-02  0.1485665E+00
          2   -1    0    0  501    0  0.00000000000E+00  0.00000000000E+00  0.51159498436E+01  0.51159498436E+01  0.00000000000E+00 0. -1.
          2   -1    0    0  502    0 -0.00000000000E+00 -0.00000000000E+00 -0.16705580834E+04  0.16705580834E+04  0.00000000000E+00 0. -1.
          2    1    1    2  501    0  0.22597977252E+02 -0.66398947692E+01 -0.16429096911E+04  0.16430785160E+04  0.00000000000E+00 0. -1.
          2    1    1    2  502    0 -0.22597977252E+02  0.66398947692E+01 -0.22532442459E+02  0.32595517201E+02  0.00000000000E+00 0. -1.
</event>
<event>
 4    1  0.6225520E+003  0.2854671E+02  0.7546771E-02  0.1432661E+00
          2   -1    0    0  502    0  0.00000000000E+00  0.00000000000E+00  0.16913257104E+02  0.16913257104E+02  0.00000000000E+00 0. -1.
          2   -1    0    0  501    0 -0.00000000000E+00 -0.00000000000E+00 -0.19197292128E+03  0.19197292128E+03  0.00000000000E+00 0. -1.
          2    1    1    2  501    0 -0.28111983487E+02  0.49629680095E+01  0.28612207681E+01  0.28689741221E+02  0.00000000000E+00 0. -1.
          2    1    1    2  502    0  0.28111983487E+02 -0.49629680095E+01 -0.17792088494E+03  0.18019643716E+03  0.00000000000E+00 0. -1.
</event>
<event>
 4    1  0.6225520E+003  0.2264941E+02  0.7546771E-02  0.1496948E+00
          2   -1    0    0  502    0  0.00000000000E+00  0.00000000000E+00  0.61361242315E+03  0.61361242315E+03  0.00000000000E+00 0.  1.
          2   -1    0    0  501    0 -0.00000000000E+00 -0.00000000000E+00 -0.47292745472E+02  0.47292745472E+02  0.00000000000E+00 0. -1.
          2    1    1    2  501    0 -0.19838986108E+02  0.10927503141E+02  0.61067858342E+03  0.61109846011E+03  0.00000000000E+00 0.  1.
          2    1    1    2  502    0  0.19838986108E+02 -0.10927503141E+02 -0.44358905741E+02  0.49806708517E+02  0.00000000000E+00 0. -1.
</event>
<event>
 4    1  0.6225520E+003  0.2423044E+02  0.7546771E-02  0.1477600E+00
          2   -1    0    0  501    0  0.00000000000E+00  0.00000000000E+00  0.10709858904E+03  0.10709858904E+03  0.00000000000E+00 0. -1.
          2   -1    0    0  502    0 -0.00000000000E+00 -0.00000000000E+00 -0.27492798256E+03  0.27492798256E+03  0.00000000000E+00 0.  1.
          2    1    1    2  501    0 -0.37336560961E+00  0.24227560448E+02 -0.27301401450E+03  0.27408715074E+03  0.00000000000E+00 0.  1.
          2    1    1    2  502    0  0.37336560961E+00 -0.24227560448E+02  0.10518462097E+03  0.10793942086E+03  0.00000000000E+00 0. -1.
</event>
<event>
 4    1  0.6225520E+003  0.2466524E+02  0.7546771E-02  0.1472583E+00
          2   -1    0    0  501    0  0.00000000000E+00  0.00000000000E+00  0.67806027452E+03  0.67806027452E+03  0.00000000000E+00 0.  1.
          2   -1    0    0  502    0 -0.00000000000E+00 -0.00000000000E+00 -0.94989165071E+00  0.94989165071E+00  0.00000000000E+00 0.  1.
          2    1    1    2  501    0 -0.23282860482E+02  0.81414179567E+01  0.25861465277E+03  0.25978820779E+03  0.00000000000E+00 0.  1.
          2    1    1    2  502    0  0.23282860482E+02 -0.81414179567E+01  0.41849573010E+03  0.41922195838E+03  0.00000000000E+00 0.  1.
</event>
<event>
 4    1  0.6943917E+003  0.2245847E+02  0.7546771E-02  0.1499413E+00
          2   -1    0    0  501    0  0.00000000000E+00  0.00000000000E+00  0.14821674511E+04  0.14821674511E+04  0.00000000000E+00 0.  1.
          2   -1    0    0  502    0 -0.00000000000E+00 -0.00000000000E+00 -0.33409128465E+03  0.33409128465E+03  0.00000000000E+00 0. -1.
          2    1    1    2  501    0  0.21076428499E+02  0.77567270529E+01 -0.33362866286E+03  0.33438371273E+03  0.00000000000E+00 0. -1.
          2    1    1    2  502    0 -0.21076428499E+02 -0.77567270529E+01  0.14817048293E+04  0.14818750230E+04  0.00000000000E+00 0.  1.
</event>
<event>
 4    1  0.6225520E+003  0.3094764E+02  0.7546771E-02  0.1411536E+00
          2   -1    0    0  501    0  0.00000000000E+00  0.00000000000E+00  0.10880633140E+04  0.10880633140E+04  0.00000000000E+00 0. -1.
          2   -1    0    0  502    0 -0.00000000000E+00 -0.00000000000E+00 -0.65928857599E+02  0.65928857599E+02  0.00000000000E+00 0.  1.
          2    1    1    2  501    0  0.17775330668E+02 -0.25333651776E+02 -0.62064074864E+02  0.69352041653E+02  0.00000000000E+00 0.  1.
          2    1    1    2  502    0 -0.17775330668E+02  0.25333651776E+02  0.10841985313E+04  0.10846401300E+04  0.00000000000E+00 0. -1.
</event>
<event>
 4    1  0.6225520E+003  0.4650370E+02  0.7546771E-02  0.1314087E+00
          2   -1    0    0  502    0  0.00000000000E+00  0.00000000000E+00  0.10583903786E+02  0.10583903786E+02  0.00000000000E+00 0. -1.
          2   -1    0    0  501    0 -0.00000000000E+00 -0.00000000000E+00 -0.70862829074E+03  0.70862829074E+03  0.00000000000E+00 0.  1.
          2    1    1    2  501    0  0.30757850211E+02 -0.34879059222E+02 -0.45659508691E+02  0.65171963725E+02  0.00000000000E+00 0. -1.
          2    1    1    2  502    0 -0.30757850211E+02  0.34879059222E+02 -0.65238487826E+03  0.65404023080E+03  0.00000000000E+00 0.  1.
</event>
<event>
 4    1  0.6225520E+003  0.3048525E+02  0.7546771E-02  0.1415426E+00
          2   -1    0    0  501    0  0.00000000000E+00  0.00000000000E+00  0.12490409572E+04  0.12490409572E+04  0.00000000000E+00 0.  1.
          2   -1    0    0  502    0 -0.00000000000E+00 -0.00000000000E+00 -0.99669660266E+00  0.99669660266E+00  0.00000000000E+00 0.  1.
          2    1    1    2  501    0 -0.24123268011E+02  0.18639169609E+02  0.30934359677E+03  0.31084210069E+03  0.00000000000E+00 0.  1.
          2    1    1    2  502    0  0.24123268011E+02 -0.18639169609E+02  0.93870066386E+03  0.93919555313E+03  0.00000000000E+00 0.  1.
</event>
<event>
 4    1  0.6418171E+003  0.4655989E+02  0.7546771E-02  0.1313819E+00
          2   -1    0    0  502    0  0.00000000000E+00  0.00000000000E+00  0.10292310411E+04  0.10292310411E+04  0.00000000000E+00 0.  1.
          2   -1    0    0  501    0 -0.00000000000E+00 -0.00000000000E+00 -0.23741551418E+04  0.23741551418E+04  0.00000000000E+00 0. -1.
          2    1    1    2  501    0 -0.41935709047E+02  0.20229168410E+02  0.10284760368E+04  0.10295293979E+04  0.00000000000E+00 0.  1.
          2    1    1    2  502    0  0.41935709047E+02 -0.20229168410E+02 -0.23734001375E+04  0.23738567850E+04  0.00000000000E+00 0. -1.
</event>
<event>
 4    1  0.6225520E+003  0.2390009E+02  0.7546771E-02  0.1481495E+00
          2   -1    0    0  501    0  0.00000000000E+00  0.00000000000E+00  0.16241771408E+01  0.16241771408E+01  0.00000000000E+00 0. -1.
          2   -1    0    0  502    0 -0.00000000000E+00 -0.00000000000E+00 -0.83657266823E+03  0.83657266823E+03  0.00000000000E+00 0. -1.
          2    1    1    2  501    0 -0.23890301605E+02 -0.68383789649E+00 -0.73654023386E+03  0.73692790030E+03  0.00000000000E+00 0. -1.
          2    1    1    2  502    0  0.23890301605E+02  0.68383789649E+00 -0.98408257235E+02  0.10126894508E+03  0.00000000000E+00 0. -1.
</event>
<event>
 4    1  0.6225520E+003  0.4256659E+02  0.7546771E-02  0.1334068E+00
          2   -1    0    0  502    0  0.00000000000E+00  0.00000000000E+00  0.36033454554E+03  0.36033454554E+03  0.00000000000E+00 0.  1.
          2   -1    0    0  501    0 -0.00000000000E+00 -0.00000000000E+00 -0.90639816277E+02  0.90639816277E+02  0.00000000000E+00 0.  1.
          2    1    1    2  501    0  0.42098447455E+02 -0.62956324935E+01  0.35399063221E+03  0.35654071571E+03  0.00000000000E+00 0.  1.
          2    1    1    2  502    0 -0.42098447455E+02  0.62956324935E+01 -0.84295902938E+02  0.94433646116E+02  0.00000000000E+00 0.  1.
</event>
<event>
 4    1  0.6225520E+003  0.2140750E+02  0.7546771E-02  0.1513526E+00
          2   -1    0    0  501    0  0.00000000000E+00  0.00000000000E+00  0.81767736439E+03  0.81767736439E+03  0.00000000000E+00 0.  1.
          2   -1    0    0  502    0 -0.00000000000E+00 -0.00000000000E+00 -0.62483657311E+01  0.62483657311E+01  0.00000000000E+00 0. -1.
          2    1    1    2  501    0 -0.81998070017E+01  0.19774834483E+02  0.12661794669E+02  0.24871709992E+02  0.00000000000E+00 0. -1.
          2    1    1    2  502    0  0.81998070017E+01 -0.19774834483E+02  0.79876720399E+03  0.79905402013E+03  0.00000000000E+00 0.  1.
</event>
<event>
 4    1  0.6225520E+003  0.2245127E+02  0.7546771E-02  0.1499506E+00
          2   -1    0    0  502    0  0.00000000000E+00  0.00000000000E+00  0.89330117891E+02  0.89330117891E+02  0.00000000000E+00 0.  1.
          2   -1    0    0  501    0 -0.00000000000E+00 -0.00000000000E+00 -0.89444383492E+01  0.89444383492E+01  0.00000000000E+00 0. -1.
          2    1    1    2  501    0  0.20261935611E+02  0.96702364252E+01  0.70047250137E+02  0.73557302554E+02  0.00000000000E+00 0.  1.
          2    1    1    2  502    0 -0.20261935611E+02 -0.96702364252E+01  0.10338429405E+02  0.24717253686E+02  0.00000000000E+00 0. -1.
</event>
<event>
 4    1  0.6225520E+003  0.2822030E+02  0.7546771E-02  0.1435721E+00
          2   -1    0    0  502    0  0.00000000000E+00  0.00000000000E+00  0.50627010383E+01  0.50627010383E+01  0.00000000000E+00 0. -1.
          2   -1    0    0  501    0 -0.00000000000E+00 -0.00000000000E+00 -0.10332802229E+04  0.10332802229E+04  0.00000000000E+00 0.  1.
          2    1    1    2  501    0  0.12928964244E+02  0.25084405988E+02 -0.36086860460E+02  0.45810992546E+02  0.00000000000E+00 0. -1.
          2    1    1    2  502    0 -0.12928964244E+02 -0.25084405988E+02 -0.99213066144E+03  0.99253193143E+03  0.00000000000E+00 0.  1.
</event>
<event>
 4    1  0.9039199E+003  0.2240549E+02  0.7546771E-02  0.1500101E+00
          2   -1    0    0  501    0  0.00000000000E+00  0.00000000000E+00  0.70735461082E+03  0.70735461082E+03  0.00000000000E+00 0.  1.
          2   -1    0    0  502    0 -0.00000000000E+00 -0.00000000000E+00 -0.65798984589E+03  0.65798984589E+03  0.00000000000E+00 0.  1.
          2    1    1    2  501    0  0.21816767978E+02 -0.51024074829E+01 -0.65762158818E+03  0.65800316045E+03  0.00000000000E+00 0.  1.
          2    1    1    2  502    0 -0.21816767978E+02  0.51024074829E+01  0.70698635311E+03  0.70734129627E+03  0.00000000000E+00 0.  1.
</event>
<event>
 4    1  0.6225520E+003  0.1109207E+03  0.7546771E-02  0.1146121E+00
          2   -1    0    0  502    0  0.00000000000E+00  0.00000000000E+00  0.55849132686E+02  0.55849132686E+02  0.00000000000E+00 0.  1.
          2   -1    0    0  501    0 -0.00000000000E+00 -0.00000000000E+00 -0.23215225786E+03  0.23215225786E+03  0.00000000000E+00 0.  1.
          2    1    1    2  501    0  0.60496501860E+02 -0.92970841964E+02 -0.55610549154E+02  0.12408036658E+03  0.00000000000E+00 0.  1.
          2    1    1    2  502    0 -0.60496501860E+02  0.92970841964E+02 -0.12069257602E+03  0.16392102397E+03  0.00000000000E+00 0.  1.
</event>
<event>
 4    1  0.6225520E+003  0.2158787E+02  0.7546771E-02  0.1511035E+00
          2   -1    0    0  501    0  0.00000000000E+00  0.00000000000E+00  0.31229557765E+03  0.31229557765E+03  0.00000000000E+00 0.  1.
          2   -1    0    0  502    0 -0.00000000000E+00 -0.00000000000E+00 -0.29676947572E+03  0.29676947572E+03  0.00000000000E+00 0.  1.
          2    1    1    2  501    0  0.14888578525E+02 -0.15632222615E+02 -0.29600284675E+03  0.29678901840E+03  0.00000000000E+00 0.  1.
          2    1    1    2  502    0 -0.14888578525E+02  0.15632222615E+02  0.31152894868E+03  0.31227603497E+03  0.00000000000E+00 0.  1.
</event>
<event>
 4    1  0.6225520E+003  0.3190510E+02  0.7546771E-02  0.1403733E+00
          2   -1    0    0  502    0  0.00000000000E+00  0.00000000000E+00  0.78743344998E+01  0.78743344998E+01  0.00000000000E+00 0.  1.
          2   -1    0    0  501    0 -0.00000000000E+00 -0.00000000000E+00 -0.16021493240E+04  0.16021493240E+04  0.00000000000E+00 0.  1.
          2    1    1    2  501    0 -0.24948040820E+02 -0.19887956412E+02 -0.25285610120E+02  0.40709920537E+02  0.00000000000E+00 0.  1.
          2    1    1    2  502    0  0.24948040820E+02  0.19887956412E+02 -0.15689893794E+04  0.15693137380E+04  0.00000000000E+00 0.  1.
</event>
<event>
 4    1  0.6225520E+003  0.3411638E+02  0.7546771E-02  0.1386884E+00
          2   -1    0    0  502    0  0.00000000000E+00  0.00000000000E+00  0.22695679316E+03  0.22695679316E+03  0.00000000000E+00 0. -1.
          2   -1    0    0  501    0 -0.00000000000E+00 -0.00000000000E+00 -0.53550282171E+02  0.53550282171E+02  0.00000000000E+00 0.  1.
          2    1    1    2  501    0  0.19725579185E-01 -0.34116374646E+02  0.22007189859E+03  0.22270062406E+03  0.00000000000E+00 0. -1.
          2    1    1    2  502    0 -0.19725579185E-01  0.34116374646E+02 -0.46665387603E+02  0.57806451268E+02  0.00000000000E+00 0.  1.
</event>
<event>
 4    1  0.6225520E+003  0.2092685E+02  0.7546771E-02  0.1520312E+00
          2   -1    0    0  501    0  0.00000000000E+00  0.00000000000E+00  0.53559691475E+03  0.53559691475E+03  0.00000000000E+00 0. -1.
          2   -1    0    0  502    0 -0.00000000000E+00 -0.00000000000E+00 -0.35045225411E+02  0.35045225411E+02  0.00000000000E+00 0.  1.
          2    1    1    2  501    0 -0.82013558737E+01 -0.19252808271E+02 -0.31697112538E+02  0.37982098517E+02  0.00000000000E+00 0.  1.
          2    1    1    2  502    0  0.82013558737E+01  0.19252808271E+02  0.53224880187E+03  0.53266004164E+03  0.00000000000E+00 0. -1.
</event>
<event>
 4    1  0.6225520E+003  0.3207149E+02  0.7546771E-02  0.1402410E+00
          2   -1    0    0  501    0  0.00000000000E+00  0.00000000000E+00  0.12993423564E+02  0.12993423564E+02  0.00000000000E+00 0.  1.
          2   -1    0    0  502    0 -0.00000000000E+00 -0.00000000000E+00 -0.15681444071E+04  0.15681444071E+04  0.00000000000E+00 0.  1.
          2    1    1    2  501    0  0.14157624341E+02  0.28777460028E+02 -0.15479316262E+04  0.15482638341E+04  0.00000000000E+00 0.  1.
          2    1    1    2  502    0 -0.14157624341E+02 -0.28777460028E+02 -0.72193573682E+01  0.32873996615E+02  0.00000000000E+00 0.  1.
</event>
<event>
 4    1  0.6225520E+003  0.3433926E+02  0.7546771E-02  0.1385269E+00
          2   -1    0    0  501    0  0.00000000000E+00  0.00000000000E+00  0.17986718045E+03  0.17986718045E+03  0.00000000000E+00 0. -1.
          2   -1    0    0  502    0 -0.00000000000E+00 -0.00000000000E+00 -0.77820991122E+01  0.77820991122E+01  0.00000000000E+00 0.  1.
          2    1    1    2  501    0 -0.25164632745E+02 -0.23365067243E+02  0.48798647645E+02  0.59669867776E+02  0.00000000000E+00 0.  1.
          2    1    1    2  502    0  0.25164632745E+02  0.23365067243E+02  0.12328643369E+03  0.12797941179E+03  0.00000000000E+00 0. -1.
</event>
<event>
 4    1  0.6225520E+003  0.1418362E+03  0.7546771E-02  0.1106292E+00
          2   -1    0    0  502    0  0.00000000000E+00  0.00000000000E+00  0.34705111471E+03  0.34705111471E+03  0.00000000000E+00 0. -1.
          2   -1    0    0  501    0 -0.00000000000E+00 -0.00000000000E+00 -0.87137819089E+03  0.87137819089E+03  0.00000000000E+00 0. -1.
          2    1    1    2  501    0 -0.30366188621E+02  0.13854744441E+03  0.32643892932E+03  0.35592116309E+03  0.00000000000E+00 0. -1.
          2    1    1    2  502    0  0.30366188621E+02 -0.13854744441E+03 -0.85076600550E+03  0.86250814250E+03  0.00000000000E+00 0. -1.
</event>
<event>
 4    1  0.6225520E+003  0.2212715E+02  0.7546771E-02  0.1503759E+00
          2   -1    0    0  501    0  0.00000000000E+00  0.00000000000E+00  0.13394252526E+02  0.13394252526E+02  0.00000000000E+00 0. -1.
          2   -1    0    0  502    0 -0.00000000000E+00 -0.00000000000E+00 -0.60566640535E+02  0.60566640535E+02  0.00000000000E+00 0. -1.
          2    1    1    2  501    0 -0.21662457110E+02 -0.45109518332E+01 -0.46871247487E+02  0.51831694700E+02  0.00000000000E+00 0. -1.
          2    1    1    2  502    0  0.21662457110E+02  0.45109518332E+01 -0.30114052212E+00  0.22129198361E+02  0.00000000000E+00 0. -1.
</event>
<event>
 4    1  0.6225520E+003  0.2186166E+02  0.7546771E-02  0.1507309E+00
          2   -1    0    0  502    0  0.00000000000E+00  0.00000000000E+00  0.25352231612E+03  0.25352231612E+03  0.00000000000E+00 0.  1.
          2   -1    0    0  501    0 -0.00000000000E+00 -0.00000000000E+00 -0.59483627678E+03  0.59483627678E+03  0.00000000000E+00 0. -1.
          2    1    1    2  501    0  0.50118140243E+01 -0.21279429107E+02  0.25284962330E+03  0.25379295574E+03  0.00000000000E+00 0.  1.
          2    1    1    2  502    0 -0.50118140243E+01  0.21279429107E+02 -0.59416358396E+03  0.59456563716E+03  0.00000000000E+00 0. -1.
</event>
<event>
 4    1  0.6225520E+003  0.2275733E+02  0.7546771E-02  0.1495568E+00
          2   -1    0    0  501    0  0.00000000000E+00  0.00000000000E+00  0.14418288374E+02  0.14418288374E+02  0.00000000000E+00 0. -1.
          2   -1    0    0  502    0 -0.00000000000E+00 -0.00000000000E+00 -0.91297041655E+02  0.91297041655E+02  0.00000000000E+00 0.  1.
          2    1    1    2  501    0 -0.20466153254E+02  0.99515232097E+01 -0.79606152673E+02  0.82795143497E+02  0.00000000000E+00 0.  1.
          2    1    1    2  502    0  0.20466153254E+02 -0.99515232097E+01  0.27273993920E+01  0.22920186532E+02  0.00000000000E+00 0. -1.
</event>
<event>
 4    1  0.6225520E+003  0.2102118E+02  0.7546771E-02  0.1518963E+00
          2   -1    0    0  501    0  0.00000000000E+00  0.00000000000E+00  0.28310123207E+03  0.28310123207E+03  0.00000000000E+00 0. -1.
          2   -1    0    0  502    0 -0.00000000000E+00 -0.00000000000E+00 -0.14111013374E+02  0.14111013374E+02  0.00000000000E+00 0.  1.
          2    1    1    2  501    0  0.17496930129E+02 -0.11651073172E+02 -0.56511748673E+01  0.21767541142E+02  0.00000000000E+00 0.  1.
          2    1    1    2  502    0 -0.17496930129E+02  0.11651073172E+02  0.27464139356E+03  0.27544470430E+03  0.00000000000E+00 0. -1.
</event>
<event>
 4    1  0.6225520E+003  0.2434441E+02  0.7546771E-02  0.1476273E+00
          2   -1    0    0  501    0  0.00000000000E+00  0.00000000000E+00  0.83178851069E+01  0.83178851069E+01  0.00000000000E+00 0.  1.
          2   -1    0    0  502    0 -0.00000000000E+00 -0.00000000000E+00 -0.75569483896E+03  0.75569483896E+03  0.00000000000E+00 0. -1.
          2    1    1    2  501    0  0.24344073826E+02 -0.12884303858E+00 -0.73724048502E+03  0.73764231392E+03  0.00000000000E+00 0. -1.
          2    1    1    2  502    0 -0.24344073826E+02  0.12884303858E+00 -0.10136468833E+02  0.26370410148E+02  0.00000000000E+00 0.  1.
</event>
<event>
 4    1  0.6225520E+003  0.2454896E+02  0.7546771E-02  0.1473913E+00
          2   -1    0    0  501    0  0.00000000000E+00  0.00000000000E+00  0.26008057429E+03  0.26008057429E+03  0.00000000000E+00 0.  1.
          2   -1    0    0  502    0 -0.00000000000E+00 -0.00000000000E+00 -0.23235247269E+01  0.23235247269E+01  0.00000000000E+00 0.  1.
          2    1    1    2  501    0 -0.11679217162E+02  0.21592765518E+02  0.12201860192E+03  0.12446361256E+03  0.00000000000E+00 0.  1.
          2    1    1    2  502    0  0.11679217162E+02 -0.21592765518E+02  0.13573844763E+03  0.13794048645E+03  0.00000000000E+00 0.  1.
</event>
<event>
 4    1  0.6225520E+003  0.2234796E+02  0.7546771E-02  0.1500852E+00
          2   -1    0    0  502    0  0.00000000000E+00  0.00000000000E+00  0.52394365212E+03  0.52394365212E+03  0.00000000000E+00 0. -1.
          2   -1    0    0  501    0 -0.00000000000E+00 -0.00000000000E+00 -0.16540063479E+02  0.16540063479E+02  0.00000000000E+00 0. -1.
          2    1    1    2  501    0 -0.10650427800E+02 -0.19646877662E+02  0.51604098611E+03  0.51652466617E+03  0.00000000000E+00 0. -1.
          2    1    1    2  502    0  0.10650427800E+02  0.19646877662E+02 -0.86373974752E+01  0.23959049425E+02  0.00000000000E+00 0. -1.
</event>
<event>
 4    1  0.6225520E+003  0.2305234E+02  0.7546771E-02  0.1491842E+00
          2   -1    0    0  501    0  0.00000000000E+00  0.00000000000E+00  0.35200701020E+01  0.35200701020E+01  0.00000000000E+00 0. -1.
          2   -1    0    0  502    0 -0.00000000000E+00 -0.00000000000E+00 -0.18901515542E+03  0.18901515542E+03  0.00000000000E+00 0. -1.
          2    1    1    2  501    0 -0.19716522924E+02 -0.11944424935E+02 -0.49555380005E+02  0.54654791654E+02  0.00000000000E+00 0. -1.
          2    1    1    2  502    0  0.19716522924E+02  0.11944424935E+02 -0.13593970531E+03  0.13788043386E+03  0.00000000000E+00 0. -1.
</event>
<event>
 4    1  0.6225520E+003  0.3030002E+02  0.7546771E-02  0.1417007E+00
          2   -1    0    0  501    0  0.00000000000E+00  0.00000000000E+00  0.20131338713E+04  0.20131338713E+04  0.00000000000E+00 0.  1.
          2   -1    0    0  502    0 -0.00000000000E+00 -0.00000000000E+00 -0.61286760723E+00  0.61286760723E+00  0.00000000000E+00 0.  1.
          2    1    1    2  501    0  0.19020520126E+02  0.23586252536E+02  0.49694405672E+03  0.49786693705E+03  0.00000000000E+00 0.  1.
          2    1    1    2  502    0 -0.19020520126E+02 -0.23586252536E+02  0.15155769470E+04  0.15158798019E+04  0.00000000000E+00 0.  1.
</event>
<event>
 4    1  0.6225520E+003  0.4832002E+02  0.7546771E-02  0.1305625E+00
          2   -1    0    0  501    0  0.00000000000E+00  0.00000000000E+00  0.10169726697E+04  0.10169726697E+04  0.00000000000E+00 0.  1.
          2   -1    0    0  502    0 -0.00000000000E+00 -0.00000000000E+00 -0.16331478926E+03  0.16331478926E+03  0.00000000000E+00 0. -1.
          2    1    1    2  501    0  0.82478377423E+01 -0.47610894062E+02 -0.15915202720E+03  0.16632555974E+03  0.00000000000E+00 0. -1.
          2    1    1    2  502    0 -0.82478377423E+01  0.47610894062E+02  0.10128099077E+04  0.10139618993E+04  0.00000000000E+00 0.  1.
</event>
<event>
 4    1  0.6225520E+003  0.2475830E+02  0.7546771E-02  0.1471525E+00
          2   -1    0    0  502    0  0.00000000000E+00  0.00000000000E+00  0.40641702534E+01  0.40641702534E+01  0.00000000000E+00 0.  1.
          2   -1    0    0  501    0 -0.00000000000E+00 -0.00000000000E+00 -0.67071927076E+03  0.67071927076E+03  0.00000000000E+00 0. -1.
          2    1    1    2  501    0  0.15404866080E+01 -0.24710330310E+02 -0.36282682114E+02  0.43925010466E+02  0.00000000000E+00 0.  1.
          2    1    1    2  502    0 -0.15404866080E+01  0.24710330310E+02 -0.63037241839E+03  0.63085843054E+03  0.00000000000E+00 0. -1.
</event>
<event>
 4    1  0.6225520E+003  0.2150336E+02  0.7546771E-02  0.1512198E+00
          2   -1    0    0  502    0  0.00000000000E+00  0.00000000000E+00  0.13939534595E+02  0.13939534595E+02  0.00000000000E+00 0.  1.
          2   -1    0    0  501    0 -0.00000000000E+00 -0.00000000000E+00 -0.12552369240E+03  0.12552369240E+03  0.00000000000E+00 0.  1.
          2    1    1    2  501    0 -0.18501009692E+02 -0.10959343393E+02  0.40202324165E+01  0.21875941943E+02  0.00000000000E+00 0.  1.
          2    1    1    2  502    0  0.18501009692E+02  0.10959343393E+02 -0.11560439022E+03  0.11758728505E+03  0.00000000000E+00 0.  1.
</event>
<event>
 4    1  0.6225520E+003  0.2182839E+02  0.7546771E-02  0.1507758E+00
          2   -1    0    0  502    0  0.00000000000E+00  0.00000000000E+00  0.25008603459E+03  0.25008603459E+03  0.00000000000E+00 0. -1.
          2   -1    0    0  501    0 -0.00000000000E+00 -0.00000000000E+00 -0.83000978239E+01  0.83000978239E+01  0.00000000000E+00 0.  1.
          2    1    1    2  501    0 -0.63205396006E+01 -0.20893289611E+02  0.23429279425E+03  0.23530744189E+03  0.00000000000E+00 0. -1.
          2    1    1    2  502    0  0.63205396006E+01  0.20893289611E+02  0.74931425197E+01  0.23078690527E+02  0.00000000000E+00 0.  1.
</event>
<event>
 4    1  0.6225520E+003  0.2613835E+02  0.7546771E-02  0.1456461E+00
          2   -1    0    0  501    0  0.00000000000E+00  0.00000000000E+00  0.94239137516E+03  0.94239137516E+03  0.00000000000E+00 0.  1.
          2   -1    0    0  502    0 -0.00000000000E+00 -0.00000000000E+00 -0.66477395802E+01  0.66477395802E+01  0.00000000000E+00 0. -1.
          2    1    1    2  501    0  0.16601106223E+02  0.20189515783E+02  0.19973704801E+02  0.32896233202E+02  0.00000000000E+00 0. -1.
          2    1    1    2  502    0 -0.16601106223E+02 -0.20189515783E+02  0.91576993078E+03  0.91614288154E+03  0.00000000000E+00 0.  1.
</event>
<event>
 4    1  0.6225520E+003  0.3449526E+02  0.7546771E-02  0.1384147E+00
          2   -1    0    0  501    0  0.00000000000E+00  0.00000000000E+00  0.83649843987E+00  0.83649843987E+00  0.00000000000E+00 0.  1.
          2   -1    0    0  502    0 -0.00000000000E+00 -0.00000000000E+00 -0.14393867732E+04  0.14393867732E+04  0.00000000000E+00 0.  1.
          2    1    1    2  501    0 -0.69250971536E+01 -0.33792992280E+02 -0.79726152506E+03  0.79800743269E+03  0.00000000000E+00 0.  1.
          2    1    1    2  502    0  0.69250971536E+01  0.33792992280E+02 -0.64128874973E+03  0.64221583897E+03  0.00000000000E+00 0.  1.
</event>
<event>
 4    1  0.6225520E+003  0.2508619E+02  0.7546771E-02  0.1467841E+00
          2   -1    0    0  502    0  0.00000000000E+00  0.00000000000E+00  0.34500676591E+03  0.34500676591E+03  0.00000000000E+00 0. -1.
          2   -1    0    0  501    0 -0.00000000000E+00 -0.00000000000E+00 -0.25766994426E+02  0.25766994426E+02  0.00000000000E+00 0.  1.
          2    1    1    2  501    0  0.31675090698E+01  0.24885409966E+02  0.33832447469E+03  0.33925324894E+03  0.00000000000E+00 0. -1.
          2    1    1    2  502    0 -0.31675090698E+01 -0.24885409966E+02 -0.19084703199E+02  0.31520511402E+02  0.00000000000E+00 0.  1.
</event>
<event>
 4    1  0.6225520E+003  0.2419656E+02  0.7546771E-02  0.1477996E+00
          2   -1    0    0  502    0  0.00000000000E+00  0.00000000000E+00  0.45092431576E+02  0.45092431576E+02  0.00000000000E+00 0. -1.
          2   -1    0    0  501    0 -0.00000000000E+00 -0.00000000000E+00 -0.32380446158E+03  0.32380446158E+03  0.00000000000E+00 0. -1.
          2    1    1    2  501    0 -0.28734448416E+01 -0.24025337797E+02  0.41356608305E+02  0.47914951654E+02  0.00000000000E+00 0. -1.
          2    1    1    2  502    0  0.28734448416E+01  0.24025337797E+02 -0.32006863830E+03  0.32098194150E+03  0.00000000000E+00 0. -1.
</event>
<event>
 4    1  0.6225520E+003  0.2567547E+02  0.7546771E-02  0.1461387E+00
          2   -1    0    0  502    0  0.00000000000E+00  0.00000000000E+00  0.22391012143E+04  0.22391012143E+04  0.00000000000E+00 0.  1.
          2   -1    0    0  501    0 -0.00000000000E+00 -0.00000000000E+00 -0.38741142843E+00  0.38741142843E+00  0.00000000000E+00 0. -1.
          2    1    1    2  501    0 -0.18509510617E+02  0.17794041023E+02  0.16679630632E+04  0.16681606667E+04  0.00000000000E+00 0.  1.
          2    1    1    2  502    0  0.18509510617E+02 -0.17794041023E+02  0.57075073964E+03  0.57132795895E+03  0.00000000000E+00 0. -1.
</event>
<event>
 4    1  0.6225520E+003  0.2147827E+02  0.7546771E-02  0.1512545E+00
          2   -1    0    0  502    0  0.00000000000E+00  0.00000000000E+00  0.11704580425E+04  0.11704580425E+04  0.00000000000E+00 0. -1.
          2   -1    0    0  501    0 -0.00000000000E+00 -0.00000000000E+00 -0.20353710312E+01  0.20353710312E+01  0.00000000000E+00 0.  1.
          2    1    1    2  501    0  0.20443607964E+02  0.65859735228E+01  0.11106459119E+04  0.11108535717E+04  0.00000000000E+00 0. -1.
          2    1    1    2  502    0 -0.20443607964E+02 -0.65859735228E+01  0.57776759565E+02  0.61639841820E+02  0.00000000000E+00 0.  1.
</event>
<event>
 4    1  0.6225520E+003  0.3063813E+02  0.7546771E-02  0.1414131E+00
          2   -1    0    0  502    0  0.00000000000E+00  0.00000000000E+00  0.10053921879E+04  0.10053921879E+04  0.00000000000E+00 0.  1.
          2   -1    0    0  501    0 -0.00000000000E+00 -0.00000000000E+00 -0.11976424445E+02  0.11976424445E+02  0.00000000000E+00 0. -1.
          2    1    1    2  501    0  0.94931110879E+01 -0.29130325003E+02  0.98516185136E+03  0.98563815286E+03  0.00000000000E+00 0.  1.
          2    1    1    2  502    0 -0.94931110879E+01  0.29130325003E+02  0.82539120621E+01  0.31730459455E+02  0.00000000000E+00 0. -1.
</event>
<event>
 4    1  0.6225520E+003  0.2030593E+02  0.7546771E-02  0.1529409E+00
          2   -1    0    0  501    0  0.00000000000E+00  0.00000000000E+00  0.76645447689E+02  0.76645447689E+02  0.00000000000E+00 0. -1.
          2   -1    0    0  502    0 -0.00000000000E+00 -0.00000000000E+00 -0.15617192686E+02  0.15617192686E+02  0.00000000000E+00 0. -1.
          2    1    1    2  501    0 -0.19757253851E+02 -0.46884601198E+01 -0.68358945761E+01  0.21425690017E+02  0.00000000000E+00 0. -1.
          2    1    1    2  502    0  0.19757253851E+02  0.46884601198E+01  0.67864149579E+02  0.70836950359E+02  0.00000000000E+00 0. -1.
</event>
<event>
 4    1  0.6225520E+003  0.2242115E+02  0.7546771E-02  0.1499898E+00
          2   -1    0    0  502    0  0.00000000000E+00  0.00000000000E+00  0.31096114302E+03  0.31096114302E+03  0.00000000000E+00 0.  1.
          2   -1    0    0  501    0 -0.00000000000E+00 -0.00000000000E+00 -0.17403956878E+02  0.17403956878E+02  0.00000000000E+00 0. -1.
          2    1    1    2  501    0  0.25235802938E+01 -0.22278681555E+02  0.30314999946E+03  0.30397800953E+03  0.00000000000E+00 0.  1.
          2    1    1    2  502    0 -0.25235802938E+01  0.22278681555E+02 -0.95928133122E+01  0.24387090367E+02  0.00000000000E+00 0. -1.
</event>
<event>
 4    1  0.6225520E+003  0.2027976E+02  0.7546771E-02  0.1529801E+00
          2   -1    0    0  502    0  0.00000000000E+00  0.00000000000E+00  0.12190186370E+04  0.12190186370E+04  0.00000000000E+00 0.  1.
          2   -1    0    0  501    0 -0.00000000000E+00 -0.00000000000E+00 -0.57024351905E+02  0.57024351905E+02  0.00000000000E+00 0. -1.
          2    1    1    2  501    0  0.19469585107E+02 -0.56748602171E+01  0.12171284527E+04  0.12172973915E+04  0.00000000000E+00 0.  1.
          2    1    1    2  502    0 -0.19469585107E+02  0.56748602171E+01 -0.55134167621E+02  0.58745597469E+02  0.00000000000E+00 0. -1.
</event>
<event>
 4    1  0.6225520E+003  0.2416186E+02  0.7546771E-02  0.1478402E+00
          2   -1    0    0  502    0  0.00000000000E+00  0.00000000000E+00  0.22141183048E+03  0.22141183048E+03  0.00000000000E+00 0.  1.
          2   -1    0    0  501    0 -0.00000000000E+00 -0.00000000000E+00 -0.27508109058E+01  0.27508109058E+01  0.00000000000E+00 0. -1.
          2    1    1    2  501    0  0.18997740237E+02 -0.14929206622E+02  0.13215899052E+03  0.13434952222E+03  0.00000000000E+00 0. -1.
          2    1    1    2  502    0 -0.18997740237E+02  0.14929206622E+02  0.86502029059E+02  0.89813119174E+02  0.00000000000E+00 0.  1.
</event>
<event>
 4    1  0.6225520E+003  0.5843766E+02  0.7546771E-02  0.1265235E+00
          2   -1    0    0  502    0  0.00000000000E+00  0.00000000000E+00  0.26178409281E+03  0.26178409281E+03  0.00000000000E+00 0. -1.
          2   -1    0    0  501    0 -0.00000000000E+00 -0.00000000000E+00 -0.24248797326E+03  0.24248797326E+03  0.00000000000E+00 0.  1.
          2    1    1    2  501    0 -0.49768801060E+02 -0.30627215592E+02  0.25490835341E+03  0.26152099061E+03  0.00000000000E+00 0. -1.
          2    1    1    2  502    0  0.49768801060E+02  0.30627215592E+02 -0.23561223385E+03  0.24275107545E+03  0.00000000000E+00 0.  1.
</event>
<event>
 4    1  0.6225520E+003  0.3547672E+02  0.7546771E-02  0.1377242E+00
          2   -1    0    0  501    0  0.00000000000E+00  0.00000000000E+00  0.11438531574E+03  0.11438531574E+03  0.00000000000E+00 0.  1.
          2   -1    0    0  502    0 -0.00000000000E+00 -0.00000000000E+00 -0.55292763180E+03  0.55292763180E+03  0.00000000000E+00 0. -1.
          2    1    1    2  501    0  0.34823530856E+02  0.67763775991E+01 -0.54959110372E+03  0.55073494431E+03  0.00000000000E+00 0. -1.
          2    1    1    2  502    0 -0.34823530856E+02 -0.67763775991E+01  0.11104878766E+03  0.11657800323E+03  0.00000000000E+00 0.  1.
</event>
<event>
 4    1  0.6225520E+003  0.3988075E+02  0.7546771E-02  0.1349186E+00
          2   -1    0    0  502    0  0.00000000000E+00  0.00000000000E+00  0.17390760246E+03  0.17390760246E+03  0.00000000000E+00 0. -1.
          2   -1    0    0  501    0 -0.00000000000E+00 -0.00000000000E+00 -0.14381996110E+02  0.14381996110E+02  0.00000000000E+00 0.  1.
          2    1    1    2  501    0 -0.39328653541E+02  0.66129675914E+01  0.13657042157E+03  0.14227422247E+03  0.00000000000E+00 0. -1.
          2    1    1    2  502    0  0.39328653541E+02 -0.66129675914E+01  0.22955184774E+02  0.46015376101E+02  0.00000000000E+00 0.  1.
</event>
<event>
 4    1  0.6225520E+003  0.2279739E+02  0.7546771E-02  0.1495058E+00
          2   -1    0    0  501    0  0.00000000000E+00  0.00000000000E+00  0.25223703804E+02  0.25223703804E+02  0.00000000000E+00 0.  1.
          2   -1    0    0  502    0 -0.00000000000E+00 -0.00000000000E+00 -0.67504837436E+02  0.67504837436E+02  0.00000000000E+00 0.  1.
          2    1    1    2  501    0 -0.13496190136E+02  0.18373178098E+02 -0.59786531120E+02  0.63985546219E+02  0.00000000000E+00 0.  1.
          2    1    1    2  502    0  0.13496190136E+02 -0.18373178098E+02  0.17505397488E+02  0.28742995022E+02  0.00000000000E+00 0.  1.
</event>
<event>
 4    1  0.6225520E+003  0.2391900E+02  0.7546771E-02  0.1481270E+00
          2   -1    0    0  501    0  0.00000000000E+00  0.00000000000E+00  0.74581359196E+01  0.74581359196E+01  0.00000000000E+00 0. -1.
          2   -1    0    0  502    0 -0.00000000000E+00 -0.00000000000E+00 -0.71681511151E+03  0.71681511151E+03  0.00000000000E+00 0.  1.
          2    1    1    2  501    0  0.12574611586E+02  0.20346929075E+02 -0.69688975354E+03  0.69730011256E+03  0.00000000000E+00 0.  1.
          2    1    1    2  502    0 -0.12574611586E+02 -0.20346929075E+02 -0.12467222050E+02  0.26973134875E+02  0.00000000000E+00 0. -1.
</event>
<event>
 4    1  0.6225520E+003  0.2019979E+02  0.7546771E-02  0.1531003E+00
          2   -1    0    0  501    0  0.00000000000E+00  0.00000000000E+00  0.20015229597E+01  0.20015229597E+01  0.00000000000E+00 0.  1.
          2   -1    0    0  502    0 -0.00000000000E+00 -0.00000000000E+00 -0.10976910547E+04  0.10976910547E+04  0.00000000000E+00 0. -1.
          2    1    1    2  501    0 -0.20053777468E+02 -0.24243461744E+01 -0.10440128638E+04  0.10442082605E+04  0.00000000000E+00 0. -1.
          2    1    1    2  502    0  0.20053777468E+02  0.24243461744E+01 -0.51676667949E+02  0.55484317202E+02  0.00000000000E+00 0.  1.
</event>
<event>
 4    1  0.6225520E+003  0.2351808E+02  0.7546771E-02  0.1486093E+00
          2   -1    0    0  501    0  0.00000000000E+00  0.00000000000E+00  0.19150689203E+03  0.19150689203E+03  0.00000000000E+00 0. -1.
          2   -1    0    0  502    0 -0.00000000000E+00 -0.00000000000E+00 -0.60542785136E+01  0.60542785136E+01  0.00000000000E+00 0. -1.
          2    1    1    2  501    0 -0.27484306072E+01 -0.23356932063E+02  0.21292328064E+02  0.31724807022E+02  0.00000000000E+00 0. -1.
          2    1    1    2  502    0  0.27484306072E+01  0.23356932063E+02  0.16416028545E+03  0.16583636352E+03  0.00000000000E+00 0. -1.
</event>
<event>
 4    1  0.6225520E+003  0.2528188E+02  0.7546771E-02  0.1465675E+00
          2   -1    0    0  502    0  0.00000000000E+00  0.00000000000E+00  0.91722151107E+01  0.91722151107E+01  0.00000000000E+00 0.  1.
          2   -1    0    0  501    0 -0.00000000000E+00 -0.00000000000E+00 -0.40772267504E+03  0.40772267504E+03  0.00000000000E+00 0.  1.
          2    1    1    2  501    0  0.28055171192E+01 -0.25125732699E+02 -0.94752477139E+01  0.26999142379E+02  0.00000000000E+00 0.  1.
          2    1    1    2  502    0 -0.28055171192E+01  0.25125732699E+02 -0.38907521221E+03  0.38989574777E+03  0.00000000000E+00 0.  1.
</event>
<event>
 4    1  0.6225520E+003  0.2132404E+02  0.7546771E-02  0.1514688E+00
          2   -1    0    0  502    0  0.00000000000E+00  0.00000000000E+00  0.86339231386E+02  0.86339231386E+02  0.00000000000E+00 0.  1.
          2   -1    0    0  501    0 -0.00000000000E+00 -0.00000000000E+00 -0.62794696421E+01  0.62794696421E+01  0.00000000000E+00 0.  1.
          2    1    1    2  501    0 -0.17938269877E+02 -0.11529669837E+02  0.58628575054E+02  0.62386093206E+02  0.00000000000E+00 0.  1.
          2    1    1    2  502    0  0.17938269877E+02  0.11529669837E+02  0.21431186690E+02  0.30232607821E+02  0.00000000000E+00 0.  1.
</event>
<event>
 4    1  0.6225520E+003  0.1196229E+03  0.7546771E-02  0.1133576E+00
          2   -1    0    0  502    0  0.00000000000E+00  0.00000000000E+00  0.80799410282E+03  0.80799410282E+03  0.00000000000E+00 0.  1.
          2   -1    0    0  501    0 -0.00000000000E+00 -0.00000000000E+00 -0.13336233643E+04  0.13336233643E+04  0.00000000000E+00 0. -1.
          2    1    1    2  501    0  0.10263027840E+03 -0.61454665756E+02  0.80086034124E+03  0.80974498218E+03  0.00000000000E+00 0.  1.
          2    1    1    2  502    0 -0.10263027840E+03  0.61454665756E+02 -0.13264896028E+04  0.13318724850E+04  0.00000000000E+00 0. -1.
</event>
<event>
 4    1  0.6225520E+003  0.2206882E+02  0.7546771E-02  0.1504534E+00
          2   -1    0    0  501    0  0.00000000000E+00  0.00000000000E+00  0.15185082370E+02  0.15185082370E+02  0.00000000000E+00 0. -1.
          2   -1    0    0  502    0 -0.00000000000E+00 -0.00000000000E+00 -0.18215250464E+03  0.18215250464E+03  0.00000000000E+00 0. -1.
          2    1    1    2  501    0  0.24301180971E+00  0.22067483270E+02 -0.17304550291E+03  0.17444706633E+03  0.00000000000E+00 0. -1.
          2    1    1    2  502    0 -0.24301180971E+00 -0.22067483270E+02  0.60780806450E+01  0.22890520679E+02  0.00000000000E+00 0. -1.
</event>
<event>
 4    1  0.6225520E+003  0.2820230E+02  0.7546771E-02  0.1435891E+00
          2   -1    0    0  501    0  0.00000000000E+00  0.00000000000E+00  0.58389463647E+03  0.58389463647E+03  0.00000000000E+00 0.  1.
          2   -1    0    0  502    0 -0.00000000000E+00 -0.00000000000E+00 -0.35276047739E+01  0.35276047739E+01  0.00000000000E+00 0. -1.
          2    1    1    2  501    0  0.25115960824E+02  0.12828024272E+02  0.52030224292E+03  0.52106601663E+03  0.00000000000E+00 0.  1.
          2    1    1    2  502    0 -0.25115960824E+02 -0.12828024272E+02  0.60064788775E+02  0.66356224617E+02  0.00000000000E+00 0. -1.
</event>
<event>
 4    1  0.6225520E+003  0.4550955E+02  0.7546771E-02  0.1318911E+00
          2   -1    0    0  501    0  0.00000000000E+00  0.00000000000E+00  0.47768527305E+03  0.47768527305E+03  0.00000000000E+00 0. -1.
          2   -1    0    0  502    0 -0.00000000000E+00 -0.00000000000E+00 -0.59290939887E+01  0.59290939887E+01  0.00000000000E+00 0. -1.
          2    1    1    2  501    0 -0.42994542318E+02 -0.14919389543E+02  0.11052609446E+03  0.11952880996E+03  0.00000000000E+00 0. -1.
          2    1    1    2  502    0  0.42994542318E+02  0.14919389543E+02  0.36123008460E+03  0.36408555708E+03  0.00000000000E+00 0. -1.
</event>
<event>
 4    1  0.6225520E+003  0.7601864E+02  0.7546771E-02  0.1213405E+00
          2   -1    0    0  501    0  0.00000000000E+00  0.00000000000E+00  0.11361070644E+04  0.11361070644E+04  0.00000000000E+00 0. -1.
          2   -1    0    0  502    0 -0.00000000000E+00 -0.00000000000E+00 -0.14125442166E+03  0.14125442166E+03  0.00000000000E+00 0. -1.
          2    1    1    2  501    0 -0.41676720581E+02  0.63575817592E+02 -0.12964965854E+03  0.15029260654E+03  0.00000000000E+00 0. -1.
          2    1    1    2  502    0  0.41676720581E+02 -0.63575817592E+02  0.11245023013E+04  0.11270688795E+04  0.00000000000E+00 0. -1.
</event>
<event>
 4    1  0.6225520E+003  0.3071728E+02  0.7546771E-02  0.1413464E+00
          2   -1    0    0  502    0  0.00000000000E+00  0.00000000000E+00  0.11525141401E+04  0.11525141401E+04  0.00000000000E+00 0.  1.
          2   -1    0    0  501    0 -0.00000000000E+00 -0.00000000000E+00 -0.24171986681E+01  0.24171986681E+01  0.00000000000E+00 0.  1.
          2    1    1    2  501    0 -0.17833662176E+02 -0.25010236008E+02  0.10446478789E+04  0.10450993935E+04  0.00000000000E+00 0.  1.
          2    1    1    2  502    0  0.17833662176E+02  0.25010236008E+02  0.10544906254E+03  0.10983194527E+03  0.00000000000E+00 0.  1.
</event>
<event>
 4    1  0.6225520E+003  0.2028365E+02  0.7546771E-02  0.1529743E+00
          2   -1    0    0  501    0  0.00000000000E+00  0.00000000000E+00  0.47874448943E+02  0.47874448943E+02  0.00000000000E+00 0.  1.
          2   -1    0    0  502    0 -0.00000000000E+00 -0.00000000000E+00 -0.13945484116E+04  0.13945484116E+04  0.00000000000E+00 0.  1.
          2    1    1    2  501    0  0.12087797112E+02  0.16288388876E+02 -0.13923227555E+04  0.13924704959E+04  0.00000000000E+00 0.  1.
          2    1    1    2  502    0 -0.12087797112E+02 -0.16288388876E+02  0.45648792816E+02  0.49952364676E+02  0.00000000000E+00 0.  1.
</event>
<event>
 4    1  0.6225520E+003  0.2194637E+02  0.7546771E-02  0.1506170E+00
          2   -1    0    0  502    0  0.00000000000E+00  0.00000000000E+00  0.38481702064E+03  0.38481702064E+03  0.00000000000E+00 0. -1.
          2   -1    0    0  501    0 -0.00000000000E+00 -0.00000000000E+00 -0.23247723419E+03  0.23247723419E+03  0.00000000000E+00 0. -1.
          2    1    1    2  501    0 -0.19783298258E+02 -0.95007522959E+01  0.38398504869E+03  0.38461170134E+03  0.00000000000E+00 0. -1.
          2    1    1    2  502    0  0.19783298258E+02  0.95007522959E+01 -0.23164526224E+03  0.23268255350E+03  0.00000000000E+00 0. -1.
</event>
<event>
 4    1  0.6225520E+003  0.2250076E+02  0.7546771E-02  0.1498864E+00
          2   -1    0    0  501    0  0.00000000000E+00  0.00000000000E+00  0.12855043645E+03  0.12855043645E+03  0.00000000000E+00 0.  1.
          2   -1    0    0  502    0 -0.00000000000E+00 -0.00000000000E+00 -0.65408646554E+03  0.65408646554E+03  0.00000000000E+00 0.  1.
          2    1    1    2  501    0  0.15523128020E+01 -0.22447153217E+02 -0.65290657599E+03  0.65329417672E+03  0.00000000000E+00 0.  1.
          2    1    1    2  502    0 -0.15523128020E+01  0.22447153217E+02  0.12737054690E+03  0.12934272527E+03  0.00000000000E+00 0.  1.
</event>
<event>
 4    1  0.6225520E+003  0.2005790E+02  0.7546771E-02  0.1533152E+00
          2   -1    0    0  501    0  0.00000000000E+00  0.00000000000E+00  0.48788011407E+01  0.48788011407E+01  0.00000000000E+00 0. -1.
          2   -1    0    0  502    0 -0.00000000000E+00 -0.00000000000E+00 -0.82580598330E+02  0.82580598330E+02  0.00000000000E+00 0.  1.
          2    1    1    2  501    0 -0.14419677924E+02 -0.13942455456E+02 -0.37198676673E+02  0.42261811625E+02  0.00000000000E+00 0. -1.
          2    1    1    2  502    0  0.14419677924E+02  0.13942455456E+02 -0.40503120516E+02  0.45197587846E+02  0.00000000000E+00 0.  1.
</event>
<event>
 4    1  0.6225520E+003  0.1004636E+03  0.7546771E-02  0.1163007E+00
          2   -1    0    0  502    0  0.00000000000E+00  0.00000000000E+00  0.36220118026E+03  0.36220118026E+03  0.00000000000E+00 0.  1.
          2   -1    0    0  501    0 -0.00000000000E+00 -0.00000000000E+00 -0.17214218047E+04  0.17214218047E+04  0.00000000000E+00 0. -1.
          2    1    1    2  501    0 -0.41910270215E+02 -0.91304221321E+02  0.35373460800E+03  0.36772422341E+03  0.00000000000E+00 0.  1.
          2    1    1    2  502    0  0.41910270215E+02  0.91304221321E+02 -0.17129552325E+04  0.17158987616E+04  0.00000000000E+00 0. -1.
</event>
<event>
 4    1  0.6225520E+003  0.3390637E+02  0.7546771E-02  0.1388419E+00
          2   -1    0    0  502    0  0.00000000000E+00  0.00000000000E+00  0.25280953040E+03  0.25280953040E+03  0.00000000000E+00 0.  1.
          2   -1    0    0  501    0 -0.00000000000E+00 -0.00000000000E+00 -0.92859082069E+02  0.92859082069E+02  0.00000000000E+00 0. -1.
          2    1    1    2  501    0 -0.27243821349E+02  0.20184550154E+02  0.24852441901E+03  0.25082669058E+03  0.00000000000E+00 0.  1.
          2    1    1    2  502    0  0.27243821349E+02 -0.20184550154E+02 -0.88573970673E+02  0.94841921888E+02  0.00000000000E+00 0. -1.
</event>
<event>
 4    1  0.6225520E+003  0.2719944E+02  0.7546771E-02  0.1445615E+00
          2   -1    0    0  501    0  0.00000000000E+00  0.00000000000E+00  0.53932132115E+03  0.53932132115E+03  0.00000000000E+00 0.  1.
          2   -1    0    0  502    0 -0.00000000000E+00 -0.00000000000E+00 -0.10924796828E+02  0.10924796828E+02  0.00000000000E+00 0. -1.
          2    1    1    2  501    0  0.27167271628E+02  0.13224518760E+01  0.69268976758E+01  0.28067622594E+02  0.00000000000E+00 0. -1.
          2    1    1    2  502    0 -0.27167271628E+02 -0.13224518760E+01  0.52146962665E+03  0.52217849538E+03  0.00000000000E+00 0.  1.
</event>
<event>
 4    1  0.6225520E+003  0.2374140E+02  0.7546771E-02  0.1483392E+00
          2   -1    0    0  501    0  0.00000000000E+00  0.00000000000E+00  0.34686854053E+03  0.34686854053E+03  0.00000000000E+00 0.  1.
          2   -1    0    0  502    0 -0.00000000000E+00 -0.00000000000E+00 -0.48871498022E+01  0.48871498022E+01  0.00000000000E+00 0.  1.
          2    1    1    2  501    0  0.11958443422E+02  0.20509747913E+02  0.27297351289E+02  0.36177334284E+02  0.00000000000E+00 0.  1.
          2    1    1    2  502    0 -0.11958443422E+02 -0.20509747913E+02  0.31468403944E+03  0.31557835605E+03  0.00000000000E+00 0.  1.
</event>
<event>
 4    1  0.6225520E+003  0.2112033E+02  0.7546771E-02  0.1517554E+00
          2   -1    0    0  501    0  0.00000000000E+00  0.00000000000E+00  0.90211337000E+02  0.90211337000E+02  0.00000000000E+00 0.  1.
          2   -1    0    0  502    0 -0.00000000000E+00 -0.00000000000E+00 -0.30687451938E+02  0.30687451938E+02  0.00000000000E+00 0.  1.
          2    1    1    2  501    0 -0.10285890967E+02 -0.18446371136E+02 -0.25603529995E+02  0.33190494261E+02  0.00000000000E+00 0.  1.
          2    1    1    2  502    0  0.10285890967E+02  0.18446371136E+02  0.85127415056E+02  0.87708294678E+02  0.00000000000E+00 0.  1.
</event>
<event>
 4    1  0.6225520E+003  0.2192197E+02  0.7546771E-02  0.1506498E+00
          2   -1    0    0  501    0  0.00000000000E+00  0.00000000000E+00  0.18298974641E+01  0.18298974641E+01  0.00000000000E+00 0. -1.
          2   -1    0    0  502    0 -0.00000000000E+00 -0.00000000000E+00 -0.84604066294E+03  0.84604066294E+03  0.00000000000E+00 0.  1.
          2    1    1    2  501    0 -0.19609451323E+02  0.98001148914E+01 -0.77414682811E+03  0.77445715460E+03  0.00000000000E+00 0.  1.
          2    1    1    2  502    0  0.19609451323E+02 -0.98001148914E+01 -0.70063937369E+02  0.73413405810E+02  0.00000000000E+00 0. -1.
</event>
<event>
 4    1  0.6225520E+003  0.2443489E+02  0.7546771E-02  0.1475226E+00
          2   -1    0    0  502    0  0.00000000000E+00  0.00000000000E+00  0.55307334250E+01  0.55307334250E+01  0.00000000000E+00 0.  1.
          2   -1    0    0  501    0 -0.00000000000E+00 -0.00000000000E+00 -0.26366860161E+03  0.26366860161E+03  0.00000000000E+00 0.  1.
          2    1    1    2  501    0 -0.21532418296E+02 -0.11550709401E+02 -0.25631040444E+02  0.35412062345E+02  0.00000000000E+00 0.  1.
          2    1    1    2  502    0  0.21532418296E+02  0.11550709401E+02 -0.23250682774E+03  0.23378727269E+03  0.00000000000E+00 0.  1.
</event>
<event>
 4    1  0.6225520E+003  0.2832256E+02  0.7546771E-02  0.1434757E+00
          2   -1    0    0  501    0  0.00000000000E+00  0.00000000000E+00  0.32098509593E+02  0.32098509593E+02  0.00000000000E+00 0. -1.
          2   -1    0    0  502    0 -0.00000000000E+00 -0.00000000000E+00 -0.85074264751E+03  0.85074264751E+03  0.00000000000E+00 0. -1.
          2    1    1    2  501    0 -0.15851192935E+02 -0.23471415786E+02 -0.84421089434E+03  0.84468585983E+03  0.00000000000E+00 0. -1.
          2    1    1    2  502    0  0.15851192935E+02  0.23471415786E+02  0.25566756418E+02  0.38155297276E+02  0.00000000000E+00 0. -1.
</event>
<event>
 4    1  0.6225520E+003  0.2321930E+02  0.7546771E-02  0.1489763E+00
          2   -1    0    0  501    0  0.00000000000E+00  0.00000000000E+00  0.15818026043E+03  0.15818026043E+03  0.00000000000E+00 0.  1.
          2   -1    0    0  502    0 -0.00000000000E+00 -0.00000000000E+00 -0.48578491102E+02  0.48578491102E+02  0.00000000000E+00 0.  1.
          2    1    1    2  501    0 -0.17101717973E+02 -0.15705646095E+02 -0.44885890287E+02  0.50535920134E+02  0.00000000000E+00 0.  1.
          2    1    1    2  502    0  0.17101717973E+02  0.15705646095E+02  0.15448765961E+03  0.15622283140E+03  0.00000000000E+00 0.  1.
</event>
<event>
 4    1  0.6225520E+003  0.2719746E+02  0.7546771E-02  0.1445635E+00
          2   -1    0    0  502    0  0.00000000000E+00  0.00000000000E+00  0.28986915528E+01  0.28986915528E+01  0.00000000000E+00 0. -1.
          2   -1    0    0  501    0 -0.00000000000E+00 -0.00000000000E+00 -0.71858284589E+03  0.71858284589E+03  0.00000000000E+00 0.  1.
          2    1    1    2  501    0 -0.95064032601E+01  0.25481961894E+02 -0.68151817604E+02  0.73378282398E+02  0.00000000000E+00 0. -1.
          2    1    1    2  502    0  0.95064032601E+01 -0.25481961894E+02 -0.64753233674E+03  0.64810325505E+03  0.00000000000E+00 0.  1.
</event>
<event>
 4    1  0.6225520E+003  0.2174129E+02  0.7546771E-02  0.1508939E+00
          2   -1    0    0  502    0  0.00000000000E+00  0.00000000000E+00  0.85588807686E+03  0.85588807686E+03  0.00000000000E+00 0. -1.
          2   -1    0    0  501    0 -0.00000000000E+00 -0.00000000000E+00 -0.15579077362E+03  0.15579077362E+03  0.00000000000E+00 0. -1.
          2    1    1    2  501    0  0.71988327876E+01 -0.20514882822E+02  0.85499068956E+03  0.85526707107E+03  0.00000000000E+00 0. -1.
          2    1    1    2  502    0 -0.71988327876E+01  0.20514882822E+02 -0.15489338632E+03  0.15641177941E+03  0.00000000000E+00 0. -1.
</event>
<event>
 4    1  0.6225520E+003  0.2263747E+02  0.7546771E-02  0.1497101E+00
          2   -1    0    0  502    0  0.00000000000E+00  0.00000000000E+00  0.23332357286E+03  0.23332357286E+03  0.00000000000E+00 0. -1.
          2   -1    0    0  501    0 -0.00000000000E+00 -0.00000000000E+00 -0.10961762300E+02  0.10961762300E+02  0.00000000000E+00 0.  1.
          2    1    1    2  501    0 -0.75752298051E+01 -0.21332387617E+02  0.22040386835E+03  0.22156335449E+03  0.00000000000E+00 0. -1.
          2    1    1    2  502    0  0.75752298051E+01  0.21332387617E+02  0.19579422116E+01  0.22721980674E+02  0.00000000000E+00 0.  1.
</event>
<event>
 4    1  0.6225520E+003  0.5257566E+02  0.7546771E-02  0.1287375E+00
          2   -1    0    0  502    0  0.00000000000E+00  0.00000000000E+00  0.71941502906E+03  0.71941502906E+03  0.00000000000E+00 0. -1.
          2   -1    0    0  501    0 -0.00000000000E+00 -0.00000000000E+00 -0.23901595318E+03  0.23901595318E+03  0.00000000000E+00 0.  1.
          2    1    1    2  501    0 -0.13568600496E+02  0.50794621314E+02  0.71554762115E+03  0.71747654917E+03  0.00000000000E+00 0. -1.
          2    1    1    2  502    0  0.13568600496E+02 -0.50794621314E+02 -0.23514854527E+03  0.24095443307E+03  0.00000000000E+00 0.  1.
</event>
<event>
 4    1  0.6225520E+003  0.3777369E+02  0.7546771E-02  0.1362050E+00
          2   -1    0    0  501    0  0.00000000000E+00  0.00000000000E+00  0.45004248008E+01  0.45004248008E+01  0.00000000000E+00 0. -1.
          2   -1    0    0  502    0 -0.00000000000E+00 -0.00000000000E+00 -0.15159704331E+04  0.15159704331E+04  0.00000000000E+00 0.  1.
          2    1    1    2  501    0  0.95507502525E+01  0.36546341159E+02 -0.14318152309E+04  0.14323134110E+04  0.00000000000E+00 0.  1.
          2    1    1    2  502    0 -0.95507502525E+01 -0.36546341159E+02 -0.79654777418E+02  0.88157446924E+02  0.00000000000E+00 0. -1.
</event>
<event>
 4    1  0.6225520E+003  0.5749956E+02  0.7546771E-02  0.1268573E+00
          2   -1    0    0  502    0  0.00000000000E+00  0.00000000000E+00  0.24204505423E+04  0.24204505423E+04  0.00000000000E+00 0. -1.
          2   -1    0    0  501    0 -0.00000000000E+00 -0.00000000000E+00 -0.41045003937E+01  0.41045003937E+01  0.00000000000E+00 0. -1.
          2    1    1    2  501    0  0.34856235833E+02 -0.45730098800E+02  0.21983954781E+04  0.21991473068E+04  0.00000000000E+00 0. -1.
          2    1    1    2  502    0 -0.34856235833E+02  0.45730098800E+02  0.21795056379E+03  0.22540773583E+03  0.00000000000E+00 0. -1.
</event>
<event>
 4    1  0.6225520E+003  0.4689351E+02  0.7546771E-02  0.1312234E+00
          2   -1    0    0  502    0  0.00000000000E+00  0.00000000000E+00  0.51322327088E+01  0.51322327088E+01  0.00000000000E+00 0.  1.
          2   -1    0    0  501    0 -0.00000000000E+00 -0.00000000000E+00 -0.67094856677E+03  0.67094856677E+03  0.00000000000E+00 0. -1.
          2    1    1    2  501    0 -0.46721181686E+02 -0.40165548770E+01 -0.12969036261E+03  0.13790791016E+03  0.00000000000E+00 0.  1.
          2    1    1    2  502    0  0.46721181686E+02  0.40165548770E+01 -0.53612597146E+03  0.53817288932E+03  0.00000000000E+00 0. -1.
</event>
<event>
 4    1  0.6225520E+003  0.2314875E+02  0.7546771E-02  0.1490639E+00
          2   -1    0    0  501    0  0.00000000000E+00  0.00000000000E+00  0.10629532639E+04  0.10629532639E+04  0.00000000000E+00 0. -1.
          2   -1    0    0  502    0 -0.00000000000E+00 -0.00000000000E+00 -0.11420717346E+01  0.11420717346E+01  0.00000000000E+00 0. -1.
          2    1    1    2  501    0  0.11239479378E+02 -0.20237064227E+02  0.13326108818E+03  0.13525672733E+03  0.00000000000E+00 0. -1.
          2    1    1    2  502    0 -0.11239479378E+02  0.20237064227E+02  0.92855010403E+03  0.92883860835E+03  0.00000000000E+00 0. -1.
</event>
<event>
 4    1  0.6225520E+003  0.2930125E+02  0.7546771E-02  0.1425767E+00
          2   -1    0    0  501    0  0.00000000000E+00  0.00000000000E+00  0.65554266771E+01  0.65554266771E+01  0.00000000000E+00 0. -1.
          2   -1    0    0  502    0 -0.00000000000E+00 -0.00000000000E+00 -0.28942233714E+03  0.28942233714E+03  0.00000000000E+00 0.  1.
          2    1    1    2  501    0 -0.11482260711E+02 -0.26957762628E+02 -0.25093306972E+03  0.25263801922E+03  0.00000000000E+00 0.  1.
          2    1    1    2  502    0  0.11482260711E+02  0.26957762628E+02 -0.31933840738E+02  0.43339744591E+02  0.00000000000E+00 0. -1.
</event>
<event>
 4    1  0.6225520E+003  0.9616924E+02  0.7546771E-02  0.1170617E+00
          2   -1    0    0  501    0  0.00000000000E+00  0.00000000000E+00  0.24228634974E+03  0.24228634974E+03  0.00000000000E+00 0.  1.
          2   -1    0    0  502    0 -0.00000000000E+00 -0.00000000000E+00 -0.13020173063E+03  0.13020173063E+03  0.00000000000E+00 0.  1.
          2    1    1    2  501    0 -0.23555592008E+02  0.93239781023E+02 -0.10053844857E+03  0.13912764758E+03  0.00000000000E+00 0.  1.
          2    1    1    2  502    0  0.23555592008E+02 -0.93239781023E+02  0.21262306769E+03  0.23336043279E+03  0.00000000000E+00 0.  1.
</event>
<event>
 4    1  0.6225520E+003  0.2843748E+02  0.7546771E-02  0.1433679E+00
          2   -1    0    0  502    0  0.00000000000E+00  0.00000000000E+00  0.10737860312E+02  0.10737860312E+02  0.00000000000E+00 0.  1.
          2   -1    0    0  501    0 -0.00000000000E+00 -0.00000000000E+00 -0.14553762235E+03  0.14553762235E+03  0.00000000000E+00 0.  1.
          2    1    1    2  501    0 -0.28272884243E+02  0.30552248905E+01 -0.13122257099E+02  0.31319067897E+02  0.00000000000E+00 0.  1.
          2    1    1    2  502    0  0.28272884243E+02 -0.30552248905E+01 -0.12167750494E+03  0.12495641476E+03  0.00000000000E+00 0.  1.
</event>
<event>
 4    1  0.6225520E+003  0.4378460E+02  0.7546771E-02  0.1327630E+00
          2   -1    0    0  501    0  0.00000000000E+00  0.00000000000E+00  0.92614859339E+03  0.92614859339E+03  0.00000000000E+00 0.  1.
          2   -1    0    0  502    0 -0.00000000000E+00 -0.00000000000E+00 -0.12123477572E+03  0.12123477572E+03  0.00000000000E+00 0.  1.
          2    1    1    2  501    0 -0.21366537715E+02  0.38217304650E+02 -0.11674477549E+03  0.12468533961E+03  0.00000000000E+00 0.  1.
          2    1    1    2  502    0  0.21366537715E+02 -0.38217304650E+02  0.92165859316E+03  0.92269802950E+03  0.00000000000E+00 0.  1.
</event>
<event>
 4    1  0.6225520E+003  0.2015377E+02  0.7546771E-02  0.1531698E+00
          2   -1    0    0  502    0  0.00000000000E+00  0.00000000000E+00  0.18874103429E+03  0.18874103429E+03  0.00000000000E+00 0. -1.
          2   -1    0    0  501    0 -0.00000000000E+00 -0.00000000000E+00 -0.26635346195E+02  0.26635346195E+02  0.00000000000E+00 0.  1.
          2    1    1    2  501    0  0.16095168444E+02 -0.12129302288E+02  0.18429905388E+03  0.18539772297E+03  0.00000000000E+00 0. -1.
          2    1    1    2  502    0 -0.16095168444E+02  0.12129302288E+02 -0.22193365788E+02  0.29978657512E+02  0.00000000000E+00 0.  1.
</event>
<event>
 4    1  0.6225520E+003  0.2960433E+02  0.7546771E-02  0.1423066E+00
          2   -1    0    0  502    0  0.00000000000E+00  0.00000000000E+00  0.24108316642E+02  0.24108316642E+02  0.00000000000E+00 0.  1.
          2   -1    0    0  501    0 -0.00000000000E+00 -0.00000000000E+00 -0.17659278201E+04  0.17659278201E+04  0.00000000000E+00 0.  1.
          2    1    1    2  501    0 -0.15874978959E+01  0.29561739282E+02  0.14848015697E+02  0.33119180984E+02  0.00000000000E+00 0.  1.
          2    1    1    2  502    0  0.15874978959E+01 -0.29561739282E+02 -0.17566675192E+04  0.17569169558E+04  0.00000000000E+00 0.  1.
</event>
<event>
 4    1  0.6225520E+003  0.3222188E+02  0.7546771E-02  0.1401222E+00
          2   -1    0    0  501    0  0.00000000000E+00  0.00000000000E+00  0.81516497153E+01  0.81516497153E+01  0.00000000000E+00 0. -1.
          2   -1    0    0  502    0 -0.00000000000E+00 -0.00000000000E+00 -0.23569250326E+04  0.23569250326E+04  0.00000000000E+00 0. -1.
          2    1    1    2  501    0  0.20729411714E+01  0.32155132036E+02 -0.23245294659E+04  0.23247527798E+04  0.00000000000E+00 0. -1.
          2    1    1    2  502    0 -0.20729411714E+01 -0.32155132036E+02 -0.24243917060E+02  0.40323902536E+02  0.00000000000E+00 0. -1.
</event>
<event>
 4    1  0.6225520E+003  0.2778906E+02  0.7546771E-02  0.1439839E+00
          2   -1    0    0  501    0  0.00000000000E+00  0.00000000000E+00  0.20058847153E+04  0.20058847153E+04  0.00000000000E+00 0.  1.
          2   -1    0    0  502    0 -0.00000000000E+00 -0.00000000000E+00 -0.13101651010E+02  0.13101651010E+02  0.00000000000E+00 0. -1.
          2    1    1    2  501    0 -0.39475651953E+01  0.27507246750E+02  0.18405727856E+01  0.27849947988E+02  0.00000000000E+00 0. -1.
          2    1    1    2  502    0  0.39475651953E+01 -0.27507246750E+02  0.19909424915E+04  0.19911364183E+04  0.00000000000E+00 0.  1.
</event>
<event>
 4    1  0.6225520E+003  0.2933362E+02  0.7546771E-02  0.1425477E+00
          2   -1    0    0  501    0  0.00000000000E+00  0.00000000000E+00  0.19916250969E+04  0.19916250969E+04  0.00000000000E+00 0.  1.
          2   -1    0    0  502    0 -0.00000000000E+00 -0.00000000000E+00 -0.88518529702E+00  0.88518529702E+00  0.00000000000E+00 0.  1.
          2    1    1    2  501    0 -0.29299755540E+02  0.14090752359E+01  0.28256231244E+03  0.28408083634E+03  0.00000000000E+00 0.  1.
          2    1    1    2  502    0  0.29299755540E+02 -0.14090752359E+01  0.17081775991E+04  0.17084294458E+04  0.00000000000E+00 0.  1.
</event>
<event>
 4    1  0.6225520E+003  0.2162817E+02  0.7546771E-02  0.1510482E+00
          2   -1    0    0  502    0  0.00000000000E+00  0.00000000000E+00  0.15826261710E+03  0.15826261710E+03  0.00000000000E+00 0. -1.
          2   -1    0    0  501    0 -0.00000000000E+00 -0.00000000000E+00 -0.21572793693E+02  0.21572793693E+02  0.00000000000E+00 0. -1.
          2    1    1    2  501    0  0.36480598882E+01  0.21318285629E+02  0.15187595425E+03  0.15340822378E+03  0.00000000000E+00 0. -1.
          2    1    1    2  502    0 -0.36480598882E+01 -0.21318285629E+02 -0.15186130849E+02  0.26427187010E+02  0.00000000000E+00 0. -1.
</event>
<event>
 4    1  0.6225520E+003  0.2063076E+02  0.7546771E-02  0.1524602E+00
          2   -1    0    0  501    0  0.00000000000E+00  0.00000000000E+00  0.24287517504E+00  0.24287517504E+00  0.00000000000E+00 0.  1.
          2   -1    0    0  502    0 -0.00000000000E+00 -0.00000000000E+00 -0.18535933013E+04  0.18535933013E+04  0.00000000000E+00 0.  1.
          2    1    1    2  501    0  0.18694104972E+02 -0.87269023268E+01 -0.11431896799E+04  0.11433758230E+04  0.00000000000E+00 0.  1.
          2    1    1    2  502    0 -0.18694104972E+02  0.87269023268E+01 -0.71016074625E+03  0.71046035350E+03  0.00000000000E+00 0.  1.
</event>
<event>
 4    1  0.6225520E+003  0.3555526E+02  0.7546771E-02  0.1376701E+00
          2   -1    0    0  502    0  0.00000000000E+00  0.00000000000E+00  0.18252799626E+04  0.18252799626E+04  0.00000000000E+00 0.  1.
          2   -1    0    0  501    0 -0.00000000000E+00 -0.00000000000E+00 -0.94059141337E+02  0.94059141337E+02  0.00000000000E+00 0.  1.
          2    1    1    2  501    0 -0.14799738647E+02 -0.32328689378E+02  0.18217402289E+04  0.18220871653E+04  0.00000000000E+00 0.  1.
          2    1    1    2  502    0  0.14799738647E+02  0.32328689378E+02 -0.90519407598E+02  0.97251938658E+02  0.00000000000E+00 0.  1.
</event>
<event>
 4    1  0.6225520E+003  0.6830111E+02  0.7546771E-02  0.1233969E+00
          2   -1    0    0  502    0  0.00000000000E+00  0.00000000000E+00  0.90575629671E+03  0.90575629671E+03  0.00000000000E+00 0.  1.
          2   -1    0    0  501    0 -0.00000000000E+00 -0.00000000000E+00 -0.25142411962E+02  0.25142411962E+02  0.00000000000E+00 0.  1.
          2    1    1    2  501    0  0.39808938405E+02 -0.55500358323E+02  0.85535348975E+03  0.85807612353E+03  0.00000000000E+00 0.  1.
          2    1    1    2  502    0 -0.39808938405E+02  0.55500358323E+02  0.25260395001E+02  0.72822585141E+02  0.00000000000E+00 0.  1.
</event>
<event>
 4    1  0.6225520E+003  0.2057706E+02  0.7546771E-02  0.1525390E+00
          2   -1    0    0  502    0  0.00000000000E+00  0.00000000000E+00  0.64720641458E+02  0.64720641458E+02  0.00000000000E+00 0. -1.
          2   -1    0    0  501    0 -0.00000000000E+00 -0.00000000000E+00 -0.15740028512E+02  0.15740028512E+02  0.00000000000E+00 0.  1.
          2    1    1    2  501    0 -0.18211629661E+02 -0.95787232028E+01  0.55243735077E+02  0.58951553486E+02  0.00000000000E+00 0. -1.
          2    1    1    2  502    0  0.18211629661E+02  0.95787232028E+01 -0.62631221319E+01  0.21509116484E+02  0.00000000000E+00 0.  1.
</event>
<event>
 4    1  0.6225520E+003  0.2817285E+02  0.7546771E-02  0.1436169E+00
          2   -1    0    0  502    0  0.00000000000E+00  0.00000000000E+00  0.41849593785E+03  0.41849593785E+03  0.00000000000E+00 0. -1.
          2   -1    0    0  501    0 -0.00000000000E+00 -0.00000000000E+00 -0.33576519859E+03  0.33576519859E+03  0.00000000000E+00 0. -1.
          2    1    1    2  501    0 -0.18493421387E+02 -0.21253300552E+02  0.41742931489E+03  0.41837894587E+03  0.00000000000E+00 0. -1.
          2    1    1    2  502    0  0.18493421387E+02  0.21253300552E+02 -0.33469857562E+03  0.33588219057E+03  0.00000000000E+00 0. -1.
</event>
<event>
 4    1  0.6225520E+003  0.2137586E+02  0.7546771E-02  0.1513966E+00
          2   -1    0    0  502    0  0.00000000000E+00  0.00000000000E+00  0.80604018093E+02  0.80604018093E+02  0.00000000000E+00 0. -1.
          2   -1    0    0  501    0 -0.00000000000E+00 -0.00000000000E+00 -0.58207056605E+01  0.58207056605E+01  0.00000000000E+00 0. -1.
          2    1    1    2  501    0 -0.20670219605E+02 -0.54469728044E+01  0.44372649341E+02  0.49253015144E+02  0.00000000000E+00 0. -1.
          2    1    1    2  502    0  0.20670219605E+02  0.54469728044E+01  0.30410663091E+02  0.37171708609E+02  0.00000000000E+00 0. -1.
</event>
<event>
 4    1  0.6225520E+003  0.2962316E+02  0.7546771E-02  0.1422900E+00
          2   -1    0    0  501    0  0.00000000000E+00  0.00000000000E+00  0.20089396566E+04  0.20089396566E+04  0.00000000000E+00 0. -1.
          2   -1    0    0  502    0 -0.00000000000E+00 -0.00000000000E+00 -0.58842732429E+01  0.58842732429E+01  0.00000000000E+00 0. -1.
          2    1    1    2  501    0  0.29154353859E+02  0.52492977808E+01  0.32228806444E+02  0.43774735190E+02  0.00000000000E+00 0. -1.
          2    1    1    2  502    0 -0.29154353859E+02 -0.52492977808E+01  0.19708265769E+04  0.19710491946E+04  0.00000000000E+00 0. -1.
</event>
<event>
 4    1  0.6225520E+003  0.2016699E+02  0.7546771E-02  0.1531498E+00
          2   -1    0    0  501    0  0.00000000000E+00  0.00000000000E+00  0.13525574686E+02  0.13525574686E+02  0.00000000000E+00 0.  1.
          2   -1    0    0  502    0 -0.00000000000E+00 -0.00000000000E+00 -0.14038993804E+03  0.14038993804E+03  0.00000000000E+00 0. -1.
          2    1    1    2  501    0  0.16256938797E+02  0.11933958560E+02 -0.13165228493E+03  0.13318795574E+03  0.00000000000E+00 0. -1.
          2    1    1    2  502    0 -0.16256938797E+02 -0.11933958560E+02  0.47879215719E+01  0.20727556994E+02  0.00000000000E+00 0.  1.
</event>
<event>
 4    1  0.6225520E+003  0.2167317E+02  0.7546771E-02  0.1509867E+00
          2   -1    0    0  501    0  0.00000000000E+00  0.00000000000E+00  0.82209373523E+03  0.82209373523E+03  0.00000000000E+00 0. -1.
          2   -1    0    0  502    0 -0.00000000000E+00 -0.00000000000E+00 -0.72693094052E+02  0.72693094052E+02  0.00000000000E+00 0. -1.
          2    1    1    2  501    0 -0.12497731987E+02 -0.17706859133E+02 -0.70931337962E+02  0.74168597602E+02  0.00000000000E+00 0. -1.
          2    1    1    2  502    0  0.12497731987E+02  0.17706859133E+02  0.82033197914E+03  0.82061823168E+03  0.00000000000E+00 0. -1.
</event>
<event>
 4    1  0.6225520E+003  0.3457470E+02  0.7546771E-02  0.1383578E+00
          2   -1    0    0  502    0  0.00000000000E+00  0.00000000000E+00  0.65772234574E+01  0.65772234574E+01  0.00000000000E+00 0.  1.
          2   -1    0    0  501    0 -0.00000000000E+00 -0.00000000000E+00 -0.25033892263E+04  0.25033892263E+04  0.00000000000E+00 0.  1.
          2    1    1    2  501    0  0.23466497721E+02  0.25391602827E+02 -0.39837968479E+02  0.52749158684E+02  0.00000000000E+00 0.  1.
          2    1    1    2  502    0 -0.23466497721E+02 -0.25391602827E+02 -0.24569740343E+04  0.24572172911E+04  0.00000000000E+00 0.  1.
</event>
<event>
 4    1  0.6225520E+003  0.2249588E+02  0.7546771E-02  0.1498927E+00
          2   -1    0    0  502    0  0.00000000000E+00  0.00000000000E+00  0.11793334244E+04  0.11793334244E+04  0.00000000000E+00 0. -1.
          2   -1    0    0  501    0 -0.00000000000E+00 -0.00000000000E+00 -0.45866267710E+01  0.45866267710E+01  0.00000000000E+00 0. -1.
          2    1    1    2  501    0 -0.44069580583E+01  0.22059993675E+02  0.11509625797E+04  0.11511824028E+04  0.00000000000E+00 0. -1.
          2    1    1    2  502    0  0.44069580583E+01 -0.22059993675E+02  0.23784217960E+02  0.32737648422E+02  0.00000000000E+00 0. -1.
</event>
<event>
 4    1  0.6225520E+003  0.2506247E+02  0.7546771E-02  0.1468106E+00
          2   -1    0    0  502    0  0.00000000000E+00  0.00000000000E+00  0.92956513918E+03  0.92956513918E+03  0.00000000000E+00 0. -1.
          2   -1    0    0  501    0 -0.00000000000E+00 -0.00000000000E+00 -0.72816704982E+00  0.72816704982E+00  0.00000000000E+00 0. -1.
          2    1    1    2  501    0  0.18312355721E+02 -0.17110957984E+02  0.58925115121E+03  0.58978389810E+03  0.00000000000E+00 0. -1.
          2    1    1    2  502    0 -0.18312355721E+02  0.17110957984E+02  0.33958582092E+03  0.34050940813E+03  0.00000000000E+00 0. -1.
</event>
<event>
 4    1  0.6225520E+003  0.3043885E+02  0.7546771E-02  0.1415820E+00
          2   -1    0    0  502    0  0.00000000000E+00  0.00000000000E+00  0.26458820927E+03  0.26458820927E+03  0.00000000000E+00 0.  1.
          2   -1    0    0  501    0 -0.00000000000E+00 -0.00000000000E+00 -0.51890980889E+02  0.51890980889E+02  0.00000000000E+00 0. -1.
          2    1    1    2  501    0 -0.28964236295E+02 -0.93593198055E+01  0.25915571890E+03  0.26093717729E+03  0.00000000000E+00 0.  1.
          2    1    1    2  502    0  0.28964236295E+02  0.93593198055E+01 -0.46458490525E+02  0.55542012866E+02  0.00000000000E+00 0. -1.
</event>
<event>
 4    1  0.6225520E+003  0.2495828E+02  0.7546771E-02  0.1469271E+00
          2   -1    0    0  501    0  0.00000000000E+00  0.00000000000E+00  0.22504345840E+03  0.22504345840E+03  0.00000000000E+00 0.  1.
          2   -1    0    0  502    0 -0.00000000000E+00 -0.00000000000E+00 -0.46518182070E+02  0.46518182070E+02  0.00000000000E+00 0. -1.
          2    1    1    2  501    0 -0.44843418445E+01  0.24552119568E+02 -0.42416534762E+02  0.49214614885E+02  0.00000000000E+00 0. -1.
          2    1    1    2  502    0  0.44843418445E+01 -0.24552119568E+02  0.22094181109E+03  0.22234702558E+03  0.00000000000E+00 0.  1.
</event>
<event>
 4    1  0.6225520E+003  0.2120216E+02  0.7546771E-02  0.1516398E+00
          2   -1    0    0  501    0  0.00000000000E+00  0.00000000000E+00  0.26582949365E+00  0.26582949365E+00  0.00000000000E+00 0.  1.
          2   -1    0    0  502    0 -0.00000000000E+00 -0.00000000000E+00 -0.18905654842E+04  0.18905654842E+04  0.00000000000E+00 0. -1.
          2    1    1    2  501    0 -0.55094556358E+01  0.20473822291E+02 -0.12522733208E+04  0.12524527942E+04  0.00000000000E+00 0. -1.
          2    1    1    2  502    0  0.55094556358E+01 -0.20473822291E+02 -0.63802633383E+03  0.63837851951E+03  0.00000000000E+00 0.  1.
</event>
<event>
 4    1  0.6225520E+003  0.2076294E+02  0.7546771E-02  0.1522676E+00
          2   -1    0    0  501    0  0.00000000000E+00  0.00000000000E+00  0.43040426336E+03  0.43040426336E+03  0.00000000000E+00 0.  1.
          2   -1    0    0  502    0 -0.00000000000E+00 -0.00000000000E+00 -0.49691463796E+01  0.49691463796E+01  0.00000000000E+00 0. -1.
          2    1    1    2  501    0  0.20719595287E+02 -0.13409793244E+01  0.18203438172E+02  0.27612769069E+02  0.00000000000E+00 0. -1.
          2    1    1    2  502    0 -0.20719595287E+02  0.13409793244E+01  0.40723167881E+03  0.40776064067E+03  0.00000000000E+00 0.  1.
</event>
<event>
 4    1  0.6225520E+003  0.2104095E+02  0.7546771E-02  0.1518681E+00
          2   -1    0    0  502    0  0.00000000000E+00  0.00000000000E+00  0.21478986995E+01  0.21478986995E+01  0.00000000000E+00 0.  1.
          2   -1    0    0  501    0 -0.00000000000E+00 -0.00000000000E+00 -0.12214892914E+04  0.12214892914E+04  0.00000000000E+00 0.  1.
          2    1    1    2  501    0 -0.20987014146E+02 -0.15056118223E+01 -0.51855712042E+02  0.55961920098E+02  0.00000000000E+00 0.  1.
          2    1    1    2  502    0  0.20987014146E+02  0.15056118223E+01 -0.11674856806E+04  0.11676752700E+04  0.00000000000E+00 0.  1.
</event>
<event>
 4    1  0.6225520E+003  0.3229827E+02  0.7546771E-02  0.1400622E+00
          2   -1    0    0  501    0  0.00000000000E+00  0.00000000000E+00  0.41444503253E+03  0.41444503253E+03  0.00000000000E+00 0.  1.
          2   -1    0    0  502    0 -0.00000000000E+00 -0.00000000000E+00 -0.37512075335E+03  0.37512075335E+03  0.00000000000E+00 0.  1.
          2    1    1    2  501    0 -0.26318536208E+02 -0.18721985124E+02 -0.37379403384E+03  0.37518683054E+03  0.00000000000E+00 0.  1.
          2    1    1    2  502    0  0.26318536208E+02  0.18721985124E+02  0.41311831302E+03  0.41437895534E+03  0.00000000000E+00 0.  1.
</event>
<event>
 4    1  0.6225520E+003  0.2049495E+02  0.7546771E-02  0.1526599E+00
          2   -1    0    0  502    0  0.00000000000E+00  0.00000000000E+00  0.21447487646E+01  0.21447487646E+01  0.00000000000E+00 0.  1.
          2   -1    0    0  501    0 -0.00000000000E+00 -0.00000000000E+00 -0.41945401578E+03  0.41945401578E+03  0.00000000000E+00 0.  1.
          2    1    1    2  501    0  0.16587104924E+02 -0.12037901576E+02 -0.54743641914E+02  0.58454336487E+02  0.00000000000E+00 0.  1.
          2    1    1    2  502    0 -0.16587104924E+02  0.12037901576E+02 -0.36256562511E+03  0.36314442806E+03  0.00000000000E+00 0.  1.
</event>
<event>
 4    1  0.6225520E+003  0.9697543E+02  0.7546771E-02  0.1169155E+00
          2   -1    0    0  502    0  0.00000000000E+00  0.00000000000E+00  0.62020076082E+03  0.62020076082E+03  0.00000000000E+00 0.  1.
          2   -1    0    0  501    0 -0.00000000000E+00 -0.00000000000E+00 -0.34295338267E+02  0.34295338267E+02  0.00000000000E+00 0. -1.
          2    1    1    2  501    0 -0.39232491033E+02  0.88685096066E+02  0.53737519838E+03  0.54605525219E+03  0.00000000000E+00 0.  1.
          2    1    1    2  502    0  0.39232491033E+02 -0.88685096066E+02  0.48530224181E+02  0.10844084690E+03  0.00000000000E+00 0. -1.
</event>
<event>
 4    1  0.6225520E+003  0.2098980E+02  0.7546771E-02  0.1519410E+00
          2   -1    0    0  502    0  0.00000000000E+00  0.00000000000E+00  0.68915844885E+02  0.68915844885E+02  0.00000000000E+00 0. -1.
          2   -1    0    0  501    0 -0.00000000000E+00 -0.00000000000E+00 -0.25826400862E+02  0.25826400862E+02  0.00000000000E+00 0.  1.
          2    1    1    2  501    0  0.31701353382E+01 -0.20749027428E+02  0.62636723112E+02  0.66060055855E+02  0.00000000000E+00 0. -1.
          2    1    1    2  502    0 -0.31701353382E+01  0.20749027428E+02 -0.19547279089E+02  0.28682189893E+02  0.00000000000E+00 0.  1.
</event>
<event>
 4    1  0.6225520E+003  0.3328334E+02  0.7546771E-02  0.1393051E+00
          2   -1    0    0  501    0  0.00000000000E+00  0.00000000000E+00  0.27522348947E+01  0.27522348947E+01  0.00000000000E+00 0. -1.
          2   -1    0    0  502    0 -0.00000000000E+00 -0.00000000000E+00 -0.75027118390E+03  0.75027118390E+03  0.00000000000E+00 0.  1.
          2    1    1    2  501    0  0.62875756289E+01 -0.32684053734E+02 -0.63009847810E+03  0.63097691961E+03  0.00000000000E+00 0.  1.
          2    1    1    2  502    0 -0.62875756289E+01  0.32684053734E+02 -0.11742047090E+03  0.12204649918E+03  0.00000000000E+00 0. -1.
</event>
<event>
 4    1  0.6225520E+003  0.7236276E+02  0.7546771E-02  0.1222782E+00
          2   -1    0    0  501    0  0.00000000000E+00  0.00000000000E+00  0.53171276910E+03  0.53171276910E+03  0.00000000000E+00 0. -1.
          2   -1    0    0  502    0 -0.00000000000E+00 -0.00000000000E+00 -0.58434863989E+02  0.58434863989E+02  0.00000000000E+00 0.  1.
          2    1    1    2  501    0  0.47742712493E+02  0.54378328722E+02 -0.32423792957E+02  0.79294839557E+02  0.00000000000E+00 0.  1.
          2    1    1    2  502    0 -0.47742712493E+02 -0.54378328722E+02  0.50570169807E+03  0.51085279353E+03  0.00000000000E+00 0. -1.
</event>
<event>
 4    1  0.6225520E+003  0.2269256E+02  0.7546771E-02  0.1496395E+00
          2   -1    0    0  501    0  0.00000000000E+00  0.00000000000E+00  0.87481553067E+02  0.87481553067E+02  0.00000000000E+00 0.  1.
          2   -1    0    0  502    0 -0.00000000000E+00 -0.00000000000E+00 -0.97386348507E+01  0.97386348507E+01  0.00000000000E+00 0.  1.
          2    1    1    2  501    0  0.73565711129E+01  0.21467022826E+02  0.82987949208E+01  0.24162413056E+02  0.00000000000E+00 0.  1.
          2    1    1    2  502    0 -0.73565711129E+01 -0.21467022826E+02  0.69444123296E+02  0.73057774862E+02  0.00000000000E+00 0.  1.
</event>
<event>
 4    1  0.6225520E+003  0.2049953E+02  0.7546771E-02  0.1526532E+00
          2   -1    0    0  501    0  0.00000000000E+00  0.00000000000E+00  0.34153327031E+00  0.34153327031E+00  0.00000000000E+00 0.  1.
          2   -1    0    0  502    0 -0.00000000000E+00 -0.00000000000E+00 -0.14512930858E+04  0.14512930858E+04  0.00000000000E+00 0.  1.
          2    1    1    2  501    0 -0.82517166846E+01 -0.18765395771E+02 -0.10086258792E+04  0.10088341762E+04  0.00000000000E+00 0.  1.
          2    1    1    2  502    0  0.82517166846E+01  0.18765395771E+02 -0.44232567338E+03  0.44280044291E+03  0.00000000000E+00 0.  1.
</event>
<event>
 4    1  0.1904865E+004  0.2127472E+02  0.7546771E-02  0.1515379E+00
          2   -1    0    0  502    0  0.00000000000E+00  0.00000000000E+00  0.15646722861E+04  0.15646722861E+04  0.00000000000E+00 0. -1.
          2   -1    0    0  501    0 -0.00000000000E+00 -0.00000000000E+00 -0.12699630139E+04  0.12699630139E+04  0.00000000000E+00 0.  1.
          2    1    1    2  501    0 -0.15492515011E+02 -0.14580656485E+02  0.15645108595E+04  0.15646555030E+04  0.00000000000E+00 0. -1.
          2    1    1    2  502    0  0.15492515011E+02  0.14580656485E+02 -0.12698015873E+04  0.12699797970E+04  0.00000000000E+00 0.  1.
</event>
<event>
 4    1  0.6225520E+003  0.2330828E+02  0.7546771E-02  0.1488663E+00
          2   -1    0    0  501    0  0.00000000000E+00  0.00000000000E+00  0.27874969733E+02  0.27874969733E+02  0.00000000000E+00 0. -1.
          2   -1    0    0  502    0 -0.00000000000E+00 -0.00000000000E+00 -0.10123818396E+04  0.10123818396E+04  0.00000000000E+00 0.  1.
          2    1    1    2  501    0  0.72396190769E+01 -0.22155445685E+02 -0.10073509165E+04  0.10076205362E+04  0.00000000000E+00 0.  1.
          2    1    1    2  502    0 -0.72396190769E+01  0.22155445685E+02  0.22844046670E+02  0.32636273166E+02  0.00000000000E+00 0. -1.
</event>
<event>
 4    1  0.6225520E+003  0.2140299E+02  0.7546771E-02  0.1513588E+00
          2   -1    0    0  501    0  0.00000000000E+00  0.00000000000E+00  0.10533322076E+04  0.10533322076E+04  0.00000000000E+00 0.  1.
          2   -1    0    0  502    0 -0.00000000000E+00 -0.00000000000E+00 -0.11416392887E+01  0.11416392887E+01  0.00000000000E+00 0. -1.
          2    1    1    2  501    0 -0.62399482887E-01  0.21402896498E+02  0.11126273942E+03  0.11330262598E+03  0.00000000000E+00 0. -1.
          2    1    1    2  502    0  0.62399482887E-01 -0.21402896498E+02  0.94092782886E+03  0.94117122087E+03  0.00000000000E+00 0.  1.
</event>
<event>
 4    1  0.6225520E+003  0.2695319E+02  0.7546771E-02  0.1448079E+00
          2   -1    0    0  502    0  0.00000000000E+00  0.00000000000E+00  0.46582465147E+03  0.46582465147E+03  0.00000000000E+00 0.  1.
          2   -1    0    0  501    0 -0.00000000000E+00 -0.00000000000E+00 -0.18517409970E+01  0.18517409970E+01  0.00000000000E+00 0. -1.
          2    1    1    2  501    0  0.21961151539E+02  0.15626340352E+02  0.32487500221E+03  0.32599116821E+03  0.00000000000E+00 0.  1.
          2    1    1    2  502    0 -0.21961151539E+02 -0.15626340352E+02  0.13909790826E+03  0.14168522425E+03  0.00000000000E+00 0. -1.
</event>
<event>
 4    1  0.6225520E+003  0.2385402E+02  0.7546771E-02  0.1482044E+00
          2   -1    0    0  502    0  0.00000000000E+00  0.00000000000E+00  0.96167746620E+02  0.96167746620E+02  0.00000000000E+00 0.  1.
          2   -1    0    0  501    0 -0.00000000000E+00 -0.00000000000E+00 -0.11824015267E+02  0.11824015267E+02  0.00000000000E+00 0. -1.
          2    1    1    2  501    0  0.21287893131E+02 -0.10762892737E+02  0.80336941110E+02  0.83803570097E+02  0.00000000000E+00 0.  1.
          2    1    1    2  502    0 -0.21287893131E+02  0.10762892737E+02  0.40067902432E+01  0.24188191790E+02  0.00000000000E+00 0. -1.
</event>
<event>
 4    1  0.6225520E+003  0.2057218E+02  0.7546771E-02  0.1525462E+00
          2   -1    0    0  502    0  0.00000000000E+00  0.00000000000E+00  0.85607631816E+03  0.85607631816E+03  0.00000000000E+00 0.  1.
          2   -1    0    0  501    0 -0.00000000000E+00 -0.00000000000E+00 -0.68068068588E+00  0.68068068588E+00  0.00000000000E+00 0.  1.
          2    1    1    2  501    0  0.74976935737E+01 -0.19157220488E+02  0.65181760658E+03  0.65214216760E+03  0.00000000000E+00 0.  1.
          2    1    1    2  502    0 -0.74976935737E+01  0.19157220488E+02  0.20357803090E+03  0.20461483125E+03  0.00000000000E+00 0.  1.
</event>
<event>
 4    1  0.6225520E+003  0.2325915E+02  0.7546771E-02  0.1489269E+00
          2   -1    0    0  502    0  0.00000000000E+00  0.00000000000E+00  0.10626960715E+03  0.10626960715E+03  0.00000000000E+00 0.  1.
          2   -1    0    0  501    0 -0.00000000000E+00 -0.00000000000E+00 -0.79448173921E+01  0.79448173921E+01  0.00000000000E+00 0. -1.
          2    1    1    2  501    0 -0.19310855710E+02  0.12964530664E+02  0.83390576854E+02  0.86573532397E+02  0.00000000000E+00 0.  1.
          2    1    1    2  502    0  0.19310855710E+02 -0.12964530664E+02  0.14934212906E+02  0.27640892148E+02  0.00000000000E+00 0. -1.
</event>
<event>
 4    1  0.6225520E+003  0.3195380E+02  0.7546771E-02  0.1403345E+00
          2   -1    0    0  501    0  0.00000000000E+00  0.00000000000E+00  0.28562415463E+01  0.28562415463E+01  0.00000000000E+00 0.  1.
          2   -1    0    0  502    0 -0.00000000000E+00 -0.00000000000E+00 -0.11556433723E+04  0.11556433723E+04  0.00000000000E+00 0. -1.
          2    1    1    2  501    0  0.23175936311E+02 -0.21998209914E+02 -0.10577871030E+04  0.10582696257E+04  0.00000000000E+00 0. -1.
          2    1    1    2  502    0 -0.23175936311E+02  0.21998209914E+02 -0.95000027673E+02  0.10022998813E+03  0.00000000000E+00 0.  1.
</event>
<event>
 4    1  0.6225520E+003  0.3924735E+02  0.7546771E-02  0.1352954E+00
          2   -1    0    0  502    0  0.00000000000E+00  0.00000000000E+00  0.95882999858E+01  0.95882999858E+01  0.00000000000E+00 0.  1.
          2   -1    0    0  501    0 -0.00000000000E+00 -0.00000000000E+00 -0.44091693072E+03  0.44091693072E+03  0.00000000000E+00 0. -1.
          2    1    1    2  501    0  0.36534372678E+02  0.14338545349E+02 -0.36076082154E+02  0.53308892066E+02  0.00000000000E+00 0.  1.
          2    1    1    2  502    0 -0.36534372678E+02 -0.14338545349E+02 -0.39525254858E+03  0.39719633864E+03  0.00000000000E+00 0. -1.
</event>
<event>
 4    1  0.6225520E+003  0.4240028E+02  0.7546771E-02  0.1334967E+00
          2   -1    0    0  501    0  0.00000000000E+00  0.00000000000E+00  0.36085939163E+02  0.36085939163E+02  0.00000000000E+00 0.  1.
          2   -1    0    0  502    0 -0.00000000000E+00 -0.00000000000E+00 -0.10053351551E+04  0.10053351551E+04  0.00000000000E+00 0.  1.
          2    1    1    2  501    0  0.31110869788E+02  0.28807947185E+02 -0.99226928828E+03  0.99317477038E+03  0.00000000000E+00 0.  1.
          2    1    1    2  502    0 -0.31110869788E+02 -0.28807947185E+02  0.23020072331E+02  0.48246323902E+02  0.00000000000E+00 0.  1.
</event>
<event>
 4    1  0.6225520E+003  0.2537004E+02  0.7546771E-02  0.1464706E+00
          2   -1    0    0  501    0  0.00000000000E+00  0.00000000000E+00  0.42617627111E+03  0.42617627111E+03  0.00000000000E+00 0.  1.
          2   -1    0    0  502    0 -0.00000000000E+00 -0.00000000000E+00 -0.51783652497E+01  0.51783652497E+01  0.00000000000E+00 0.  1.
          2    1    1    2  501    0  0.50077409977E+01  0.24870897503E+02  0.28977171029E+02  0.38513834570E+02  0.00000000000E+00 0.  1.
          2    1    1    2  502    0 -0.50077409977E+01 -0.24870897503E+02  0.39202073484E+03  0.39284080179E+03  0.00000000000E+00 0.  1.
</event>
<event>
 4    1  0.6225520E+003  0.2240528E+02  0.7546771E-02  0.1500104E+00
          2   -1    0    0  502    0  0.00000000000E+00  0.00000000000E+00  0.13075524067E+02  0.13075524067E+02  0.00000000000E+00 0.  1.
          2   -1    0    0  501    0 -0.00000000000E+00 -0.00000000000E+00 -0.79117951718E+02  0.79117951718E+02  0.00000000000E+00 0.  1.
          2    1    1    2  501    0 -0.85136210830E+01 -0.20724743749E+02  0.51344862752E-01  0.22405342749E+02  0.00000000000E+00 0.  1.
          2    1    1    2  502    0  0.85136210830E+01  0.20724743749E+02 -0.66093772514E+02  0.69788133036E+02  0.00000000000E+00 0.  1.
</event>
<event>
 4    1  0.6225520E+003  0.2375147E+02  0.7546771E-02  0.1483271E+00
          2   -1    0    0  501    0  0.00000000000E+00  0.00000000000E+00  0.24181648232E+02  0.24181648232E+02  0.00000000000E+00 0. -1.
          2   -1    0    0  502    0 -0.00000000000E+00 -0.00000000000E+00 -0.94634453751E+02  0.94634453751E+02  0.00000000000E+00 0. -1.
          2    1    1    2  501    0  0.57584372692E+01 -0.23042846014E+02 -0.86794630354E+02  0.89985777823E+02  0.00000000000E+00 0. -1.
          2    1    1    2  502    0 -0.57584372692E+01  0.23042846014E+02  0.16341824835E+02  0.28830324160E+02  0.00000000000E+00 0. -1.
</event>
<event>
 4    1  0.6225520E+003  0.2991663E+02  0.7546771E-02  0.1420322E+00
          2   -1    0    0  502    0  0.00000000000E+00  0.00000000000E+00  0.19204539623E+02  0.19204539623E+02  0.00000000000E+00 0.  1.
          2   -1    0    0  501    0 -0.00000000000E+00 -0.00000000000E+00 -0.46606168913E+02  0.46606168913E+02  0.00000000000E+00 0. -1.
          2    1    1    2  501    0 -0.51254786339E+01  0.29474300109E+02 -0.13467186765E+02  0.32808078541E+02  0.00000000000E+00 0.  1.
          2    1    1    2  502    0  0.51254786339E+01 -0.29474300109E+02 -0.13934442524E+02  0.33002629996E+02  0.00000000000E+00 0. -1.
</event>
<event>
 4    1  0.6225520E+003  0.2262879E+02  0.7546771E-02  0.1497213E+00
          2   -1    0    0  502    0  0.00000000000E+00  0.00000000000E+00  0.52039406618E+03  0.52039406618E+03  0.00000000000E+00 0.  1.
          2   -1    0    0  501    0 -0.00000000000E+00 -0.00000000000E+00 -0.74668400670E+02  0.74668400670E+02  0.00000000000E+00 0. -1.
          2    1    1    2  501    0 -0.17353659602E+02  0.14522834759E+02  0.51842711289E+03  0.51892073924E+03  0.00000000000E+00 0.  1.
          2    1    1    2  502    0  0.17353659602E+02 -0.14522834759E+02 -0.72701447386E+02  0.76141727607E+02  0.00000000000E+00 0. -1.
</event>
<event>
 4    1  0.6225520E+003  0.3475154E+02  0.7546771E-02  0.1382318E+00
          2   -1    0    0  502    0  0.00000000000E+00  0.00000000000E+00  0.12838159717E+04  0.12838159717E+04  0.00000000000E+00 0. -1.
          2   -1    0    0  501    0 -0.00000000000E+00 -0.00000000000E+00 -0.12435262142E+01  0.12435262142E+01  0.00000000000E+00 0.  1.
          2    1    1    2  501    0 -0.34590087584E+02 -0.33459637052E+01  0.95836813386E+03  0.95899799251E+03  0.00000000000E+00 0. -1.
          2    1    1    2  502    0  0.34590087584E+02  0.33459637052E+01  0.32420431160E+03  0.32606150538E+03  0.00000000000E+00 0.  1.
</event>
<event>
 4    1  0.6225520E+003  0.2536264E+02  0.7546771E-02  0.1464787E+00
          2   -1    0    0  502    0  0.00000000000E+00  0.00000000000E+00  0.17539231346E+04  0.17539231346E+04  0.00000000000E+00 0. -1.
          2   -1    0    0  501    0 -0.00000000000E+00 -0.00000000000E+00 -0.80932901835E+00  0.80932901835E+00  0.00000000000E+00 0.  1.
          2    1    1    2  501    0  0.22677046181E+02 -0.11358486801E+02  0.15253561222E+04  0.15255669645E+04  0.00000000000E+00 0. -1.
          2    1    1    2  502    0 -0.22677046181E+02  0.11358486801E+02  0.22775768334E+03  0.22916549908E+03  0.00000000000E+00 0.  1.
</event>
<event>
 4    1  0.6225520E+003  0.3631405E+02  0.7546771E-02  0.1371553E+00
          2   -1    0    0  501    0  0.00000000000E+00  0.00000000000E+00  0.57324213008E+01  0.57324213008E+01  0.00000000000E+00 0. -1.
          2   -1    0    0  502    0 -0.00000000000E+00 -0.00000000000E+00 -0.39004392351E+03  0.39004392351E+03  0.00000000000E+00 0.  1.
          2    1    1    2  501    0 -0.50128260332E+01  0.35966400952E+02 -0.31889836509E+03  0.32095930845E+03  0.00000000000E+00 0.  1.
          2    1    1    2  502    0  0.50128260332E+01 -0.35966400952E+02 -0.65413137117E+02  0.74817036360E+02  0.00000000000E+00 0. -1.
</event>
<event>
 4    1  0.6225520E+003  0.5021603E+02  0.7546771E-02  0.1297239E+00
          2   -1    0    0  501    0  0.00000000000E+00  0.00000000000E+00  0.94404687757E+03  0.94404687757E+03  0.00000000000E+00 0. -1.
          2   -1    0    0  502    0 -0.00000000000E+00 -0.00000000000E+00 -0.17889394848E+02  0.17889394848E+02  0.00000000000E+00 0.  1.
          2    1    1    2  501    0 -0.42943053198E+02  0.26029679926E+02  0.19468687350E+02  0.53857959877E+02  0.00000000000E+00 0.  1.
          2    1    1    2  502    0  0.42943053198E+02 -0.26029679926E+02  0.90668879537E+03  0.90807831254E+03  0.00000000000E+00 0. -1.
</event>
<event>
 4    1  0.6225520E+003  0.3546050E+02  0.7546771E-02  0.1377354E+00
          2   -1    0    0  502    0  0.00000000000E+00  0.00000000000E+00  0.14067634173E+04  0.14067634173E+04  0.00000000000E+00 0.  1.
          2   -1    0    0  501    0 -0.00000000000E+00 -0.00000000000E+00 -0.16800520202E+01  0.16800520202E+01  0.00000000000E+00 0.  1.
          2    1    1    2  501    0 -0.32311007437E+02  0.14609794465E+02  0.11842818044E+04  0.11848125757E+04  0.00000000000E+00 0.  1.
          2    1    1    2  502    0  0.32311007437E+02 -0.14609794465E+02  0.22080156088E+03  0.22363089363E+03  0.00000000000E+00 0.  1.
</event>
<event>
 4    1  0.9171596E+003  0.2180858E+02  0.7546771E-02  0.1508026E+00
          2   -1    0    0  501    0  0.00000000000E+00  0.00000000000E+00  0.89155403651E+03  0.89155403651E+03  0.00000000000E+00 0.  1.
          2   -1    0    0  502    0 -0.00000000000E+00 -0.00000000000E+00 -0.46115428036E+03  0.46115428036E+03  0.00000000000E+00 0. -1.
          2    1    1    2  501    0 -0.13033668225E+02  0.17485351844E+02 -0.46076296169E+03  0.46127878869E+03  0.00000000000E+00 0. -1.
          2    1    1    2  502    0  0.13033668225E+02 -0.17485351844E+02  0.89116271784E+03  0.89142952818E+03  0.00000000000E+00 0.  1.
</event>
<event>
 4    1  0.6225520E+003  0.2304875E+02  0.7546771E-02  0.1491887E+00
          2   -1    0    0  501    0  0.00000000000E+00  0.00000000000E+00  0.19722242803E+03  0.19722242803E+03  0.00000000000E+00 0.  1.
          2   -1    0    0  502    0 -0.00000000000E+00 -0.00000000000E+00 -0.32579801593E+02  0.32579801593E+02  0.00000000000E+00 0. -1.
          2    1    1    2  501    0  0.25772523353E+00  0.23047308122E+02 -0.27727444922E+02  0.36056289824E+02  0.00000000000E+00 0. -1.
          2    1    1    2  502    0 -0.25772523353E+00 -0.23047308122E+02  0.19237007136E+03  0.19374593980E+03  0.00000000000E+00 0.  1.
</event>
<event>
 4    1  0.6225520E+003  0.2492918E+02  0.7546771E-02  0.1469597E+00
          2   -1    0    0  502    0  0.00000000000E+00  0.00000000000E+00  0.19245546252E+03  0.19245546252E+03  0.00000000000E+00 0.  1.
          2   -1    0    0  501    0 -0.00000000000E+00 -0.00000000000E+00 -0.13248614534E+02  0.13248614534E+02  0.00000000000E+00 0. -1.
          2    1    1    2  501    0 -0.73368003374E+01 -0.23825095049E+02  0.17904724659E+03  0.18077439062E+03  0.00000000000E+00 0.  1.
          2    1    1    2  502    0  0.73368003374E+01  0.23825095049E+02  0.15960140145E+00  0.24929686438E+02  0.00000000000E+00 0. -1.
</event>
<event>
 4    1  0.6225520E+003  0.2449348E+02  0.7546771E-02  0.1474550E+00
          2   -1    0    0  501    0  0.00000000000E+00  0.00000000000E+00  0.23364300769E+03  0.23364300769E+03  0.00000000000E+00 0. -1.
          2   -1    0    0  502    0 -0.00000000000E+00 -0.00000000000E+00 -0.26588529820E+02  0.26588529820E+02  0.00000000000E+00 0.  1.
          2    1    1    2  501    0 -0.56357690259E+01 -0.23836293063E+02 -0.20146233850E+02  0.31714373679E+02  0.00000000000E+00 0.  1.
          2    1    1    2  502    0  0.56357690259E+01  0.23836293063E+02  0.22720071172E+03  0.22851716383E+03  0.00000000000E+00 0. -1.
</event>
<event>
 4    1  0.6225520E+003  0.2125902E+02  0.7546771E-02  0.1515599E+00
          2   -1    0    0  501    0  0.00000000000E+00  0.00000000000E+00  0.34473439822E+03  0.34473439822E+03  0.00000000000E+00 0. -1.
          2   -1    0    0  502    0 -0.00000000000E+00 -0.00000000000E+00 -0.18998778891E+03  0.18998778891E+03  0.00000000000E+00 0. -1.
          2    1    1    2  501    0 -0.16226363916E+02 -0.13735029089E+02 -0.18906373881E+03  0.19025520556E+03  0.00000000000E+00 0. -1.
          2    1    1    2  502    0  0.16226363916E+02  0.13735029089E+02  0.34381034812E+03  0.34446698156E+03  0.00000000000E+00 0. -1.
</event>
<event>
 4    1  0.6225520E+003  0.2078582E+02  0.7546771E-02  0.1522345E+00
          2   -1    0    0  501    0  0.00000000000E+00  0.00000000000E+00  0.20954727680E+01  0.20954727680E+01  0.00000000000E+00 0.  1.
          2   -1    0    0  502    0 -0.00000000000E+00 -0.00000000000E+00 -0.34666927941E+03  0.34666927941E+03  0.00000000000E+00 0. -1.
          2    1    1    2  501    0  0.10371955054E+01  0.20759923253E+02 -0.28329697026E+03  0.28405848613E+03  0.00000000000E+00 0. -1.
          2    1    1    2  502    0 -0.10371955054E+01 -0.20759923253E+02 -0.61276836385E+02  0.64706266043E+02  0.00000000000E+00 0.  1.
</event>
<event>
 4    1  0.6225520E+003  0.2367269E+02  0.7546771E-02  0.1484220E+00
          2   -1    0    0  501    0  0.00000000000E+00  0.00000000000E+00  0.79495238899E+03  0.79495238899E+03  0.00000000000E+00 0.  1.
          2   -1    0    0  502    0 -0.00000000000E+00 -0.00000000000E+00 -0.14925545272E+02  0.14925545272E+02  0.00000000000E+00 0.  1.
          2    1    1    2  501    0 -0.95433001508E+01  0.21663829790E+02 -0.52471213913E+01  0.24247234519E+02  0.00000000000E+00 0.  1.
          2    1    1    2  502    0  0.95433001508E+01 -0.21663829790E+02  0.78527396511E+03  0.78563069974E+03  0.00000000000E+00 0.  1.
</event>
<event>
 4    1  0.6225520E+003  0.2648581E+02  0.7546771E-02  0.1452843E+00
          2   -1    0    0  502    0  0.00000000000E+00  0.00000000000E+00  0.10800802285E+04  0.10800802285E+04  0.00000000000E+00 0.  1.
          2   -1    0    0  501    0 -0.00000000000E+00 -0.00000000000E+00 -0.40924092536E+02  0.40924092536E+02  0.00000000000E+00 0.  1.
          2    1    1    2  501    0  0.20020545347E+01  0.26410038837E+02  0.10756147052E+04  0.10759407477E+04  0.00000000000E+00 0.  1.
          2    1    1    2  502    0 -0.20020545347E+01 -0.26410038837E+02 -0.36458569257E+02  0.45063573382E+02  0.00000000000E+00 0.  1.
</event>
<event>
 4    1  0.6225520E+003  0.2113426E+02  0.7546771E-02  0.1517357E+00
          2   -1    0    0  501    0  0.00000000000E+00  0.00000000000E+00  0.14096867179E+03  0.14096867179E+03  0.00000000000E+00 0.  1.
          2   -1    0    0  502    0 -0.00000000000E+00 -0.00000000000E+00 -0.16490621675E+03  0.16490621675E+03  0.00000000000E+00 0.  1.
          2    1    1    2  501    0 -0.16951644600E+02  0.12621356458E+02 -0.16342983201E+03  0.16479067596E+03  0.00000000000E+00 0.  1.
          2    1    1    2  502    0  0.16951644600E+02 -0.12621356458E+02  0.13949228704E+03  0.14108421258E+03  0.00000000000E+00 0.  1.
</event>
<event>
 4    1  0.6225520E+003  0.2441355E+02  0.7546771E-02  0.1475472E+00
          2   -1    0    0  502    0  0.00000000000E+00  0.00000000000E+00  0.12976962446E+03  0.12976962446E+03  0.00000000000E+00 0.  1.
          2   -1    0    0  501    0 -0.00000000000E+00 -0.00000000000E+00 -0.68275305431E+01  0.68275305431E+01  0.00000000000E+00 0. -1.
          2    1    1    2  501    0  0.22377643612E+02  0.97602402877E+01  0.10054442540E+03  0.10346594948E+03  0.00000000000E+00 0.  1.
          2    1    1    2  502    0 -0.22377643612E+02 -0.97602402877E+01  0.22397668522E+02  0.33131205522E+02  0.00000000000E+00 0. -1.
</event>
<event>
 4    1  0.6225520E+003  0.2612888E+02  0.7546771E-02  0.1456560E+00
          2   -1    0    0  502    0  0.00000000000E+00  0.00000000000E+00  0.36767052884E+00  0.36767052884E+00  0.00000000000E+00 0. -1.
          2   -1    0    0  501    0 -0.00000000000E+00 -0.00000000000E+00 -0.24681229565E+04  0.24681229565E+04  0.00000000000E+00 0.  1.
          2    1    1    2  501    0 -0.13687595059E+02 -0.22256865195E+02 -0.61965374356E+03  0.62020438584E+03  0.00000000000E+00 0. -1.
          2    1    1    2  502    0  0.13687595059E+02  0.22256865195E+02 -0.18481015425E+04  0.18482862412E+04  0.00000000000E+00 0.  1.
</event>
<event>
 4    1  0.6225520E+003  0.2525687E+02  0.7546771E-02  0.1465950E+00
          2   -1    0    0  502    0  0.00000000000E+00  0.00000000000E+00  0.88238141089E+00  0.88238141089E+00  0.00000000000E+00 0. -1.
          2   -1    0    0  501    0 -0.00000000000E+00 -0.00000000000E+00 -0.16216767247E+04  0.16216767247E+04  0.00000000000E+00 0. -1.
          2    1    1    2  501    0  0.11358076155E+02  0.22558894800E+02 -0.20644240845E+03  0.20798167620E+03  0.00000000000E+00 0. -1.
          2    1    1    2  502    0 -0.11358076155E+02 -0.22558894800E+02 -0.14143519348E+04  0.14145774299E+04  0.00000000000E+00 0. -1.
</event>
<event>
 4    1  0.6225520E+003  0.3517720E+02  0.7546771E-02  0.1379322E+00
          2   -1    0    0  502    0  0.00000000000E+00  0.00000000000E+00  0.54209928200E+01  0.54209928200E+01  0.00000000000E+00 0.  1.
          2   -1    0    0  501    0 -0.00000000000E+00 -0.00000000000E+00 -0.63622439554E+03  0.63622439554E+03  0.00000000000E+00 0. -1.
          2    1    1    2  501    0 -0.25465028178E+02  0.24268656934E+02 -0.58499887449E+02  0.68261791663E+02  0.00000000000E+00 0.  1.
          2    1    1    2  502    0  0.25465028178E+02 -0.24268656934E+02 -0.57230351527E+03  0.57338359670E+03  0.00000000000E+00 0. -1.
</event>
<event>
 4    1  0.6225520E+003  0.6098531E+02  0.7546771E-02  0.1256521E+00
          2   -1    0    0  501    0  0.00000000000E+00  0.00000000000E+00  0.48751350117E+02  0.48751350117E+02  0.00000000000E+00 0.  1.
          2   -1    0    0  502    0 -0.00000000000E+00 -0.00000000000E+00 -0.93185824722E+02  0.93185824722E+02  0.00000000000E+00 0. -1.
          2    1    1    2  501    0  0.60901533506E+02 -0.31954205966E+01 -0.52436901402E+02  0.80429075121E+02  0.00000000000E+00 0. -1.
          2    1    1    2  502    0 -0.60901533506E+02  0.31954205966E+01  0.80024267971E+01  0.61508099717E+02  0.00000000000E+00 0.  1.
</event>
<event>
 4    1  0.6225520E+003  0.2589897E+02  0.7546771E-02  0.1458993E+00
          2   -1    0    0  501    0  0.00000000000E+00  0.00000000000E+00  0.22239830244E+04  0.22239830244E+04  0.00000000000E+00 0.  1.
          2   -1    0    0  502    0 -0.00000000000E+00 -0.00000000000E+00 -0.56319189044E+00  0.56319189044E+00  0.00000000000E+00 0. -1.
          2    1    1    2  501    0  0.21493157748E+02 -0.14449935435E+02  0.35366630704E+03  0.35461332913E+03  0.00000000000E+00 0. -1.
          2    1    1    2  502    0 -0.21493157748E+02  0.14449935435E+02  0.18697535255E+04  0.18699328872E+04  0.00000000000E+00 0.  1.
</event>
<event>
 4    1  0.6225520E+003  0.2066721E+02  0.7546771E-02  0.1524070E+00
          2   -1    0    0  502    0  0.00000000000E+00  0.00000000000E+00  0.42041526200E+03  0.42041526200E+03  0.00000000000E+00 0.  1.
          2   -1    0    0  501    0 -0.00000000000E+00 -0.00000000000E+00 -0.62015244912E+03  0.62015244912E+03  0.00000000000E+00 0. -1.
          2    1    1    2  501    0  0.12273046331E+02 -0.16628462006E+02  0.41998890348E+03  0.42049710161E+03  0.00000000000E+00 0.  1.
          2    1    1    2  502    0 -0.12273046331E+02  0.16628462006E+02 -0.61972609060E+03  0.62007060952E+03  0.00000000000E+00 0. -1.
</event>
<event>
 4    1  0.6225520E+003  0.6389470E+02  0.7546771E-02  0.1247144E+00
          2   -1    0    0  502    0  0.00000000000E+00  0.00000000000E+00  0.76014591560E+03  0.76014591560E+03  0.00000000000E+00 0. -1.
          2   -1    0    0  501    0 -0.00000000000E+00 -0.00000000000E+00 -0.67681226926E+01  0.67681226926E+01  0.00000000000E+00 0. -1.
          2    1    1    2  501    0  0.62009824246E+02  0.15405000822E+02  0.55092697190E+03  0.55461974425E+03  0.00000000000E+00 0. -1.
          2    1    1    2  502    0 -0.62009824246E+02 -0.15405000822E+02  0.20245082101E+03  0.21229429404E+03  0.00000000000E+00 0. -1.
</event>
<event>
 4    1  0.6225520E+003  0.2063487E+02  0.7546771E-02  0.1524542E+00
          2   -1    0    0  501    0  0.00000000000E+00  0.00000000000E+00  0.95681177196E+01  0.95681177196E+01  0.00000000000E+00 0. -1.
          2   -1    0    0  502    0 -0.00000000000E+00 -0.00000000000E+00 -0.27501495386E+03  0.27501495386E+03  0.00000000000E+00 0.  1.
          2    1    1    2  501    0 -0.63378294306E+01 -0.19637459666E+02 -0.26299474100E+03  0.26380301685E+03  0.00000000000E+00 0.  1.
          2    1    1    2  502    0  0.63378294306E+01  0.19637459666E+02 -0.24520951387E+01  0.20780054731E+02  0.00000000000E+00 0. -1.
</event>
<event>
 4    1  0.6225520E+003  0.2241045E+02  0.7546771E-02  0.1500037E+00
          2   -1    0    0  502    0  0.00000000000E+00  0.00000000000E+00  0.43013096014E+02  0.43013096014E+02  0.00000000000E+00 0.  1.
          2   -1    0    0  501    0 -0.00000000000E+00 -0.00000000000E+00 -0.41894795386E+03  0.41894795386E+03  0.00000000000E+00 0. -1.
          2    1    1    2  501    0  0.12467025765E+02  0.18622611838E+02  0.39771611457E+02  0.45650952684E+02  0.00000000000E+00 0.  1.
          2    1    1    2  502    0 -0.12467025765E+02 -0.18622611838E+02 -0.41570646930E+03  0.41631009719E+03  0.00000000000E+00 0. -1.
</event>
<event>
 4    1  0.6225520E+003  0.2086437E+02  0.7546771E-02  0.1521210E+00
          2   -1    0    0  501    0  0.00000000000E+00  0.00000000000E+00  0.94562837204E+03  0.94562837204E+03  0.00000000000E+00 0. -1.
          2   -1    0    0  502    0 -0.00000000000E+00 -0.00000000000E+00 -0.15597989415E+01  0.15597989415E+01  0.00000000000E+00 0. -1.
          2    1    1    2  501    0  0.10051462055E+02  0.18283597799E+02  0.74422625605E+02  0.77291972674E+02  0.00000000000E+00 0. -1.
          2    1    1    2  502    0 -0.10051462055E+02 -0.18283597799E+02  0.86964594749E+03  0.86989619831E+03  0.00000000000E+00 0. -1.
</event>
<event>
 4    1  0.6225520E+003  0.2031784E+02  0.7546771E-02  0.1529231E+00
          2   -1    0    0  502    0  0.00000000000E+00  0.00000000000E+00  0.74216043346E+00  0.74216043346E+00  0.00000000000E+00 0.  1.
          2   -1    0    0  501    0 -0.00000000000E+00 -0.00000000000E+00 -0.92704739942E+03  0.92704739942E+03  0.00000000000E+00 0.  1.
          2    1    1    2  501    0 -0.13570322518E+02 -0.15121537909E+02 -0.16976183699E+03  0.17097337764E+03  0.00000000000E+00 0.  1.
          2    1    1    2  502    0  0.13570322518E+02  0.15121537909E+02 -0.75654340199E+03  0.75681618221E+03  0.00000000000E+00 0.  1.
</event>
<event>
 4    1  0.6225520E+003  0.2956921E+02  0.7546771E-02  0.1423377E+00
          2   -1    0    0  501    0  0.00000000000E+00  0.00000000000E+00  0.20013083583E+04  0.20013083583E+04  0.00000000000E+00 0.  1.
          2   -1    0    0  502    0 -0.00000000000E+00 -0.00000000000E+00 -0.88194725839E+02  0.88194725839E+02  0.00000000000E+00 0.  1.
          2    1    1    2  501    0  0.19108370374E+02  0.22565647204E+02 -0.85603861251E+02  0.90566877572E+02  0.00000000000E+00 0.  1.
          2    1    1    2  502    0 -0.19108370374E+02 -0.22565647204E+02  0.19987174937E+04  0.19989362065E+04  0.00000000000E+00 0.  1.
</event>
<event>
 4    1  0.6225520E+003  0.5314689E+02  0.7546771E-02  0.1285076E+00
          2   -1    0    0  501    0  0.00000000000E+00  0.00000000000E+00  0.32822536655E+03  0.32822536655E+03  0.00000000000E+00 0.  1.
          2   -1    0    0  502    0 -0.00000000000E+00 -0.00000000000E+00 -0.22382367038E+02  0.22382367038E+02  0.00000000000E+00 0. -1.
          2    1    1    2  501    0 -0.51582456309E+02 -0.12800072685E+02  0.15387078363E+02  0.55329502439E+02  0.00000000000E+00 0. -1.
          2    1    1    2  502    0  0.51582456309E+02  0.12800072685E+02  0.29045592115E+03  0.29527823115E+03  0.00000000000E+00 0.  1.
</event>
<event>
 4    1  0.6225520E+003  0.2026049E+02  0.7546771E-02  0.1530090E+00
          2   -1    0    0  502    0  0.00000000000E+00  0.00000000000E+00  0.46295611142E+01  0.46295611142E+01  0.00000000000E+00 0. -1.
          2   -1    0    0  501    0 -0.00000000000E+00 -0.00000000000E+00 -0.93655332011E+02  0.93655332011E+02  0.00000000000E+00 0. -1.
          2    1    1    2  501    0 -0.10929483517E+02  0.17059719950E+02 -0.33171042707E+02  0.38869084489E+02  0.00000000000E+00 0. -1.
          2    1    1    2  502    0  0.10929483517E+02 -0.17059719950E+02 -0.55854728190E+02  0.59415808636E+02  0.00000000000E+00 0. -1.
</event>
<event>
 4    1  0.6225520E+003  0.2297941E+02  0.7546771E-02  0.1492757E+00
          2   -1    0    0  502    0  0.00000000000E+00  0.00000000000E+00  0.11582584206E+02  0.11582584206E+02  0.00000000000E+00 0.  1.
          2   -1    0    0  501    0 -0.00000000000E+00 -0.00000000000E+00 -0.19099438203E+03  0.19099438203E+03  0.00000000000E+00 0.  1.
          2    1    1    2  501    0  0.38694013112E+01  0.22651292562E+02 -0.13291356398E+01  0.23017817507E+02  0.00000000000E+00 0.  1.
          2    1    1    2  502    0 -0.38694013112E+01 -0.22651292562E+02 -0.17808266219E+03  0.17955914873E+03  0.00000000000E+00 0.  1.
</event>
<event>
 4    1  0.6225520E+003  0.3670535E+02  0.7546771E-02  0.1368955E+00
          2   -1    0    0  501    0  0.00000000000E+00  0.00000000000E+00  0.77062767853E+02  0.77062767853E+02  0.00000000000E+00 0.  1.
          2   -1    0    0  502    0 -0.00000000000E+00 -0.00000000000E+00 -0.17616987361E+02  0.17616987361E+02  0.00000000000E+00 0.  1.
          2    1    1    2  501    0  0.92387761403E+01  0.35523625867E+02  0.25593303712E+02  0.44747068890E+02  0.00000000000E+00 0.  1.
          2    1    1    2  502    0 -0.92387761403E+01 -0.35523625867E+02  0.33852476781E+02  0.49932686324E+02  0.00000000000E+00 0.  1.
</event>
<event>
 4    1  0.6225520E+003  0.3090354E+02  0.7546771E-02  0.1411904E+00
          2   -1    0    0  501    0  0.00000000000E+00  0.00000000000E+00  0.17614427494E+04  0.17614427494E+04  0.00000000000E+00 0.  1.
          2   -1    0    0  502    0 -0.00000000000E+00 -0.00000000000E+00 -0.24258732333E+01  0.24258732333E+01  0.00000000000E+00 0. -1.
          2    1    1    2  501    0  0.28414150922E+02 -0.12151736836E+02  0.10235522851E+03  0.10691876114E+03  0.00000000000E+00 0. -1.
          2    1    1    2  502    0 -0.28414150922E+02  0.12151736836E+02  0.16566616476E+04  0.16569498615E+04  0.00000000000E+00 0.  1.
</event>
<event>
 4    1  0.6225520E+003  0.4303538E+02  0.7546771E-02  0.1331561E+00
          2   -1    0    0  501    0  0.00000000000E+00  0.00000000000E+00  0.64489475172E+01  0.64489475172E+01  0.00000000000E+00 0.  1.
          2   -1    0    0  502    0 -0.00000000000E+00 -0.00000000000E+00 -0.32622959881E+03  0.32622959881E+03  0.00000000000E+00 0. -1.
          2    1    1    2  501    0 -0.28248507301E+02  0.32466375442E+02 -0.10234483904E+03  0.11102481604E+03  0.00000000000E+00 0.  1.
          2    1    1    2  502    0  0.28248507301E+02 -0.32466375442E+02 -0.21743581225E+03  0.22165373028E+03  0.00000000000E+00 0. -1.
</event>
<event>
 4    1  0.6225520E+003  0.2227676E+02  0.7546771E-02  0.1501785E+00
          2   -1    0    0  502    0  0.00000000000E+00  0.00000000000E+00  0.20546819007E+03  0.20546819007E+03  0.00000000000E+00 0. -1.
          2   -1    0    0  501    0 -0.00000000000E+00 -0.00000000000E+00 -0.94571590352E+02  0.94571590352E+02  0.00000000000E+00 0.  1.
          2    1    1    2  501    0  0.20880672717E+02 -0.77621868017E+01  0.20354014412E+03  0.20475557210E+03  0.00000000000E+00 0. -1.
          2    1    1    2  502    0 -0.20880672717E+02  0.77621868017E+01 -0.92643544400E+02  0.95284208325E+02  0.00000000000E+00 0.  1.
</event>
<event>
 4    1  0.6225520E+003  0.2266201E+02  0.7546771E-02  0.1496787E+00
          2   -1    0    0  501    0  0.00000000000E+00  0.00000000000E+00  0.90465027794E+01  0.90465027794E+01  0.00000000000E+00 0.  1.
          2   -1    0    0  502    0 -0.00000000000E+00 -0.00000000000E+00 -0.64324749345E+03  0.64324749345E+03  0.00000000000E+00 0.  1.
          2    1    1    2  501    0  0.21546901595E+02  0.70212220423E+01 -0.62852311247E+03  0.62893153001E+03  0.00000000000E+00 0.  1.
          2    1    1    2  502    0 -0.21546901595E+02 -0.70212220423E+01 -0.56778782047E+01  0.23362466227E+02  0.00000000000E+00 0.  1.
</event>
<event>
 4    1  0.6225520E+003  0.2820848E+02  0.7546771E-02  0.1435832E+00
          2   -1    0    0  502    0  0.00000000000E+00  0.00000000000E+00  0.38821724147E+03  0.38821724147E+03  0.00000000000E+00 0.  1.
          2   -1    0    0  501    0 -0.00000000000E+00 -0.00000000000E+00 -0.56726741825E+01  0.56726741825E+01  0.00000000000E+00 0.  1.
          2    1    1    2  501    0  0.22817208427E+02  0.16585935920E+02  0.34866520779E+03  0.34980443878E+03  0.00000000000E+00 0.  1.
          2    1    1    2  502    0 -0.22817208427E+02 -0.16585935920E+02  0.33879359504E+02  0.44085476873E+02  0.00000000000E+00 0.  1.
</event>
<event>
 4    1  0.6225520E+003  0.2910626E+02  0.7546771E-02  0.1427525E+00
          2   -1    0    0  501    0  0.00000000000E+00  0.00000000000E+00  0.25264082236E+04  0.25264082236E+04  0.00000000000E+00 0.  1.
          2   -1    0    0  502    0 -0.00000000000E+00 -0.00000000000E+00 -0.50304105826E+00  0.50304105826E+00  0.00000000000E+00 0.  1.
          2    1    1    2  501    0  0.28743498013E+02  0.45810304668E+01  0.53342423263E+03  0.53421773321E+03  0.00000000000E+00 0.  1.
          2    1    1    2  502    0 -0.28743498013E+02 -0.45810304668E+01  0.19924809499E+04  0.19926935314E+04  0.00000000000E+00 0.  1.
</event>
<event>
 4    1  0.6225520E+003  0.2662813E+02  0.7546771E-02  0.1451380E+00
          2   -1    0    0  502    0  0.00000000000E+00  0.00000000000E+00  0.23184148481E+04  0.23184148481E+04  0.00000000000E+00 0.  1.
          2   -1    0    0  501    0 -0.00000000000E+00 -0.00000000000E+00 -0.58294707205E+00  0.58294707205E+00  0.00000000000E+00 0.  1.
          2    1    1    2  501    0  0.25591026172E+02 -0.73591308611E+01  0.19583484554E+04  0.19585294816E+04  0.00000000000E+00 0.  1.
          2    1    1    2  502    0 -0.25591026172E+02  0.73591308611E+01  0.35948344564E+03  0.36046831361E+03  0.00000000000E+00 0.  1.
</event>
<event>
 4    1  0.6225520E+003  0.2719690E+02  0.7546771E-02  0.1445640E+00
          2   -1    0    0  501    0  0.00000000000E+00  0.00000000000E+00  0.20898236170E+04  0.20898236170E+04  0.00000000000E+00 0. -1.
          2   -1    0    0  502    0 -0.00000000000E+00 -0.00000000000E+00 -0.51513991307E+00  0.51513991307E+00  0.00000000000E+00 0. -1.
          2    1    1    2  501    0 -0.27178203520E+02  0.10083020651E+01  0.45998941800E+03  0.46079272573E+03  0.00000000000E+00 0. -1.
          2    1    1    2  502    0  0.27178203520E+02 -0.10083020651E+01  0.16293190591E+04  0.16295460312E+04  0.00000000000E+00 0. -1.
</event>
<event>
 4    1  0.6225520E+003  0.2045237E+02  0.7546771E-02  0.1527229E+00
          2   -1    0    0  502    0  0.00000000000E+00  0.00000000000E+00  0.30064644222E+02  0.30064644222E+02  0.00000000000E+00 0.  1.
          2   -1    0    0  501    0 -0.00000000000E+00 -0.00000000000E+00 -0.12878679018E+03  0.12878679018E+03  0.00000000000E+00 0.  1.
          2    1    1    2  501    0  0.19758009986E+00 -0.20451412841E+02  0.25651720077E+02  0.32807164888E+02  0.00000000000E+00 0.  1.
          2    1    1    2  502    0 -0.19758009986E+00  0.20451412841E+02 -0.12437386603E+03  0.12604426951E+03  0.00000000000E+00 0.  1.
</event>
<event>
 4    1  0.6225520E+003  0.2046958E+02  0.7546771E-02  0.1526974E+00
          2   -1    0    0  501    0  0.00000000000E+00  0.00000000000E+00  0.37278203059E+03  0.37278203059E+03  0.00000000000E+00 0.  1.
          2   -1    0    0  502    0 -0.00000000000E+00 -0.00000000000E+00 -0.10115262912E+02  0.10115262912E+02  0.00000000000E+00 0. -1.
          2    1    1    2  501    0  0.48077704658E+01  0.19896963623E+02  0.83460500140E+00  0.20486590340E+02  0.00000000000E+00 0. -1.
          2    1    1    2  502    0 -0.48077704658E+01 -0.19896963623E+02  0.36183216267E+03  0.36241070316E+03  0.00000000000E+00 0.  1.
</event>
<event>
 4    1  0.6225520E+003  0.3357179E+02  0.7546771E-02  0.1390892E+00
          2   -1    0    0  501    0  0.00000000000E+00  0.00000000000E+00  0.17197271343E+04  0.17197271343E+04  0.00000000000E+00 0.  1.
          2   -1    0    0  502    0 -0.00000000000E+00 -0.00000000000E+00 -0.10875856691E+02  0.10875856691E+02  0.00000000000E+00 0.  1.
          2    1    1    2  501    0  0.33437693633E+02 -0.29976635835E+01  0.15600555508E+02  0.37019490469E+02  0.00000000000E+00 0.  1.
          2    1    1    2  502    0 -0.33437693633E+02  0.29976635835E+01  0.16932507221E+04  0.16935835005E+04  0.00000000000E+00 0.  1.
</event>
<event>
 4    1  0.6225520E+003  0.2260813E+02  0.7546771E-02  0.1497478E+00
          2   -1    0    0  502    0  0.00000000000E+00  0.00000000000E+00  0.16053462011E+02  0.16053462011E+02  0.00000000000E+00 0. -1.
          2   -1    0    0  501    0 -0.00000000000E+00 -0.00000000000E+00 -0.36472473671E+03  0.36472473671E+03  0.00000000000E+00 0. -1.
          2    1    1    2  501    0 -0.18932073432E+02  0.12357346424E+02  0.75536046032E+01  0.23836617998E+02  0.00000000000E+00 0. -1.
          2    1    1    2  502    0  0.18932073432E+02 -0.12357346424E+02 -0.35622487930E+03  0.35694158072E+03  0.00000000000E+00 0. -1.
</event>
<event>
 4    1  0.6225520E+003  0.2319836E+02  0.7546771E-02  0.1490022E+00
          2   -1    0    0  502    0  0.00000000000E+00  0.00000000000E+00  0.28721956610E+03  0.28721956610E+03  0.00000000000E+00 0.  1.
          2   -1    0    0  501    0 -0.00000000000E+00 -0.00000000000E+00 -0.34315239669E+02  0.34315239669E+02  0.00000000000E+00 0.  1.
          2    1    1    2  501    0 -0.23041075418E+02  0.26968411376E+01  0.28276879469E+03  0.28371879628E+03  0.00000000000E+00 0.  1.
          2    1    1    2  502    0  0.23041075418E+02 -0.26968411376E+01 -0.29864468268E+02  0.37816009486E+02  0.00000000000E+00 0.  1.
</event>
<event>
 4    1  0.6225520E+003  0.2506198E+02  0.7546771E-02  0.1468111E+00
          2   -1    0    0  501    0  0.00000000000E+00  0.00000000000E+00  0.31490196017E+01  0.31490196017E+01  0.00000000000E+00 0. -1.
          2   -1    0    0  502    0 -0.00000000000E+00 -0.00000000000E+00 -0.21406773175E+03  0.21406773175E+03  0.00000000000E+00 0. -1.
          2    1    1    2  501    0 -0.14179944304E+02 -0.20664754927E+02 -0.77087900071E+02  0.81059529076E+02  0.00000000000E+00 0. -1.
          2    1    1    2  502    0  0.14179944304E+02  0.20664754927E+02 -0.13383081208E+03  0.13615722228E+03  0.00000000000E+00 0. -1.
</event>
<event>
 4    1  0.6225520E+003  0.2482369E+02  0.7546771E-02  0.1470785E+00
          2   -1    0    0  502    0  0.00000000000E+00  0.00000000000E+00  0.53538511241E+01  0.53538511241E+01  0.00000000000E+00 0. -1.
          2   -1    0    0  501    0 -0.00000000000E+00 -0.00000000000E+00 -0.27198336916E+03  0.27198336916E+03  0.00000000000E+00 0. -1.
          2    1    1    2  501    0  0.18084965560E+01 -0.24757727908E+02 -0.27997711161E+02  0.37417744202E+02  0.00000000000E+00 0. -1.
          2    1    1    2  502    0 -0.18084965560E+01  0.24757727908E+02 -0.23863180688E+03  0.23991947608E+03  0.00000000000E+00 0. -1.
</event>
<event>
 4    1  0.6225520E+003  0.2434112E+02  0.7546771E-02  0.1476311E+00
          2   -1    0    0  502    0  0.00000000000E+00  0.00000000000E+00  0.32732750263E+01  0.32732750263E+01  0.00000000000E+00 0. -1.
          2   -1    0    0  501    0 -0.00000000000E+00 -0.00000000000E+00 -0.74007093742E+03  0.74007093742E+03  0.00000000000E+00 0. -1.
          2    1    1    2  501    0  0.23724887973E+02  0.54424116273E+01 -0.45360912154E+02  0.51479146313E+02  0.00000000000E+00 0. -1.
          2    1    1    2  502    0 -0.23724887973E+02 -0.54424116273E+01 -0.69143675024E+03  0.69186506613E+03  0.00000000000E+00 0. -1.
</event>
<event>
 4    1  0.6225520E+003  0.2088972E+02  0.7546771E-02  0.1520845E+00
          2   -1    0    0  501    0  0.00000000000E+00  0.00000000000E+00  0.77054330244E+03  0.77054330244E+03  0.00000000000E+00 0. -1.
          2   -1    0    0  502    0 -0.00000000000E+00 -0.00000000000E+00 -0.71243116213E+01  0.71243116213E+01  0.00000000000E+00 0. -1.
          2    1    1    2  501    0 -0.19336355873E+02  0.79047963594E+01  0.86503265903E+01  0.22609922911E+02  0.00000000000E+00 0. -1.
          2    1    1    2  502    0  0.19336355873E+02 -0.79047963594E+01  0.75476866423E+03  0.75505769115E+03  0.00000000000E+00 0. -1.
</event>
<event>
 4    1  0.6225520E+003  0.2928360E+02  0.7546771E-02  0.1425926E+00
          2   -1    0    0  501    0  0.00000000000E+00  0.00000000000E+00  0.12317829028E+04  0.12317829028E+04  0.00000000000E+00 0. -1.
          2   -1    0    0  502    0 -0.00000000000E+00 -0.00000000000E+00 -0.30314351159E+01  0.30314351159E+01  0.00000000000E+00 0.  1.
          2    1    1    2  501    0 -0.29107953283E+02 -0.32025884534E+01  0.72480059014E+02  0.78172171978E+02  0.00000000000E+00 0.  1.
          2    1    1    2  502    0  0.29107953283E+02  0.32025884534E+01  0.11562714086E+04  0.11566421659E+04  0.00000000000E+00 0. -1.
</event>
<event>
 4    1  0.6225520E+003  0.2115807E+02  0.7546771E-02  0.1517020E+00
          2   -1    0    0  502    0  0.00000000000E+00  0.00000000000E+00  0.33971949064E+01  0.33971949064E+01  0.00000000000E+00 0. -1.
          2   -1    0    0  501    0 -0.00000000000E+00 -0.00000000000E+00 -0.83730236018E+03  0.83730236018E+03  0.00000000000E+00 0. -1.
          2    1    1    2  501    0  0.14434108778E+02 -0.15469990113E+02 -0.31095293100E+02  0.37610920533E+02  0.00000000000E+00 0. -1.
          2    1    1    2  502    0 -0.14434108778E+02  0.15469990113E+02 -0.80280987217E+03  0.80308863455E+03  0.00000000000E+00 0. -1.
</event>
<event>
 4    1  0.6225520E+003  0.2344609E+02  0.7546771E-02  0.1486971E+00
          2   -1    0    0  502    0  0.00000000000E+00  0.00000000000E+00  0.55018188375E+00  0.55018188375E+00  0.00000000000E+00 0.  1.
          2   -1    0    0  501    0 -0.00000000000E+00 -0.00000000000E+00 -0.17169746752E+04  0.17169746752E+04  0.00000000000E+00 0.  1.
          2    1    1    2  501    0 -0.14646734278E+02  0.18308261857E+02 -0.30295081734E+03  0.30385673763E+03  0.00000000000E+00 0.  1.
          2    1    1    2  502    0  0.14646734278E+02 -0.18308261857E+02 -0.14134736760E+04  0.14136681194E+04  0.00000000000E+00 0.  1.
</event>
<event>
 4    1  0.6225520E+003  0.3799026E+02  0.7546771E-02  0.1360683E+00
          2   -1    0    0  501    0  0.00000000000E+00  0.00000000000E+00  0.35889959652E+00  0.35889959652E+00  0.00000000000E+00 0. -1.
          2   -1    0    0  502    0 -0.00000000000E+00 -0.00000000000E+00 -0.42986431562E+04  0.42986431562E+04  0.00000000000E+00 0. -1.
          2    1    1    2  501    0 -0.37310613985E+02  0.71538604126E+01 -0.26950813291E+04  0.26953490739E+04  0.00000000000E+00 0. -1.
          2    1    1    2  502    0  0.37310613985E+02 -0.71538604126E+01 -0.16032029275E+04  0.16036529819E+04  0.00000000000E+00 0. -1.
</event>
<event>
 4    1  0.6225520E+003  0.2467813E+02  0.7546771E-02  0.1472437E+00
          2   -1    0    0  502    0  0.00000000000E+00  0.00000000000E+00  0.20510054030E+01  0.20510054030E+01  0.00000000000E+00 0.  1.
          2   -1    0    0  501    0 -0.00000000000E+00 -0.00000000000E+00 -0.30025368444E+03  0.30025368444E+03  0.00000000000E+00 0.  1.
          2    1    1    2  501    0  0.22491878727E+02  0.10155066371E+02 -0.16499862438E+03  0.16683391750E+03  0.00000000000E+00 0.  1.
          2    1    1    2  502    0 -0.22491878727E+02 -0.10155066371E+02 -0.13320405465E+03  0.13547077234E+03  0.00000000000E+00 0.  1.
</event>
<event>
 4    1  0.6225520E+003  0.2437714E+02  0.7546771E-02  0.1475893E+00
          2   -1    0    0  502    0  0.00000000000E+00  0.00000000000E+00  0.15070072515E+02  0.15070072515E+02  0.00000000000E+00 0. -1.
          2   -1    0    0  501    0 -0.00000000000E+00 -0.00000000000E+00 -0.14297470616E+04  0.14297470616E+04  0.00000000000E+00 0. -1.
          2    1    1    2  501    0  0.18627007449E+02 -0.15725131271E+02  0.50384800146E+01  0.24892397250E+02  0.00000000000E+00 0. -1.
          2    1    1    2  502    0 -0.18627007449E+02  0.15725131271E+02 -0.14197154691E+04  0.14199247369E+04  0.00000000000E+00 0. -1.
</event>
<event>
 4    1  0.6225520E+003  0.2044262E+02  0.7546771E-02  0.1527374E+00
          2   -1    0    0  501    0  0.00000000000E+00  0.00000000000E+00  0.41121172947E+03  0.41121172947E+03  0.00000000000E+00 0.  1.
          2   -1    0    0  502    0 -0.00000000000E+00 -0.00000000000E+00 -0.32272293672E+02  0.32272293672E+02  0.00000000000E+00 0. -1.
          2    1    1    2  501    0  0.75927266770E+01 -0.18980279923E+02 -0.28752998493E+02  0.35279391245E+02  0.00000000000E+00 0. -1.
          2    1    1    2  502    0 -0.75927266770E+01  0.18980279923E+02  0.40769243429E+03  0.40820463189E+03  0.00000000000E+00 0.  1.
</event>
<event>
 4    1  0.6225520E+003  0.2577997E+02  0.7546771E-02  0.1460264E+00
          2   -1    0    0  502    0  0.00000000000E+00  0.00000000000E+00  0.25754150475E+03  0.25754150475E+03  0.00000000000E+00 0.  1.
          2   -1    0    0  501    0 -0.00000000000E+00 -0.00000000000E+00 -0.41149235736E+01  0.41149235736E+01  0.00000000000E+00 0.  1.
          2    1    1    2  501    0  0.18765356701E+02 -0.17676778226E+02  0.20660127828E+03  0.20820349490E+03  0.00000000000E+00 0.  1.
          2    1    1    2  502    0 -0.18765356701E+02  0.17676778226E+02  0.46825302897E+02  0.53452933427E+02  0.00000000000E+00 0.  1.
</event>
<event>
 4    1  0.6225520E+003  0.2481067E+02  0.7546771E-02  0.1470933E+00
          2   -1    0    0  501    0  0.00000000000E+00  0.00000000000E+00  0.22843590519E+01  0.22843590519E+01  0.00000000000E+00 0.  1.
          2   -1    0    0  502    0 -0.00000000000E+00 -0.00000000000E+00 -0.63112224598E+03  0.63112224598E+03  0.00000000000E+00 0. -1.
          2    1    1    2  501    0  0.92322259899E+01 -0.23029016162E+02 -0.55415897106E+03  0.55471410185E+03  0.00000000000E+00 0. -1.
          2    1    1    2  502    0 -0.92322259899E+01  0.23029016162E+02 -0.74678915860E+02  0.78692503176E+02  0.00000000000E+00 0.  1.
</event>
<event>
 4    1  0.6225520E+003  0.2242544E+02  0.7546771E-02  0.1499842E+00
          2   -1    0    0  501    0  0.00000000000E+00  0.00000000000E+00  0.73528777356E+03  0.73528777356E+03  0.00000000000E+00 0. -1.
          2   -1    0    0  502    0 -0.00000000000E+00 -0.00000000000E+00 -0.10072227733E+01  0.10072227733E+01  0.00000000000E+00 0.  1.
          2    1    1    2  501    0  0.10668492847E+02  0.19725199890E+02  0.15857428724E+03  0.16015213026E+03  0.00000000000E+00 0.  1.
          2    1    1    2  502    0 -0.10668492847E+02 -0.19725199890E+02  0.57570626355E+03  0.57614286608E+03  0.00000000000E+00 0. -1.
</event>
<event>
 4    1  0.6225520E+003  0.2218246E+02  0.7546771E-02  0.1503027E+00
          2   -1    0    0  501    0  0.00000000000E+00  0.00000000000E+00  0.16847994024E+01  0.16847994024E+01  0.00000000000E+00 0.  1.
          2   -1    0    0  502    0 -0.00000000000E+00 -0.00000000000E+00 -0.81715089579E+03  0.81715089579E+03  0.00000000000E+00 0. -1.
          2    1    1    2  501    0  0.98300130132E+01 -0.19885484957E+02 -0.73592890335E+03  0.73626314077E+03  0.00000000000E+00 0. -1.
          2    1    1    2  502    0 -0.98300130132E+01  0.19885484957E+02 -0.79537193035E+02  0.82572554421E+02  0.00000000000E+00 0.  1.
</event>
<event>
 4    1  0.6225520E+003  0.2836890E+02  0.7546771E-02  0.1434321E+00
          2   -1    0    0  501    0  0.00000000000E+00  0.00000000000E+00  0.97389853474E+03  0.97389853474E+03  0.00000000000E+00 0. -1.
          2   -1    0    0  502    0 -0.00000000000E+00 -0.00000000000E+00 -0.11180018653E+01  0.11180018653E+01  0.00000000000E+00 0. -1.
          2    1    1    2  501    0 -0.27592364250E+02 -0.65921141506E+01  0.23739975597E+03  0.23908876734E+03  0.00000000000E+00 0. -1.
          2    1    1    2  502    0  0.27592364250E+02  0.65921141506E+01  0.73538077691E+03  0.73592776927E+03  0.00000000000E+00 0. -1.
</event>
<event>
 4    1  0.6225520E+003  0.3580014E+02  0.7546771E-02  0.1375024E+00
          2   -1    0    0  502    0  0.00000000000E+00  0.00000000000E+00  0.12331766147E+01  0.12331766147E+01  0.00000000000E+00 0. -1.
          2   -1    0    0  501    0 -0.00000000000E+00 -0.00000000000E+00 -0.12800241592E+04  0.12800241592E+04  0.00000000000E+00 0.  1.
          2    1    1    2  501    0  0.20452183252E+02 -0.29382957589E+02 -0.36158403819E+03  0.36335198730E+03  0.00000000000E+00 0. -1.
          2    1    1    2  502    0 -0.20452183252E+02  0.29382957589E+02 -0.91720694436E+03  0.91790534848E+03  0.00000000000E+00 0.  1.
</event>
<event>
 4    1  0.6225520E+003  0.2547956E+02  0.7546771E-02  0.1463509E+00
          2   -1    0    0  501    0  0.00000000000E+00  0.00000000000E+00  0.19197211215E+02  0.19197211215E+02  0.00000000000E+00 0.  1.
          2   -1    0    0  502    0 -0.00000000000E+00 -0.00000000000E+00 -0.15935227104E+03  0.15935227104E+03  0.00000000000E+00 0.  1.
          2    1    1    2  501    0 -0.24372252108E+02 -0.74297657259E+01 -0.14931505668E+03  0.15147341101E+03  0.00000000000E+00 0.  1.
          2    1    1    2  502    0  0.24372252108E+02  0.74297657259E+01  0.91599968578E+01  0.27076071243E+02  0.00000000000E+00 0.  1.
</event>
<event>
 4    1  0.6225520E+003  0.2125743E+02  0.7546771E-02  0.1515621E+00
          2   -1    0    0  501    0  0.00000000000E+00  0.00000000000E+00  0.84482460987E+02  0.84482460987E+02  0.00000000000E+00 0.  1.
          2   -1    0    0  502    0 -0.00000000000E+00 -0.00000000000E+00 -0.14438201708E+02  0.14438201708E+02  0.00000000000E+00 0. -1.
          2    1    1    2  501    0 -0.13041151506E+02 -0.16787105127E+02 -0.42214371707E+01  0.21672541681E+02  0.00000000000E+00 0. -1.
          2    1    1    2  502    0  0.13041151506E+02  0.16787105127E+02  0.74265696449E+02  0.77248121014E+02  0.00000000000E+00 0.  1.
</event>
<event>
 4    1  0.6225520E+003  0.2344963E+02  0.7546771E-02  0.1486928E+00
          2   -1    0    0  502    0  0.00000000000E+00  0.00000000000E+00  0.27012738503E+02  0.27012738503E+02  0.00000000000E+00 0. -1.
          2   -1    0    0  501    0 -0.00000000000E+00 -0.00000000000E+00 -0.56849386601E+02  0.56849386601E+02  0.00000000000E+00 0.  1.
          2    1    1    2  501    0  0.22836073531E+02 -0.53290755102E+01  0.18676856339E+02  0.29978496674E+02  0.00000000000E+00 0. -1.
          2    1    1    2  502    0 -0.22836073531E+02  0.53290755102E+01 -0.48513504436E+02  0.53883628430E+02  0.00000000000E+00 0.  1.
</event>
<event>
 4    1  0.6225520E+003  0.2023867E+02  0.7546771E-02  0.1530418E+00
          2   -1    0    0  501    0  0.00000000000E+00  0.00000000000E+00  0.14207627775E+03  0.14207627775E+03  0.00000000000E+00 0. -1.
          2   -1    0    0  502    0 -0.00000000000E+00 -0.00000000000E+00 -0.51632644130E+02  0.51632644130E+02  0.00000000000E+00 0.  1.
          2    1    1    2  501    0 -0.11038303271E+02  0.16963473238E+02 -0.48889801987E+02  0.52913290408E+02  0.00000000000E+00 0.  1.
          2    1    1    2  502    0  0.11038303271E+02 -0.16963473238E+02  0.13933343560E+03  0.14079563147E+03  0.00000000000E+00 0. -1.
</event>
<event>
 4    1  0.6225520E+003  0.8490559E+02  0.7546771E-02  0.1192895E+00
          2   -1    0    0  502    0  0.00000000000E+00  0.00000000000E+00  0.46985736134E+01  0.46985736134E+01  0.00000000000E+00 0. -1.
          2   -1    0    0  501    0 -0.00000000000E+00 -0.00000000000E+00 -0.23949595304E+04  0.23949595304E+04  0.00000000000E+00 0. -1.
          2    1    1    2  501    0  0.74485249961E+02  0.40754230010E+02 -0.47586487525E+03  0.48338011877E+03  0.00000000000E+00 0. -1.
          2    1    1    2  502    0 -0.74485249961E+02 -0.40754230010E+02 -0.19143960816E+04  0.19162779853E+04  0.00000000000E+00 0. -1.
</event>
<event>
 4    1  0.6225520E+003  0.2148658E+02  0.7546771E-02  0.1512430E+00
          2   -1    0    0  502    0  0.00000000000E+00  0.00000000000E+00  0.99478795402E+01  0.99478795402E+01  0.00000000000E+00 0.  1.
          2   -1    0    0  501    0 -0.00000000000E+00 -0.00000000000E+00 -0.48153295639E+02  0.48153295639E+02  0.00000000000E+00 0.  1.
          2    1    1    2  501    0  0.74015898970E+01  0.20171506311E+02 -0.13573967609E+02  0.25415070264E+02  0.00000000000E+00 0.  1.
          2    1    1    2  502    0 -0.74015898970E+01 -0.20171506311E+02 -0.24631448490E+02  0.32686104916E+02  0.00000000000E+00 0.  1.
</event>
<event>
 4    1  0.6225520E+003  0.2831531E+02  0.7546771E-02  0.1434825E+00
          2   -1    0    0  501    0  0.00000000000E+00  0.00000000000E+00  0.15796359291E+01  0.15796359291E+01  0.00000000000E+00 0.  1.
          2   -1    0    0  502    0 -0.00000000000E+00 -0.00000000000E+00 -0.51510060864E+03  0.51510060864E+03  0.00000000000E+00 0.  1.
          2    1    1    2  501    0 -0.27739882914E+02  0.56793923408E+01 -0.28802208621E+03  0.28941057124E+03  0.00000000000E+00 0.  1.
          2    1    1    2  502    0  0.27739882914E+02 -0.56793923408E+01 -0.22549888651E+03  0.22726967334E+03  0.00000000000E+00 0.  1.
</event>
<event>
 4    1  0.6225520E+003  0.2281215E+02  0.7546771E-02  0.1494871E+00
          2   -1    0    0  501    0  0.00000000000E+00  0.00000000000E+00  0.65791572220E+02  0.65791572220E+02  0.00000000000E+00 0.  1.
          2   -1    0    0  502    0 -0.00000000000E+00 -0.00000000000E+00 -0.16449133491E+04  0.16449133491E+04  0.00000000000E+00 0. -1.
          2    1    1    2  501    0  0.22723524107E+02  0.20088457726E+01 -0.16428543453E+04  0.16430127187E+04  0.00000000000E+00 0. -1.
          2    1    1    2  502    0 -0.22723524107E+02 -0.20088457726E+01  0.63732568443E+02  0.67692202575E+02  0.00000000000E+00 0.  1.
</event>
<event>
 4    1  0.6225520E+003  0.2064709E+02  0.7546771E-02  0.1524364E+00
          2   -1    0    0  501    0  0.00000000000E+00  0.00000000000E+00  0.12191081429E+01  0.12191081429E+01  0.00000000000E+00 0.  1.
          2   -1    0    0  502    0 -0.00000000000E+00 -0.00000000000E+00 -0.55560065858E+03  0.55560065858E+03  0.00000000000E+00 0.  1.
          2    1    1    2  501    0  0.12830463318E+02 -0.16176578757E+02 -0.10769880829E+03  0.10966009208E+03  0.00000000000E+00 0.  1.
          2    1    1    2  502    0 -0.12830463318E+02  0.16176578757E+02 -0.44668274215E+03  0.44715967464E+03  0.00000000000E+00 0.  1.
</event>
<event>
 4    1  0.6225520E+003  0.2017389E+02  0.7546771E-02  0.1531394E+00
          2   -1    0    0  501    0  0.00000000000E+00  0.00000000000E+00  0.18447345564E+03  0.18447345564E+03  0.00000000000E+00 0. -1.
          2   -1    0    0  502    0 -0.00000000000E+00 -0.00000000000E+00 -0.22987699400E+01  0.22987699400E+01  0.00000000000E+00 0. -1.
          2    1    1    2  501    0 -0.10411979796E+02 -0.17279369767E+02  0.10982700865E+03  0.11166448752E+03  0.00000000000E+00 0. -1.
          2    1    1    2  502    0  0.10411979796E+02  0.17279369767E+02  0.72347677049E+02  0.75107738064E+02  0.00000000000E+00 0. -1.
</event>
<event>
 4    1  0.6225520E+003  0.2501243E+02  0.7546771E-02  0.1468664E+00
          2   -1    0    0  501    0  0.00000000000E+00  0.00000000000E+00  0.12399477273E+01  0.12399477273E+01  0.00000000000E+00 0. -1.
          2   -1    0    0  502    0 -0.00000000000E+00 -0.00000000000E+00 -0.51580127987E+03  0.51580127987E+03  0.00000000000E+00 0. -1.
          2    1    1    2  501    0  0.17865581524E+02  0.17505503661E+02 -0.29545407697E+03  0.29651093278E+03  0.00000000000E+00 0. -1.
          2    1    1    2  502    0 -0.17865581524E+02 -0.17505503661E+02 -0.21910725518E+03  0.22053029482E+03  0.00000000000E+00 0. -1.
</event>
<event>
 4    1  0.6225520E+003  0.2929515E+02  0.7546771E-02  0.1425822E+00
          2   -1    0    0  502    0  0.00000000000E+00  0.00000000000E+00  0.37809649522E+01  0.37809649522E+01  0.00000000000E+00 0.  1.
          2   -1    0    0  501    0 -0.00000000000E+00 -0.00000000000E+00 -0.77083881504E+03  0.77083881504E+03  0.00000000000E+00 0. -1.
          2    1    1    2  501    0 -0.16810065056E+02  0.23992235369E+02 -0.58202267720E+02  0.65159109976E+02  0.00000000000E+00 0.  1.
          2    1    1    2  502    0  0.16810065056E+02 -0.23992235369E+02 -0.70885558237E+03  0.70946067002E+03  0.00000000000E+00 0. -1.
</event>
<event>
 4    1  0.6225520E+003  0.3764125E+02  0.7546771E-02  0.1362891E+00
          2   -1    0    0  501    0  0.00000000000E+00  0.00000000000E+00  0.23976620069E+03  0.23976620069E+03  0.00000000000E+00 0. -1.
          2   -1    0    0  502    0 -0.00000000000E+00 -0.00000000000E+00 -0.25953084156E+02  0.25953084156E+02  0.00000000000E+00 0.  1.
          2    1    1    2  501    0 -0.31965538331E+02  0.19876325863E+02 -0.98517618030E+01  0.38909140073E+02  0.00000000000E+00 0.  1.
          2    1    1    2  502    0  0.31965538331E+02 -0.19876325863E+02  0.22366487833E+03  0.22681014477E+03  0.00000000000E+00 0. -1.
</event>
<event>
 4    1  0.6225520E+003  0.2124378E+02  0.7546771E-02  0.1515813E+00
          2   -1    0    0  502    0  0.00000000000E+00  0.00000000000E+00  0.77530019382E+02  0.77530019382E+02  0.00000000000E+00 0. -1.
          2   -1    0    0  501    0 -0.00000000000E+00 -0.00000000000E+00 -0.16403179110E+03  0.16403179110E+03  0.00000000000E+00 0.  1.
          2    1    1    2  501    0 -0.15257794660E+02  0.14781676773E+02  0.75367603321E+02  0.78304367033E+02  0.00000000000E+00 0. -1.
          2    1    1    2  502    0  0.15257794660E+02 -0.14781676773E+02 -0.16186937504E+03  0.16325744345E+03  0.00000000000E+00 0.  1.
</event>
<event>
 4    1  0.6225520E+003  0.3075403E+02  0.7546771E-02  0.1413155E+00
          2   -1    0    0  502    0  0.00000000000E+00  0.00000000000E+00  0.23592126997E+01  0.23592126997E+01  0.00000000000E+00 0.  1.
          2   -1    0    0  501    0 -0.00000000000E+00 -0.00000000000E+00 -0.51445886358E+03  0.51445886358E+03  0.00000000000E+00 0. -1.
          2    1    1    2  501    0 -0.10686981850E+02  0.28837450266E+02 -0.13464345522E+03  0.13811107903E+03  0.00000000000E+00 0.  1.
          2    1    1    2  502    0  0.10686981850E+02 -0.28837450266E+02 -0.37745619567E+03  0.37870699725E+03  0.00000000000E+00 0. -1.
</event>
<event>
 4    1  0.6225520E+003  0.3689075E+02  0.7546771E-02  0.1367737E+00
          2   -1    0    0  502    0  0.00000000000E+00  0.00000000000E+00  0.11118310239E+04  0.11118310239E+04  0.00000000000E+00 0. -1.
          2   -1    0    0  501    0 -0.00000000000E+00 -0.00000000000E+00 -0.78048150926E+01  0.78048150926E+01  0.00000000000E+00 0. -1.
          2    1    1    2  501    0  0.19996299070E+02 -0.31001214176E+02  0.10660614468E+04  0.10666995527E+04  0.00000000000E+00 0. -1.
          2    1    1    2  502    0 -0.19996299070E+02  0.31001214176E+02  0.37964761966E+02  0.52936286307E+02  0.00000000000E+00 0. -1.
</event>
<event>
 4    1  0.6225520E+003  0.2095760E+02  0.7546771E-02  0.1519871E+00
          2   -1    0    0  502    0  0.00000000000E+00  0.00000000000E+00  0.16583432650E+01  0.16583432650E+01  0.00000000000E+00 0. -1.
          2   -1    0    0  501    0 -0.00000000000E+00 -0.00000000000E+00 -0.12158539182E+04  0.12158539182E+04  0.00000000000E+00 0. -1.
          2    1    1    2  501    0  0.20277692392E+02 -0.52949268388E+01 -0.68713243132E+02  0.71838226876E+02  0.00000000000E+00 0. -1.
          2    1    1    2  502    0 -0.20277692392E+02  0.52949268388E+01 -0.11454823318E+04  0.11456740346E+04  0.00000000000E+00 0. -1.
</event>
<event>
 4    1  0.6225520E+003  0.2626373E+02  0.7546771E-02  0.1455148E+00
          2   -1    0    0  502    0  0.00000000000E+00  0.00000000000E+00  0.16223633765E+04  0.16223633765E+04  0.00000000000E+00 0.  1.
          2   -1    0    0  501    0 -0.00000000000E+00 -0.00000000000E+00 -0.18894903581E+01  0.18894903581E+01  0.00000000000E+00 0. -1.
          2    1    1    2  501    0 -0.11759523757E+02  0.23483975836E+02  0.15251760547E+04  0.15254021704E+04  0.00000000000E+00 0.  1.
          2    1    1    2  502    0  0.11759523757E+02 -0.23483975836E+02  0.95297831460E+02  0.98850696512E+02  0.00000000000E+00 0. -1.
</event>
<event>
 4    1  0.6225520E+003  0.3097517E+02  0.7546771E-02  0.1411307E+00
          2   -1    0    0  502    0  0.00000000000E+00  0.00000000000E+00  0.90997311301E+00  0.90997311301E+00  0.00000000000E+00 0.  1.
          2   -1    0    0  501    0 -0.00000000000E+00 -0.00000000000E+00 -0.17948123337E+04  0.17948123337E+04  0.00000000000E+00 0.  1.
          2    1    1    2  501    0 -0.14096472786E+02  0.27581710493E+02 -0.32026292476E+03  0.32175736553E+03  0.00000000000E+00 0.  1.
          2    1    1    2  502    0  0.14096472786E+02 -0.27581710493E+02 -0.14736394358E+04  0.14739649412E+04  0.00000000000E+00 0.  1.
</event>
<event>
 4    1  0.6225520E+003  0.2137896E+02  0.7546771E-02  0.1513922E+00
          2   -1    0    0  501    0  0.00000000000E+00  0.00000000000E+00  0.19679702406E+01  0.19679702406E+01  0.00000000000E+00 0.  1.
          2   -1    0    0  502    0 -0.00000000000E+00 -0.00000000000E+00 -0.65943471186E+03  0.65943471186E+03  0.00000000000E+00 0.  1.
          2    1    1    2  501    0 -0.60033832222E+01 -0.20518758860E+02 -0.59490279588E+03  0.59528681879E+03  0.00000000000E+00 0.  1.
          2    1    1    2  502    0  0.60033832222E+01  0.20518758860E+02 -0.62563945738E+02  0.66115863312E+02  0.00000000000E+00 0.  1.
</event>
<event>
 4    1  0.6225520E+003  0.2630915E+02  0.7546771E-02  0.1454674E+00
          2   -1    0    0  501    0  0.00000000000E+00  0.00000000000E+00  0.93549551727E+02  0.93549551727E+02  0.00000000000E+00 0.  1.
          2   -1    0    0  502    0 -0.00000000000E+00 -0.00000000000E+00 -0.17438986625E+02  0.17438986625E+02  0.00000000000E+00 0.  1.
          2    1    1    2  501    0  0.14728996565E+02  0.21799729896E+02 -0.40517313959E+01  0.26619317997E+02  0.00000000000E+00 0.  1.
          2    1    1    2  502    0 -0.14728996565E+02 -0.21799729896E+02  0.80162296498E+02  0.84369220354E+02  0.00000000000E+00 0.  1.
</event>
<event>
 4    1  0.6225520E+003  0.2295177E+02  0.7546771E-02  0.1493105E+00
          2   -1    0    0  502    0  0.00000000000E+00  0.00000000000E+00  0.61538496738E+03  0.61538496738E+03  0.00000000000E+00 0.  1.
          2   -1    0    0  501    0 -0.00000000000E+00 -0.00000000000E+00 -0.67979000123E+01  0.67979000123E+01  0.00000000000E+00 0. -1.
          2    1    1    2  501    0  0.22586566083E+02  0.40781041125E+01  0.59513912335E+03  0.59558153098E+03  0.00000000000E+00 0.  1.
          2    1    1    2  502    0 -0.22586566083E+02 -0.40781041125E+01  0.13447944013E+02  0.26601336410E+02  0.00000000000E+00 0. -1.
</event>
<event>
 4    1  0.6225520E+003  0.2140527E+02  0.7546771E-02  0.1513557E+00
          2   -1    0    0  502    0  0.00000000000E+00  0.00000000000E+00  0.82189056901E+00  0.82189056901E+00  0.00000000000E+00 0. -1.
          2   -1    0    0  501    0 -0.00000000000E+00 -0.00000000000E+00 -0.73217452817E+03  0.73217452817E+03  0.00000000000E+00 0. -1.
          2    1    1    2  501    0  0.12386235518E+02  0.17457568201E+02 -0.18665395786E+03  0.18787731503E+03  0.00000000000E+00 0. -1.
          2    1    1    2  502    0 -0.12386235518E+02 -0.17457568201E+02 -0.54469867974E+03  0.54511910371E+03  0.00000000000E+00 0. -1.
</event>
<event>
 4    1  0.6225520E+003  0.9735862E+02  0.7546771E-02  0.1168465E+00
          2   -1    0    0  501    0  0.00000000000E+00  0.00000000000E+00  0.21467701573E+03  0.21467701573E+03  0.00000000000E+00 0.  1.
          2   -1    0    0  502    0 -0.00000000000E+00 -0.00000000000E+00 -0.91288921518E+02  0.91288921518E+02  0.00000000000E+00 0. -1.
          2    1    1    2  501    0  0.79945373882E+02 -0.55564717860E+02 -0.48234027674E+02  0.10865183892E+03  0.00000000000E+00 0. -1.
          2    1    1    2  502    0 -0.79945373882E+02  0.55564717860E+02  0.17162212188E+03  0.19731409832E+03  0.00000000000E+00 0.  1.
</event>
<event>
 4    1  0.6225520E+003  0.2017773E+02  0.7546771E-02  0.1531336E+00
          2   -1    0    0  501    0  0.00000000000E+00  0.00000000000E+00  0.56579014050E+03  0.56579014050E+03  0.00000000000E+00 0. -1.
          2   -1    0    0  502    0 -0.00000000000E+00 -0.00000000000E+00 -0.57661563334E+01  0.57661563334E+01  0.00000000000E+00 0. -1.
          2    1    1    2  501    0  0.17482571916E+01 -0.20101850401E+02  0.12659946907E+02  0.23820475403E+02  0.00000000000E+00 0. -1.
          2    1    1    2  502    0 -0.17482571916E+01  0.20101850401E+02  0.54736403726E+03  0.54773582143E+03  0.00000000000E+00 0. -1.
</event>
<event>
 4    1  0.6225520E+003  0.2225766E+02  0.7546771E-02  0.1502036E+00
          2   -1    0    0  501    0  0.00000000000E+00  0.00000000000E+00  0.69377705163E+03  0.69377705163E+03  0.00000000000E+00 0.  1.
          2   -1    0    0  502    0 -0.00000000000E+00 -0.00000000000E+00 -0.17249238984E+03  0.17249238984E+03  0.00000000000E+00 0.  1.
          2    1    1    2  501    0 -0.22055828673E+02 -0.29906198140E+01 -0.17159493570E+03  0.17303244014E+03  0.00000000000E+00 0.  1.
          2    1    1    2  502    0  0.22055828673E+02  0.29906198140E+01  0.69287959749E+03  0.69323700132E+03  0.00000000000E+00 0.  1.
</event>
<event>
 4    1  0.6225520E+003  0.2084848E+02  0.7546771E-02  0.1521439E+00
          2   -1    0    0  501    0  0.00000000000E+00  0.00000000000E+00  0.54754399487E+02  0.54754399487E+02  0.00000000000E+00 0.  1.
          2   -1    0    0  502    0 -0.00000000000E+00 -0.00000000000E+00 -0.10015438552E+04  0.10015438552E+04  0.00000000000E+00 0. -1.
          2    1    1    2  501    0 -0.78170936444E+01 -0.19327493757E+02 -0.99944660930E+03  0.99966403547E+03  0.00000000000E+00 0. -1.
          2    1    1    2  502    0  0.78170936444E+01  0.19327493757E+02  0.52657153562E+02  0.56634219243E+02  0.00000000000E+00 0.  1.
</event>
<event>
 4    1  0.6225520E+003  0.4268656E+02  0.7546771E-02  0.1333423E+00
          2   -1    0    0  501    0  0.00000000000E+00  0.00000000000E+00  0.12244858916E+04  0.12244858916E+04  0.00000000000E+00 0. -1.
          2   -1    0    0  502    0 -0.00000000000E+00 -0.00000000000E+00 -0.87353086276E+02  0.87353086276E+02  0.00000000000E+00 0.  1.
          2    1    1    2  501    0  0.19188005945E+02  0.38130865449E+02 -0.81742188631E+02  0.92216744001E+02  0.00000000000E+00 0.  1.
          2    1    1    2  502    0 -0.19188005945E+02 -0.38130865449E+02  0.12188749939E+04  0.12196222339E+04  0.00000000000E+00 0. -1.
</event>
<event>
 4    1  0.6225520E+003  0.2671539E+02  0.7546771E-02  0.1450488E+00
          2   -1    0    0  502    0  0.00000000000E+00  0.00000000000E+00  0.19622034821E+04  0.19622034821E+04  0.00000000000E+00 0.  1.
          2   -1    0    0  501    0 -0.00000000000E+00 -0.00000000000E+00 -0.10784352193E+02  0.10784352193E+02  0.00000000000E+00 0.  1.
          2    1    1    2  501    0  0.25085632484E+02 -0.91881938467E+01  0.19454247804E+04  0.19456082052E+04  0.00000000000E+00 0.  1.
          2    1    1    2  502    0 -0.25085632484E+02  0.91881938467E+01  0.59943494800E+01  0.27379629087E+02  0.00000000000E+00 0.  1.
</event>
<event>
 4    1  0.6225520E+003  0.2658720E+02  0.7546771E-02  0.1451799E+00
          2   -1    0    0  501    0  0.00000000000E+00  0.00000000000E+00  0.18330327781E+04  0.18330327781E+04  0.00000000000E+00 0.  1.
          2   -1    0    0  502    0 -0.00000000000E+00 -0.00000000000E+00 -0.14925841414E+01  0.14925841414E+01  0.00000000000E+00 0. -1.
          2    1    1    2  501    0 -0.89702021424E+01  0.25028272753E+02  0.12584042286E+03  0.12861839289E+03  0.00000000000E+00 0. -1.
          2    1    1    2  502    0  0.89702021424E+01 -0.25028272753E+02  0.17056997711E+04  0.17059069693E+04  0.00000000000E+00 0.  1.
</event>
<event>
 4    1  0.6225520E+003  0.2261386E+02  0.7546771E-02  0.1497405E+00
          2   -1    0    0  501    0  0.00000000000E+00  0.00000000000E+00  0.21656785953E+03  0.21656785953E+03  0.00000000000E+00 0.  1.
          2   -1    0    0  502    0 -0.00000000000E+00 -0.00000000000E+00 -0.96546229993E+03  0.96546229993E+03  0.00000000000E+00 0. -1.
          2    1    1    2  501    0 -0.16845525561E+02  0.15086918239E+02 -0.96473910633E+03  0.96500410886E+03  0.00000000000E+00 0. -1.
          2    1    1    2  502    0  0.16845525561E+02 -0.15086918239E+02  0.21584466593E+03  0.21702605061E+03  0.00000000000E+00 0.  1.
</event>
<event>
 4    1  0.6225520E+003  0.2260672E+02  0.7546771E-02  0.1497497E+00
          2   -1    0    0  501    0  0.00000000000E+00  0.00000000000E+00  0.19121236754E+03  0.19121236754E+03  0.00000000000E+00 0. -1.
          2   -1    0    0  502    0 -0.00000000000E+00 -0.00000000000E+00 -0.22573063674E+02  0.22573063674E+02  0.00000000000E+00 0.  1.
          2    1    1    2  501    0 -0.32760438125E+01  0.22368083583E+02 -0.16045460189E+02  0.27722200831E+02  0.00000000000E+00 0.  1.
          2    1    1    2  502    0  0.32760438125E+01 -0.22368083583E+02  0.18468476406E+03  0.18606323039E+03  0.00000000000E+00 0. -1.
</event>
<event>
 4    1  0.6225520E+003  0.2206359E+02  0.7546771E-02  0.1504604E+00
          2   -1    0    0  501    0  0.00000000000E+00  0.00000000000E+00  0.96305973342E+03  0.96305973342E+03  0.00000000000E+00 0. -1.
          2   -1    0    0  502    0 -0.00000000000E+00 -0.00000000000E+00 -0.18524330501E+02  0.18524330501E+02  0.00000000000E+00 0. -1.
          2    1    1    2  501    0  0.19291649981E+02 -0.10706746965E+02 -0.11781880669E+02  0.25012295010E+02  0.00000000000E+00 0. -1.
          2    1    1    2  502    0 -0.19291649981E+02  0.10706746965E+02  0.95631728359E+03  0.95657176891E+03  0.00000000000E+00 0. -1.
</event>
<event>
 4    1  0.6225520E+003  0.2816216E+02  0.7546771E-02  0.1436271E+00
          2   -1    0    0  501    0  0.00000000000E+00  0.00000000000E+00  0.53107972620E+03  0.53107972620E+03  0.00000000000E+00 0.  1.
          2   -1    0    0  502    0 -0.00000000000E+00 -0.00000000000E+00 -0.86832905167E+01  0.86832905167E+01  0.00000000000E+00 0.  1.
          2    1    1    2  501    0 -0.93414318151E+01  0.26567739118E+02  0.15618486567E+02  0.32203171161E+02  0.00000000000E+00 0.  1.
          2    1    1    2  502    0  0.93414318151E+01 -0.26567739118E+02  0.50677794911E+03  0.50755984555E+03  0.00000000000E+00 0.  1.
</event>
<event>
 4    1  0.6225520E+003  0.2132742E+02  0.7546771E-02  0.1514641E+00
          2   -1    0    0  501    0  0.00000000000E+00  0.00000000000E+00  0.38064298134E+03  0.38064298134E+03  0.00000000000E+00 0. -1.
          2   -1    0    0  502    0 -0.00000000000E+00 -0.00000000000E+00 -0.13635976518E+01  0.13635976518E+01  0.00000000000E+00 0. -1.
          2    1    1    2  501    0 -0.19098827580E+02  0.94917646456E+01  0.12247271483E+03  0.12431582639E+03  0.00000000000E+00 0. -1.
          2    1    1    2  502    0  0.19098827580E+02 -0.94917646456E+01  0.25680666885E+03  0.25769075261E+03  0.00000000000E+00 0. -1.
</event>
<event>
 4    1  0.6225520E+003  0.2040130E+02  0.7546771E-02  0.1527987E+00
          2   -1    0    0  502    0  0.00000000000E+00  0.00000000000E+00  0.25147919207E+03  0.25147919207E+03  0.00000000000E+00 0. -1.
          2   -1    0    0  501    0 -0.00000000000E+00 -0.00000000000E+00 -0.11425777833E+02  0.11425777833E+02  0.00000000000E+00 0. -1.
          2    1    1    2  501    0 -0.19951320119E+02 -0.42612159131E+01  0.24158627565E+03  0.24244616251E+03  0.00000000000E+00 0. -1.
          2    1    1    2  502    0  0.19951320119E+02  0.42612159131E+01 -0.15328614143E+01  0.20458807387E+02  0.00000000000E+00 0. -1.
</event>
<event>
 4    1  0.6225520E+003  0.2086269E+02  0.7546771E-02  0.1521234E+00
          2   -1    0    0  502    0  0.00000000000E+00  0.00000000000E+00  0.25489392088E+03  0.25489392088E+03  0.00000000000E+00 0.  1.
          2   -1    0    0  501    0 -0.00000000000E+00 -0.00000000000E+00 -0.15971911798E+02  0.15971911798E+02  0.00000000000E+00 0. -1.
          2    1    1    2  501    0 -0.15709300521E+02 -0.13728432039E+02  0.24744966171E+03  0.24832758012E+03  0.00000000000E+00 0.  1.
          2    1    1    2  502    0  0.15709300521E+02  0.13728432039E+02 -0.85276526255E+01  0.22538252559E+02  0.00000000000E+00 0. -1.
</event>
<event>
 4    1  0.6225520E+003  0.2886955E+02  0.7546771E-02  0.1429681E+00
          2   -1    0    0  501    0  0.00000000000E+00  0.00000000000E+00  0.39368835419E+03  0.39368835419E+03  0.00000000000E+00 0.  1.
          2   -1    0    0  502    0 -0.00000000000E+00 -0.00000000000E+00 -0.28058864349E+02  0.28058864349E+02  0.00000000000E+00 0.  1.
          2    1    1    2  501    0  0.27346030540E+02  0.92544730675E+01 -0.19947697879E+02  0.35090758167E+02  0.00000000000E+00 0.  1.
          2    1    1    2  502    0 -0.27346030540E+02 -0.92544730675E+01  0.38557718772E+03  0.38665646038E+03  0.00000000000E+00 0.  1.
</event>
<event>
 4    1  0.6225520E+003  0.4268630E+02  0.7546771E-02  0.1333425E+00
          2   -1    0    0  501    0  0.00000000000E+00  0.00000000000E+00  0.75493191291E+01  0.75493191291E+01  0.00000000000E+00 0. -1.
          2   -1    0    0  502    0 -0.00000000000E+00 -0.00000000000E+00 -0.63819598747E+03  0.63819598747E+03  0.00000000000E+00 0. -1.
          2    1    1    2  501    0 -0.39222976677E+02  0.16842759578E+02 -0.56992341444E+03  0.57151974488E+03  0.00000000000E+00 0. -1.
          2    1    1    2  502    0  0.39222976677E+02 -0.16842759578E+02 -0.60723253900E+02  0.74225561728E+02  0.00000000000E+00 0. -1.
</event>
<event>
 4    1  0.6225520E+003  0.2360886E+02  0.7546771E-02  0.1484991E+00
          2   -1    0    0  501    0  0.00000000000E+00  0.00000000000E+00  0.12596044974E+03  0.12596044974E+03  0.00000000000E+00 0.  1.
          2   -1    0    0  502    0 -0.00000000000E+00 -0.00000000000E+00 -0.12477279376E+03  0.12477279376E+03  0.00000000000E+00 0. -1.
          2    1    1    2  501    0 -0.23566564445E+02 -0.14124907969E+01 -0.12252968420E+03  0.12478341877E+03  0.00000000000E+00 0. -1.
          2    1    1    2  502    0  0.23566564445E+02  0.14124907969E+01  0.12371734018E+03  0.12594982473E+03  0.00000000000E+00 0.  1.
</event>
<event>
 4    1  0.7976093E+003  0.2776125E+02  0.7546771E-02  0.1440108E+00
          2   -1    0    0  502    0  0.00000000000E+00  0.00000000000E+00  0.38157099433E+03  0.38157099433E+03  0.00000000000E+00 0. -1.
          2   -1    0    0  501    0 -0.00000000000E+00 -0.00000000000E+00 -0.20187489125E+04  0.20187489125E+04  0.00000000000E+00 0. -1.
          2    1    1    2  501    0  0.20111592509E+02 -0.19136633626E+02  0.38097045961E+03  0.38198059897E+03  0.00000000000E+00 0. -1.
          2    1    1    2  502    0 -0.20111592509E+02  0.19136633626E+02 -0.20181483778E+04  0.20183393079E+04  0.00000000000E+00 0. -1.
</event>
<event>
 4    1  0.6225520E+003  0.2210504E+02  0.7546771E-02  0.1504053E+00
          2   -1    0    0  501    0  0.00000000000E+00  0.00000000000E+00  0.17198330499E+03  0.17198330499E+03  0.00000000000E+00 0. -1.
          2   -1    0    0  502    0 -0.00000000000E+00 -0.00000000000E+00 -0.75592209660E+01  0.75592209660E+01  0.00000000000E+00 0.  1.
          2    1    1    2  501    0  0.20930891641E+02  0.71084852016E+01  0.11290135471E+02  0.24821360674E+02  0.00000000000E+00 0.  1.
          2    1    1    2  502    0 -0.20930891641E+02 -0.71084852016E+01  0.15313394855E+03  0.15472116528E+03  0.00000000000E+00 0. -1.
</event>
<event>
 4    1  0.6225520E+003  0.2363013E+02  0.7546771E-02  0.1484734E+00
          2   -1    0    0  502    0  0.00000000000E+00  0.00000000000E+00  0.95557361083E+03  0.95557361083E+03  0.00000000000E+00 0.  1.
          2   -1    0    0  501    0 -0.00000000000E+00 -0.00000000000E+00 -0.91269271620E+02  0.91269271620E+02  0.00000000000E+00 0. -1.
          2    1    1    2  501    0  0.96685752732E+01  0.21561581357E+02  0.95389534062E+03  0.95418798148E+03  0.00000000000E+00 0.  1.
          2    1    1    2  502    0 -0.96685752732E+01 -0.21561581357E+02 -0.89591001416E+02  0.92654900967E+02  0.00000000000E+00 0. -1.
</event>
<event>
 4    1  0.6225520E+003  0.2006022E+02  0.7546771E-02  0.1533117E+00
          2   -1    0    0  502    0  0.00000000000E+00  0.00000000000E+00  0.13512656342E+04  0.13512656342E+04  0.00000000000E+00 0.  1.
          2   -1    0    0  501    0 -0.00000000000E+00 -0.00000000000E+00 -0.34343764592E+01  0.34343764592E+01  0.00000000000E+00 0. -1.
          2    1    1    2  501    0  0.20014759465E+02  0.13498185592E+01  0.13212323662E+04  0.13213846443E+04  0.00000000000E+00 0.  1.
          2    1    1    2  502    0 -0.20014759465E+02 -0.13498185592E+01  0.26598891529E+02  0.33315366381E+02  0.00000000000E+00 0. -1.
</event>
<event>
 4    1  0.6225520E+003  0.2143578E+02  0.7546771E-02  0.1513133E+00
          2   -1    0    0  502    0  0.00000000000E+00  0.00000000000E+00  0.18930257065E+01  0.18930257065E+01  0.00000000000E+00 0. -1.
          2   -1    0    0  501    0 -0.00000000000E+00 -0.00000000000E+00 -0.62170336853E+03  0.62170336853E+03  0.00000000000E+00 0. -1.
          2    1    1    2  501    0 -0.92269482422E+01 -0.19348280576E+02 -0.66468042057E+02  0.69839051755E+02  0.00000000000E+00 0. -1.
          2    1    1    2  502    0  0.92269482422E+01  0.19348280576E+02 -0.55334230077E+03  0.55375734248E+03  0.00000000000E+00 0. -1.
</event>
<event>
 4    1  0.6225520E+003  0.2331813E+02  0.7546771E-02  0.1488542E+00
          2   -1    0    0  502    0  0.00000000000E+00  0.00000000000E+00  0.16484614740E+03  0.16484614740E+03  0.00000000000E+00 0.  1.
          2   -1    0    0  501    0 -0.00000000000E+00 -0.00000000000E+00 -0.12726019528E+02  0.12726019528E+02  0.00000000000E+00 0.  1.
          2    1    1    2  501    0 -0.31856107498E+01  0.23099499340E+02  0.15247860253E+03  0.15425128595E+03  0.00000000000E+00 0.  1.
          2    1    1    2  502    0  0.31856107498E+01 -0.23099499340E+02 -0.35847466228E+00  0.23320880980E+02  0.00000000000E+00 0.  1.
</event>
<event>
 4    1  0.6225520E+003  0.2499431E+02  0.7546771E-02  0.1468867E+00
          2   -1    0    0  502    0  0.00000000000E+00  0.00000000000E+00  0.22722813039E+04  0.22722813039E+04  0.00000000000E+00 0.  1.
          2   -1    0    0  501    0 -0.00000000000E+00 -0.00000000000E+00 -0.41241686829E+00  0.41241686829E+00  0.00000000000E+00 0.  1.
          2    1    1    2  501    0 -0.24747128951E+02 -0.35064160500E+01  0.17920424982E+04  0.17922167923E+04  0.00000000000E+00 0.  1.
          2    1    1    2  502    0  0.24747128951E+02  0.35064160500E+01  0.47982638881E+03  0.48047692842E+03  0.00000000000E+00 0.  1.
</event>
<event>
 4    1  0.6225520E+003  0.2590585E+02  0.7546771E-02  0.1458920E+00
          2   -1    0    0  501    0  0.00000000000E+00  0.00000000000E+00  0.13571477609E+04  0.13571477609E+04  0.00000000000E+00 0. -1.
          2   -1    0    0  502    0 -0.00000000000E+00 -0.00000000000E+00 -0.41961927912E+01  0.41961927912E+01  0.00000000000E+00 0.  1.
          2    1    1    2  501    0 -0.20836154093E+02  0.15393758979E+02  0.37167713486E+02  0.45305099699E+02  0.00000000000E+00 0.  1.
          2    1    1    2  502    0  0.20836154093E+02 -0.15393758979E+02  0.13157838546E+04  0.13160388540E+04  0.00000000000E+00 0. -1.
</event>
<event>
 4    1  0.6225520E+003  0.2816100E+02  0.7546771E-02  0.1436282E+00
          2   -1    0    0  502    0  0.00000000000E+00  0.00000000000E+00  0.11941300103E+02  0.11941300103E+02  0.00000000000E+00 0.  1.
          2   -1    0    0  501    0 -0.00000000000E+00 -0.00000000000E+00 -0.14372463058E+04  0.14372463058E+04  0.00000000000E+00 0. -1.
          2    1    1    2  501    0  0.25579067414E+02 -0.11779354139E+02 -0.49975562222E+01  0.28601004211E+02  0.00000000000E+00 0.  1.
          2    1    1    2  502    0 -0.25579067414E+02  0.11779354139E+02 -0.14203074495E+04  0.14205866017E+04  0.00000000000E+00 0. -1.
</event>
<event>
 4    1  0.6225520E+003  0.2550182E+02  0.7546771E-02  0.1463267E+00
          2   -1    0    0  501    0  0.00000000000E+00  0.00000000000E+00  0.54827244468E+00  0.54827244468E+00  0.00000000000E+00 0.  1.
          2   -1    0    0  502    0 -0.00000000000E+00 -0.00000000000E+00 -0.21077734166E+04  0.21077734166E+04  0.00000000000E+00 0. -1.
          2    1    1    2  501    0  0.88295368238E+00  0.25486532453E+02 -0.17506683821E+04  0.17508541136E+04  0.00000000000E+00 0. -1.
          2    1    1    2  502    0 -0.88295368238E+00 -0.25486532453E+02 -0.35655676209E+03  0.35746757550E+03  0.00000000000E+00 0.  1.
</event>
<event>
 4    1  0.6225520E+003  0.3058585E+02  0.7546771E-02  0.1414572E+00
          2   -1    0    0  501    0  0.00000000000E+00  0.00000000000E+00  0.33184441269E+01  0.33184441269E+01  0.00000000000E+00 0.  1.
          2   -1    0    0  502    0 -0.00000000000E+00 -0.00000000000E+00 -0.43852733858E+03  0.43852733858E+03  0.00000000000E+00 0. -1.
          2    1    1    2  501    0  0.17930837587E+02 -0.24778607729E+02 -0.34963235679E+03  0.35096763277E+03  0.00000000000E+00 0. -1.
          2    1    1    2  502    0 -0.17930837587E+02  0.24778607729E+02 -0.85576537664E+02  0.90878149938E+02  0.00000000000E+00 0.  1.
</event>
<event>
 4    1  0.6225520E+003  0.2072631E+02  0.7546771E-02  0.1523209E+00
          2   -1    0    0  501    0  0.00000000000E+00  0.00000000000E+00  0.86408383979E+02  0.86408383979E+02  0.00000000000E+00 0.  1.
          2   -1    0    0  502    0 -0.00000000000E+00 -0.00000000000E+00 -0.74618491035E+01  0.74618491035E+01  0.00000000000E+00 0. -1.
          2    1    1    2  501    0 -0.20646160646E+02  0.18209307769E+01  0.12358597400E+02  0.24131196987E+02  0.00000000000E+00 0. -1.
          2    1    1    2  502    0  0.20646160646E+02 -0.18209307769E+01  0.66587937475E+02  0.69739036096E+02  0.00000000000E+00 0.  1.
</event>
<event>
 4    1  0.6225520E+003  0.2037249E+02  0.7546771E-02  0.1528416E+00
          2   -1    0    0  502    0  0.00000000000E+00  0.00000000000E+00  0.25109775961E+03  0.25109775961E+03  0.00000000000E+00 0.  1.
          2   -1    0    0  501    0 -0.00000000000E+00 -0.00000000000E+00 -0.34920448293E+01  0.34920448293E+01  0.00000000000E+00 0. -1.
          2    1    1    2  501    0 -0.17018260457E+02  0.11198976786E+02  0.21618321606E+03  0.21714101679E+03  0.00000000000E+00 0.  1.
          2    1    1    2  502    0  0.17018260457E+02 -0.11198976786E+02  0.31422498727E+02  0.37448787648E+02  0.00000000000E+00 0. -1.
</event>
<event>
 4    1  0.6225520E+003  0.2324432E+02  0.7546771E-02  0.1489453E+00
          2   -1    0    0  501    0  0.00000000000E+00  0.00000000000E+00  0.89643277201E+02  0.89643277201E+02  0.00000000000E+00 0.  1.
          2   -1    0    0  502    0 -0.00000000000E+00 -0.00000000000E+00 -0.24827202945E+02  0.24827202945E+02  0.00000000000E+00 0. -1.
          2    1    1    2  501    0  0.16785565786E+02 -0.16079273898E+02 -0.17397603509E+02  0.29034029615E+02  0.00000000000E+00 0. -1.
          2    1    1    2  502    0 -0.16785565786E+02  0.16079273898E+02  0.82213677765E+02  0.85436450532E+02  0.00000000000E+00 0.  1.
</event>
<event>
 4    1  0.6225520E+003  0.2173414E+02  0.7546771E-02  0.1509036E+00
          2   -1    0    0  502    0  0.00000000000E+00  0.00000000000E+00  0.89170737920E+02  0.89170737920E+02  0.00000000000E+00 0.  1.
          2   -1    0    0  501    0 -0.00000000000E+00 -0.00000000000E+00 -0.12164382730E+02  0.12164382730E+02  0.00000000000E+00 0.  1.
          2    1    1    2  501    0 -0.10540576223E+02 -0.19007080235E+02  0.76571874504E+02  0.79596638191E+02  0.00000000000E+00 0.  1.
          2    1    1    2  502    0  0.10540576223E+02  0.19007080235E+02  0.43448068481E+00  0.21738482459E+02  0.00000000000E+00 0.  1.
</event>
<event>
 4    1  0.6225520E+003  0.2157523E+02  0.7546771E-02  0.1511208E+00
          2   -1    0    0  501    0  0.00000000000E+00  0.00000000000E+00  0.33854308540E+03  0.33854308540E+03  0.00000000000E+00 0. -1.
          2   -1    0    0  502    0 -0.00000000000E+00 -0.00000000000E+00 -0.78186866836E+01  0.78186866836E+01  0.00000000000E+00 0. -1.
          2    1    1    2  501    0 -0.20265774577E+02  0.74019587017E+01  0.81447051315E+01  0.23061371024E+02  0.00000000000E+00 0. -1.
          2    1    1    2  502    0  0.20265774577E+02 -0.74019587017E+01  0.32257969358E+03  0.32330040106E+03  0.00000000000E+00 0. -1.
</event>
<event>
 4    1  0.6225520E+003  0.2009881E+02  0.7546771E-02  0.1532531E+00
          2   -1    0    0  502    0  0.00000000000E+00  0.00000000000E+00  0.16316004831E+03  0.16316004831E+03  0.00000000000E+00 0. -1.
          2   -1    0    0  501    0 -0.00000000000E+00 -0.00000000000E+00 -0.14149057855E+04  0.14149057855E+04  0.00000000000E+00 0. -1.
          2    1    1    2  501    0  0.19516252856E+02  0.48039457794E+01  0.16246940402E+03  0.16370787783E+03  0.00000000000E+00 0. -1.
          2    1    1    2  502    0 -0.19516252856E+02 -0.48039457794E+01 -0.14142151412E+04  0.14143579560E+04  0.00000000000E+00 0. -1.
</event>
<event>
 4    1  0.6225520E+003  0.2825351E+02  0.7546771E-02  0.1435407E+00
          2   -1    0    0  502    0  0.00000000000E+00  0.00000000000E+00  0.11594765882E+04  0.11594765882E+04  0.00000000000E+00 0.  1.
          2   -1    0    0  501    0 -0.00000000000E+00 -0.00000000000E+00 -0.17608113658E+01  0.17608113658E+01  0.00000000000E+00 0. -1.
          2    1    1    2  501    0  0.19619344337E+02  0.20330818260E+02  0.10319659940E+04  0.10323526886E+04  0.00000000000E+00 0.  1.
          2    1    1    2  502    0 -0.19619344337E+02 -0.20330818260E+02  0.12574978283E+03  0.12888471098E+03  0.00000000000E+00 0. -1.
</event>
<event>
 4    1  0.6225520E+003  0.4438441E+02  0.7546771E-02  0.1324546E+00
          2   -1    0    0  502    0  0.00000000000E+00  0.00000000000E+00  0.75214877057E+01  0.75214877057E+01  0.00000000000E+00 0. -1.
          2   -1    0    0  501    0 -0.00000000000E+00 -0.00000000000E+00 -0.82832811395E+03  0.82832811395E+03  0.00000000000E+00 0.  1.
          2    1    1    2  501    0  0.11680605136E+02 -0.42819842660E+02 -0.64810774656E+02  0.78551969888E+02  0.00000000000E+00 0. -1.
          2    1    1    2  502    0 -0.11680605136E+02  0.42819842660E+02 -0.75599585159E+03  0.75729763177E+03  0.00000000000E+00 0.  1.
</event>
<event>
 4    1  0.6225520E+003  0.2042814E+02  0.7546771E-02  0.1527588E+00
          2   -1    0    0  501    0  0.00000000000E+00  0.00000000000E+00  0.11916637100E+03  0.11916637100E+03  0.00000000000E+00 0. -1.
          2   -1    0    0  502    0 -0.00000000000E+00 -0.00000000000E+00 -0.10771151193E+04  0.10771151193E+04  0.00000000000E+00 0.  1.
          2    1    1    2  501    0 -0.17589888917E+02 -0.10387709829E+02 -0.10761419947E+04  0.10763358684E+04  0.00000000000E+00 0.  1.
          2    1    1    2  502    0  0.17589888917E+02  0.10387709829E+02  0.11819324645E+03  0.11994562191E+03  0.00000000000E+00 0. -1.
</event>
<event>
 4    1  0.6225520E+003  0.2316314E+02  0.7546771E-02  0.1490460E+00
          2   -1    0    0  502    0  0.00000000000E+00  0.00000000000E+00  0.50856363624E+02  0.50856363624E+02  0.00000000000E+00 0. -1.
          2   -1    0    0  501    0 -0.00000000000E+00 -0.00000000000E+00 -0.16720825316E+02  0.16720825316E+02  0.00000000000E+00 0.  1.
          2    1    1    2  501    0  0.12688354931E+02  0.19378771653E+02  0.37594288642E+02  0.44157238140E+02  0.00000000000E+00 0. -1.
          2    1    1    2  502    0 -0.12688354931E+02 -0.19378771653E+02 -0.34587503331E+01  0.23419950801E+02  0.00000000000E+00 0.  1.
</event>
<event>
 4    1  0.6225520E+003  0.2013275E+02  0.7546771E-02  0.1532016E+00
          2   -1    0    0  502    0  0.00000000000E+00  0.00000000000E+00  0.30042422188E+00  0.30042422188E+00  0.00000000000E+00 0. -1.
          2   -1    0    0  501    0 -0.00000000000E+00 -0.00000000000E+00 -0.19177582935E+04  0.19177582935E+04  0.00000000000E+00 0.  1.
          2    1    1    2  501    0 -0.19319906156E+02 -0.56629295344E+01 -0.43653888893E+03  0.43700289369E+03  0.00000000000E+00 0. -1.
          2    1    1    2  502    0  0.19319906156E+02  0.56629295344E+01 -0.14809189804E+04  0.14810558241E+04  0.00000000000E+00 0.  1.
</event>
<event>
 4    1  0.6225520E+003  0.2245474E+02  0.7546771E-02  0.1499461E+00
          2   -1    0    0  502    0  0.00000000000E+00  0.00000000000E+00  0.61115183703E+02  0.61115183703E+02  0.00000000000E+00 0. -1.
          2   -1    0    0  501    0 -0.00000000000E+00 -0.00000000000E+00 -0.38290648717E+03  0.38290648717E+03  0.00000000000E+00 0. -1.
          2    1    1    2  501    0  0.15807271046E+02 -0.15948214971E+02  0.58710395035E+02  0.62857981703E+02  0.00000000000E+00 0. -1.
          2    1    1    2  502    0 -0.15807271046E+02  0.15948214971E+02 -0.38050169850E+03  0.38116368917E+03  0.00000000000E+00 0. -1.
</event>
<event>
 4    1  0.6225520E+003  0.2144501E+02  0.7546771E-02  0.1513005E+00
          2   -1    0    0  502    0  0.00000000000E+00  0.00000000000E+00  0.17027792704E+02  0.17027792704E+02  0.00000000000E+00 0.  1.
          2   -1    0    0  501    0 -0.00000000000E+00 -0.00000000000E+00 -0.16718110497E+03  0.16718110497E+03  0.00000000000E+00 0.  1.
          2    1    1    2  501    0  0.29582721697E+00  0.21442967786E+02  0.92605479545E+01  0.23359069537E+02  0.00000000000E+00 0.  1.
          2    1    1    2  502    0 -0.29582721697E+00 -0.21442967786E+02 -0.15941386022E+03  0.16084982814E+03  0.00000000000E+00 0.  1.
</event>
<event>
 4    1  0.6225520E+003  0.4309611E+02  0.7546771E-02  0.1331239E+00
          2   -1    0    0  502    0  0.00000000000E+00  0.00000000000E+00  0.24920372515E+04  0.24920372515E+04  0.00000000000E+00 0.  1.
          2   -1    0    0  501    0 -0.00000000000E+00 -0.00000000000E+00 -0.14979053027E+03  0.14979053027E+03  0.00000000000E+00 0.  1.
          2    1    1    2  501    0  0.18917013763E+02 -0.38722359857E+02  0.24887470466E+04  0.24891201531E+04  0.00000000000E+00 0.  1.
          2    1    1    2  502    0 -0.18917013763E+02  0.38722359857E+02 -0.14650032530E+03  0.15270762874E+03  0.00000000000E+00 0.  1.
</event>
<event>
 4    1  0.6225520E+003  0.2453655E+02  0.7546771E-02  0.1474055E+00
          2   -1    0    0  502    0  0.00000000000E+00  0.00000000000E+00  0.62146466217E+02  0.62146466217E+02  0.00000000000E+00 0. -1.
          2   -1    0    0  501    0 -0.00000000000E+00 -0.00000000000E+00 -0.55116752112E+02  0.55116752112E+02  0.00000000000E+00 0. -1.
          2    1    1    2  501    0 -0.67648848630E+00 -0.24527221130E+02  0.56745036164E+02  0.61822660427E+02  0.00000000000E+00 0. -1.
          2    1    1    2  502    0  0.67648848630E+00  0.24527221130E+02 -0.49715322059E+02  0.55440557902E+02  0.00000000000E+00 0. -1.
</event>
<event>
 4    1  0.6225520E+003  0.2493608E+02  0.7546771E-02  0.1469520E+00
          2   -1    0    0  502    0  0.00000000000E+00  0.00000000000E+00  0.12359018948E+03  0.12359018948E+03  0.00000000000E+00 0. -1.
          2   -1    0    0  501    0 -0.00000000000E+00 -0.00000000000E+00 -0.14922038817E+04  0.14922038817E+04  0.00000000000E+00 0.  1.
          2    1    1    2  501    0 -0.78994318360E+01  0.23651789610E+02  0.12222706091E+03  0.12474478984E+03  0.00000000000E+00 0. -1.
          2    1    1    2  502    0  0.78994318360E+01 -0.23651789610E+02 -0.14908407531E+04  0.14910492813E+04  0.00000000000E+00 0.  1.
</event>
<event>
 4    1  0.6225520E+003  0.2039361E+02  0.7546771E-02  0.1528101E+00
          2   -1    0    0  501    0  0.00000000000E+00  0.00000000000E+00  0.10818157114E+04  0.10818157114E+04  0.00000000000E+00 0. -1.
          2   -1    0    0  502    0 -0.00000000000E+00 -0.00000000000E+00 -0.88979827945E+00  0.88979827945E+00  0.00000000000E+00 0. -1.
          2    1    1    2  501    0 -0.12070609995E+01  0.20357856387E+02  0.13248955672E+03  0.13404992336E+03  0.00000000000E+00 0. -1.
          2    1    1    2  502    0  0.12070609995E+01 -0.20357856387E+02  0.94843635643E+03  0.94865558635E+03  0.00000000000E+00 0. -1.
</event>
<event>
 4    1  0.6225520E+003  0.2239281E+02  0.7546771E-02  0.1500267E+00
          2   -1    0    0  501    0  0.00000000000E+00  0.00000000000E+00  0.22544605349E+03  0.22544605349E+03  0.00000000000E+00 0.  1.
          2   -1    0    0  502    0 -0.00000000000E+00 -0.00000000000E+00 -0.26582743937E+02  0.26582743937E+02  0.00000000000E+00 0.  1.
          2    1    1    2  501    0 -0.57173620569E+01 -0.21650625380E+02 -0.21195727171E+02  0.30833369237E+02  0.00000000000E+00 0.  1.
          2    1    1    2  502    0  0.57173620569E+01  0.21650625380E+02  0.22005903673E+03  0.22119542819E+03  0.00000000000E+00 0.  1.
</event>
<event>
 4    1  0.6225520E+003  0.3457405E+02  0.7546771E-02  0.1383583E+00
          2   -1    0    0  501    0  0.00000000000E+00  0.00000000000E+00  0.90389342925E+02  0.90389342925E+02  0.00000000000E+00 0. -1.
          2   -1    0    0  502    0 -0.00000000000E+00 -0.00000000000E+00 -0.14631936771E+03  0.14631936771E+03  0.00000000000E+00 0.  1.
          2    1    1    2  501    0 -0.25930245337E+02 -0.22868913248E+02 -0.14084417867E+03  0.14502567869E+03  0.00000000000E+00 0.  1.
          2    1    1    2  502    0  0.25930245337E+02  0.22868913248E+02  0.84914153882E+02  0.91683031941E+02  0.00000000000E+00 0. -1.
</event>
<event>
 4    1  0.6225520E+003  0.2270255E+02  0.7546771E-02  0.1496267E+00
          2   -1    0    0  501    0  0.00000000000E+00  0.00000000000E+00  0.40875439353E+01  0.40875439353E+01  0.00000000000E+00 0.  1.
          2   -1    0    0  502    0 -0.00000000000E+00 -0.00000000000E+00 -0.73124876255E+03  0.73124876255E+03  0.00000000000E+00 0. -1.
          2    1    1    2  501    0  0.45591106392E+01 -0.22240063527E+02 -0.69805082191E+03  0.69841989940E+03  0.00000000000E+00 0. -1.
          2    1    1    2  502    0 -0.45591106392E+01  0.22240063527E+02 -0.29110396712E+02  0.36916407087E+02  0.00000000000E+00 0.  1.
</event>
<event>
 4    1  0.6225520E+003  0.3466187E+02  0.7546771E-02  0.1382956E+00
          2   -1    0    0  501    0  0.00000000000E+00  0.00000000000E+00  0.39902224862E+01  0.39902224862E+01  0.00000000000E+00 0.  1.
          2   -1    0    0  502    0 -0.00000000000E+00 -0.00000000000E+00 -0.11894190504E+04  0.11894190504E+04  0.00000000000E+00 0.  1.
          2    1    1    2  501    0 -0.57266853306E+00 -0.34657137100E+02 -0.11083906549E+04  0.11089324997E+04  0.00000000000E+00 0.  1.
          2    1    1    2  502    0  0.57266853306E+00  0.34657137100E+02 -0.77038173061E+02  0.84476773197E+02  0.00000000000E+00 0.  1.
</event>
<event>
 4    1  0.6225520E+003  0.3157583E+02  0.7546771E-02  0.1406379E+00
          2   -1    0    0  502    0  0.00000000000E+00  0.00000000000E+00  0.35751777329E+02  0.35751777329E+02  0.00000000000E+00 0. -1.
          2   -1    0    0  501    0 -0.00000000000E+00 -0.00000000000E+00 -0.66846820541E+03  0.66846820541E+03  0.00000000000E+00 0.  1.
          2    1    1    2  501    0 -0.12157819109E+02  0.29141386469E+02  0.28328740994E+02  0.42421109569E+02  0.00000000000E+00 0. -1.
          2    1    1    2  502    0  0.12157819109E+02 -0.29141386469E+02 -0.66104516907E+03  0.66179887317E+03  0.00000000000E+00 0.  1.
</event>
<event>
 4    1  0.6225520E+003  0.2264839E+02  0.7546771E-02  0.1496961E+00
          2   -1    0    0  502    0  0.00000000000E+00  0.00000000000E+00  0.47348747549E+02  0.47348747549E+02  0.00000000000E+00 0.  1.
          2   -1    0    0  501    0 -0.00000000000E+00 -0.00000000000E+00 -0.11977696582E+02  0.11977696582E+02  0.00000000000E+00 0.  1.
          2    1    1    2  501    0 -0.19105754341E+02  0.12162225788E+02  0.26853941329E+02  0.35129528177E+02  0.00000000000E+00 0.  1.
          2    1    1    2  502    0  0.19105754341E+02 -0.12162225788E+02  0.85171096377E+01  0.24196915953E+02  0.00000000000E+00 0.  1.
</event>
<event>
 4    1  0.6225520E+003  0.2415191E+02  0.7546771E-02  0.1478519E+00
          2   -1    0    0  502    0  0.00000000000E+00  0.00000000000E+00  0.10735932494E+03  0.10735932494E+03  0.00000000000E+00 0.  1.
          2   -1    0    0  501    0 -0.00000000000E+00 -0.00000000000E+00 -0.13215997398E+02  0.13215997398E+02  0.00000000000E+00 0.  1.
          2    1    1    2  501    0 -0.22101926373E+02 -0.97375461254E+01  0.93335714688E+02  0.96409909191E+02  0.00000000000E+00 0.  1.
          2    1    1    2  502    0  0.22101926373E+02  0.97375461254E+01  0.80761285223E+00  0.24165413144E+02  0.00000000000E+00 0.  1.
</event>
<event>
 4    1  0.6225520E+003  0.2182492E+02  0.7546771E-02  0.1507805E+00
          2   -1    0    0  502    0  0.00000000000E+00  0.00000000000E+00  0.10417939493E+04  0.10417939493E+04  0.00000000000E+00 0. -1.
          2   -1    0    0  501    0 -0.00000000000E+00 -0.00000000000E+00 -0.83270295171E+00  0.83270295171E+00  0.00000000000E+00 0. -1.
          2    1    1    2  501    0 -0.17442949927E+02  0.13117575477E+02  0.87054655917E+03  0.87082009564E+03  0.00000000000E+00 0. -1.
          2    1    1    2  502    0  0.17442949927E+02 -0.13117575477E+02  0.17041468718E+03  0.17180655661E+03  0.00000000000E+00 0. -1.
</event>
<event>
 4    1  0.6225520E+003  0.2059959E+02  0.7546771E-02  0.1525059E+00
          2   -1    0    0  502    0  0.00000000000E+00  0.00000000000E+00  0.19529651155E+02  0.19529651155E+02  0.00000000000E+00 0. -1.
          2   -1    0    0  501    0 -0.00000000000E+00 -0.00000000000E+00 -0.10721687997E+03  0.10721687997E+03  0.00000000000E+00 0.  1.
          2    1    1    2  501    0  0.15702799738E+02  0.13332863494E+02  0.12744984247E+02  0.24223496692E+02  0.00000000000E+00 0. -1.
          2    1    1    2  502    0 -0.15702799738E+02 -0.13332863494E+02 -0.10043221306E+03  0.10252303443E+03  0.00000000000E+00 0.  1.
</event>
<event>
 4    1  0.6225520E+003  0.2982658E+02  0.7546771E-02  0.1421110E+00
          2   -1    0    0  501    0  0.00000000000E+00  0.00000000000E+00  0.52987204170E+03  0.52987204170E+03  0.00000000000E+00 0.  1.
          2   -1    0    0  502    0 -0.00000000000E+00 -0.00000000000E+00 -0.21185437395E+03  0.21185437395E+03  0.00000000000E+00 0. -1.
          2    1    1    2  501    0 -0.59669494751E+00  0.29820606078E+02 -0.21038190852E+03  0.21248569840E+03  0.00000000000E+00 0. -1.
          2    1    1    2  502    0  0.59669494751E+00 -0.29820606078E+02  0.52839957627E+03  0.52924071725E+03  0.00000000000E+00 0.  1.
</event>
<event>
 4    1  0.6225520E+003  0.2552794E+02  0.7546771E-02  0.1462983E+00
          2   -1    0    0  501    0  0.00000000000E+00  0.00000000000E+00  0.76681560135E+03  0.76681560135E+03  0.00000000000E+00 0. -1.
          2   -1    0    0  502    0 -0.00000000000E+00 -0.00000000000E+00 -0.39401449716E+01  0.39401449716E+01  0.00000000000E+00 0.  1.
          2    1    1    2  501    0 -0.91834543318E+01  0.23818894136E+02  0.40141971444E+02  0.47571561071E+02  0.00000000000E+00 0.  1.
          2    1    1    2  502    0  0.91834543318E+01 -0.23818894136E+02  0.72273348494E+03  0.72318418525E+03  0.00000000000E+00 0. -1.
</event>
<event>
 4    1  0.6225520E+003  0.2027320E+02  0.7546771E-02  0.1529900E+00
          2   -1    0    0  502    0  0.00000000000E+00  0.00000000000E+00  0.12181341729E+02  0.12181341729E+02  0.00000000000E+00 0.  1.
          2   -1    0    0  501    0 -0.00000000000E+00 -0.00000000000E+00 -0.64715752671E+02  0.64715752671E+02  0.00000000000E+00 0. -1.
          2    1    1    2  501    0  0.17367388392E+02  0.10458315257E+02  0.33291014081E+00  0.20275930724E+02  0.00000000000E+00 0.  1.
          2    1    1    2  502    0 -0.17367388392E+02 -0.10458315257E+02 -0.52867321083E+02  0.56621163677E+02  0.00000000000E+00 0. -1.
</event>
<event>
 4    1  0.6225520E+003  0.3056945E+02  0.7546771E-02  0.1414711E+00
          2   -1    0    0  501    0  0.00000000000E+00  0.00000000000E+00  0.18011993907E+04  0.18011993907E+04  0.00000000000E+00 0. -1.
          2   -1    0    0  502    0 -0.00000000000E+00 -0.00000000000E+00 -0.12332484249E+01  0.12332484249E+01  0.00000000000E+00 0. -1.
          2    1    1    2  501    0  0.30566253734E+02  0.44193372099E+00  0.21404592412E+03  0.21621782722E+03  0.00000000000E+00 0. -1.
          2    1    1    2  502    0 -0.30566253734E+02 -0.44193372099E+00  0.15859202181E+04  0.15862148119E+04  0.00000000000E+00 0. -1.
</event>
<event>
 4    1  0.6225520E+003  0.2053601E+02  0.7546771E-02  0.1525994E+00
          2   -1    0    0  502    0  0.00000000000E+00  0.00000000000E+00  0.16502553773E+02  0.16502553773E+02  0.00000000000E+00 0.  1.
          2   -1    0    0  501    0 -0.00000000000E+00 -0.00000000000E+00 -0.13512396675E+03  0.13512396675E+03  0.00000000000E+00 0. -1.
          2    1    1    2  501    0  0.10754275598E+02 -0.17494945307E+02  0.89580807377E+01  0.22404793358E+02  0.00000000000E+00 0.  1.
          2    1    1    2  502    0 -0.10754275598E+02  0.17494945307E+02 -0.12757949371E+03  0.12922172716E+03  0.00000000000E+00 0. -1.
</event>
<event>
 4    1  0.1021324E+004  0.2105607E+02  0.7546771E-02  0.1518466E+00
          2   -1    0    0  502    0  0.00000000000E+00  0.00000000000E+00  0.14109911568E+04  0.14109911568E+04  0.00000000000E+00 0.  1.
          2   -1    0    0  501    0 -0.00000000000E+00 -0.00000000000E+00 -0.51758233569E+03  0.51758233569E+03  0.00000000000E+00 0. -1.
          2    1    1    2  501    0 -0.13328152531E+02  0.16300871161E+02  0.14106984095E+04  0.14108555420E+04  0.00000000000E+00 0.  1.
          2    1    1    2  502    0  0.13328152531E+02 -0.16300871161E+02 -0.51728958833E+03  0.51771795047E+03  0.00000000000E+00 0. -1.
</event>
<event>
 4    1  0.6225520E+003  0.6838538E+02  0.7546771E-02  0.1233727E+00
          2   -1    0    0  502    0  0.00000000000E+00  0.00000000000E+00  0.88325312497E+01  0.88325312497E+01  0.00000000000E+00 0. -1.
          2   -1    0    0  501    0 -0.00000000000E+00 -0.00000000000E+00 -0.12245894952E+04  0.12245894952E+04  0.00000000000E+00 0.  1.
          2    1    1    2  501    0 -0.10156057448E+02  0.67627026321E+02 -0.14323892748E+03  0.15872602350E+03  0.00000000000E+00 0. -1.
          2    1    1    2  502    0  0.10156057448E+02 -0.67627026321E+02 -0.10725180365E+04  0.10746960029E+04  0.00000000000E+00 0.  1.
</event>
<event>
 4    1  0.6225520E+003  0.2639031E+02  0.7546771E-02  0.1453831E+00
          2   -1    0    0  501    0  0.00000000000E+00  0.00000000000E+00  0.27287967847E+03  0.27287967847E+03  0.00000000000E+00 0.  1.
          2   -1    0    0  502    0 -0.00000000000E+00 -0.00000000000E+00 -0.66875240673E+02  0.66875240673E+02  0.00000000000E+00 0.  1.
          2    1    1    2  501    0 -0.19495727532E+02 -0.17786652694E+02 -0.63602117581E+02  0.68859841467E+02  0.00000000000E+00 0.  1.
          2    1    1    2  502    0  0.19495727532E+02  0.17786652694E+02  0.26960655538E+03  0.27089507767E+03  0.00000000000E+00 0.  1.
</event>
<event>
 4    1  0.6225520E+003  0.3003316E+02  0.7546771E-02  0.1419309E+00
          2   -1    0    0  501    0  0.00000000000E+00  0.00000000000E+00  0.15128224949E+02  0.15128224949E+02  0.00000000000E+00 0. -1.
          2   -1    0    0  502    0 -0.00000000000E+00 -0.00000000000E+00 -0.17168243308E+04  0.17168243308E+04  0.00000000000E+00 0.  1.
          2    1    1    2  501    0 -0.29087792609E+02  0.74760266473E+01 -0.17016543547E+04  0.17019193675E+04  0.00000000000E+00 0.  1.
          2    1    1    2  502    0  0.29087792609E+02 -0.74760266473E+01 -0.41751166559E-01  0.30033188250E+02  0.00000000000E+00 0. -1.
</event>
<event>
 4    1  0.6225520E+003  0.2100675E+02  0.7546771E-02  0.1519168E+00
          2   -1    0    0  501    0  0.00000000000E+00  0.00000000000E+00  0.38281945170E+03  0.38281945170E+03  0.00000000000E+00 0.  1.
          2   -1    0    0  502    0 -0.00000000000E+00 -0.00000000000E+00 -0.74312174807E+01  0.74312174807E+01  0.00000000000E+00 0.  1.
          2    1    1    2  501    0 -0.12951634293E+02  0.16539005756E+02  0.83399192875E+01  0.22601721084E+02  0.00000000000E+00 0.  1.
          2    1    1    2  502    0  0.12951634293E+02 -0.16539005756E+02  0.36704831493E+03  0.36764894810E+03  0.00000000000E+00 0.  1.
</event>
<event>
 4    1  0.6225520E+003  0.2131908E+02  0.7546771E-02  0.1514758E+00
          2   -1    0    0  501    0  0.00000000000E+00  0.00000000000E+00  0.15387679892E+03  0.15387679892E+03  0.00000000000E+00 0.  1.
          2   -1    0    0  502    0 -0.00000000000E+00 -0.00000000000E+00 -0.27878334815E+03  0.27878334815E+03  0.00000000000E+00 0. -1.
          2    1    1    2  501    0  0.14934335757E+02  0.15214094912E+02 -0.27763429882E+03  0.27845162408E+03  0.00000000000E+00 0. -1.
          2    1    1    2  502    0 -0.14934335757E+02 -0.15214094912E+02  0.15272774959E+03  0.15420852299E+03  0.00000000000E+00 0.  1.
</event>
<event>
 4    1  0.6225520E+003  0.2226639E+02  0.7546771E-02  0.1501921E+00
          2   -1    0    0  501    0  0.00000000000E+00  0.00000000000E+00  0.11741328928E+01  0.11741328928E+01  0.00000000000E+00 0. -1.
          2   -1    0    0  502    0 -0.00000000000E+00 -0.00000000000E+00 -0.11155535931E+04  0.11155535931E+04  0.00000000000E+00 0.  1.
          2    1    1    2  501    0 -0.21927069734E+02  0.38724254605E+01 -0.99736937309E+03  0.99761789200E+03  0.00000000000E+00 0.  1.
          2    1    1    2  502    0  0.21927069734E+02 -0.38724254605E+01 -0.11701008713E+03  0.11910983401E+03  0.00000000000E+00 0. -1.
</event>
<event>
 4    1  0.6225520E+003  0.3575601E+02  0.7546771E-02  0.1375325E+00
          2   -1    0    0  501    0  0.00000000000E+00  0.00000000000E+00  0.50601296719E+03  0.50601296719E+03  0.00000000000E+00 0. -1.
          2   -1    0    0  502    0 -0.00000000000E+00 -0.00000000000E+00 -0.29246760876E+03  0.29246760876E+03  0.00000000000E+00 0.  1.
          2    1    1    2  501    0 -0.22139546075E+02  0.28077259103E+02 -0.29073936912E+03  0.29292980855E+03  0.00000000000E+00 0.  1.
          2    1    1    2  502    0  0.22139546075E+02 -0.28077259103E+02  0.50428472755E+03  0.50555076740E+03  0.00000000000E+00 0. -1.
</event>
<event>
 4    1  0.6225520E+003  0.2297904E+02  0.7546771E-02  0.1492762E+00
          2   -1    0    0  501    0  0.00000000000E+00  0.00000000000E+00  0.31033839356E+03  0.31033839356E+03  0.00000000000E+00 0.  1.
          2   -1    0    0  502    0 -0.00000000000E+00 -0.00000000000E+00 -0.32097757335E+02  0.32097757335E+02  0.00000000000E+00 0. -1.
          2    1    1    2  501    0 -0.16406260768E+02 -0.16089458376E+02 -0.27497879130E+02  0.35835309680E+02  0.00000000000E+00 0. -1.
          2    1    1    2  502    0  0.16406260768E+02  0.16089458376E+02  0.30573851535E+03  0.30660084121E+03  0.00000000000E+00 0.  1.
</event>
<event>
 4    1  0.6225520E+003  0.2871428E+02  0.7546771E-02  0.1431108E+00
          2   -1    0    0  502    0  0.00000000000E+00  0.00000000000E+00  0.68328715932E+03  0.68328715932E+03  0.00000000000E+00 0.  1.
          2   -1    0    0  501    0 -0.00000000000E+00 -0.00000000000E+00 -0.94287787260E+01  0.94287787260E+01  0.00000000000E+00 0.  1.
          2    1    1    2  501    0  0.24567924656E+02 -0.14863618963E+02  0.66036549160E+03  0.66098947994E+03  0.00000000000E+00 0.  1.
          2    1    1    2  502    0 -0.24567924656E+02  0.14863618963E+02  0.13492888988E+02  0.31726458104E+02  0.00000000000E+00 0.  1.
</event>
<event>
 4    1  0.6225520E+003  0.4567910E+02  0.7546771E-02  0.1318078E+00
          2   -1    0    0  502    0  0.00000000000E+00  0.00000000000E+00  0.89993809693E+03  0.89993809693E+03  0.00000000000E+00 0. -1.
          2   -1    0    0  501    0 -0.00000000000E+00 -0.00000000000E+00 -0.15637080571E+02  0.15637080571E+02  0.00000000000E+00 0. -1.
          2    1    1    2  501    0  0.45617083704E+02 -0.23794044529E+01  0.86463796365E+03  0.86584374345E+03  0.00000000000E+00 0. -1.
          2    1    1    2  502    0 -0.45617083704E+02  0.23794044529E+01  0.19663052718E+02  0.49731434057E+02  0.00000000000E+00 0. -1.
</event>
<event>
 4    1  0.6225520E+003  0.4037853E+02  0.7546771E-02  0.1346282E+00
          2   -1    0    0  502    0  0.00000000000E+00  0.00000000000E+00  0.17372965574E+03  0.17372965574E+03  0.00000000000E+00 0.  1.
          2   -1    0    0  501    0 -0.00000000000E+00 -0.00000000000E+00 -0.28905762279E+04  0.28905762279E+04  0.00000000000E+00 0. -1.
          2    1    1    2  501    0  0.21595658241E+02  0.34118229598E+02  0.17124040996E+03  0.17593664783E+03  0.00000000000E+00 0.  1.
          2    1    1    2  502    0 -0.21595658241E+02 -0.34118229598E+02 -0.28880869822E+04  0.28883692358E+04  0.00000000000E+00 0. -1.
</event>
<event>
 4    1  0.6225520E+003  0.2181305E+02  0.7546771E-02  0.1507966E+00
          2   -1    0    0  501    0  0.00000000000E+00  0.00000000000E+00  0.67762712824E+01  0.67762712824E+01  0.00000000000E+00 0.  1.
          2   -1    0    0  502    0 -0.00000000000E+00 -0.00000000000E+00 -0.21975740343E+03  0.21975740343E+03  0.00000000000E+00 0. -1.
          2    1    1    2  501    0  0.79411430395E+01 -0.20316182597E+02 -0.19992573587E+03  0.20111217987E+03  0.00000000000E+00 0. -1.
          2    1    1    2  502    0 -0.79411430395E+01  0.20316182597E+02 -0.13055396275E+02  0.25421494842E+02  0.00000000000E+00 0.  1.
</event>
<event>
 4    1  0.6225520E+003  0.4725637E+02  0.7546771E-02  0.1310527E+00
          2   -1    0    0  502    0  0.00000000000E+00  0.00000000000E+00  0.26302557449E+02  0.26302557449E+02  0.00000000000E+00 0. -1.
          2   -1    0    0  501    0 -0.00000000000E+00 -0.00000000000E+00 -0.13111086601E+03  0.13111086601E+03  0.00000000000E+00 0. -1.
          2    1    1    2  501    0  0.55403611175E+01 -0.46930464805E+02 -0.56790023380E+01  0.47596377968E+02  0.00000000000E+00 0. -1.
          2    1    1    2  502    0 -0.55403611175E+01  0.46930464805E+02 -0.99129306218E+02  0.10981704549E+03  0.00000000000E+00 0. -1.
</event>
<event>
 4    1  0.6225520E+003  0.2296304E+02  0.7546771E-02  0.1492963E+00
          2   -1    0    0  502    0  0.00000000000E+00  0.00000000000E+00  0.49010858862E+03  0.49010858862E+03  0.00000000000E+00 0. -1.
          2   -1    0    0  501    0 -0.00000000000E+00 -0.00000000000E+00 -0.28479439233E+02  0.28479439233E+02  0.00000000000E+00 0. -1.
          2    1    1    2  501    0  0.22226949559E+02  0.57674858644E+01  0.48516367733E+03  0.48570679940E+03  0.00000000000E+00 0. -1.
          2    1    1    2  502    0 -0.22226949559E+02 -0.57674858644E+01 -0.23534527938E+02  0.32881228462E+02  0.00000000000E+00 0. -1.
</event>
<event>
 4    1  0.6225520E+003  0.3353365E+02  0.7546771E-02  0.1391176E+00
          2   -1    0    0  502    0  0.00000000000E+00  0.00000000000E+00  0.58672382061E+03  0.58672382061E+03  0.00000000000E+00 0.  1.
          2   -1    0    0  501    0 -0.00000000000E+00 -0.00000000000E+00 -0.12862052625E+02  0.12862052625E+02  0.00000000000E+00 0.  1.
          2    1    1    2  501    0 -0.54315857955E+01  0.33090839149E+02  0.56348710118E+03  0.56448402896E+03  0.00000000000E+00 0.  1.
          2    1    1    2  502    0  0.54315857955E+01 -0.33090839149E+02  0.10374666805E+02  0.35101844270E+02  0.00000000000E+00 0.  1.
</event>
<event>
 4    1  0.6225520E+003  0.2055817E+02  0.7546771E-02  0.1525667E+00
          2   -1    0    0  502    0  0.00000000000E+00  0.00000000000E+00  0.19527360701E+04  0.19527360701E+04  0.00000000000E+00 0. -1.
          2   -1    0    0  501    0 -0.00000000000E+00 -0.00000000000E+00 -0.21869038844E+00  0.21869038844E+00  0.00000000000E+00 0.  1.
          2    1    1    2  501    0  0.16803528355E+02  0.11843973579E+02  0.10754478676E+04  0.10756443437E+04  0.00000000000E+00 0. -1.
          2    1    1    2  502    0 -0.16803528355E+02 -0.11843973579E+02  0.87706951214E+03  0.87731041679E+03  0.00000000000E+00 0.  1.
</event>
<event>
 4    1  0.6225520E+003  0.2985195E+02  0.7546771E-02  0.1420888E+00
          2   -1    0    0  501    0  0.00000000000E+00  0.00000000000E+00  0.14899943717E+01  0.14899943717E+01  0.00000000000E+00 0.  1.
          2   -1    0    0  502    0 -0.00000000000E+00 -0.00000000000E+00 -0.64105776846E+03  0.64105776846E+03  0.00000000000E+00 0. -1.
          2    1    1    2  501    0  0.18156057772E+02  0.23695911060E+02 -0.40296778534E+03  0.40407199192E+03  0.00000000000E+00 0. -1.
          2    1    1    2  502    0 -0.18156057772E+02 -0.23695911060E+02 -0.23659998875E+03  0.23847577091E+03  0.00000000000E+00 0.  1.
</event>
<event>
 4    1  0.6225520E+003  0.2594358E+02  0.7546771E-02  0.1458519E+00
          2   -1    0    0  501    0  0.00000000000E+00  0.00000000000E+00  0.59314737401E+02  0.59314737401E+02  0.00000000000E+00 0. -1.
          2   -1    0    0  502    0 -0.00000000000E+00 -0.00000000000E+00 -0.75321134790E+02  0.75321134790E+02  0.00000000000E+00 0.  1.
          2    1    1    2  501    0 -0.22468808806E+02  0.12970037957E+02 -0.70043392980E+02  0.74693682155E+02  0.00000000000E+00 0.  1.
          2    1    1    2  502    0  0.22468808806E+02 -0.12970037957E+02  0.54036995591E+02  0.59942190035E+02  0.00000000000E+00 0. -1.
</event>
<event>
 4    1  0.6225520E+003  0.2080735E+02  0.7546771E-02  0.1522033E+00
          2   -1    0    0  502    0  0.00000000000E+00  0.00000000000E+00  0.92099458361E+03  0.92099458361E+03  0.00000000000E+00 0.  1.
          2   -1    0    0  501    0 -0.00000000000E+00 -0.00000000000E+00 -0.18235544882E+02  0.18235544882E+02  0.00000000000E+00 0. -1.
          2    1    1    2  501    0  0.31818370224E+01 -0.20562631878E+02  0.91490207477E+03  0.91513865198E+03  0.00000000000E+00 0.  1.
          2    1    1    2  502    0 -0.31818370224E+01  0.20562631878E+02 -0.12143036041E+02  0.24091476519E+02  0.00000000000E+00 0. -1.
</event>
<event>
 4    1  0.6225520E+003  0.2827250E+02  0.7546771E-02  0.1435228E+00
          2   -1    0    0  502    0  0.00000000000E+00  0.00000000000E+00  0.14756029088E+04  0.14756029088E+04  0.00000000000E+00 0.  1.
          2   -1    0    0  501    0 -0.00000000000E+00 -0.00000000000E+00 -0.23781611107E+02  0.23781611107E+02  0.00000000000E+00 0. -1.
          2    1    1    2  501    0  0.86940699158E+01 -0.26902549026E+02  0.14670154426E+04  0.14672878528E+04  0.00000000000E+00 0.  1.
          2    1    1    2  502    0 -0.86940699158E+01  0.26902549026E+02 -0.15194144986E+02  0.32096667080E+02  0.00000000000E+00 0. -1.
</event>
<event>
 4    1  0.6225520E+003  0.4340187E+02  0.7546771E-02  0.1329627E+00
          2   -1    0    0  501    0  0.00000000000E+00  0.00000000000E+00  0.36592640112E+03  0.36592640112E+03  0.00000000000E+00 0. -1.
          2   -1    0    0  502    0 -0.00000000000E+00 -0.00000000000E+00 -0.17591835437E+03  0.17591835437E+03  0.00000000000E+00 0. -1.
          2    1    1    2  501    0 -0.11943228503E+02 -0.41726271926E+02 -0.17192498497E+03  0.17731870440E+03  0.00000000000E+00 0. -1.
          2    1    1    2  502    0  0.11943228503E+02  0.41726271926E+02  0.36193303171E+03  0.36452605109E+03  0.00000000000E+00 0. -1.
</event>
<event>
 4    1  0.6225520E+003  0.3845410E+02  0.7546771E-02  0.1357791E+00
          2   -1    0    0  501    0  0.00000000000E+00  0.00000000000E+00  0.49663334876E+03  0.49663334876E+03  0.00000000000E+00 0.  1.
          2   -1    0    0  502    0 -0.00000000000E+00 -0.00000000000E+00 -0.93363642771E+01  0.93363642771E+01  0.00000000000E+00 0.  1.
          2    1    1    2  501    0  0.25735143742E+02  0.28573064800E+02  0.34865090753E+02  0.51906571922E+02  0.00000000000E+00 0.  1.
          2    1    1    2  502    0 -0.25735143742E+02 -0.28573064800E+02  0.45243189373E+03  0.45406314112E+03  0.00000000000E+00 0.  1.
</event>
<event>
 4    1  0.6225520E+003  0.3516389E+02  0.7546771E-02  0.1379415E+00
          2   -1    0    0  501    0  0.00000000000E+00  0.00000000000E+00  0.33048269664E+03  0.33048269664E+03  0.00000000000E+00 0. -1.
          2   -1    0    0  502    0 -0.00000000000E+00 -0.00000000000E+00 -0.90210430510E+03  0.90210430510E+03  0.00000000000E+00 0.  1.
          2    1    1    2  501    0  0.18384948110E+02 -0.29974867472E+02 -0.90082493295E+03  0.90151098652E+03  0.00000000000E+00 0.  1.
          2    1    1    2  502    0 -0.18384948110E+02  0.29974867472E+02  0.32920332449E+03  0.33107601522E+03  0.00000000000E+00 0. -1.
</event>
<event>
 4    1  0.6225520E+003  0.2155696E+02  0.7546771E-02  0.1511459E+00
          2   -1    0    0  502    0  0.00000000000E+00  0.00000000000E+00  0.34740882434E+01  0.34740882434E+01  0.00000000000E+00 0. -1.
          2   -1    0    0  501    0 -0.00000000000E+00 -0.00000000000E+00 -0.53542636086E+03  0.53542636086E+03  0.00000000000E+00 0. -1.
          2    1    1    2  501    0  0.19109098250E+02  0.99772128032E+01 -0.32598034108E+02  0.39081123819E+02  0.00000000000E+00 0. -1.
          2    1    1    2  502    0 -0.19109098250E+02 -0.99772128032E+01 -0.49935423851E+03  0.49981932528E+03  0.00000000000E+00 0. -1.
</event>
<event>
 4    1  0.6225520E+003  0.2492329E+02  0.7546771E-02  0.1469663E+00
          2   -1    0    0  501    0  0.00000000000E+00  0.00000000000E+00  0.68534252293E+02  0.68534252293E+02  0.00000000000E+00 0. -1.
          2   -1    0    0  502    0 -0.00000000000E+00 -0.00000000000E+00 -0.16203295144E+02  0.16203295144E+02  0.00000000000E+00 0. -1.
          2    1    1    2  501    0  0.14065657338E+02 -0.20574923273E+02 -0.19588825609E+01  0.25000148098E+02  0.00000000000E+00 0. -1.
          2    1    1    2  502    0 -0.14065657338E+02  0.20574923273E+02  0.54289839710E+02  0.59737399339E+02  0.00000000000E+00 0. -1.
</event>
<event>
 4    1  0.6225520E+003  0.2202611E+02  0.7546771E-02  0.1505103E+00
          2   -1    0    0  502    0  0.00000000000E+00  0.00000000000E+00  0.53543815936E+01  0.53543815936E+01  0.00000000000E+00 0.  1.
          2   -1    0    0  501    0 -0.00000000000E+00 -0.00000000000E+00 -0.87712328626E+03  0.87712328626E+03  0.00000000000E+00 0.  1.
          2    1    1    2  501    0  0.10501471019E+02 -0.19361523105E+02 -0.18056963347E+02  0.28481632604E+02  0.00000000000E+00 0.  1.
          2    1    1    2  502    0 -0.10501471019E+02  0.19361523105E+02 -0.85371194132E+03  0.85399603525E+03  0.00000000000E+00 0.  1.
</event>
<event>
 4    1  0.6225520E+003  0.3088572E+02  0.7546771E-02  0.1412052E+00
          2   -1    0    0  501    0  0.00000000000E+00  0.00000000000E+00  0.11059532464E+03  0.11059532464E+03  0.00000000000E+00 0.  1.
          2   -1    0    0  502    0 -0.00000000000E+00 -0.00000000000E+00 -0.14552380492E+03  0.14552380492E+03  0.00000000000E+00 0.  1.
          2    1    1    2  501    0 -0.22510241905E+02  0.21147494394E+02 -0.14167070893E+03  0.14499833543E+03  0.00000000000E+00 0.  1.
          2    1    1    2  502    0  0.22510241905E+02 -0.21147494394E+02  0.10674222865E+03  0.11112079412E+03  0.00000000000E+00 0.  1.
</event>
<event>
 4    1  0.6225520E+003  0.3022160E+02  0.7546771E-02  0.1417680E+00
          2   -1    0    0  502    0  0.00000000000E+00  0.00000000000E+00  0.26223261905E+02  0.26223261905E+02  0.00000000000E+00 0.  1.
          2   -1    0    0  501    0 -0.00000000000E+00 -0.00000000000E+00 -0.10844328590E+04  0.10844328590E+04  0.00000000000E+00 0. -1.
          2    1    1    2  501    0  0.28631239124E+02 -0.96745691409E+01  0.17232529448E+02  0.34789441114E+02  0.00000000000E+00 0.  1.
          2    1    1    2  502    0 -0.28631239124E+02  0.96745691409E+01 -0.10754421266E+04  0.10758666798E+04  0.00000000000E+00 0. -1.
</event>
<event>
 4    1  0.6225520E+003  0.2037392E+02  0.7546771E-02  0.1528394E+00
          2   -1    0    0  501    0  0.00000000000E+00  0.00000000000E+00  0.16518880324E+01  0.16518880324E+01  0.00000000000E+00 0.  1.
          2   -1    0    0  502    0 -0.00000000000E+00 -0.00000000000E+00 -0.10523395812E+04  0.10523395812E+04  0.00000000000E+00 0. -1.
          2    1    1    2  501    0  0.12527197470E+01  0.20335369610E+02 -0.98513424000E+03  0.98534489768E+03  0.00000000000E+00 0. -1.
          2    1    1    2  502    0 -0.12527197470E+01 -0.20335369610E+02 -0.65553453211E+02  0.68646571595E+02  0.00000000000E+00 0.  1.
</event>
<event>
 4    1  0.6225520E+003  0.5229569E+02  0.7546771E-02  0.1288515E+00
          2   -1    0    0  502    0  0.00000000000E+00  0.00000000000E+00  0.18751085080E+03  0.18751085080E+03  0.00000000000E+00 0.  1.
          2   -1    0    0  501    0 -0.00000000000E+00 -0.00000000000E+00 -0.15307093749E+04  0.15307093749E+04  0.00000000000E+00 0. -1.
          2    1    1    2  501    0  0.46355126156E+02  0.24208297041E+02  0.18340815097E+03  0.19071808831E+03  0.00000000000E+00 0.  1.
          2    1    1    2  502    0 -0.46355126156E+02 -0.24208297041E+02 -0.15266066750E+04  0.15275021374E+04  0.00000000000E+00 0. -1.
</event>
<event>
 4    1  0.6225520E+003  0.2397785E+02  0.7546771E-02  0.1480571E+00
          2   -1    0    0  502    0  0.00000000000E+00  0.00000000000E+00  0.39316830615E+03  0.39316830615E+03  0.00000000000E+00 0.  1.
          2   -1    0    0  501    0 -0.00000000000E+00 -0.00000000000E+00 -0.21999105997E+02  0.21999105997E+02  0.00000000000E+00 0.  1.
          2    1    1    2  501    0 -0.20270095867E+02 -0.12808609177E+02  0.38615045575E+03  0.38689418674E+03  0.00000000000E+00 0.  1.
          2    1    1    2  502    0  0.20270095867E+02  0.12808609177E+02 -0.14981255600E+02  0.28273225406E+02  0.00000000000E+00 0.  1.
</event>
<event>
 4    1  0.6225520E+003  0.3930812E+02  0.7546771E-02  0.1352589E+00
          2   -1    0    0  501    0  0.00000000000E+00  0.00000000000E+00  0.74866087266E+01  0.74866087266E+01  0.00000000000E+00 0. -1.
          2   -1    0    0  502    0 -0.00000000000E+00 -0.00000000000E+00 -0.57435012050E+03  0.57435012050E+03  0.00000000000E+00 0.  1.
          2    1    1    2  501    0 -0.23897346282E+02 -0.31209699766E+02 -0.51628684265E+03  0.51778106611E+03  0.00000000000E+00 0.  1.
          2    1    1    2  502    0  0.23897346282E+02  0.31209699766E+02 -0.50576669121E+02  0.64055663123E+02  0.00000000000E+00 0. -1.
</event>
<event>
 4    1  0.6225520E+003  0.2155667E+02  0.7546771E-02  0.1511463E+00
          2   -1    0    0  501    0  0.00000000000E+00  0.00000000000E+00  0.24385238725E+03  0.24385238725E+03  0.00000000000E+00 0.  1.
          2   -1    0    0  502    0 -0.00000000000E+00 -0.00000000000E+00 -0.10971045688E+03  0.10971045688E+03  0.00000000000E+00 0. -1.
          2    1    1    2  501    0  0.17563200026E+02 -0.12498959964E+02 -0.10816842557E+03  0.11029550438E+03  0.00000000000E+00 0. -1.
          2    1    1    2  502    0 -0.17563200026E+02  0.12498959964E+02  0.24231035594E+03  0.24326733976E+03  0.00000000000E+00 0.  1.
</event>
<event>
 4    1  0.6225520E+003  0.2703089E+02  0.7546771E-02  0.1447298E+00
          2   -1    0    0  501    0  0.00000000000E+00  0.00000000000E+00  0.63440044421E+03  0.63440044421E+03  0.00000000000E+00 0.  1.
          2   -1    0    0  502    0 -0.00000000000E+00 -0.00000000000E+00 -0.55029838800E+01  0.55029838800E+01  0.00000000000E+00 0. -1.
          2    1    1    2  501    0  0.56431254216E+01  0.26435277983E+02  0.29942562348E+02  0.40338887274E+02  0.00000000000E+00 0. -1.
          2    1    1    2  502    0 -0.56431254216E+01 -0.26435277983E+02  0.59895489798E+03  0.59956454081E+03  0.00000000000E+00 0.  1.
</event>
<event>
 4    1  0.6225520E+003  0.2666000E+02  0.7546771E-02  0.1451054E+00
          2   -1    0    0  501    0  0.00000000000E+00  0.00000000000E+00  0.11155398915E+04  0.11155398915E+04  0.00000000000E+00 0. -1.
          2   -1    0    0  502    0 -0.00000000000E+00 -0.00000000000E+00 -0.17080955368E+01  0.17080955368E+01  0.00000000000E+00 0.  1.
          2    1    1    2  501    0  0.13316693194E+02  0.23095916198E+02  0.11458312116E+03  0.11764373046E+03  0.00000000000E+00 0.  1.
          2    1    1    2  502    0 -0.13316693194E+02 -0.23095916198E+02  0.99924867480E+03  0.99960425657E+03  0.00000000000E+00 0. -1.
</event>
<event>
 4    1  0.6225520E+003  0.5702067E+02  0.7546771E-02  0.1270306E+00
          2   -1    0    0  502    0  0.00000000000E+00  0.00000000000E+00  0.24733742494E+02  0.24733742494E+02  0.00000000000E+00 0.  1.
          2   -1    0    0  501    0 -0.00000000000E+00 -0.00000000000E+00 -0.47226037074E+03  0.47226037074E+03  0.00000000000E+00 0. -1.
          2    1    1    2  501    0  0.10626731136E+02  0.56021682038E+02 -0.12665288234E+02  0.58410322710E+02  0.00000000000E+00 0.  1.
          2    1    1    2  502    0 -0.10626731136E+02 -0.56021682038E+02 -0.43486134001E+03  0.43858379052E+03  0.00000000000E+00 0. -1.
</event>
<event>
 4    1  0.6225520E+003  0.3054544E+02  0.7546771E-02  0.1414915E+00
          2   -1    0    0  502    0  0.00000000000E+00  0.00000000000E+00  0.12293081637E+04  0.12293081637E+04  0.00000000000E+00 0.  1.
          2   -1    0    0  501    0 -0.00000000000E+00 -0.00000000000E+00 -0.89564719897E+00  0.89564719897E+00  0.00000000000E+00 0.  1.
          2    1    1    2  501    0 -0.20692475833E+02 -0.22468760798E+02  0.85447997359E+03  0.85502575928E+03  0.00000000000E+00 0.  1.
          2    1    1    2  502    0  0.20692475833E+02  0.22468760798E+02  0.37393254292E+03  0.37517805163E+03  0.00000000000E+00 0.  1.
</event>
<event>
 4    1  0.6225520E+003  0.5313677E+02  0.7546771E-02  0.1285117E+00
          2   -1    0    0  501    0  0.00000000000E+00  0.00000000000E+00  0.10318273635E+04  0.10318273635E+04  0.00000000000E+00 0.  1.
          2   -1    0    0  502    0 -0.00000000000E+00 -0.00000000000E+00 -0.34670198610E+03  0.34670198610E+03  0.00000000000E+00 0. -1.
          2    1    1    2  501    0  0.41370885432E+02 -0.33346163411E+02 -0.34397650913E+03  0.34805654082E+03  0.00000000000E+00 0. -1.
          2    1    1    2  502    0 -0.41370885432E+02  0.33346163411E+02  0.10291018865E+04  0.10304728087E+04  0.00000000000E+00 0.  1.
</event>
<event>
 4    1  0.6225520E+003  0.3186787E+02  0.7546771E-02  0.1404030E+00
          2   -1    0    0  501    0  0.00000000000E+00  0.00000000000E+00  0.23022478706E+04  0.23022478706E+04  0.00000000000E+00 0.  1.
          2   -1    0    0  502    0 -0.00000000000E+00 -0.00000000000E+00 -0.50873558498E+00  0.50873558498E+00  0.00000000000E+00 0.  1.
          2    1    1    2  501    0 -0.24102732957E+02  0.20847520099E+02  0.73110594033E+03  0.73180014814E+03  0.00000000000E+00 0.  1.
          2    1    1    2  502    0  0.24102732957E+02 -0.20847520099E+02  0.15706331947E+04  0.15709564580E+04  0.00000000000E+00 0.  1.
</event>
<event>
 4    1  0.6225520E+003  0.3519626E+02  0.7546771E-02  0.1379189E+00
          2   -1    0    0  501    0  0.00000000000E+00  0.00000000000E+00  0.22559812022E+03  0.22559812022E+03  0.00000000000E+00 0. -1.
          2   -1    0    0  502    0 -0.00000000000E+00 -0.00000000000E+00 -0.19915811600E+04  0.19915811600E+04  0.00000000000E+00 0. -1.
          2    1    1    2  501    0  0.38539483308E+01  0.34984623880E+02 -0.19900518340E+04  0.19903630521E+04  0.00000000000E+00 0. -1.
          2    1    1    2  502    0 -0.38539483308E+01 -0.34984623880E+02  0.22406879422E+03  0.22681622819E+03  0.00000000000E+00 0. -1.
</event>
<event>
 4    1  0.6225520E+003  0.1245501E+03  0.7546771E-02  0.1126988E+00
          2   -1    0    0  502    0  0.00000000000E+00  0.00000000000E+00  0.65544575873E+02  0.65544575873E+02  0.00000000000E+00 0.  1.
          2   -1    0    0  501    0 -0.00000000000E+00 -0.00000000000E+00 -0.31875908989E+03  0.31875908989E+03  0.00000000000E+00 0.  1.
          2    1    1    2  501    0 -0.61229532963E+02  0.10846051542E+03 -0.29098486665E+02  0.12790410876E+03  0.00000000000E+00 0.  1.
          2    1    1    2  502    0  0.61229532963E+02 -0.10846051542E+03 -0.22411602735E+03  0.25639955700E+03  0.00000000000E+00 0.  1.
</event>
<event>
 4    1  0.6225520E+003  0.5563304E+02  0.7546771E-02  0.1275438E+00
          2   -1    0    0  501    0  0.00000000000E+00  0.00000000000E+00  0.22465422549E+04  0.22465422549E+04  0.00000000000E+00 0. -1.
          2   -1    0    0  502    0 -0.00000000000E+00 -0.00000000000E+00 -0.15490596611E+02  0.15490596611E+02  0.00000000000E+00 0.  1.
          2    1    1    2  501    0 -0.28471805849E+02 -0.47795304077E+02  0.35974985843E+02  0.66251297546E+02  0.00000000000E+00 0.  1.
          2    1    1    2  502    0  0.28471805849E+02  0.47795304077E+02  0.21950766725E+04  0.21957815540E+04  0.00000000000E+00 0. -1.
</event>
<event>
 4    1  0.6225520E+003  0.4577593E+02  0.7546771E-02  0.1317604E+00
          2   -1    0    0  502    0  0.00000000000E+00  0.00000000000E+00  0.49339713809E+03  0.49339713809E+03  0.00000000000E+00 0.  1.
          2   -1    0    0  501    0 -0.00000000000E+00 -0.00000000000E+00 -0.29213474655E+02  0.29213474655E+02  0.00000000000E+00 0. -1.
          2    1    1    2  501    0  0.29912691734E+02 -0.34650643073E+02  0.47365772223E+03  0.47586455428E+03  0.00000000000E+00 0.  1.
          2    1    1    2  502    0 -0.29912691734E+02  0.34650643073E+02 -0.94740587938E+01  0.46746058467E+02  0.00000000000E+00 0. -1.
</event>
<event>
 4    1  0.6225520E+003  0.2384200E+02  0.7546771E-02  0.1482187E+00
          2   -1    0    0  502    0  0.00000000000E+00  0.00000000000E+00  0.16767749569E+04  0.16767749569E+04  0.00000000000E+00 0.  1.
          2   -1    0    0  501    0 -0.00000000000E+00 -0.00000000000E+00 -0.11601146386E+01  0.11601146386E+01  0.00000000000E+00 0.  1.
          2    1    1    2  501    0 -0.10259935592E+02  0.21521489424E+02  0.15436281032E+04  0.15438122172E+04  0.00000000000E+00 0.  1.
          2    1    1    2  502    0  0.10259935592E+02 -0.21521489424E+02  0.13198673905E+03  0.13412285439E+03  0.00000000000E+00 0.  1.
</event>
<event>
 4    1  0.6225520E+003  0.4746485E+02  0.7546771E-02  0.1309555E+00
          2   -1    0    0  501    0  0.00000000000E+00  0.00000000000E+00  0.77821644880E+03  0.77821644880E+03  0.00000000000E+00 0. -1.
          2   -1    0    0  502    0 -0.00000000000E+00 -0.00000000000E+00 -0.30965266653E+02  0.30965266653E+02  0.00000000000E+00 0.  1.
          2    1    1    2  501    0  0.37957582865E+02 -0.28497970921E+02 -0.11588497540E+02  0.48859039274E+02  0.00000000000E+00 0.  1.
          2    1    1    2  502    0 -0.37957582865E+02  0.28497970921E+02  0.75883967968E+03  0.76032267618E+03  0.00000000000E+00 0. -1.
</event>
<event>
 4    1  0.6225520E+003  0.3147246E+02  0.7546771E-02  0.1407218E+00
          2   -1    0    0  502    0  0.00000000000E+00  0.00000000000E+00  0.17530008584E+02  0.17530008584E+02  0.00000000000E+00 0.  1.
          2   -1    0    0  501    0 -0.00000000000E+00 -0.00000000000E+00 -0.18112414733E+03  0.18112414733E+03  0.00000000000E+00 0.  1.
          2    1    1    2  501    0 -0.25319503223E+02  0.18693275128E+02  0.59275846744E+00  0.31478042205E+02  0.00000000000E+00 0.  1.
          2    1    1    2  502    0  0.25319503223E+02 -0.18693275128E+02 -0.16418689722E+03  0.16717611371E+03  0.00000000000E+00 0.  1.
</event>
<event>
 4    1  0.1027276E+004  0.2430909E+02  0.7546771E-02  0.1476683E+00
          2   -1    0    0  502    0  0.00000000000E+00  0.00000000000E+00  0.10646904174E+04  0.10646904174E+04  0.00000000000E+00 0. -1.
          2   -1    0    0  501    0 -0.00000000000E+00 -0.00000000000E+00 -0.53749345733E+03  0.53749345733E+03  0.00000000000E+00 0. -1.
          2    1    1    2  501    0 -0.39563050926E+01  0.23984980393E+02  0.10642766986E+04  0.10645542836E+04  0.00000000000E+00 0. -1.
          2    1    1    2  502    0  0.39563050926E+01 -0.23984980393E+02 -0.53707973855E+03  0.53762959108E+03  0.00000000000E+00 0. -1.
</event>
<event>
 4    1  0.6225520E+003  0.2137072E+02  0.7546771E-02  0.1514037E+00
          2   -1    0    0  501    0  0.00000000000E+00  0.00000000000E+00  0.11947809810E+01  0.11947809810E+01  0.00000000000E+00 0. -1.
          2   -1    0    0  502    0 -0.00000000000E+00 -0.00000000000E+00 -0.92073124813E+03  0.92073124813E+03  0.00000000000E+00 0. -1.
          2    1    1    2  501    0 -0.19975620823E+02 -0.75948949339E+01 -0.81228840930E+03  0.81256948486E+03  0.00000000000E+00 0. -1.
          2    1    1    2  502    0  0.19975620823E+02  0.75948949339E+01 -0.10724805786E+03  0.10935654425E+03  0.00000000000E+00 0. -1.
</event>
<event>
 4    1  0.6225520E+003  0.3005025E+02  0.7546771E-02  0.1419160E+00
          2   -1    0    0  501    0  0.00000000000E+00  0.00000000000E+00  0.79934134519E+03  0.79934134519E+03  0.00000000000E+00 0.  1.
          2   -1    0    0  502    0 -0.00000000000E+00 -0.00000000000E+00 -0.27252043033E+01  0.27252043033E+01  0.00000000000E+00 0. -1.
          2    1    1    2  501    0 -0.27985743948E+02  0.10946032018E+02  0.91455617507E+02  0.96266024406E+02  0.00000000000E+00 0. -1.
          2    1    1    2  502    0  0.27985743948E+02 -0.10946032018E+02  0.70516052338E+03  0.70580052509E+03  0.00000000000E+00 0.  1.
</event>
<event>
 4    1  0.6225520E+003  0.2145852E+02  0.7546771E-02  0.1512818E+00
          2   -1    0    0  502    0  0.00000000000E+00  0.00000000000E+00  0.86358255741E+02  0.86358255741E+02  0.00000000000E+00 0.  1.
          2   -1    0    0  501    0 -0.00000000000E+00 -0.00000000000E+00 -0.23381041474E+03  0.23381041474E+03  0.00000000000E+00 0.  1.
          2    1    1    2  501    0 -0.20090168491E+02 -0.75401102722E+01  0.84522359275E+02  0.87203769129E+02  0.00000000000E+00 0.  1.
          2    1    1    2  502    0  0.20090168491E+02  0.75401102722E+01 -0.23197451828E+03  0.23296490136E+03  0.00000000000E+00 0.  1.
</event>
<event>
 4    1  0.6225520E+003  0.2006141E+02  0.7546771E-02  0.1533099E+00
          2   -1    0    0  501    0  0.00000000000E+00  0.00000000000E+00  0.13754972330E+04  0.13754972330E+04  0.00000000000E+00 0.  1.
          2   -1    0    0  502    0 -0.00000000000E+00 -0.00000000000E+00 -0.41679739819E+00  0.41679739819E+00  0.00000000000E+00 0.  1.
          2    1    1    2  501    0  0.60454530508E+01  0.19128839865E+02  0.31198970003E+03  0.31263402397E+03  0.00000000000E+00 0.  1.
          2    1    1    2  502    0 -0.60454530508E+01 -0.19128839865E+02  0.10630907356E+04  0.10632800064E+04  0.00000000000E+00 0.  1.
</event>
<event>
 4    1  0.6225520E+003  0.2117505E+02  0.7546771E-02  0.1516780E+00
          2   -1    0    0  502    0  0.00000000000E+00  0.00000000000E+00  0.13761434669E+03  0.13761434669E+03  0.00000000000E+00 0.  1.
          2   -1    0    0  501    0 -0.00000000000E+00 -0.00000000000E+00 -0.46282060398E+02  0.46282060398E+02  0.00000000000E+00 0. -1.
          2    1    1    2  501    0  0.13636792139E+02  0.16199404549E+02  0.13431870904E+03  0.13597756582E+03  0.00000000000E+00 0.  1.
          2    1    1    2  502    0 -0.13636792139E+02 -0.16199404549E+02 -0.42986422750E+02  0.47918841268E+02  0.00000000000E+00 0. -1.
</event>
<event>
 4    1  0.6225520E+003  0.3070291E+02  0.7546771E-02  0.1413585E+00
          2   -1    0    0  501    0  0.00000000000E+00  0.00000000000E+00  0.26522737792E+03  0.26522737792E+03  0.00000000000E+00 0. -1.
          2   -1    0    0  502    0 -0.00000000000E+00 -0.00000000000E+00 -0.16143034467E+02  0.16143034467E+02  0.00000000000E+00 0. -1.
          2    1    1    2  501    0 -0.74582551800E+01  0.29783269249E+02  0.30579837882E+00  0.30704433070E+02  0.00000000000E+00 0. -1.
          2    1    1    2  502    0  0.74582551800E+01 -0.29783269249E+02  0.24877854508E+03  0.25066597932E+03  0.00000000000E+00 0. -1.
</event>
<event>
 4    1  0.6225520E+003  0.2003785E+02  0.7546771E-02  0.1533458E+00
          2   -1    0    0  501    0  0.00000000000E+00  0.00000000000E+00  0.16222154626E+02  0.16222154626E+02  0.00000000000E+00 0.  1.
          2   -1    0    0  502    0 -0.00000000000E+00 -0.00000000000E+00 -0.11203404526E+03  0.11203404526E+03  0.00000000000E+00 0. -1.
          2    1    1    2  501    0 -0.16229976311E+02  0.11751730635E+02 -0.10450878151E+03  0.10641240866E+03  0.00000000000E+00 0. -1.
          2    1    1    2  502    0  0.16229976311E+02 -0.11751730635E+02  0.86968908810E+01  0.21843791222E+02  0.00000000000E+00 0.  1.
</event>
<event>
 4    1  0.6225520E+003  0.2513653E+02  0.7546771E-02  0.1467282E+00
          2   -1    0    0  502    0  0.00000000000E+00  0.00000000000E+00  0.11602454426E+02  0.11602454426E+02  0.00000000000E+00 0. -1.
          2   -1    0    0  501    0 -0.00000000000E+00 -0.00000000000E+00 -0.94583038730E+03  0.94583038730E+03  0.00000000000E+00 0. -1.
          2    1    1    2  501    0 -0.45694481816E+01 -0.24717715294E+02 -0.23833272259E+01  0.25249268399E+02  0.00000000000E+00 0. -1.
          2    1    1    2  502    0  0.45694481816E+01  0.24717715294E+02 -0.93184460565E+03  0.93218357333E+03  0.00000000000E+00 0. -1.
</event>
<event>
 4    1  0.6225520E+003  0.2722811E+02  0.7546771E-02  0.1445330E+00
          2   -1    0    0  502    0  0.00000000000E+00  0.00000000000E+00  0.51363567970E+01  0.51363567970E+01  0.00000000000E+00 0. -1.
          2   -1    0    0  501    0 -0.00000000000E+00 -0.00000000000E+00 -0.24964053854E+03  0.24964053854E+03  0.00000000000E+00 0. -1.
          2    1    1    2  501    0  0.63557685782E+01  0.26475913956E+02 -0.39516461633E+02  0.47988754454E+02  0.00000000000E+00 0. -1.
          2    1    1    2  502    0 -0.63557685782E+01 -0.26475913956E+02 -0.20498772011E+03  0.20678814089E+03  0.00000000000E+00 0. -1.
</event>
<event>
 4    1  0.6225520E+003  0.2433539E+02  0.7546771E-02  0.1476377E+00
          2   -1    0    0  501    0  0.00000000000E+00  0.00000000000E+00  0.33718102056E+02  0.33718102056E+02  0.00000000000E+00 0.  1.
          2   -1    0    0  502    0 -0.00000000000E+00 -0.00000000000E+00 -0.62485612109E+02  0.62485612109E+02  0.00000000000E+00 0.  1.
          2    1    1    2  501    0  0.14633497420E+02  0.19444075843E+02 -0.55168844456E+02  0.60297700875E+02  0.00000000000E+00 0.  1.
          2    1    1    2  502    0 -0.14633497420E+02 -0.19444075843E+02  0.26401334403E+02  0.35906013290E+02  0.00000000000E+00 0.  1.
</event>
<event>
 4    1  0.6225520E+003  0.2819592E+02  0.7546771E-02  0.1435951E+00
          2   -1    0    0  502    0  0.00000000000E+00  0.00000000000E+00  0.10224832581E+04  0.10224832581E+04  0.00000000000E+00 0.  1.
          2   -1    0    0  501    0 -0.00000000000E+00 -0.00000000000E+00 -0.56182203749E+01  0.56182203749E+01  0.00000000000E+00 0.  1.
          2    1    1    2  501    0 -0.28170572199E+02  0.11953200757E+01  0.98558844291E+03  0.98599167782E+03  0.00000000000E+00 0.  1.
          2    1    1    2  502    0  0.28170572199E+02 -0.11953200757E+01  0.31276594812E+02  0.42109800654E+02  0.00000000000E+00 0.  1.
</event>
<event>
 4    1  0.6225520E+003  0.2713651E+02  0.7546771E-02  0.1446242E+00
          2   -1    0    0  501    0  0.00000000000E+00  0.00000000000E+00  0.12773996145E+04  0.12773996145E+04  0.00000000000E+00 0.  1.
          2   -1    0    0  502    0 -0.00000000000E+00 -0.00000000000E+00 -0.66637817532E+00  0.66637817532E+00  0.00000000000E+00 0.  1.
          2    1    1    2  501    0 -0.22056450120E+02 -0.15808333681E+02  0.40364794025E+03  0.40455908107E+03  0.00000000000E+00 0.  1.
          2    1    1    2  502    0  0.22056450120E+02  0.15808333681E+02  0.87308529606E+03  0.87350691159E+03  0.00000000000E+00 0.  1.
</event>
<event>
 4    1  0.6225520E+003  0.2691724E+02  0.7546771E-02  0.1448441E+00
          2   -1    0    0  501    0  0.00000000000E+00  0.00000000000E+00  0.50315076776E+03  0.50315076776E+03  0.00000000000E+00 0. -1.
          2   -1    0    0  502    0 -0.00000000000E+00 -0.00000000000E+00 -0.28794721287E+01  0.28794721287E+01  0.00000000000E+00 0. -1.
          2    1    1    2  501    0  0.23752631932E+02  0.12662950007E+02  0.71243429529E+02  0.76158808273E+02  0.00000000000E+00 0. -1.
          2    1    1    2  502    0 -0.23752631932E+02 -0.12662950007E+02  0.42902786610E+03  0.42987143161E+03  0.00000000000E+00 0. -1.
</event>
<event>
 4    1  0.6225520E+003  0.2113321E+02  0.7546771E-02  0.1517371E+00
          2   -1    0    0  502    0  0.00000000000E+00  0.00000000000E+00  0.45174828656E+03  0.45174828656E+03  0.00000000000E+00 0. -1.
          2   -1    0    0  501    0 -0.00000000000E+00 -0.00000000000E+00 -0.21415185825E+01  0.21415185825E+01  0.00000000000E+00 0. -1.
          2    1    1    2  501    0 -0.10564477308E+02 -0.18303120350E+02  0.39131823571E+03  0.39188847137E+03  0.00000000000E+00 0. -1.
          2    1    1    2  502    0  0.10564477308E+02  0.18303120350E+02  0.58288532262E+02  0.62001333765E+02  0.00000000000E+00 0. -1.
</event>
<event>
 4    1  0.6225520E+003  0.2907678E+02  0.7546771E-02  0.1427792E+00
          2   -1    0    0  501    0  0.00000000000E+00  0.00000000000E+00  0.56886596925E+00  0.56886596925E+00  0.00000000000E+00 0. -1.
          2   -1    0    0  502    0 -0.00000000000E+00 -0.00000000000E+00 -0.15417049388E+04  0.15417049388E+04  0.00000000000E+00 0. -1.
          2    1    1    2  501    0  0.74365359677E+01  0.28109728149E+02 -0.91686184865E+03  0.91732279400E+03  0.00000000000E+00 0. -1.
          2    1    1    2  502    0 -0.74365359677E+01 -0.28109728149E+02 -0.62427422414E+03  0.62495101073E+03  0.00000000000E+00 0. -1.
</event>
<event>
 4    1  0.6225520E+003  0.2049593E+02  0.7546771E-02  0.1526585E+00
          2   -1    0    0  501    0  0.00000000000E+00  0.00000000000E+00  0.72009811045E+01  0.72009811045E+01  0.00000000000E+00 0.  1.
          2   -1    0    0  502    0 -0.00000000000E+00 -0.00000000000E+00 -0.98823560210E+03  0.98823560210E+03  0.00000000000E+00 0. -1.
          2    1    1    2  501    0 -0.23959145379E+01  0.20355415338E+02 -0.97332164550E+03  0.97353742041E+03  0.00000000000E+00 0. -1.
          2    1    1    2  502    0  0.23959145379E+01 -0.20355415338E+02 -0.77129754938E+01  0.21899162793E+02  0.00000000000E+00 0.  1.
</event>
<event>
 4    1  0.6225520E+003  0.2084136E+02  0.7546771E-02  0.1521542E+00
          2   -1    0    0  502    0  0.00000000000E+00  0.00000000000E+00  0.14146465871E+03  0.14146465871E+03  0.00000000000E+00 0.  1.
          2   -1    0    0  501    0 -0.00000000000E+00 -0.00000000000E+00 -0.56313172912E+03  0.56313172912E+03  0.00000000000E+00 0. -1.
          2    1    1    2  501    0 -0.37747403988E+01 -0.20496678207E+02  0.14050289590E+03  0.14204022753E+03  0.00000000000E+00 0.  1.
          2    1    1    2  502    0  0.37747403988E+01  0.20496678207E+02 -0.56216996630E+03  0.56255616030E+03  0.00000000000E+00 0. -1.
</event>
<event>
 4    1  0.6225520E+003  0.3770787E+02  0.7546771E-02  0.1362468E+00
          2   -1    0    0  502    0  0.00000000000E+00  0.00000000000E+00  0.54929700185E+03  0.54929700185E+03  0.00000000000E+00 0.  1.
          2   -1    0    0  501    0 -0.00000000000E+00 -0.00000000000E+00 -0.77674733834E+02  0.77674733834E+02  0.00000000000E+00 0. -1.
          2    1    1    2  501    0 -0.36879096436E+02 -0.78623024336E+01  0.54402920101E+03  0.54533444335E+03  0.00000000000E+00 0.  1.
          2    1    1    2  502    0  0.36879096436E+02  0.78623024336E+01 -0.72406932995E+02  0.81637292332E+02  0.00000000000E+00 0. -1.
</event>
<event>
 4    1  0.6225520E+003  0.2215491E+02  0.7546771E-02  0.1503392E+00
          2   -1    0    0  502    0  0.00000000000E+00  0.00000000000E+00  0.15864239032E+03  0.15864239032E+03  0.00000000000E+00 0.  1.
          2   -1    0    0  501    0 -0.00000000000E+00 -0.00000000000E+00 -0.38867982706E+02  0.38867982706E+02  0.00000000000E+00 0.  1.
          2    1    1    2  501    0  0.21991244155E+02 -0.26879473473E+01  0.15463029428E+03  0.15620937164E+03  0.00000000000E+00 0.  1.
          2    1    1    2  502    0 -0.21991244155E+02  0.26879473473E+01 -0.34855886662E+02  0.41301001385E+02  0.00000000000E+00 0.  1.
</event>
<event>
 4    1  0.6225520E+003  0.2789940E+02  0.7546771E-02  0.1438777E+00
          2   -1    0    0  501    0  0.00000000000E+00  0.00000000000E+00  0.10642933220E+04  0.10642933220E+04  0.00000000000E+00 0.  1.
          2   -1    0    0  502    0 -0.00000000000E+00 -0.00000000000E+00 -0.10867535903E+02  0.10867535903E+02  0.00000000000E+00 0. -1.
          2    1    1    2  501    0 -0.27447167487E+02  0.50029744429E+01  0.75363363273E+01  0.28899361958E+02  0.00000000000E+00 0. -1.
          2    1    1    2  502    0  0.27447167487E+02 -0.50029744429E+01  0.10458894498E+04  0.10462614960E+04  0.00000000000E+00 0.  1.
</event>
<event>
 4    1  0.6225520E+003  0.2381730E+02  0.7546771E-02  0.1482483E+00
          2   -1    0    0  502    0  0.00000000000E+00  0.00000000000E+00  0.12790393204E+04  0.12790393204E+04  0.00000000000E+00 0. -1.
          2   -1    0    0  501    0 -0.00000000000E+00 -0.00000000000E+00 -0.29039345510E+01  0.29039345510E+01  0.00000000000E+00 0. -1.
          2    1    1    2  501    0 -0.51722666467E+01  0.23248904990E+02  0.12280657934E+04  0.12282967299E+04  0.00000000000E+00 0. -1.
          2    1    1    2  502    0  0.51722666467E+01 -0.23248904990E+02  0.48069592513E+02  0.53646525050E+02  0.00000000000E+00 0. -1.
</event>
<event>
 4    1  0.6225520E+003  0.6125909E+02  0.7546771E-02  0.1255614E+00
          2   -1    0    0  501    0  0.00000000000E+00  0.00000000000E+00  0.11201130319E+04  0.11201130319E+04  0.00000000000E+00 0. -1.
          2   -1    0    0  502    0 -0.00000000000E+00 -0.00000000000E+00 -0.26844027200E+02  0.26844027200E+02  0.00000000000E+00 0. -1.
          2    1    1    2  501    0 -0.32509409115E+02 -0.51921228187E+02  0.10134644647E+02  0.62091759837E+02  0.00000000000E+00 0. -1.
          2    1    1    2  502    0  0.32509409115E+02  0.51921228187E+02  0.10831343600E+04  0.10848652992E+04  0.00000000000E+00 0. -1.
</event>
<event>
 4    1  0.6225520E+003  0.2093089E+02  0.7546771E-02  0.1520254E+00
          2   -1    0    0  502    0  0.00000000000E+00  0.00000000000E+00  0.61404151554E+00  0.61404151554E+00  0.00000000000E+00 0.  1.
          2   -1    0    0  501    0 -0.00000000000E+00 -0.00000000000E+00 -0.13894499563E+04  0.13894499563E+04  0.00000000000E+00 0. -1.
          2    1    1    2  501    0 -0.64072352274E+01  0.19926097928E+02 -0.20963282655E+03  0.21067516230E+03  0.00000000000E+00 0.  1.
          2    1    1    2  502    0  0.64072352274E+01 -0.19926097928E+02 -0.11792030882E+04  0.11793888355E+04  0.00000000000E+00 0. -1.
</event>
<event>
 4    1  0.6225520E+003  0.2073815E+02  0.7546771E-02  0.1523036E+00
          2   -1    0    0  501    0  0.00000000000E+00  0.00000000000E+00  0.15572403150E+03  0.15572403150E+03  0.00000000000E+00 0.  1.
          2   -1    0    0  502    0 -0.00000000000E+00 -0.00000000000E+00 -0.21222928707E+02  0.21222928707E+02  0.00000000000E+00 0. -1.
          2    1    1    2  501    0  0.75417433278E+01  0.19318201952E+02 -0.15265828768E+02  0.25751045553E+02  0.00000000000E+00 0. -1.
          2    1    1    2  502    0 -0.75417433278E+01 -0.19318201952E+02  0.14976693156E+03  0.15119591465E+03  0.00000000000E+00 0.  1.
</event>
<event>
 4    1  0.6225520E+003  0.2784997E+02  0.7546771E-02  0.1439252E+00
          2   -1    0    0  501    0  0.00000000000E+00  0.00000000000E+00  0.12407564344E+03  0.12407564344E+03  0.00000000000E+00 0.  1.
          2   -1    0    0  502    0 -0.00000000000E+00 -0.00000000000E+00 -0.24245884331E+02  0.24245884331E+02  0.00000000000E+00 0.  1.
          2    1    1    2  501    0 -0.48753495917E+01 -0.27419914168E+02 -0.13974311217E+02  0.31159301992E+02  0.00000000000E+00 0.  1.
          2    1    1    2  502    0  0.48753495917E+01  0.27419914168E+02  0.11380407033E+03  0.11716222578E+03  0.00000000000E+00 0.  1.
</event>
<event>
 4    1  0.6225520E+003  0.2723716E+02  0.7546771E-02  0.1445240E+00
          2   -1    0    0  501    0  0.00000000000E+00  0.00000000000E+00  0.27088814763E+02  0.27088814763E+02  0.00000000000E+00 0. -1.
          2   -1    0    0  502    0 -0.00000000000E+00 -0.00000000000E+00 -0.31726169549E+03  0.31726169549E+03  0.00000000000E+00 0. -1.
          2    1    1    2  501    0  0.26795811504E+02 -0.48833842660E+01 -0.30966284738E+03  0.31085839542E+03  0.00000000000E+00 0. -1.
          2    1    1    2  502    0 -0.26795811504E+02  0.48833842660E+01  0.19489966651E+02  0.33492114834E+02  0.00000000000E+00 0. -1.
</event>
<event>
 4    1  0.6225520E+003  0.2071355E+02  0.7546771E-02  0.1523394E+00
          2   -1    0    0  501    0  0.00000000000E+00  0.00000000000E+00  0.68115304730E+01  0.68115304730E+01  0.00000000000E+00 0.  1.
          2   -1    0    0  502    0 -0.00000000000E+00 -0.00000000000E+00 -0.22965501624E+03  0.22965501624E+03  0.00000000000E+00 0. -1.
          2    1    1    2  501    0 -0.18922147410E+02  0.84263496386E+01 -0.21214397954E+03  0.21315280689E+03  0.00000000000E+00 0. -1.
          2    1    1    2  502    0  0.18922147410E+02 -0.84263496386E+01 -0.10699506223E+02  0.23313739817E+02  0.00000000000E+00 0.  1.
</event>
<event>
 4    1  0.6225520E+003  0.2804674E+02  0.7546771E-02  0.1437368E+00
          2   -1    0    0  501    0  0.00000000000E+00  0.00000000000E+00  0.46474442657E+03  0.46474442657E+03  0.00000000000E+00 0. -1.
          2   -1    0    0  502    0 -0.00000000000E+00 -0.00000000000E+00 -0.76700844965E+01  0.76700844965E+01  0.00000000000E+00 0. -1.
          2    1    1    2  501    0 -0.14560869609E+02  0.23970828758E+02  0.43705967195E+03  0.43795864690E+03  0.00000000000E+00 0. -1.
          2    1    1    2  502    0  0.14560869609E+02 -0.23970828758E+02  0.20014670132E+02  0.34455864169E+02  0.00000000000E+00 0. -1.
</event>
<event>
 4    1  0.6225520E+003  0.2729822E+02  0.7546771E-02  0.1444635E+00
          2   -1    0    0  501    0  0.00000000000E+00  0.00000000000E+00  0.11661820285E+04  0.11661820285E+04  0.00000000000E+00 0.  1.
          2   -1    0    0  502    0 -0.00000000000E+00 -0.00000000000E+00 -0.11822208155E+02  0.11822208155E+02  0.00000000000E+00 0. -1.
          2    1    1    2  501    0  0.25133791447E+02 -0.10652957927E+02  0.43169857731E+01  0.27637462823E+02  0.00000000000E+00 0. -1.
          2    1    1    2  502    0 -0.25133791447E+02  0.10652957927E+02  0.11500428346E+04  0.11503667738E+04  0.00000000000E+00 0.  1.
</event>
<event>
 4    1  0.6225520E+003  0.2073101E+02  0.7546771E-02  0.1523140E+00
          2   -1    0    0  502    0  0.00000000000E+00  0.00000000000E+00  0.62061303586E+03  0.62061303586E+03  0.00000000000E+00 0.  1.
          2   -1    0    0  501    0 -0.00000000000E+00 -0.00000000000E+00 -0.25261669312E+02  0.25261669312E+02  0.00000000000E+00 0. -1.
          2    1    1    2  501    0  0.79675764555E+01 -0.19138772248E+02  0.61615592146E+03  0.61650457779E+03  0.00000000000E+00 0.  1.
          2    1    1    2  502    0 -0.79675764555E+01  0.19138772248E+02 -0.20804554912E+02  0.29370127389E+02  0.00000000000E+00 0. -1.
</event>
<event>
 4    1  0.6225520E+003  0.3054282E+02  0.7546771E-02  0.1414937E+00
          2   -1    0    0  501    0  0.00000000000E+00  0.00000000000E+00  0.11119611157E+03  0.11119611157E+03  0.00000000000E+00 0.  1.
          2   -1    0    0  502    0 -0.00000000000E+00 -0.00000000000E+00 -0.12632954113E+03  0.12632954113E+03  0.00000000000E+00 0. -1.
          2    1    1    2  501    0  0.30542250656E+02  0.18580263073E+00 -0.12231837313E+03  0.12607397830E+03  0.00000000000E+00 0. -1.
          2    1    1    2  502    0 -0.30542250656E+02 -0.18580263073E+00  0.10718494357E+03  0.11145167440E+03  0.00000000000E+00 0.  1.
</event>
<event>
 4    1  0.6225520E+003  0.3612334E+02  0.7546771E-02  0.1372833E+00
          2   -1    0    0  502    0  0.00000000000E+00  0.00000000000E+00  0.47165189360E+02  0.47165189360E+02  0.00000000000E+00 0.  1.
          2   -1    0    0  501    0 -0.00000000000E+00 -0.00000000000E+00 -0.92255994058E+02  0.92255994058E+02  0.00000000000E+00 0.  1.
          2    1    1    2  501    0  0.35848214452E+02 -0.44498472273E+01  0.35783314219E+02  0.50846250562E+02  0.00000000000E+00 0.  1.
          2    1    1    2  502    0 -0.35848214452E+02  0.44498472273E+01 -0.80874118918E+02  0.88574932856E+02  0.00000000000E+00 0.  1.
</event>
<event>
 4    1  0.6225520E+003  0.2409481E+02  0.7546771E-02  0.1479190E+00
          2   -1    0    0  502    0  0.00000000000E+00  0.00000000000E+00  0.44640660503E+01  0.44640660503E+01  0.00000000000E+00 0. -1.
          2   -1    0    0  501    0 -0.00000000000E+00 -0.00000000000E+00 -0.73152181315E+03  0.73152181315E+03  0.00000000000E+00 0.  1.
          2    1    1    2  501    0  0.19235335226E+01  0.24017907980E+02 -0.29846834236E+02  0.38358746055E+02  0.00000000000E+00 0. -1.
          2    1    1    2  502    0 -0.19235335226E+01 -0.24017907980E+02 -0.69721091286E+03  0.69762713315E+03  0.00000000000E+00 0.  1.
</event>
<event>
 4    1  0.6225520E+003  0.2110290E+02  0.7546771E-02  0.1517801E+00
          2   -1    0    0  502    0  0.00000000000E+00  0.00000000000E+00  0.17777991861E+03  0.17777991861E+03  0.00000000000E+00 0.  1.
          2   -1    0    0  501    0 -0.00000000000E+00 -0.00000000000E+00 -0.56896740998E+01  0.56896740998E+01  0.00000000000E+00 0. -1.
          2    1    1    2  501    0  0.65029372608E+01 -0.20075958225E+02  0.15467691762E+03  0.15610983677E+03  0.00000000000E+00 0.  1.
          2    1    1    2  502    0 -0.65029372608E+01  0.20075958225E+02  0.17413326887E+02  0.27359755937E+02  0.00000000000E+00 0. -1.
</event>
<event>
 4    1  0.6225520E+003  0.2125324E+02  0.7546771E-02  0.1515680E+00
          2   -1    0    0  502    0  0.00000000000E+00  0.00000000000E+00  0.24893407544E+02  0.24893407544E+02  0.00000000000E+00 0.  1.
          2   -1    0    0  501    0 -0.00000000000E+00 -0.00000000000E+00 -0.29387831299E+02  0.29387831299E+02  0.00000000000E+00 0.  1.
          2    1    1    2  501    0  0.20699300526E+02 -0.48207060790E+01  0.14539535833E+02  0.25750696139E+02  0.00000000000E+00 0.  1.
          2    1    1    2  502    0 -0.20699300526E+02  0.48207060790E+01 -0.19033959588E+02  0.28530542704E+02  0.00000000000E+00 0.  1.
</event>
<event>
 4    1  0.6225520E+003  0.2575304E+02  0.7546771E-02  0.1460553E+00
          2   -1    0    0  502    0  0.00000000000E+00  0.00000000000E+00  0.37130977513E+02  0.37130977513E+02  0.00000000000E+00 0.  1.
          2   -1    0    0  501    0 -0.00000000000E+00 -0.00000000000E+00 -0.34551908594E+03  0.34551908594E+03  0.00000000000E+00 0. -1.
          2    1    1    2  501    0 -0.81988552979E+01  0.24413071660E+02  0.32120082730E+02  0.41169394101E+02  0.00000000000E+00 0.  1.
          2    1    1    2  502    0  0.81988552979E+01 -0.24413071660E+02 -0.34050819115E+03  0.34148066935E+03  0.00000000000E+00 0. -1.
</event>
<event>
 4    1  0.6225520E+003  0.2636861E+02  0.7546771E-02  0.1454056E+00
          2   -1    0    0  501    0  0.00000000000E+00  0.00000000000E+00  0.18633623934E+03  0.18633623934E+03  0.00000000000E+00 0.  1.
          2   -1    0    0  502    0 -0.00000000000E+00 -0.00000000000E+00 -0.12980673893E+04  0.12980673893E+04  0.00000000000E+00 0.  1.
          2    1    1    2  501    0  0.12028976515E+01  0.26341153612E+02 -0.12969998492E+04  0.12972678645E+04  0.00000000000E+00 0.  1.
          2    1    1    2  502    0 -0.12028976515E+01 -0.26341153612E+02  0.18526869922E+03  0.18713576421E+03  0.00000000000E+00 0.  1.
</event>
<event>
 4    1  0.6225520E+003  0.3336864E+02  0.7546771E-02  0.1392410E+00
          2   -1    0    0  501    0  0.00000000000E+00  0.00000000000E+00  0.20963471198E+02  0.20963471198E+02  0.00000000000E+00 0. -1.
          2   -1    0    0  502    0 -0.00000000000E+00 -0.00000000000E+00 -0.77609487957E+03  0.77609487957E+03  0.00000000000E+00 0. -1.
          2    1    1    2  501    0 -0.13264626459E+02 -0.30618885090E+02 -0.76221588106E+03  0.76294594551E+03  0.00000000000E+00 0. -1.
          2    1    1    2  502    0  0.13264626459E+02  0.30618885090E+02  0.70844726825E+01  0.34112405258E+02  0.00000000000E+00 0. -1.
</event>
<event>
 4    1  0.6225520E+003  0.5239962E+02  0.7546771E-02  0.1288091E+00
          2   -1    0    0  502    0  0.00000000000E+00  0.00000000000E+00  0.13093995458E+02  0.13093995458E+02  0.00000000000E+00 0.  1.
          2   -1    0    0  501    0 -0.00000000000E+00 -0.00000000000E+00 -0.87563334606E+03  0.87563334606E+03  0.00000000000E+00 0.  1.
          2    1    1    2  501    0  0.33730539188E+02 -0.40099518589E+02 -0.43748867623E+02  0.68261878697E+02  0.00000000000E+00 0.  1.
          2    1    1    2  502    0 -0.33730539188E+02  0.40099518589E+02 -0.81879048298E+03  0.82046546282E+03  0.00000000000E+00 0.  1.
</event>
<event>
 4    1  0.6225520E+003  0.2375885E+02  0.7546771E-02  0.1483183E+00
          2   -1    0    0  501    0  0.00000000000E+00  0.00000000000E+00  0.28414657122E+01  0.28414657122E+01  0.00000000000E+00 0.  1.
          2   -1    0    0  502    0 -0.00000000000E+00 -0.00000000000E+00 -0.10437196422E+04  0.10437196422E+04  0.00000000000E+00 0. -1.
          2    1    1    2  501    0  0.13679327534E+02  0.19425732077E+02 -0.99129342549E+03  0.99157810508E+03  0.00000000000E+00 0. -1.
          2    1    1    2  502    0 -0.13679327534E+02 -0.19425732077E+02 -0.49584751030E+02  0.54983002857E+02  0.00000000000E+00 0.  1.
</event>
<event>
 4    1  0.6225520E+003  0.2008029E+02  0.7546771E-02  0.1532812E+00
          2   -1    0    0  501    0  0.00000000000E+00  0.00000000000E+00  0.23284150577E+02  0.23284150577E+02  0.00000000000E+00 0.  1.
          2   -1    0    0  502    0 -0.00000000000E+00 -0.00000000000E+00 -0.14190852516E+03  0.14190852516E+03  0.00000000000E+00 0.  1.
          2    1    1    2  501    0 -0.87945620139E+01  0.18051974343E+02 -0.13670494396E+03  0.13817184880E+03  0.00000000000E+00 0.  1.
          2    1    1    2  502    0  0.87945620139E+01 -0.18051974343E+02  0.18080569382E+02  0.27020826928E+02  0.00000000000E+00 0.  1.
</event>
<event>
 4    1  0.6225520E+003  0.3200071E+02  0.7546771E-02  0.1402971E+00
          2   -1    0    0  502    0  0.00000000000E+00  0.00000000000E+00  0.12014178132E+04  0.12014178132E+04  0.00000000000E+00 0. -1.
          2   -1    0    0  501    0 -0.00000000000E+00 -0.00000000000E+00 -0.93256070230E+01  0.93256070230E+01  0.00000000000E+00 0. -1.
          2    1    1    2  501    0  0.49570801516E+01 -0.31614444676E+02  0.11730893835E+04  0.11735257762E+04  0.00000000000E+00 0. -1.
          2    1    1    2  502    0 -0.49570801516E+01  0.31614444676E+02  0.19002822673E+02  0.37217644006E+02  0.00000000000E+00 0. -1.
</event>
<event>
 4    1  0.6225520E+003  0.2379434E+02  0.7546771E-02  0.1482757E+00
          2   -1    0    0  501    0  0.00000000000E+00  0.00000000000E+00  0.37867621734E+03  0.37867621734E+03  0.00000000000E+00 0.  1.
          2   -1    0    0  502    0 -0.00000000000E+00 -0.00000000000E+00 -0.93523127647E+02  0.93523127647E+02  0.00000000000E+00 0.  1.
          2    1    1    2  501    0  0.23627069645E+02 -0.28164276019E+01 -0.91628290222E+02  0.94667387486E+02  0.00000000000E+00 0.  1.
          2    1    1    2  502    0 -0.23627069645E+02  0.28164276019E+01  0.37678137992E+03  0.37753195751E+03  0.00000000000E+00 0.  1.
</event>
<event>
 4    1  0.6225520E+003  0.2958301E+02  0.7546771E-02  0.1423255E+00
          2   -1    0    0  502    0  0.00000000000E+00  0.00000000000E+00  0.17295737023E+04  0.17295737023E+04  0.00000000000E+00 0. -1.
          2   -1    0    0  501    0 -0.00000000000E+00 -0.00000000000E+00 -0.57320682809E+00  0.57320682809E+00  0.00000000000E+00 0.  1.
          2    1    1    2  501    0  0.16056800501E+02  0.24846200411E+02  0.11607256307E+04  0.11611025554E+04  0.00000000000E+00 0. -1.
          2    1    1    2  502    0 -0.16056800501E+02 -0.24846200411E+02  0.56827486477E+03  0.56904435367E+03  0.00000000000E+00 0.  1.
</event>
<event>
 4    1  0.6225520E+003  0.2317787E+02  0.7546771E-02  0.1490277E+00
          2   -1    0    0  501    0  0.00000000000E+00  0.00000000000E+00  0.88310293716E+03  0.88310293716E+03  0.00000000000E+00 0. -1.
          2   -1    0    0  502    0 -0.00000000000E+00 -0.00000000000E+00 -0.33217848950E+03  0.33217848950E+03  0.00000000000E+00 0.  1.
          2    1    1    2  501    0 -0.14403931064E+02  0.18158754001E+02 -0.33162184235E+03  0.33243083476E+03  0.00000000000E+00 0.  1.
          2    1    1    2  502    0  0.14403931064E+02 -0.18158754001E+02  0.88254629002E+03  0.88285059189E+03  0.00000000000E+00 0. -1.
</event>
<event>
 4    1  0.6225520E+003  0.3778268E+02  0.7546771E-02  0.1361993E+00
          2   -1    0    0  502    0  0.00000000000E+00  0.00000000000E+00  0.10260646394E+03  0.10260646394E+03  0.00000000000E+00 0. -1.
          2   -1    0    0  501    0 -0.00000000000E+00 -0.00000000000E+00 -0.10993121928E+03  0.10993121928E+03  0.00000000000E+00 0.  1.
          2    1    1    2  501    0 -0.29699082636E+02 -0.23355835436E+02  0.95654481998E+02  0.10284605235E+03  0.00000000000E+00 0. -1.
          2    1    1    2  502    0  0.29699082636E+02  0.23355835436E+02 -0.10297923734E+03  0.10969163087E+03  0.00000000000E+00 0.  1.
</event>
<event>
 4    1  0.6225520E+003  0.2174429E+02  0.7546771E-02  0.1508898E+00
          2   -1    0    0  502    0  0.00000000000E+00  0.00000000000E+00  0.39295484915E+02  0.39295484915E+02  0.00000000000E+00 0.  1.
          2   -1    0    0  501    0 -0.00000000000E+00 -0.00000000000E+00 -0.11978764345E+04  0.11978764345E+04  0.00000000000E+00 0. -1.
          2    1    1    2  501    0  0.38940925092E+01 -0.21392757551E+02  0.36180897938E+02  0.42212218701E+02  0.00000000000E+00 0.  1.
          2    1    1    2  502    0 -0.38940925092E+01  0.21392757551E+02 -0.11947618476E+04  0.11949597008E+04  0.00000000000E+00 0. -1.
</event>
<event>
 4    1  0.6225520E+003  0.2170861E+02  0.7546771E-02  0.1509384E+00
          2   -1    0    0  502    0  0.00000000000E+00  0.00000000000E+00  0.86849394453E+03  0.86849394453E+03  0.00000000000E+00 0.  1.
          2   -1    0    0  501    0 -0.00000000000E+00 -0.00000000000E+00 -0.32898281525E+01  0.32898281525E+01  0.00000000000E+00 0.  1.
          2    1    1    2  501    0 -0.17684290942E+02  0.12590852263E+02  0.83092729548E+03  0.83121082409E+03  0.00000000000E+00 0.  1.
          2    1    1    2  502    0  0.17684290942E+02 -0.12590852263E+02  0.34276820896E+02  0.40572948594E+02  0.00000000000E+00 0.  1.
</event>
<event>
 4    1  0.6225520E+003  0.2717382E+02  0.7546771E-02  0.1445870E+00
          2   -1    0    0  502    0  0.00000000000E+00  0.00000000000E+00  0.16998261380E+03  0.16998261380E+03  0.00000000000E+00 0. -1.
          2   -1    0    0  501    0 -0.00000000000E+00 -0.00000000000E+00 -0.35672452456E+03  0.35672452456E+03  0.00000000000E+00 0.  1.
          2    1    1    2  501    0 -0.91662584417E+01  0.25581173307E+02  0.16837418620E+03  0.17055287538E+03  0.00000000000E+00 0. -1.
          2    1    1    2  502    0  0.91662584417E+01 -0.25581173307E+02 -0.35511609696E+03  0.35615426299E+03  0.00000000000E+00 0.  1.
</event>
<event>
 4    1  0.6225520E+003  0.2400827E+02  0.7546771E-02  0.1480211E+00
          2   -1    0    0  501    0  0.00000000000E+00  0.00000000000E+00  0.14043754103E+03  0.14043754103E+03  0.00000000000E+00 0. -1.
          2   -1    0    0  502    0 -0.00000000000E+00 -0.00000000000E+00 -0.17112823302E+04  0.17112823302E+04  0.00000000000E+00 0. -1.
          2    1    1    2  501    0  0.22169756966E+02  0.92140581062E+01 -0.17101713847E+04  0.17103398966E+04  0.00000000000E+00 0. -1.
          2    1    1    2  502    0 -0.22169756966E+02 -0.92140581062E+01  0.13932659553E+03  0.14137997458E+03  0.00000000000E+00 0. -1.
</event>
<event>
 4    1  0.6225520E+003  0.2397444E+02  0.7546771E-02  0.1480612E+00
          2   -1    0    0  501    0  0.00000000000E+00  0.00000000000E+00  0.14704439266E+04  0.14704439266E+04  0.00000000000E+00 0. -1.
          2   -1    0    0  502    0 -0.00000000000E+00 -0.00000000000E+00 -0.29060496799E+02  0.29060496799E+02  0.00000000000E+00 0.  1.
          2    1    1    2  501    0 -0.23373319074E+02  0.53349665501E+01 -0.24001072278E+02  0.33923817343E+02  0.00000000000E+00 0.  1.
          2    1    1    2  502    0  0.23373319074E+02 -0.53349665501E+01  0.14653845021E+04  0.14655806060E+04  0.00000000000E+00 0. -1.
</event>
<event>
 4    1  0.6225520E+003  0.2075077E+02  0.7546771E-02  0.1522853E+00
          2   -1    0    0  502    0  0.00000000000E+00  0.00000000000E+00  0.44258914803E+01  0.44258914803E+01  0.00000000000E+00 0. -1.
          2   -1    0    0  501    0 -0.00000000000E+00 -0.00000000000E+00 -0.29623635855E+03  0.29623635855E+03  0.00000000000E+00 0.  1.
          2    1    1    2  501    0  0.14879652260E+02  0.14463422718E+02 -0.22708893216E+02  0.30761802275E+02  0.00000000000E+00 0. -1.
          2    1    1    2  502    0 -0.14879652260E+02 -0.14463422718E+02 -0.26910157386E+03  0.26990044776E+03  0.00000000000E+00 0.  1.
</event>
<event>
 4    1  0.6225520E+003  0.4539907E+02  0.7546771E-02  0.1319456E+00
          2   -1    0    0  501    0  0.00000000000E+00  0.00000000000E+00  0.11417546632E+03  0.11417546632E+03  0.00000000000E+00 0. -1.
          2   -1    0    0  502    0 -0.00000000000E+00 -0.00000000000E+00 -0.23629161091E+02  0.23629161091E+02  0.00000000000E+00 0.  1.
          2    1    1    2  501    0  0.30261888741E+02  0.33842193116E+02  0.11797972464E+02  0.46907015460E+02  0.00000000000E+00 0.  1.
          2    1    1    2  502    0 -0.30261888741E+02 -0.33842193116E+02  0.78748332768E+02  0.90897611954E+02  0.00000000000E+00 0. -1.
</event>
<event>
 4    1  0.6225520E+003  0.2399885E+02  0.7546771E-02  0.1480323E+00
          2   -1    0    0  501    0  0.00000000000E+00  0.00000000000E+00  0.22474863565E+02  0.22474863565E+02  0.00000000000E+00 0. -1.
          2   -1    0    0  502    0 -0.00000000000E+00 -0.00000000000E+00 -0.13986242659E+03  0.13986242659E+03  0.00000000000E+00 0. -1.
          2    1    1    2  501    0 -0.16459516952E+01  0.23942337542E+02 -0.13205047506E+03  0.13421353377E+03  0.00000000000E+00 0. -1.
          2    1    1    2  502    0  0.16459516952E+01 -0.23942337542E+02  0.14662912032E+02  0.28123756385E+02  0.00000000000E+00 0. -1.
</event>
<event>
 4    1  0.6225520E+003  0.2096983E+02  0.7546771E-02  0.1519696E+00
          2   -1    0    0  501    0  0.00000000000E+00  0.00000000000E+00  0.17514735623E+02  0.17514735623E+02  0.00000000000E+00 0. -1.
          2   -1    0    0  502    0 -0.00000000000E+00 -0.00000000000E+00 -0.25514561542E+02  0.25514561542E+02  0.00000000000E+00 0. -1.
          2    1    1    2  501    0 -0.20956595579E+02 -0.74488181527E+00 -0.67207460698E+01  0.22020494429E+02  0.00000000000E+00 0. -1.
          2    1    1    2  502    0  0.20956595579E+02  0.74488181527E+00 -0.12790798494E+01  0.21008802736E+02  0.00000000000E+00 0. -1.
</event>
<event>
 4    1  0.6225520E+003  0.3119892E+02  0.7546771E-02  0.1409456E+00
          2   -1    0    0  501    0  0.00000000000E+00  0.00000000000E+00  0.19192971016E+04  0.19192971016E+04  0.00000000000E+00 0. -1.
          2   -1    0    0  502    0 -0.00000000000E+00 -0.00000000000E+00 -0.71496291487E+00  0.71496291487E+00  0.00000000000E+00 0.  1.
          2    1    1    2  501    0  0.45039517709E+01  0.30872104964E+02  0.44172241092E+03  0.44282283224E+03  0.00000000000E+00 0.  1.
          2    1    1    2  502    0 -0.45039517709E+01 -0.30872104964E+02  0.14768597278E+04  0.14771892323E+04  0.00000000000E+00 0. -1.
</event>
<event>
 4    1  0.6225520E+003  0.2546329E+02  0.7546771E-02  0.1463687E+00
          2   -1    0    0  502    0  0.00000000000E+00  0.00000000000E+00  0.38623104346E+03  0.38623104346E+03  0.00000000000E+00 0. -1.
          2   -1    0    0  501    0 -0.00000000000E+00 -0.00000000000E+00 -0.66520591193E+01  0.66520591193E+01  0.00000000000E+00 0. -1.
          2    1    1    2  501    0  0.10277118204E+02  0.23297215071E+02  0.35964463756E+03  0.36054492745E+03  0.00000000000E+00 0. -1.
          2    1    1    2  502    0 -0.10277118204E+02 -0.23297215071E+02  0.19934346778E+02  0.32338175120E+02  0.00000000000E+00 0. -1.
</event>
<event>
 4    1  0.6225520E+003  0.4576019E+02  0.7546771E-02  0.1317681E+00
          2   -1    0    0  501    0  0.00000000000E+00  0.00000000000E+00  0.60448435141E+03  0.60448435141E+03  0.00000000000E+00 0.  1.
          2   -1    0    0  502    0 -0.00000000000E+00 -0.00000000000E+00 -0.22211866582E+03  0.22211866582E+03  0.00000000000E+00 0.  1.
          2    1    1    2  501    0 -0.45112792817E+02  0.76701512258E+01 -0.21888313269E+03  0.22361534176E+03  0.00000000000E+00 0.  1.
          2    1    1    2  502    0  0.45112792817E+02 -0.76701512258E+01  0.60124881827E+03  0.60298767547E+03  0.00000000000E+00 0.  1.
</event>
<event>
 4    1  0.6225520E+003  0.3204998E+02  0.7546771E-02  0.1402580E+00
          2   -1    0    0  502    0  0.00000000000E+00  0.00000000000E+00  0.77658714330E+01  0.77658714330E+01  0.00000000000E+00 0.  1.
          2   -1    0    0  501    0 -0.00000000000E+00 -0.00000000000E+00 -0.18810590639E+03  0.18810590639E+03  0.00000000000E+00 0. -1.
          2    1    1    2  501    0 -0.19061992624E+01  0.31993241368E+02 -0.36812846614E+02  0.48809699494E+02  0.00000000000E+00 0.  1.
          2    1    1    2  502    0  0.19061992624E+01 -0.31993241368E+02 -0.14352718835E+03  0.14706207833E+03  0.00000000000E+00 0. -1.
</event>
<event>
 4    1  0.6225520E+003  0.2805302E+02  0.7546771E-02  0.1437308E+00
          2   -1    0    0  502    0  0.00000000000E+00  0.00000000000E+00  0.66448240441E+01  0.66448240441E+01  0.00000000000E+00 0.  1.
          2   -1    0    0  501    0 -0.00000000000E+00 -0.00000000000E+00 -0.14400520091E+04  0.14400520091E+04  0.00000000000E+00 0. -1.
          2    1    1    2  501    0  0.23503034698E+02 -0.15315973238E+02 -0.23738344610E+02  0.36748886800E+02  0.00000000000E+00 0.  1.
          2    1    1    2  502    0 -0.23503034698E+02  0.15315973238E+02 -0.14096688404E+04  0.14099479463E+04  0.00000000000E+00 0. -1.
</event>
<event>
 4    1  0.6225520E+003  0.2240152E+02  0.7546771E-02  0.1500153E+00
          2   -1    0    0  501    0  0.00000000000E+00  0.00000000000E+00  0.12765686723E+02  0.12765686723E+02  0.00000000000E+00 0. -1.
          2   -1    0    0  502    0 -0.00000000000E+00 -0.00000000000E+00 -0.96666419209E+02  0.96666419209E+02  0.00000000000E+00 0.  1.
          2    1    1    2  501    0  0.15922558128E+02  0.15757542777E+02 -0.84097236578E+02  0.87029726024E+02  0.00000000000E+00 0.  1.
          2    1    1    2  502    0 -0.15922558128E+02 -0.15757542777E+02  0.19650409221E+00  0.22402379909E+02  0.00000000000E+00 0. -1.
</event>
<event>
 4    1  0.6225520E+003  0.2057425E+02  0.7546771E-02  0.1525431E+00
          2   -1    0    0  501    0  0.00000000000E+00  0.00000000000E+00  0.85560762517E+03  0.85560762517E+03  0.00000000000E+00 0. -1.
          2   -1    0    0  502    0 -0.00000000000E+00 -0.00000000000E+00 -0.58253194452E+00  0.58253194452E+00  0.00000000000E+00 0. -1.
          2    1    1    2  501    0  0.15932961564E+02  0.13016934326E+02  0.26131762990E+03  0.26212631219E+03  0.00000000000E+00 0. -1.
          2    1    1    2  502    0 -0.15932961564E+02 -0.13016934326E+02  0.59370746333E+03  0.59406384493E+03  0.00000000000E+00 0. -1.
</event>
<event>
 4    1  0.6225520E+003  0.2618433E+02  0.7546771E-02  0.1455978E+00
          2   -1    0    0  502    0  0.00000000000E+00  0.00000000000E+00  0.27969769010E+03  0.27969769010E+03  0.00000000000E+00 0. -1.
          2   -1    0    0  501    0 -0.00000000000E+00 -0.00000000000E+00 -0.40921019001E+03  0.40921019001E+03  0.00000000000E+00 0. -1.
          2    1    1    2  501    0 -0.21861651363E+02  0.14411355185E+02  0.27866445176E+03  0.27989193564E+03  0.00000000000E+00 0. -1.
          2    1    1    2  502    0  0.21861651363E+02 -0.14411355185E+02 -0.40817695167E+03  0.40901594448E+03  0.00000000000E+00 0. -1.
</event>
<event>
 4    1  0.6225520E+003  0.2945492E+02  0.7546771E-02  0.1424393E+00
          2   -1    0    0  501    0  0.00000000000E+00  0.00000000000E+00  0.13946133082E+04  0.13946133082E+04  0.00000000000E+00 0.  1.
          2   -1    0    0  502    0 -0.00000000000E+00 -0.00000000000E+00 -0.63258441179E+01  0.63258441179E+01  0.00000000000E+00 0. -1.
          2    1    1    2  501    0 -0.25938688842E+02 -0.13956234272E+02  0.29008479745E+02  0.41341068576E+02  0.00000000000E+00 0. -1.
          2    1    1    2  502    0  0.25938688842E+02  0.13956234272E+02  0.13592789844E+04  0.13595980838E+04  0.00000000000E+00 0.  1.
</event>
<event>
 4    1  0.6225520E+003  0.2198890E+02  0.7546771E-02  0.1505600E+00
          2   -1    0    0  502    0  0.00000000000E+00  0.00000000000E+00  0.55455885273E+01  0.55455885273E+01  0.00000000000E+00 0.  1.
          2   -1    0    0  501    0 -0.00000000000E+00 -0.00000000000E+00 -0.74403517119E+03  0.74403517119E+03  0.00000000000E+00 0.  1.
          2    1    1    2  501    0  0.13194567539E+02  0.17590205506E+02 -0.17098044981E+02  0.27854175351E+02  0.00000000000E+00 0.  1.
          2    1    1    2  502    0 -0.13194567539E+02 -0.17590205506E+02 -0.72139153768E+03  0.72172658437E+03  0.00000000000E+00 0.  1.
</event>
<event>
 4    1  0.6225520E+003  0.2611116E+02  0.7546771E-02  0.1456747E+00
          2   -1    0    0  502    0  0.00000000000E+00  0.00000000000E+00  0.46939824648E+01  0.46939824648E+01  0.00000000000E+00 0.  1.
          2   -1    0    0  501    0 -0.00000000000E+00 -0.00000000000E+00 -0.10832077027E+04  0.10832077027E+04  0.00000000000E+00 0.  1.
          2    1    1    2  501    0  0.16815780216E+02 -0.19975545292E+02 -0.33087550032E+02  0.42149482098E+02  0.00000000000E+00 0.  1.
          2    1    1    2  502    0 -0.16815780216E+02  0.19975545292E+02 -0.10454261702E+04  0.10457522031E+04  0.00000000000E+00 0.  1.
</event>
<event>
 4    1  0.6225520E+003  0.2482600E+02  0.7546771E-02  0.1470759E+00
          2   -1    0    0  502    0  0.00000000000E+00  0.00000000000E+00  0.76521959655E+03  0.76521959655E+03  0.00000000000E+00 0.  1.
          2   -1    0    0  501    0 -0.00000000000E+00 -0.00000000000E+00 -0.31773092143E+01  0.31773092143E+01  0.00000000000E+00 0.  1.
          2    1    1    2  501    0 -0.24771396732E+02 -0.16455915691E+01  0.71297081666E+03  0.71340291244E+03  0.00000000000E+00 0.  1.
          2    1    1    2  502    0  0.24771396732E+02  0.16455915691E+01  0.49071470681E+02  0.54993993330E+02  0.00000000000E+00 0.  1.
</event>
<event>
 4    1  0.6225520E+003  0.2197381E+02  0.7546771E-02  0.1505802E+00
          2   -1    0    0  502    0  0.00000000000E+00  0.00000000000E+00  0.19088514014E+03  0.19088514014E+03  0.00000000000E+00 0.  1.
          2   -1    0    0  501    0 -0.00000000000E+00 -0.00000000000E+00 -0.46547553881E+01  0.46547553881E+01  0.00000000000E+00 0.  1.
          2    1    1    2  501    0  0.11752024956E+02  0.18567124437E+02  0.15917848963E+03  0.16068801996E+03  0.00000000000E+00 0.  1.
          2    1    1    2  502    0 -0.11752024956E+02 -0.18567124437E+02  0.27051895127E+02  0.34851875565E+02  0.00000000000E+00 0.  1.
</event>
<event>
 4    1  0.6225520E+003  0.4604413E+02  0.7546771E-02  0.1316299E+00
          2   -1    0    0  502    0  0.00000000000E+00  0.00000000000E+00  0.39089371690E+03  0.39089371690E+03  0.00000000000E+00 0.  1.
          2   -1    0    0  501    0 -0.00000000000E+00 -0.00000000000E+00 -0.10647674030E+04  0.10647674030E+04  0.00000000000E+00 0.  1.
          2    1    1    2  501    0  0.17495701903E+01 -0.46010882660E+02  0.38903766727E+03  0.39175294367E+03  0.00000000000E+00 0.  1.
          2    1    1    2  502    0 -0.17495701903E+01  0.46010882660E+02 -0.10629113534E+04  0.10639081762E+04  0.00000000000E+00 0.  1.
</event>
<event>
 4    1  0.6225520E+003  0.2876520E+02  0.7546771E-02  0.1430639E+00
          2   -1    0    0  501    0  0.00000000000E+00  0.00000000000E+00  0.70485324894E+01  0.70485324894E+01  0.00000000000E+00 0.  1.
          2   -1    0    0  502    0 -0.00000000000E+00 -0.00000000000E+00 -0.34997306494E+03  0.34997306494E+03  0.00000000000E+00 0.  1.
          2    1    1    2  501    0  0.22460543384E+02 -0.17971112315E+02 -0.31698637494E+03  0.31828886060E+03  0.00000000000E+00 0.  1.
          2    1    1    2  502    0 -0.22460543384E+02  0.17971112315E+02 -0.25938157512E+02  0.38732736826E+02  0.00000000000E+00 0.  1.
</event>
<event>
 4    1  0.6225520E+003  0.3383550E+02  0.7546771E-02  0.1388940E+00
          2   -1    0    0  501    0  0.00000000000E+00  0.00000000000E+00  0.18680590471E+01  0.18680590471E+01  0.00000000000E+00 0. -1.
          2   -1    0    0  502    0 -0.00000000000E+00 -0.00000000000E+00 -0.11432513353E+04  0.11432513353E+04  0.00000000000E+00 0.  1.
          2    1    1    2  501    0 -0.29943759845E+02  0.15754760140E+02 -0.96068027209E+03  0.96127593666E+03  0.00000000000E+00 0.  1.
          2    1    1    2  502    0  0.29943759845E+02 -0.15754760140E+02 -0.18070300420E+03  0.18384345773E+03  0.00000000000E+00 0. -1.
</event>
<event>
 4    1  0.6225520E+003  0.2292360E+02  0.7546771E-02  0.1493460E+00
          2   -1    0    0  502    0  0.00000000000E+00  0.00000000000E+00  0.34780582414E+03  0.34780582414E+03  0.00000000000E+00 0. -1.
          2   -1    0    0  501    0 -0.00000000000E+00 -0.00000000000E+00 -0.34988256836E+01  0.34988256836E+01  0.00000000000E+00 0. -1.
          2    1    1    2  501    0  0.15080853578E+02 -0.17264390998E+02  0.30455578558E+03  0.30541728483E+03  0.00000000000E+00 0. -1.
          2    1    1    2  502    0 -0.15080853578E+02  0.17264390998E+02  0.39751212880E+02  0.45887365000E+02  0.00000000000E+00 0. -1.
</event>
<event>
 4    1  0.6225520E+003  0.3016943E+02  0.7546771E-02  0.1418130E+00
          2   -1    0    0  501    0  0.00000000000E+00  0.00000000000E+00  0.12057493650E+04  0.12057493650E+04  0.00000000000E+00 0.  1.
          2   -1    0    0  502    0 -0.00000000000E+00 -0.00000000000E+00 -0.14689840986E+01  0.14689840986E+01  0.00000000000E+00 0. -1.
          2    1    1    2  501    0  0.24488386176E+02  0.17621396066E+02  0.18128914845E+03  0.18378234410E+03  0.00000000000E+00 0. -1.
          2    1    1    2  502    0 -0.24488386176E+02 -0.17621396066E+02  0.10229912324E+04  0.10234360050E+04  0.00000000000E+00 0.  1.
</event>
<event>
 4    1  0.6763439E+003  0.2768152E+02  0.7546771E-02  0.1440880E+00
          2   -1    0    0  502    0  0.00000000000E+00  0.00000000000E+00  0.75734173249E+03  0.75734173249E+03  0.00000000000E+00 0. -1.
          2   -1    0    0  501    0 -0.00000000000E+00 -0.00000000000E+00 -0.37407456695E+03  0.37407456695E+03  0.00000000000E+00 0. -1.
          2    1    1    2  501    0 -0.27607920390E+02 -0.20172338466E+01  0.75657616026E+03  0.75708239497E+03  0.00000000000E+00 0. -1.
          2    1    1    2  502    0  0.27607920390E+02  0.20172338466E+01 -0.37330899472E+03  0.37433390447E+03  0.00000000000E+00 0. -1.
</event>
<event>
 4    1  0.6225520E+003  0.4067769E+02  0.7546771E-02  0.1344560E+00
          2   -1    0    0  502    0  0.00000000000E+00  0.00000000000E+00  0.11058824920E+02  0.11058824920E+02  0.00000000000E+00 0. -1.
          2   -1    0    0  501    0 -0.00000000000E+00 -0.00000000000E+00 -0.62378174931E+03  0.62378174931E+03  0.00000000000E+00 0. -1.
          2    1    1    2  501    0  0.38935585619E+02 -0.11776856292E+02 -0.29616693352E+02  0.50317220678E+02  0.00000000000E+00 0. -1.
          2    1    1    2  502    0 -0.38935585619E+02  0.11776856292E+02 -0.58310623104E+03  0.58452335355E+03  0.00000000000E+00 0. -1.
</event>
<event>
 4    1  0.6225520E+003  0.2308353E+02  0.7546771E-02  0.1491452E+00
          2   -1    0    0  501    0  0.00000000000E+00  0.00000000000E+00  0.16673832336E+04  0.16673832336E+04  0.00000000000E+00 0.  1.
          2   -1    0    0  502    0 -0.00000000000E+00 -0.00000000000E+00 -0.10109689277E+01  0.10109689277E+01  0.00000000000E+00 0.  1.
          2    1    1    2  501    0  0.17383077339E-01  0.23083526489E+02  0.14332226206E+03  0.14516928153E+03  0.00000000000E+00 0.  1.
          2    1    1    2  502    0 -0.17383077339E-01 -0.23083526489E+02  0.15230500026E+04  0.15232249210E+04  0.00000000000E+00 0.  1.
</event>
<event>
 4    1  0.6225520E+003  0.2374009E+02  0.7546771E-02  0.1483408E+00
          2   -1    0    0  501    0  0.00000000000E+00  0.00000000000E+00  0.13549032807E+04  0.13549032807E+04  0.00000000000E+00 0. -1.
          2   -1    0    0  502    0 -0.00000000000E+00 -0.00000000000E+00 -0.20941747262E+02  0.20941747262E+02  0.00000000000E+00 0.  1.
          2    1    1    2  501    0  0.70615072400E+01  0.22665547850E+02 -0.14075397368E+02  0.27599071632E+02  0.00000000000E+00 0.  1.
          2    1    1    2  502    0 -0.70615072400E+01 -0.22665547850E+02  0.13480369308E+04  0.13482459563E+04  0.00000000000E+00 0. -1.
</event>
<event>
 4    1  0.6225520E+003  0.2252635E+02  0.7546771E-02  0.1498533E+00
          2   -1    0    0  501    0  0.00000000000E+00  0.00000000000E+00  0.59083763312E+03  0.59083763312E+03  0.00000000000E+00 0. -1.
          2   -1    0    0  502    0 -0.00000000000E+00 -0.00000000000E+00 -0.16970856032E+02  0.16970856032E+02  0.00000000000E+00 0. -1.
          2    1    1    2  501    0 -0.20671297985E+02  0.89517585883E+01 -0.91811962065E+01  0.24325519645E+02  0.00000000000E+00 0. -1.
          2    1    1    2  502    0  0.20671297985E+02 -0.89517585883E+01  0.58304797329E+03  0.58348296951E+03  0.00000000000E+00 0. -1.
</event>
<event>
 4    1  0.6225520E+003  0.4388731E+02  0.7546771E-02  0.1327098E+00
          2   -1    0    0  501    0  0.00000000000E+00  0.00000000000E+00  0.12023799014E+04  0.12023799014E+04  0.00000000000E+00 0.  1.
          2   -1    0    0  502    0 -0.00000000000E+00 -0.00000000000E+00 -0.18540375901E+03  0.18540375901E+03  0.00000000000E+00 0. -1.
          2    1    1    2  501    0  0.28037061948E+02 -0.33764174396E+02 -0.18239961551E+03  0.18760521329E+03  0.00000000000E+00 0. -1.
          2    1    1    2  502    0 -0.28037061948E+02  0.33764174396E+02  0.11993757579E+04  0.12001784471E+04  0.00000000000E+00 0.  1.
</event>
<event>
 4    1  0.6225520E+003  0.2561245E+02  0.7546771E-02  0.1462067E+00
          2   -1    0    0  502    0  0.00000000000E+00  0.00000000000E+00  0.92982658626E+01  0.92982658626E+01  0.00000000000E+00 0. -1.
          2   -1    0    0  501    0 -0.00000000000E+00 -0.00000000000E+00 -0.12166163967E+03  0.12166163967E+03  0.00000000000E+00 0. -1.
          2    1    1    2  501    0  0.19817472262E+02 -0.16225455053E+02 -0.13740338493E+02  0.29065348792E+02  0.00000000000E+00 0. -1.
          2    1    1    2  502    0 -0.19817472262E+02  0.16225455053E+02 -0.98623035311E+02  0.10189455674E+03  0.00000000000E+00 0. -1.
</event>
<event>
 4    1  0.6225520E+003  0.4103606E+02  0.7546771E-02  0.1342519E+00
          2   -1    0    0  501    0  0.00000000000E+00  0.00000000000E+00  0.61729613397E+03  0.61729613397E+03  0.00000000000E+00 0.  1.
          2   -1    0    0  502    0 -0.00000000000E+00 -0.00000000000E+00 -0.21919221276E+03  0.21919221276E+03  0.00000000000E+00 0.  1.
          2    1    1    2  501    0 -0.40667751785E+02 -0.54856652227E+01 -0.21658143304E+03  0.22043474249E+03  0.00000000000E+00 0.  1.
          2    1    1    2  502    0  0.40667751785E+02  0.54856652227E+01  0.61468535425E+03  0.61605360424E+03  0.00000000000E+00 0.  1.
</event>
<event>
 4    1  0.6225520E+003  0.2110081E+02  0.7546771E-02  0.1517830E+00
          2   -1    0    0  502    0  0.00000000000E+00  0.00000000000E+00  0.10853331157E+02  0.10853331157E+02  0.00000000000E+00 0. -1.
          2   -1    0    0  501    0 -0.00000000000E+00 -0.00000000000E+00 -0.49032946355E+03  0.49032946355E+03  0.00000000000E+00 0.  1.
          2    1    1    2  501    0 -0.18815928184E+02  0.95501364110E+01  0.14143497481E+00  0.21101285808E+02  0.00000000000E+00 0. -1.
          2    1    1    2  502    0  0.18815928184E+02 -0.95501364110E+01 -0.47961756737E+03  0.48008150890E+03  0.00000000000E+00 0.  1.
</event>
<event>
 4    1  0.6225520E+003  0.2204582E+02  0.7546771E-02  0.1504840E+00
          2   -1    0    0  502    0  0.00000000000E+00  0.00000000000E+00  0.14504547104E+03  0.14504547104E+03  0.00000000000E+00 0.  1.
          2   -1    0    0  501    0 -0.00000000000E+00 -0.00000000000E+00 -0.10067025804E+03  0.10067025804E+03  0.00000000000E+00 0.  1.
          2    1    1    2  501    0 -0.92055941353E+01 -0.20031855953E+02  0.14298351225E+03  0.14467309008E+03  0.00000000000E+00 0.  1.
          2    1    1    2  502    0  0.92055941353E+01  0.20031855953E+02 -0.98608299246E+02  0.10104263900E+03  0.00000000000E+00 0.  1.
</event>
<event>
 4    1  0.6225520E+003  0.4721908E+02  0.7546771E-02  0.1310702E+00
          2   -1    0    0  502    0  0.00000000000E+00  0.00000000000E+00  0.66854341864E+02  0.66854341864E+02  0.00000000000E+00 0.  1.
          2   -1    0    0  501    0 -0.00000000000E+00 -0.00000000000E+00 -0.20359864442E+03  0.20359864442E+03  0.00000000000E+00 0. -1.
          2    1    1    2  501    0 -0.39844581079E+02 -0.25338714189E+02  0.55283863320E+02  0.72704515828E+02  0.00000000000E+00 0.  1.
          2    1    1    2  502    0  0.39844581079E+02  0.25338714189E+02 -0.19202816588E+03  0.19774847046E+03  0.00000000000E+00 0. -1.
</event>
<event>
 4    1  0.6225520E+003  0.2352350E+02  0.7546771E-02  0.1486027E+00
          2   -1    0    0  501    0  0.00000000000E+00  0.00000000000E+00  0.30451754185E+00  0.30451754185E+00  0.00000000000E+00 0.  1.
          2   -1    0    0  502    0 -0.00000000000E+00 -0.00000000000E+00 -0.22484839877E+04  0.22484839877E+04  0.00000000000E+00 0. -1.
          2    1    1    2  501    0 -0.17514307610E+02  0.15703628675E+02 -0.63162049015E+03  0.63205838220E+03  0.00000000000E+00 0.  1.
          2    1    1    2  502    0  0.17514307610E+02 -0.15703628675E+02 -0.16165589800E+04  0.16167301230E+04  0.00000000000E+00 0. -1.
</event>
<event>
 4    1  0.6225520E+003  0.3044792E+02  0.7546771E-02  0.1415743E+00
          2   -1    0    0  501    0  0.00000000000E+00  0.00000000000E+00  0.53923373337E+01  0.53923373337E+01  0.00000000000E+00 0.  1.
          2   -1    0    0  502    0 -0.00000000000E+00 -0.00000000000E+00 -0.37219998816E+03  0.37219998816E+03  0.00000000000E+00 0. -1.
          2    1    1    2  501    0  0.10874035599E+02  0.28439957572E+02 -0.32189391515E+03  0.32333074157E+03  0.00000000000E+00 0. -1.
          2    1    1    2  502    0 -0.10874035599E+02 -0.28439957572E+02 -0.44913735675E+02  0.54261583917E+02  0.00000000000E+00 0.  1.
</event>
<event>
 4    1  0.6225520E+003  0.2035302E+02  0.7546771E-02  0.1528706E+00
          2   -1    0    0  502    0  0.00000000000E+00  0.00000000000E+00  0.25082803520E+02  0.25082803520E+02  0.00000000000E+00 0. -1.
          2   -1    0    0  501    0 -0.00000000000E+00 -0.00000000000E+00 -0.32981927862E+02  0.32981927862E+02  0.00000000000E+00 0. -1.
          2    1    1    2  501    0  0.11762855269E+02  0.16609652429E+02  0.16564384253E+02  0.26241649025E+02  0.00000000000E+00 0. -1.
          2    1    1    2  502    0 -0.11762855269E+02 -0.16609652429E+02 -0.24463508595E+02  0.31823082357E+02  0.00000000000E+00 0. -1.
</event>
<event>
 4    1  0.6225520E+003  0.2069434E+02  0.7546771E-02  0.1523674E+00
          2   -1    0    0  502    0  0.00000000000E+00  0.00000000000E+00  0.19684060054E+03  0.19684060054E+03  0.00000000000E+00 0. -1.
          2   -1    0    0  501    0 -0.00000000000E+00 -0.00000000000E+00 -0.56029994372E+02  0.56029994372E+02  0.00000000000E+00 0. -1.
          2    1    1    2  501    0  0.20645718774E+02  0.14176972555E+01  0.19436155352E+03  0.19546014698E+03  0.00000000000E+00 0. -1.
          2    1    1    2  502    0 -0.20645718774E+02 -0.14176972555E+01 -0.53550947355E+02  0.57410447932E+02  0.00000000000E+00 0. -1.
</event>
<event>
 4    1  0.6225520E+003  0.2381107E+02  0.7546771E-02  0.1482557E+00
          2   -1    0    0  501    0  0.00000000000E+00  0.00000000000E+00  0.80409024658E+01  0.80409024658E+01  0.00000000000E+00 0. -1.
          2   -1    0    0  502    0 -0.00000000000E+00 -0.00000000000E+00 -0.13591859569E+03  0.13591859569E+03  0.00000000000E+00 0. -1.
          2    1    1    2  501    0 -0.16487070286E+02 -0.17179739520E+02 -0.11387178259E+03  0.11633464577E+03  0.00000000000E+00 0. -1.
          2    1    1    2  502    0  0.16487070286E+02  0.17179739520E+02 -0.14005910635E+02  0.27624852385E+02  0.00000000000E+00 0. -1.
</event>
<event>
 4    1  0.6225520E+003  0.2493685E+02  0.7546771E-02  0.1469511E+00
          2   -1    0    0  501    0  0.00000000000E+00  0.00000000000E+00  0.11449186892E+03  0.11449186892E+03  0.00000000000E+00 0. -1.
          2   -1    0    0  502    0 -0.00000000000E+00 -0.00000000000E+00 -0.18602402940E+03  0.18602402940E+03  0.00000000000E+00 0. -1.
          2    1    1    2  501    0 -0.24504309590E+02  0.46244326080E+01 -0.18381423267E+03  0.18549802883E+03  0.00000000000E+00 0. -1.
          2    1    1    2  502    0  0.24504309590E+02 -0.46244326080E+01  0.11228207219E+03  0.11501786949E+03  0.00000000000E+00 0. -1.
</event>
<event>
 4    1  0.6225520E+003  0.2313937E+02  0.7546771E-02  0.1490755E+00
          2   -1    0    0  502    0  0.00000000000E+00  0.00000000000E+00  0.36112244581E+01  0.36112244581E+01  0.00000000000E+00 0. -1.
          2   -1    0    0  501    0 -0.00000000000E+00 -0.00000000000E+00 -0.13931739232E+04  0.13931739232E+04  0.00000000000E+00 0.  1.
          2    1    1    2  501    0 -0.18704931846E+02 -0.13621896089E+02 -0.34597130824E+02  0.41622013283E+02  0.00000000000E+00 0. -1.
          2    1    1    2  502    0  0.18704931846E+02  0.13621896089E+02 -0.13549655679E+04  0.13551631344E+04  0.00000000000E+00 0.  1.
</event>
<event>
 4    1  0.6225520E+003  0.2377399E+02  0.7546771E-02  0.1483001E+00
          2   -1    0    0  502    0  0.00000000000E+00  0.00000000000E+00  0.12408932186E+03  0.12408932186E+03  0.00000000000E+00 0.  1.
          2   -1    0    0  501    0 -0.00000000000E+00 -0.00000000000E+00 -0.14681870786E+02  0.14681870786E+02  0.00000000000E+00 0. -1.
          2    1    1    2  501    0 -0.87019357848E+01 -0.22124170329E+02  0.11232998802E+03  0.11481824249E+03  0.00000000000E+00 0.  1.
          2    1    1    2  502    0  0.87019357848E+01  0.22124170329E+02 -0.29225369452E+01  0.23952950160E+02  0.00000000000E+00 0. -1.
</event>
<event>
 4    1  0.6225520E+003  0.2317176E+02  0.7546771E-02  0.1490353E+00
          2   -1    0    0  502    0  0.00000000000E+00  0.00000000000E+00  0.15791608050E+02  0.15791608050E+02  0.00000000000E+00 0.  1.
          2   -1    0    0  501    0 -0.00000000000E+00 -0.00000000000E+00 -0.10914831769E+04  0.10914831769E+04  0.00000000000E+00 0.  1.
          2    1    1    2  501    0 -0.10423474034E+02 -0.20694965300E+02  0.71001544761E+01  0.24235152017E+02  0.00000000000E+00 0.  1.
          2    1    1    2  502    0  0.10423474034E+02  0.20694965300E+02 -0.10827917234E+04  0.10830396330E+04  0.00000000000E+00 0.  1.
</event>
<event>
 4    1  0.6225520E+003  0.2571036E+02  0.7546771E-02  0.1461011E+00
          2   -1    0    0  502    0  0.00000000000E+00  0.00000000000E+00  0.62232038506E+03  0.62232038506E+03  0.00000000000E+00 0.  1.
          2   -1    0    0  501    0 -0.00000000000E+00 -0.00000000000E+00 -0.34437809209E+01  0.34437809209E+01  0.00000000000E+00 0.  1.
          2    1    1    2  501    0 -0.23906981481E+02  0.94593253555E+01  0.56963183816E+03  0.57021176211E+03  0.00000000000E+00 0.  1.
          2    1    1    2  502    0  0.23906981481E+02 -0.94593253555E+01  0.49244765971E+02  0.55552403866E+02  0.00000000000E+00 0.  1.
</event>
<event>
 4    1  0.6225520E+003  0.1080145E+03  0.7546771E-02  0.1150600E+00
          2   -1    0    0  501    0  0.00000000000E+00  0.00000000000E+00  0.86002637673E+02  0.86002637673E+02  0.00000000000E+00 0.  1.
          2   -1    0    0  502    0 -0.00000000000E+00 -0.00000000000E+00 -0.75865432092E+03  0.75865432092E+03  0.00000000000E+00 0. -1.
          2    1    1    2  501    0 -0.22041605386E+02  0.10574167422E+03 -0.71903634279E+03  0.72710411654E+03  0.00000000000E+00 0. -1.
          2    1    1    2  502    0  0.22041605386E+02 -0.10574167422E+03  0.46384659541E+02  0.11755284206E+03  0.00000000000E+00 0.  1.
</event>
<event>
 4    1  0.6225520E+003  0.2110977E+02  0.7546771E-02  0.1517703E+00
          2   -1    0    0  501    0  0.00000000000E+00  0.00000000000E+00  0.11060915754E+02  0.11060915754E+02  0.00000000000E+00 0.  1.
          2   -1    0    0  502    0 -0.00000000000E+00 -0.00000000000E+00 -0.22112092828E+03  0.22112092828E+03  0.00000000000E+00 0. -1.
          2    1    1    2  501    0 -0.19319587500E+02 -0.85074060822E+01 -0.21001375270E+03  0.21107202264E+03  0.00000000000E+00 0. -1.
          2    1    1    2  502    0  0.19319587500E+02  0.85074060822E+01 -0.46259831632E-01  0.21109821396E+02  0.00000000000E+00 0.  1.
</event>
<event>
 4    1  0.6225520E+003  0.9215301E+02  0.7546771E-02  0.1178147E+00
          2   -1    0    0  502    0  0.00000000000E+00  0.00000000000E+00  0.14159033791E+04  0.14159033791E+04  0.00000000000E+00 0. -1.
          2   -1    0    0  501    0 -0.00000000000E+00 -0.00000000000E+00 -0.78467219813E+03  0.78467219813E+03  0.00000000000E+00 0.  1.
          2    1    1    2  501    0 -0.53663915549E+02 -0.74915693382E+02  0.14116902407E+04  0.14146948479E+04  0.00000000000E+00 0. -1.
          2    1    1    2  502    0  0.53663915549E+02  0.74915693382E+02 -0.78045905970E+03  0.78588072938E+03  0.00000000000E+00 0.  1.
</event>
<event>
 4    1  0.6225520E+003  0.3287538E+02  0.7546771E-02  0.1396148E+00
          2   -1    0    0  501    0  0.00000000000E+00  0.00000000000E+00  0.37574371596E+03  0.37574371596E+03  0.00000000000E+00 0.  1.
          2   -1    0    0  502    0 -0.00000000000E+00 -0.00000000000E+00 -0.20505204590E+02  0.20505204590E+02  0.00000000000E+00 0.  1.
          2    1    1    2  501    0  0.79897535845E+01  0.31889724814E+02 -0.60842423995E+01  0.33433646475E+02  0.00000000000E+00 0.  1.
          2    1    1    2  502    0 -0.79897535845E+01 -0.31889724814E+02  0.36132275377E+03  0.36281527408E+03  0.00000000000E+00 0.  1.
</event>
<event>
 4    1  0.6225520E+003  0.2248706E+02  0.7546771E-02  0.1499042E+00
          2   -1    0    0  502    0  0.00000000000E+00  0.00000000000E+00  0.57606195439E+03  0.57606195439E+03  0.00000000000E+00 0.  1.
          2   -1    0    0  501    0 -0.00000000000E+00 -0.00000000000E+00 -0.52901301076E+01  0.52901301076E+01  0.00000000000E+00 0. -1.
          2    1    1    2  501    0 -0.10466301475E+02  0.19902870973E+02  0.55085258849E+03  0.55131138387E+03  0.00000000000E+00 0.  1.
          2    1    1    2  502    0  0.10466301475E+02 -0.19902870973E+02  0.19919235790E+02  0.30040700624E+02  0.00000000000E+00 0. -1.
</event>
<event>
 4    1  0.6225520E+003  0.2032481E+02  0.7546771E-02  0.1529127E+00
          2   -1    0    0  501    0  0.00000000000E+00  0.00000000000E+00  0.60707498056E+03  0.60707498056E+03  0.00000000000E+00 0.  1.
          2   -1    0    0  502    0 -0.00000000000E+00 -0.00000000000E+00 -0.94744138914E+00  0.94744138914E+00  0.00000000000E+00 0. -1.
          2    1    1    2  501    0  0.10867581489E+02 -0.17175377009E+02  0.14168602107E+03  0.14313639114E+03  0.00000000000E+00 0. -1.
          2    1    1    2  502    0 -0.10867581489E+02  0.17175377009E+02  0.46444151810E+03  0.46488603081E+03  0.00000000000E+00 0.  1.
</event>
<event>
 4    1  0.6225520E+003  0.2202052E+02  0.7546771E-02  0.1505178E+00
          2   -1    0    0  501    0  0.00000000000E+00  0.00000000000E+00  0.39544287741E+03  0.39544287741E+03  0.00000000000E+00 0.  1.
          2   -1    0    0  502    0 -0.00000000000E+00 -0.00000000000E+00 -0.32921892847E+02  0.32921892847E+02  0.00000000000E+00 0.  1.
          2    1    1    2  501    0  0.14921557943E+02  0.16194151658E+02 -0.28895258939E+02  0.36329594390E+02  0.00000000000E+00 0.  1.
          2    1    1    2  502    0 -0.14921557943E+02 -0.16194151658E+02  0.39141624350E+03  0.39203517587E+03  0.00000000000E+00 0.  1.
</event>
<event>
 4    1  0.6225520E+003  0.2103290E+02  0.7546771E-02  0.1518796E+00
          2   -1    0    0  502    0  0.00000000000E+00  0.00000000000E+00  0.88770274298E+00  0.88770274298E+00  0.00000000000E+00 0.  1.
          2   -1    0    0  501    0 -0.00000000000E+00 -0.00000000000E+00 -0.66606835014E+03  0.66606835014E+03  0.00000000000E+00 0.  1.
          2    1    1    2  501    0 -0.19215891880E+02 -0.85517489493E+01 -0.16524885143E+03  0.16658200926E+03  0.00000000000E+00 0.  1.
          2    1    1    2  502    0  0.19215891880E+02  0.85517489493E+01 -0.49993179597E+03  0.50037404362E+03  0.00000000000E+00 0.  1.
</event>
<event>
 4    1  0.6225520E+003  0.2203781E+02  0.7546771E-02  0.1504947E+00
          2   -1    0    0  501    0  0.00000000000E+00  0.00000000000E+00  0.28875169131E+02  0.28875169131E+02  0.00000000000E+00 0. -1.
          2   -1    0    0  502    0 -0.00000000000E+00 -0.00000000000E+00 -0.15593498396E+03  0.15593498396E+03  0.00000000000E+00 0. -1.
          2    1    1    2  501    0  0.14559762306E+02  0.16543229901E+02 -0.15080932276E+03  0.15241101327E+03  0.00000000000E+00 0. -1.
          2    1    1    2  502    0 -0.14559762306E+02 -0.16543229901E+02  0.23749507933E+02  0.32399139820E+02  0.00000000000E+00 0. -1.
</event>
<event>
 4    1  0.6225520E+003  0.2997133E+02  0.7546771E-02  0.1419846E+00
          2   -1    0    0  502    0  0.00000000000E+00  0.00000000000E+00  0.19879240890E+01  0.19879240890E+01  0.00000000000E+00 0.  1.
          2   -1    0    0  501    0 -0.00000000000E+00 -0.00000000000E+00 -0.13548324319E+04  0.13548324319E+04  0.00000000000E+00 0.  1.
          2    1    1    2  501    0 -0.18657537871E+02 -0.23455845296E+02 -0.12258170422E+03  0.12619252992E+03  0.00000000000E+00 0.  1.
          2    1    1    2  502    0  0.18657537871E+02  0.23455845296E+02 -0.12302628036E+04  0.12306278261E+04  0.00000000000E+00 0.  1.
</event>
<event>
 4    1  0.6225520E+003  0.2810732E+02  0.7546771E-02  0.1436791E+00
          2   -1    0    0  502    0  0.00000000000E+00  0.00000000000E+00  0.12731508882E+03  0.12731508882E+03  0.00000000000E+00 0.  1.
          2   -1    0    0  501    0 -0.00000000000E+00 -0.00000000000E+00 -0.19122756970E+04  0.19122756970E+04  0.00000000000E+00 0. -1.
          2    1    1    2  501    0 -0.26971902455E+02  0.79080800150E+01  0.12565915039E+03  0.12876429368E+03  0.00000000000E+00 0.  1.
          2    1    1    2  502    0  0.26971902455E+02 -0.79080800150E+01 -0.19106197585E+04  0.19108264921E+04  0.00000000000E+00 0. -1.
</event>
<event>
 4    1  0.6225520E+003  0.4096472E+02  0.7546771E-02  0.1342923E+00
          2   -1    0    0  501    0  0.00000000000E+00  0.00000000000E+00  0.10923567990E+02  0.10923567990E+02  0.00000000000E+00 0.  1.
          2   -1    0    0  502    0 -0.00000000000E+00 -0.00000000000E+00 -0.41012447572E+03  0.41012447572E+03  0.00000000000E+00 0.  1.
          2    1    1    2  501    0 -0.60787631455E+01 -0.40511193331E+02 -0.36609077514E+03  0.36837557437E+03  0.00000000000E+00 0.  1.
          2    1    1    2  502    0  0.60787631455E+01  0.40511193331E+02 -0.33110132586E+02  0.52672469340E+02  0.00000000000E+00 0.  1.
</event>
<event>
 4    1  0.6225520E+003  0.3392173E+02  0.7546771E-02  0.1388306E+00
          2   -1    0    0  501    0  0.00000000000E+00  0.00000000000E+00  0.49406811948E+01  0.49406811948E+01  0.00000000000E+00 0. -1.
          2   -1    0    0  502    0 -0.00000000000E+00 -0.00000000000E+00 -0.11997062190E+04  0.11997062190E+04  0.00000000000E+00 0. -1.
          2    1    1    2  501    0  0.26158511849E+02  0.21596667550E+02 -0.11380898703E+04  0.11385952910E+04  0.00000000000E+00 0. -1.
          2    1    1    2  502    0 -0.26158511849E+02 -0.21596667550E+02 -0.56675667526E+02  0.66051609223E+02  0.00000000000E+00 0. -1.
</event>
<event>
 4    1  0.6225520E+003  0.2288296E+02  0.7546771E-02  0.1493973E+00
          2   -1    0    0  502    0  0.00000000000E+00  0.00000000000E+00  0.57110392924E+03  0.57110392924E+03  0.00000000000E+00 0.  1.
          2   -1    0    0  501    0 -0.00000000000E+00 -0.00000000000E+00 -0.59689365011E+02  0.59689365011E+02  0.00000000000E+00 0. -1.
          2    1    1    2  501    0  0.17040104858E+02 -0.15272998617E+02  0.56867219187E+03  0.56913240240E+03  0.00000000000E+00 0.  1.
          2    1    1    2  502    0 -0.17040104858E+02  0.15272998617E+02 -0.57257627641E+02  0.61660891847E+02  0.00000000000E+00 0. -1.
</event>
<event>
 4    1  0.6328217E+003  0.4881146E+02  0.7546771E-02  0.1303409E+00
          2   -1    0    0  502    0  0.00000000000E+00  0.00000000000E+00  0.18554193177E+04  0.18554193177E+04  0.00000000000E+00 0.  1.
          2   -1    0    0  501    0 -0.00000000000E+00 -0.00000000000E+00 -0.22681054949E+04  0.22681054949E+04  0.00000000000E+00 0.  1.
          2    1    1    2  501    0  0.84633731957E+01  0.48072129812E+02  0.18548355927E+04  0.18554777375E+04  0.00000000000E+00 0.  1.
          2    1    1    2  502    0 -0.84633731957E+01 -0.48072129812E+02 -0.22675217699E+04  0.22680470752E+04  0.00000000000E+00 0.  1.
</event>
<event>
 4    1  0.6225520E+003  0.3959208E+02  0.7546771E-02  0.1350893E+00
          2   -1    0    0  501    0  0.00000000000E+00  0.00000000000E+00  0.15544500458E+04  0.15544500458E+04  0.00000000000E+00 0.  1.
          2   -1    0    0  502    0 -0.00000000000E+00 -0.00000000000E+00 -0.12141486726E+01  0.12141486726E+01  0.00000000000E+00 0.  1.
          2    1    1    2  501    0 -0.33726816707E+02 -0.20737272317E+02  0.45643268862E+03  0.45814662704E+03  0.00000000000E+00 0.  1.
          2    1    1    2  502    0  0.33726816707E+02  0.20737272317E+02  0.10968032085E+04  0.10975175674E+04  0.00000000000E+00 0.  1.
</event>
<event>
 4    1  0.6225520E+003  0.3438229E+02  0.7546771E-02  0.1384959E+00
          2   -1    0    0  502    0  0.00000000000E+00  0.00000000000E+00  0.53918094921E+03  0.53918094921E+03  0.00000000000E+00 0.  1.
          2   -1    0    0  501    0 -0.00000000000E+00 -0.00000000000E+00 -0.17253205795E+02  0.17253205795E+02  0.00000000000E+00 0.  1.
          2    1    1    2  501    0 -0.31168660617E+02 -0.14514020128E+02  0.52090312532E+03  0.52203659656E+03  0.00000000000E+00 0.  1.
          2    1    1    2  502    0  0.31168660617E+02  0.14514020128E+02  0.10246181028E+01  0.34397558448E+02  0.00000000000E+00 0.  1.
</event>
<event>
 4    1  0.6225520E+003  0.2273142E+02  0.7546771E-02  0.1495899E+00
          2   -1    0    0  501    0  0.00000000000E+00  0.00000000000E+00  0.20090125118E+03  0.20090125118E+03  0.00000000000E+00 0. -1.
          2   -1    0    0  502    0 -0.00000000000E+00 -0.00000000000E+00 -0.19481578664E+02  0.19481578664E+02  0.00000000000E+00 0. -1.
          2    1    1    2  501    0  0.15967699828E+02  0.16178685935E+02 -0.11950368120E+02  0.25681289193E+02  0.00000000000E+00 0. -1.
          2    1    1    2  502    0 -0.15967699828E+02 -0.16178685935E+02  0.19337004064E+03  0.19470154065E+03  0.00000000000E+00 0. -1.
</event>
<event>
 4    1  0.6225520E+003  0.3410577E+02  0.7546771E-02  0.1386961E+00
          2   -1    0    0  502    0  0.00000000000E+00  0.00000000000E+00  0.66561719490E+03  0.66561719490E+03  0.00000000000E+00 0.  1.
          2   -1    0    0  501    0 -0.00000000000E+00 -0.00000000000E+00 -0.17965900675E+01  0.17965900675E+01  0.00000000000E+00 0. -1.
          2    1    1    2  501    0  0.34069008030E+02 -0.15831997442E+01  0.27678052143E+03  0.27887391573E+03  0.00000000000E+00 0. -1.
          2    1    1    2  502    0 -0.34069008030E+02  0.15831997442E+01  0.38704008339E+03  0.38853986923E+03  0.00000000000E+00 0.  1.
</event>
<event>
 4    1  0.6225520E+003  0.2389008E+02  0.7546771E-02  0.1481614E+00
          2   -1    0    0  502    0  0.00000000000E+00  0.00000000000E+00  0.40908935500E+00  0.40908935500E+00  0.00000000000E+00 0. -1.
          2   -1    0    0  501    0 -0.00000000000E+00 -0.00000000000E+00 -0.19330630617E+04  0.19330630617E+04  0.00000000000E+00 0. -1.
          2    1    1    2  501    0  0.16322152308E+02 -0.17444863262E+02 -0.45635538135E+03  0.45698027309E+03  0.00000000000E+00 0. -1.
          2    1    1    2  502    0 -0.16322152308E+02  0.17444863262E+02 -0.14762985910E+04  0.14764918780E+04  0.00000000000E+00 0. -1.
</event>
<event>
 4    1  0.6225520E+003  0.2898094E+02  0.7546771E-02  0.1428664E+00
          2   -1    0    0  501    0  0.00000000000E+00  0.00000000000E+00  0.82629310436E+02  0.82629310436E+02  0.00000000000E+00 0. -1.
          2   -1    0    0  502    0 -0.00000000000E+00 -0.00000000000E+00 -0.28165446024E+03  0.28165446024E+03  0.00000000000E+00 0.  1.
          2    1    1    2  501    0  0.26806219265E+02 -0.11014594108E+02 -0.27833760650E+03  0.27984230893E+03  0.00000000000E+00 0.  1.
          2    1    1    2  502    0 -0.26806219265E+02  0.11014594108E+02  0.79312456697E+02  0.84441461746E+02  0.00000000000E+00 0. -1.
</event>
<event>
 4    1  0.6225520E+003  0.2132886E+02  0.7546771E-02  0.1514621E+00
          2   -1    0    0  501    0  0.00000000000E+00  0.00000000000E+00  0.15313106574E+04  0.15313106574E+04  0.00000000000E+00 0.  1.
          2   -1    0    0  502    0 -0.00000000000E+00 -0.00000000000E+00 -0.76733843909E+00  0.76733843909E+00  0.00000000000E+00 0. -1.
          2    1    1    2  501    0 -0.45352784933E+01  0.20841104456E+02  0.16558260978E+03  0.16695065453E+03  0.00000000000E+00 0. -1.
          2    1    1    2  502    0  0.45352784933E+01 -0.20841104456E+02  0.13649607091E+04  0.13651273413E+04  0.00000000000E+00 0.  1.
</event>
<event>
 4    1  0.6225520E+003  0.2199611E+02  0.7546771E-02  0.1505504E+00
          2   -1    0    0  501    0  0.00000000000E+00  0.00000000000E+00  0.61314900439E+03  0.61314900439E+03  0.00000000000E+00 0.  1.
          2   -1    0    0  502    0 -0.00000000000E+00 -0.00000000000E+00 -0.16622074047E+02  0.16622074047E+02  0.00000000000E+00 0.  1.
          2    1    1    2  501    0  0.63010364845E+01 -0.21074289774E+02 -0.90570267382E+01  0.23787780131E+02  0.00000000000E+00 0.  1.
          2    1    1    2  502    0 -0.63010364845E+01  0.21074289774E+02  0.60558395708E+03  0.60598329830E+03  0.00000000000E+00 0.  1.
</event>
<event>
 4    1  0.6225520E+003  0.3546673E+02  0.7546771E-02  0.1377311E+00
          2   -1    0    0  502    0  0.00000000000E+00  0.00000000000E+00  0.55577240485E+00  0.55577240485E+00  0.00000000000E+00 0.  1.
          2   -1    0    0  501    0 -0.00000000000E+00 -0.00000000000E+00 -0.28378320118E+04  0.28378320118E+04  0.00000000000E+00 0.  1.
          2    1    1    2  501    0  0.34998900082E+02 -0.57415983413E+01 -0.78008181051E+03  0.78088764879E+03  0.00000000000E+00 0.  1.
          2    1    1    2  502    0 -0.34998900082E+02  0.57415983413E+01 -0.20571944289E+04  0.20575001354E+04  0.00000000000E+00 0.  1.
</event>
<event>
 4    1  0.6225520E+003  0.2955733E+02  0.7546771E-02  0.1423483E+00
          2   -1    0    0  501    0  0.00000000000E+00  0.00000000000E+00  0.73120586530E+02  0.73120586530E+02  0.00000000000E+00 0.  1.
          2   -1    0    0  502    0 -0.00000000000E+00 -0.00000000000E+00 -0.44469703614E+02  0.44469703614E+02  0.00000000000E+00 0.  1.
          2    1    1    2  501    0 -0.58149488222E+01  0.28979681471E+02 -0.35954739576E+02  0.46544375234E+02  0.00000000000E+00 0.  1.
          2    1    1    2  502    0  0.58149488222E+01 -0.28979681471E+02  0.64605622492E+02  0.71045914910E+02  0.00000000000E+00 0.  1.
</event>
<event>
 4    1  0.6225520E+003  0.2136929E+02  0.7546771E-02  0.1514057E+00
          2   -1    0    0  501    0  0.00000000000E+00  0.00000000000E+00  0.18321484311E+03  0.18321484311E+03  0.00000000000E+00 0.  1.
          2   -1    0    0  502    0 -0.00000000000E+00 -0.00000000000E+00 -0.51996690050E+02  0.51996690050E+02  0.00000000000E+00 0.  1.
          2    1    1    2  501    0  0.11647882950E+02 -0.17915726220E+02 -0.49143420389E+02  0.53588452028E+02  0.00000000000E+00 0.  1.
          2    1    1    2  502    0 -0.11647882950E+02  0.17915726220E+02  0.18036157345E+03  0.18162308113E+03  0.00000000000E+00 0.  1.
</event>
<event>
 4    1  0.6225520E+003  0.2023500E+02  0.7546771E-02  0.1530473E+00
          2   -1    0    0  502    0  0.00000000000E+00  0.00000000000E+00  0.23952584798E+03  0.23952584798E+03  0.00000000000E+00 0.  1.
          2   -1    0    0  501    0 -0.00000000000E+00 -0.00000000000E+00 -0.11129772079E+03  0.11129772079E+03  0.00000000000E+00 0. -1.
          2    1    1    2  501    0  0.16663316132E+02 -0.11479938434E+02  0.23817354602E+03  0.23903157347E+03  0.00000000000E+00 0.  1.
          2    1    1    2  502    0 -0.16663316132E+02  0.11479938434E+02 -0.10994541883E+03  0.11179199530E+03  0.00000000000E+00 0. -1.
</event>
<event>
 4    1  0.6225520E+003  0.2325349E+02  0.7546771E-02  0.1489339E+00
          2   -1    0    0  501    0  0.00000000000E+00  0.00000000000E+00  0.63674668248E+01  0.63674668248E+01  0.00000000000E+00 0. -1.
          2   -1    0    0  502    0 -0.00000000000E+00 -0.00000000000E+00 -0.64546060810E+03  0.64546060810E+03  0.00000000000E+00 0.  1.
          2    1    1    2  501    0 -0.88565133290E+01 -0.21500855293E+02 -0.62326544126E+03  0.62369907397E+03  0.00000000000E+00 0.  1.
          2    1    1    2  502    0  0.88565133290E+01  0.21500855293E+02 -0.15827700013E+02  0.28129000949E+02  0.00000000000E+00 0. -1.
</event>
<event>
 4    1  0.6225520E+003  0.2119149E+02  0.7546771E-02  0.1516548E+00
          2   -1    0    0  502    0  0.00000000000E+00  0.00000000000E+00  0.71492916678E+00  0.71492916678E+00  0.00000000000E+00 0. -1.
          2   -1    0    0  501    0 -0.00000000000E+00 -0.00000000000E+00 -0.10993746817E+04  0.10993746817E+04  0.00000000000E+00 0. -1.
          2    1    1    2  501    0  0.14633548088E+02  0.15327703170E+02 -0.18921463713E+03  0.19039763159E+03  0.00000000000E+00 0. -1.
          2    1    1    2  502    0 -0.14633548088E+02 -0.15327703170E+02 -0.90944511546E+03  0.90969197932E+03  0.00000000000E+00 0. -1.
</event>
<event>
 4    1  0.6225520E+003  0.3833134E+02  0.7546771E-02  0.1358552E+00
          2   -1    0    0  502    0  0.00000000000E+00  0.00000000000E+00  0.19913199772E+03  0.19913199772E+03  0.00000000000E+00 0.  1.
          2   -1    0    0  501    0 -0.00000000000E+00 -0.00000000000E+00 -0.88933231264E+01  0.88933231264E+01  0.00000000000E+00 0. -1.
          2    1    1    2  501    0 -0.36239033785E+02  0.12490971603E+02  0.52191633913E+02  0.64755375003E+02  0.00000000000E+00 0. -1.
          2    1    1    2  502    0  0.36239033785E+02 -0.12490971603E+02  0.13804704068E+03  0.14326994584E+03  0.00000000000E+00 0.  1.
</event>
<event>
 4    1  0.6225520E+003  0.3254251E+02  0.7546771E-02  0.1398715E+00
          2   -1    0    0  501    0  0.00000000000E+00  0.00000000000E+00  0.10161288533E+04  0.10161288533E+04  0.00000000000E+00 0.  1.
          2   -1    0    0  502    0 -0.00000000000E+00 -0.00000000000E+00 -0.51610745096E+01  0.51610745096E+01  0.00000000000E+00 0.  1.
          2    1    1    2  501    0  0.54481416051E+01 -0.32083218897E+02  0.49302069303E+02  0.59073760836E+02  0.00000000000E+00 0.  1.
          2    1    1    2  502    0 -0.54481416051E+01  0.32083218897E+02  0.96166570951E+03  0.96221616699E+03  0.00000000000E+00 0.  1.
</event>
<event>
 4    1  0.6225520E+003  0.2235104E+02  0.7546771E-02  0.1500812E+00
          2   -1    0    0  501    0  0.00000000000E+00  0.00000000000E+00  0.11846423696E+04  0.11846423696E+04  0.00000000000E+00 0. -1.
          2   -1    0    0  502    0 -0.00000000000E+00 -0.00000000000E+00 -0.18026529985E+02  0.18026529985E+02  0.00000000000E+00 0.  1.
          2    1    1    2  501    0  0.19613070193E+02  0.10718975877E+02 -0.10951233525E+02  0.24889726434E+02  0.00000000000E+00 0.  1.
          2    1    1    2  502    0 -0.19613070193E+02 -0.10718975877E+02  0.11775670731E+04  0.11777791731E+04  0.00000000000E+00 0. -1.
</event>
<event>
 4    1  0.6225520E+003  0.3146887E+02  0.7546771E-02  0.1407247E+00
          2   -1    0    0  501    0  0.00000000000E+00  0.00000000000E+00  0.85253056187E+03  0.85253056187E+03  0.00000000000E+00 0. -1.
          2   -1    0    0  502    0 -0.00000000000E+00 -0.00000000000E+00 -0.24474329155E+01  0.24474329155E+01  0.00000000000E+00 0. -1.
          2    1    1    2  501    0 -0.21266535850E+02 -0.23195343893E+02  0.11518279733E+03  0.11940421402E+03  0.00000000000E+00 0. -1.
          2    1    1    2  502    0  0.21266535850E+02  0.23195343893E+02  0.73490033163E+03  0.73557378077E+03  0.00000000000E+00 0. -1.
</event>
<event>
 4    1  0.6225520E+003  0.2220399E+02  0.7546771E-02  0.1502743E+00
          2   -1    0    0  501    0  0.00000000000E+00  0.00000000000E+00  0.21770899111E+01  0.21770899111E+01  0.00000000000E+00 0.  1.
          2   -1    0    0  502    0 -0.00000000000E+00 -0.00000000000E+00 -0.95988902399E+03  0.95988902399E+03  0.00000000000E+00 0. -1.
          2    1    1    2  501    0  0.22188883166E+02 -0.81900471266E+00 -0.89933499203E+03  0.89960905131E+03  0.00000000000E+00 0. -1.
          2    1    1    2  502    0 -0.22188883166E+02  0.81900471266E+00 -0.58376942054E+02  0.62457062599E+02  0.00000000000E+00 0.  1.
</event>
<event>
 4    1  0.6225520E+003  0.3286732E+02  0.7546771E-02  0.1396210E+00
          2   -1    0    0  502    0  0.00000000000E+00  0.00000000000E+00  0.65771008377E+03  0.65771008377E+03  0.00000000000E+00 0.  1.
          2   -1    0    0  501    0 -0.00000000000E+00 -0.00000000000E+00 -0.29199755398E+01  0.29199755398E+01  0.00000000000E+00 0.  1.
          2    1    1    2  501    0 -0.32796472071E+02  0.21569479508E+01  0.54588034870E+03  0.54686892040E+03  0.00000000000E+00 0.  1.
          2    1    1    2  502    0  0.32796472071E+02 -0.21569479508E+01  0.10890975954E+03  0.11376113892E+03  0.00000000000E+00 0.  1.
</event>
<event>
 4    1  0.6225520E+003  0.3973747E+02  0.7546771E-02  0.1350031E+00
          2   -1    0    0  501    0  0.00000000000E+00  0.00000000000E+00  0.66171813835E+03  0.66171813835E+03  0.00000000000E+00 0.  1.
          2   -1    0    0  502    0 -0.00000000000E+00 -0.00000000000E+00 -0.12248966323E+02  0.12248966323E+02  0.00000000000E+00 0.  1.
          2    1    1    2  501    0 -0.20045739729E+02 -0.34310857422E+02  0.22352633540E+02  0.45592837645E+02  0.00000000000E+00 0.  1.
          2    1    1    2  502    0  0.20045739729E+02  0.34310857422E+02  0.62711653849E+03  0.62837426703E+03  0.00000000000E+00 0.  1.
</event>
<event>
 4    1  0.6225520E+003  0.2022409E+02  0.7546771E-02  0.1530637E+00
          2   -1    0    0  501    0  0.00000000000E+00  0.00000000000E+00  0.54593491559E+02  0.54593491559E+02  0.00000000000E+00 0.  1.
          2   -1    0    0  502    0 -0.00000000000E+00 -0.00000000000E+00 -0.10805161823E+04  0.10805161823E+04  0.00000000000E+00 0.  1.
          2    1    1    2  501    0 -0.19905733161E+02 -0.35742710424E+01 -0.10785451296E+04  0.10787347265E+04  0.00000000000E+00 0.  1.
          2    1    1    2  502    0  0.19905733161E+02  0.35742710424E+01  0.52622438810E+02  0.56374947383E+02  0.00000000000E+00 0.  1.
</event>
<event>
 4    1  0.6225520E+003  0.2085398E+02  0.7546771E-02  0.1521360E+00
          2   -1    0    0  501    0  0.00000000000E+00  0.00000000000E+00  0.15061497751E+01  0.15061497751E+01  0.00000000000E+00 0. -1.
          2   -1    0    0  502    0 -0.00000000000E+00 -0.00000000000E+00 -0.60294696997E+03  0.60294696997E+03  0.00000000000E+00 0. -1.
          2    1    1    2  501    0 -0.79757205135E+01  0.19268529272E+02 -0.51889278530E+03  0.51931167036E+03  0.00000000000E+00 0. -1.
          2    1    1    2  502    0  0.79757205135E+01 -0.19268529272E+02 -0.82548034894E+02  0.85141449382E+02  0.00000000000E+00 0. -1.
</event>
<event>
 4    1  0.6225520E+003  0.2129592E+02  0.7546771E-02  0.1515082E+00
          2   -1    0    0  502    0  0.00000000000E+00  0.00000000000E+00  0.60030662081E+01  0.60030662081E+01  0.00000000000E+00 0.  1.
          2   -1    0    0  501    0 -0.00000000000E+00 -0.00000000000E+00 -0.14647827552E+03  0.14647827552E+03  0.00000000000E+00 0.  1.
          2    1    1    2  501    0 -0.20535488444E+02  0.56400140814E+01 -0.17183650233E+02  0.27364098374E+02  0.00000000000E+00 0.  1.
          2    1    1    2  502    0  0.20535488444E+02 -0.56400140814E+01 -0.12329155908E+03  0.12511724336E+03  0.00000000000E+00 0.  1.
</event>
<event>
 4    1  0.6225520E+003  0.3891512E+02  0.7546771E-02  0.1354963E+00
          2   -1    0    0  502    0  0.00000000000E+00  0.00000000000E+00  0.66272266648E+00  0.66272266648E+00  0.00000000000E+00 0. -1.
          2   -1    0    0  501    0 -0.00000000000E+00 -0.00000000000E+00 -0.24470640528E+04  0.24470640528E+04  0.00000000000E+00 0. -1.
          2    1    1    2  501    0  0.14989350301E+02  0.35912472604E+02 -0.90833730241E+03  0.90917052375E+03  0.00000000000E+00 0. -1.
          2    1    1    2  502    0 -0.14989350301E+02 -0.35912472604E+02 -0.15380640277E+04  0.15385562517E+04  0.00000000000E+00 0. -1.
</event>
<event>
 4    1  0.6225520E+003  0.2704469E+02  0.7546771E-02  0.1447160E+00
          2   -1    0    0  501    0  0.00000000000E+00  0.00000000000E+00  0.15200795252E+02  0.15200795252E+02  0.00000000000E+00 0. -1.
          2   -1    0    0  502    0 -0.00000000000E+00 -0.00000000000E+00 -0.45100332850E+03  0.45100332850E+03  0.00000000000E+00 0. -1.
          2    1    1    2  501    0 -0.26327534311E+02 -0.61867747453E+01 -0.43821803720E+03  0.43905177755E+03  0.00000000000E+00 0. -1.
          2    1    1    2  502    0  0.26327534311E+02  0.61867747453E+01  0.24155039551E+01  0.27152346197E+02  0.00000000000E+00 0. -1.
</event>
<event>
 4    1  0.6225520E+003  0.2185707E+02  0.7546771E-02  0.1507371E+00
          2   -1    0    0  502    0  0.00000000000E+00  0.00000000000E+00  0.14813170525E+03  0.14813170525E+03  0.00000000000E+00 0. -1.
          2   -1    0    0  501    0 -0.00000000000E+00 -0.00000000000E+00 -0.25410086113E+03  0.25410086113E+03  0.00000000000E+00 0.  1.
          2    1    1    2  501    0 -0.21835966923E+02 -0.96024419336E+00  0.14685134672E+03  0.14846901884E+03  0.00000000000E+00 0. -1.
          2    1    1    2  502    0  0.21835966923E+02  0.96024419336E+00 -0.25282050260E+03  0.25376354753E+03  0.00000000000E+00 0.  1.
</event>
<event>
 4    1  0.6225520E+003  0.2024799E+02  0.7546771E-02  0.1530278E+00
          2   -1    0    0  502    0  0.00000000000E+00  0.00000000000E+00  0.43772853637E+00  0.43772853637E+00  0.00000000000E+00 0. -1.
          2   -1    0    0  501    0 -0.00000000000E+00 -0.00000000000E+00 -0.14446645892E+04  0.14446645892E+04  0.00000000000E+00 0. -1.
          2    1    1    2  501    0 -0.29869881071E+00  0.20245790144E+02 -0.29362414189E+03  0.29432145341E+03  0.00000000000E+00 0. -1.
          2    1    1    2  502    0  0.29869881071E+00 -0.20245790144E+02 -0.11506027187E+04  0.11507808643E+04  0.00000000000E+00 0. -1.
</event>
<event>
 4    1  0.6225520E+003  0.2060089E+02  0.7546771E-02  0.1525040E+00
          2   -1    0    0  502    0  0.00000000000E+00  0.00000000000E+00  0.16701887554E+02  0.16701887554E+02  0.00000000000E+00 0.  1.
          2   -1    0    0  501    0 -0.00000000000E+00 -0.00000000000E+00 -0.18229343766E+03  0.18229343766E+03  0.00000000000E+00 0. -1.
          2    1    1    2  501    0  0.19678408892E+02  0.60956454132E+01  0.95072146550E+01  0.22688847481E+02  0.00000000000E+00 0.  1.
          2    1    1    2  502    0 -0.19678408892E+02 -0.60956454132E+01 -0.17509876476E+03  0.17630647773E+03  0.00000000000E+00 0. -1.
</event>
<event>
 4    1  0.6225520E+003  0.2805015E+02  0.7546771E-02  0.1437335E+00
          2   -1    0    0  501    0  0.00000000000E+00  0.00000000000E+00  0.18653914166E+02  0.18653914166E+02  0.00000000000E+00 0.  1.
          2   -1    0    0  502    0 -0.00000000000E+00 -0.00000000000E+00 -0.16422083034E+03  0.16422083034E+03  0.00000000000E+00 0. -1.
          2    1    1    2  501    0 -0.17628380890E+02 -0.21818599418E+02 -0.15160832417E+03  0.15418137064E+03  0.00000000000E+00 0. -1.
          2    1    1    2  502    0  0.17628380890E+02  0.21818599418E+02  0.60414079985E+01  0.28693373869E+02  0.00000000000E+00 0.  1.
</event>
<event>
 4    1  0.6225520E+003  0.7578047E+02  0.7546771E-02  0.1213997E+00
          2   -1    0    0  501    0  0.00000000000E+00  0.00000000000E+00  0.17771352779E+02  0.17771352779E+02  0.00000000000E+00 0. -1.
          2   -1    0    0  502    0 -0.00000000000E+00 -0.00000000000E+00 -0.46989549479E+03  0.46989549479E+03  0.00000000000E+00 0.  1.
          2    1    1    2  501    0  0.66169785127E+02  0.36935613449E+02 -0.36232760716E+03  0.37016749576E+03  0.00000000000E+00 0.  1.
          2    1    1    2  502    0 -0.66169785127E+02 -0.36935613449E+02 -0.89796534848E+02  0.11749935181E+03  0.00000000000E+00 0. -1.
</event>
<event>
 4    1  0.6225520E+003  0.2363551E+02  0.7546771E-02  0.1484669E+00
          2   -1    0    0  501    0  0.00000000000E+00  0.00000000000E+00  0.38583885922E+01  0.38583885922E+01  0.00000000000E+00 0.  1.
          2   -1    0    0  502    0 -0.00000000000E+00 -0.00000000000E+00 -0.16226202897E+03  0.16226202897E+03  0.00000000000E+00 0.  1.
          2    1    1    2  501    0 -0.16296460708E+02 -0.17119067658E+02 -0.10646128659E+03  0.10905339358E+03  0.00000000000E+00 0.  1.
          2    1    1    2  502    0  0.16296460708E+02  0.17119067658E+02 -0.51942353789E+02  0.57067023982E+02  0.00000000000E+00 0.  1.
</event>
<event>
 4    1  0.6225520E+003  0.2430278E+02  0.7546771E-02  0.1476756E+00
          2   -1    0    0  501    0  0.00000000000E+00  0.00000000000E+00  0.16051926882E+03  0.16051926882E+03  0.00000000000E+00 0.  1.
          2   -1    0    0  502    0 -0.00000000000E+00 -0.00000000000E+00 -0.74197484469E+01  0.74197484469E+01  0.00000000000E+00 0. -1.
          2    1    1    2  501    0 -0.11214548591E+02 -0.21560594235E+02  0.16931517182E+02  0.29619277472E+02  0.00000000000E+00 0. -1.
          2    1    1    2  502    0  0.11214548591E+02  0.21560594235E+02  0.13616800319E+03  0.13831973979E+03  0.00000000000E+00 0.  1.
</event>
<event>
 4    1  0.6225520E+003  0.3393542E+02  0.7546771E-02  0.1388206E+00
          2   -1    0    0  502    0  0.00000000000E+00  0.00000000000E+00  0.82244052551E+03  0.82244052551E+03  0.00000000000E+00 0. -1.
          2   -1    0    0  501    0 -0.00000000000E+00 -0.00000000000E+00 -0.38327678798E+02  0.38327678798E+02  0.00000000000E+00 0. -1.
          2    1    1    2  501    0 -0.30839857905E+02 -0.14160353179E+02  0.81450569636E+03  0.81521232930E+03  0.00000000000E+00 0. -1.
          2    1    1    2  502    0  0.30839857905E+02  0.14160353179E+02 -0.30392849650E+02  0.45555875007E+02  0.00000000000E+00 0. -1.
</event>
<event>
 4    1  0.6225520E+003  0.2030035E+02  0.7546771E-02  0.1529493E+00
          2   -1    0    0  501    0  0.00000000000E+00  0.00000000000E+00  0.10262812159E+01  0.10262812159E+01  0.00000000000E+00 0. -1.
          2   -1    0    0  502    0 -0.00000000000E+00 -0.00000000000E+00 -0.67614836127E+03  0.67614836127E+03  0.00000000000E+00 0. -1.
          2    1    1    2  501    0  0.18488384329E+02  0.83835514817E+01 -0.55333440727E+03  0.55370666472E+03  0.00000000000E+00 0. -1.
          2    1    1    2  502    0 -0.18488384329E+02 -0.83835514817E+01 -0.12178767278E+03  0.12346797776E+03  0.00000000000E+00 0. -1.
</event>
<event>
 4    1  0.6225520E+003  0.2831859E+02  0.7546771E-02  0.1434794E+00
          2   -1    0    0  502    0  0.00000000000E+00  0.00000000000E+00  0.65315422146E+00  0.65315422146E+00  0.00000000000E+00 0. -1.
          2   -1    0    0  501    0 -0.00000000000E+00 -0.00000000000E+00 -0.15468376701E+04  0.15468376701E+04  0.00000000000E+00 0.  1.
          2    1    1    2  501    0 -0.76984004008E+01  0.27252108887E+02 -0.42169639607E+03  0.42264617976E+03  0.00000000000E+00 0. -1.
          2    1    1    2  502    0  0.76984004008E+01 -0.27252108887E+02 -0.11244881198E+04  0.11248446446E+04  0.00000000000E+00 0.  1.
</event>
<event>
 4    1  0.6225520E+003  0.2974337E+02  0.7546771E-02  0.1421840E+00
          2   -1    0    0  501    0  0.00000000000E+00  0.00000000000E+00  0.37261484173E+02  0.37261484173E+02  0.00000000000E+00 0. -1.
          2   -1    0    0  502    0 -0.00000000000E+00 -0.00000000000E+00 -0.25952077237E+03  0.25952077237E+03  0.00000000000E+00 0. -1.
          2    1    1    2  501    0  0.22325635932E+02 -0.19652843709E+02 -0.25257023889E+03  0.25431553995E+03  0.00000000000E+00 0. -1.
          2    1    1    2  502    0 -0.22325635932E+02  0.19652843709E+02  0.30310950699E+02  0.42466716589E+02  0.00000000000E+00 0. -1.
</event>
<event>
 4    1  0.6225520E+003  0.2359677E+02  0.7546771E-02  0.1485137E+00
          2   -1    0    0  502    0  0.00000000000E+00  0.00000000000E+00  0.14584055873E+02  0.14584055873E+02  0.00000000000E+00 0.  1.
          2   -1    0    0  501    0 -0.00000000000E+00 -0.00000000000E+00 -0.61078451258E+03  0.61078451258E+03  0.00000000000E+00 0. -1.
          2    1    1    2  501    0 -0.59646612261E+01  0.22830466598E+02  0.46536653540E+01  0.24051278342E+02  0.00000000000E+00 0.  1.
          2    1    1    2  502    0  0.59646612261E+01 -0.22830466598E+02 -0.60085412206E+03  0.60131729011E+03  0.00000000000E+00 0. -1.
</event>
<event>
 4    1  0.6225520E+003  0.2931331E+02  0.7546771E-02  0.1425659E+00
          2   -1    0    0  502    0  0.00000000000E+00  0.00000000000E+00  0.96550289228E+03  0.96550289228E+03  0.00000000000E+00 0. -1.
          2   -1    0    0  501    0 -0.00000000000E+00 -0.00000000000E+00 -0.12116902850E+02  0.12116902850E+02  0.00000000000E+00 0. -1.
          2    1    1    2  501    0 -0.29106481882E+02  0.34760663582E+01  0.94720933056E+03  0.94766280196E+03  0.00000000000E+00 0. -1.
          2    1    1    2  502    0  0.29106481882E+02 -0.34760663582E+01  0.61766588708E+01  0.29956993169E+02  0.00000000000E+00 0. -1.
</event>
<event>
 4    1  0.6225520E+003  0.2824383E+02  0.7546771E-02  0.1435498E+00
          2   -1    0    0  502    0  0.00000000000E+00  0.00000000000E+00  0.12027396414E+01  0.12027396414E+01  0.00000000000E+00 0.  1.
          2   -1    0    0  501    0 -0.00000000000E+00 -0.00000000000E+00 -0.75035872827E+03  0.75035872827E+03  0.00000000000E+00 0. -1.
          2    1    1    2  501    0 -0.86781226241E+01  0.26877581094E+02 -0.24654058849E+03  0.24815313004E+03  0.00000000000E+00 0.  1.
          2    1    1    2  502    0  0.86781226241E+01 -0.26877581094E+02 -0.50261540014E+03  0.50340833787E+03  0.00000000000E+00 0. -1.
</event>
<event>
 4    1  0.6225520E+003  0.4078268E+02  0.7546771E-02  0.1343959E+00
          2   -1    0    0  502    0  0.00000000000E+00  0.00000000000E+00  0.47643040656E+01  0.47643040656E+01  0.00000000000E+00 0. -1.
          2   -1    0    0  501    0 -0.00000000000E+00 -0.00000000000E+00 -0.34927836458E+03  0.34927836458E+03  0.00000000000E+00 0.  1.
          2    1    1    2  501    0 -0.29215936840E+02 -0.28454449079E+02 -0.17623826034E+03  0.18089541466E+03  0.00000000000E+00 0.  1.
          2    1    1    2  502    0  0.29215936840E+02  0.28454449079E+02 -0.16827580017E+03  0.17314725398E+03  0.00000000000E+00 0. -1.
</event>
<event>
 4    1  0.6225520E+003  0.2391935E+02  0.7546771E-02  0.1481266E+00
          2   -1    0    0  502    0  0.00000000000E+00  0.00000000000E+00  0.10170505592E+03  0.10170505592E+03  0.00000000000E+00 0. -1.
          2   -1    0    0  501    0 -0.00000000000E+00 -0.00000000000E+00 -0.10362420129E+03  0.10362420129E+03  0.00000000000E+00 0.  1.
          2    1    1    2  501    0  0.12727277917E+02 -0.20252203061E+02  0.98879501069E+02  0.10173146546E+03  0.00000000000E+00 0. -1.
          2    1    1    2  502    0 -0.12727277917E+02  0.20252203061E+02 -0.10079864644E+03  0.10359779175E+03  0.00000000000E+00 0.  1.
</event>
<event>
 4    1  0.6225520E+003  0.3099084E+02  0.7546771E-02  0.1411177E+00
          2   -1    0    0  501    0  0.00000000000E+00  0.00000000000E+00  0.14199417427E+04  0.14199417427E+04  0.00000000000E+00 0. -1.
          2   -1    0    0  502    0 -0.00000000000E+00 -0.00000000000E+00 -0.46862421497E+01  0.46862421497E+01  0.00000000000E+00 0. -1.
          2    1    1    2  501    0  0.88221232653E+01 -0.29708626910E+02  0.48721890817E+02  0.57743008378E+02  0.00000000000E+00 0. -1.
          2    1    1    2  502    0 -0.88221232653E+01  0.29708626910E+02  0.13665336097E+04  0.13668849765E+04  0.00000000000E+00 0. -1.
</event>
<event>
 4    1  0.6225520E+003  0.2823497E+02  0.7546771E-02  0.1435582E+00
          2   -1    0    0  501    0  0.00000000000E+00  0.00000000000E+00  0.16528769704E+03  0.16528769704E+03  0.00000000000E+00 0.  1.
          2   -1    0    0  502    0 -0.00000000000E+00 -0.00000000000E+00 -0.11915307240E+02  0.11915307240E+02  0.00000000000E+00 0. -1.
          2    1    1    2  501    0  0.45042899074E+01  0.27873376670E+02  0.83302242077E+01  0.29438179120E+02  0.00000000000E+00 0. -1.
          2    1    1    2  502    0 -0.45042899074E+01 -0.27873376670E+02  0.14504216559E+03  0.14776482516E+03  0.00000000000E+00 0.  1.
</event>
<event>
 4    1  0.6225520E+003  0.5604234E+02  0.7546771E-02  0.1273906E+00
          2   -1    0    0  502    0  0.00000000000E+00  0.00000000000E+00  0.28324425972E+03  0.28324425972E+03  0.00000000000E+00 0.  1.
          2   -1    0    0  501    0 -0.00000000000E+00 -0.00000000000E+00 -0.14126930587E+04  0.14126930587E+04  0.00000000000E+00 0.  1.
          2    1    1    2  501    0  0.39909603514E+02  0.39344210875E+02  0.27990978014E+03  0.28546493375E+03  0.00000000000E+00 0.  1.
          2    1    1    2  502    0 -0.39909603514E+02 -0.39344210875E+02 -0.14093585791E+04  0.14104723847E+04  0.00000000000E+00 0.  1.
</event>
<event>
 4    1  0.6225520E+003  0.2017680E+02  0.7546771E-02  0.1531350E+00
          2   -1    0    0  502    0  0.00000000000E+00  0.00000000000E+00  0.72372314267E+03  0.72372314267E+03  0.00000000000E+00 0. -1.
          2   -1    0    0  501    0 -0.00000000000E+00 -0.00000000000E+00 -0.65261032928E+02  0.65261032928E+02  0.00000000000E+00 0.  1.
          2    1    1    2  501    0  0.19977289780E+02  0.28304237874E+01  0.72201931560E+03  0.72230118060E+03  0.00000000000E+00 0. -1.
          2    1    1    2  502    0 -0.19977289780E+02 -0.28304237874E+01 -0.63557205854E+02  0.66682994997E+02  0.00000000000E+00 0.  1.
</event>
<event>
 4    1  0.6225520E+003  0.2950086E+02  0.7546771E-02  0.1423984E+00
          2   -1    0    0  502    0  0.00000000000E+00  0.00000000000E+00  0.16599230920E+02  0.16599230920E+02  0.00000000000E+00 0.  1.
          2   -1    0    0  501    0 -0.00000000000E+00 -0.00000000000E+00 -0.17794867183E+03  0.17794867183E+03  0.00000000000E+00 0. -1.
          2    1    1    2  501    0 -0.81274189247E-01 -0.29500749689E+02  0.10216985388E+01  0.29518548501E+02  0.00000000000E+00 0.  1.
          2    1    1    2  502    0  0.81274189247E-01  0.29500749689E+02 -0.16237113945E+03  0.16502935425E+03  0.00000000000E+00 0. -1.
</event>
<event>
 4    1  0.6225520E+003  0.4163338E+02  0.7546771E-02  0.1339171E+00
          2   -1    0    0  502    0  0.00000000000E+00  0.00000000000E+00  0.42893405988E+01  0.42893405988E+01  0.00000000000E+00 0.  1.
          2   -1    0    0  501    0 -0.00000000000E+00 -0.00000000000E+00 -0.97561472889E+03  0.97561472889E+03  0.00000000000E+00 0.  1.
          2    1    1    2  501    0 -0.40242472742E+02 -0.10671532316E+02 -0.11066662408E+03  0.11823891026E+03  0.00000000000E+00 0.  1.
          2    1    1    2  502    0  0.40242472742E+02  0.10671532316E+02 -0.86065876421E+03  0.86166515923E+03  0.00000000000E+00 0.  1.
</event>
<event>
 4    1  0.6225520E+003  0.2425309E+02  0.7546771E-02  0.1477335E+00
          2   -1    0    0  501    0  0.00000000000E+00  0.00000000000E+00  0.32280449856E+02  0.32280449856E+02  0.00000000000E+00 0. -1.
          2   -1    0    0  502    0 -0.00000000000E+00 -0.00000000000E+00 -0.52598716260E+03  0.52598716260E+03  0.00000000000E+00 0.  1.
          2    1    1    2  501    0 -0.13329966707E+02 -0.20261399185E+02 -0.52110948598E+03  0.52167356526E+03  0.00000000000E+00 0.  1.
          2    1    1    2  502    0  0.13329966707E+02  0.20261399185E+02  0.27402773236E+02  0.36594047199E+02  0.00000000000E+00 0. -1.
</event>
<event>
 4    1  0.6225520E+003  0.2267697E+02  0.7546771E-02  0.1496595E+00
          2   -1    0    0  501    0  0.00000000000E+00  0.00000000000E+00  0.26073202543E+01  0.26073202543E+01  0.00000000000E+00 0.  1.
          2   -1    0    0  502    0 -0.00000000000E+00 -0.00000000000E+00 -0.13217349382E+04  0.13217349382E+04  0.00000000000E+00 0.  1.
          2    1    1    2  501    0 -0.22369822639E+02 -0.37196857066E+01 -0.12703349368E+04  0.12705373259E+04  0.00000000000E+00 0.  1.
          2    1    1    2  502    0  0.22369822639E+02  0.37196857066E+01 -0.48792681177E+02  0.53804932516E+02  0.00000000000E+00 0.  1.
</event>
<event>
 4    1  0.6225520E+003  0.2592286E+02  0.7546771E-02  0.1458739E+00
          2   -1    0    0  501    0  0.00000000000E+00  0.00000000000E+00  0.19393568872E+04  0.19393568872E+04  0.00000000000E+00 0. -1.
          2   -1    0    0  502    0 -0.00000000000E+00 -0.00000000000E+00 -0.10026403149E+02  0.10026403149E+02  0.00000000000E+00 0.  1.
          2    1    1    2  501    0  0.23201033859E+02  0.11563166532E+02  0.69639360712E+01  0.26841967104E+02  0.00000000000E+00 0.  1.
          2    1    1    2  502    0 -0.23201033859E+02 -0.11563166532E+02  0.19223665480E+04  0.19225413233E+04  0.00000000000E+00 0. -1.
</event>
<event>
 4    1  0.6225520E+003  0.2985466E+02  0.7546771E-02  0.1420864E+00
          2   -1    0    0  502    0  0.00000000000E+00  0.00000000000E+00  0.65457988613E+03  0.65457988613E+03  0.00000000000E+00 0. -1.
          2   -1    0    0  501    0 -0.00000000000E+00 -0.00000000000E+00 -0.33740973115E+03  0.33740973115E+03  0.00000000000E+00 0. -1.
          2    1    1    2  501    0 -0.18521399396E+02 -0.23414925518E+02  0.65357806526E+03  0.65425957262E+03  0.00000000000E+00 0. -1.
          2    1    1    2  502    0  0.18521399396E+02  0.23414925518E+02 -0.33640791027E+03  0.33773004466E+03  0.00000000000E+00 0. -1.
</event>
<event>
 4    1  0.6225520E+003  0.2177059E+02  0.7546771E-02  0.1508541E+00
          2   -1    0    0  501    0  0.00000000000E+00  0.00000000000E+00  0.35713645061E+00  0.35713645061E+00  0.00000000000E+00 0.  1.
          2   -1    0    0  502    0 -0.00000000000E+00 -0.00000000000E+00 -0.13370672595E+04  0.13370672595E+04  0.00000000000E+00 0.  1.
          2    1    1    2  501    0 -0.17942312056E+02  0.12330118419E+02 -0.61063963275E+03  0.61102759305E+03  0.00000000000E+00 0.  1.
          2    1    1    2  502    0  0.17942312056E+02 -0.12330118419E+02 -0.72607049025E+03  0.72639680285E+03  0.00000000000E+00 0.  1.
</event>
<event>
 4    1  0.6225520E+003  0.2407369E+02  0.7546771E-02  0.1479439E+00
          2   -1    0    0  502    0  0.00000000000E+00  0.00000000000E+00  0.61494016305E+03  0.61494016305E+03  0.00000000000E+00 0. -1.
          2   -1    0    0  501    0 -0.00000000000E+00 -0.00000000000E+00 -0.67321295975E+01  0.67321295975E+01  0.00000000000E+00 0. -1.
          2    1    1    2  501    0  0.13110082560E+02  0.20190797108E+02  0.59236311472E+03  0.59285209136E+03  0.00000000000E+00 0. -1.
          2    1    1    2  502    0 -0.13110082560E+02 -0.20190797108E+02  0.15844918739E+02  0.28820201291E+02  0.00000000000E+00 0. -1.
</event>
<event>
 4    1  0.6225520E+003  0.4774313E+02  0.7546771E-02  0.1308266E+00
          2   -1    0    0  502    0  0.00000000000E+00  0.00000000000E+00  0.22881352443E+03  0.22881352443E+03  0.00000000000E+00 0.  1.
          2   -1    0    0  501    0 -0.00000000000E+00 -0.00000000000E+00 -0.38229261858E+03  0.38229261858E+03  0.00000000000E+00 0.  1.
          2    1    1    2  501    0 -0.46403004368E+02 -0.11232432350E+02  0.22480616687E+03  0.22981997088E+03  0.00000000000E+00 0.  1.
          2    1    1    2  502    0  0.46403004368E+02  0.11232432350E+02 -0.37828526102E+03  0.38128617213E+03  0.00000000000E+00 0.  1.
</event>
<event>
 4    1  0.6225520E+003  0.3113454E+02  0.7546771E-02  0.1409987E+00
          2   -1    0    0  502    0  0.00000000000E+00  0.00000000000E+00  0.13402237055E+04  0.13402237055E+04  0.00000000000E+00 0.  1.
          2   -1    0    0  501    0 -0.00000000000E+00 -0.00000000000E+00 -0.11383266529E+01  0.11383266529E+01  0.00000000000E+00 0.  1.
          2    1    1    2  501    0 -0.31041932692E+02  0.23995979636E+01  0.10745193391E+04  0.10749703111E+04  0.00000000000E+00 0.  1.
          2    1    1    2  502    0  0.31041932692E+02 -0.23995979636E+01  0.26456603970E+03  0.26639172100E+03  0.00000000000E+00 0.  1.
</event>
<event>
 4    1  0.6225520E+003  0.2125320E+02  0.7546771E-02  0.1515680E+00
          2   -1    0    0  501    0  0.00000000000E+00  0.00000000000E+00  0.46598562493E+02  0.46598562493E+02  0.00000000000E+00 0.  1.
          2   -1    0    0  502    0 -0.00000000000E+00 -0.00000000000E+00 -0.54489957546E+03  0.54489957546E+03  0.00000000000E+00 0.  1.
          2    1    1    2  501    0 -0.18959296498E+02  0.96043526323E+01 -0.54225718174E+03  0.54267352032E+03  0.00000000000E+00 0.  1.
          2    1    1    2  502    0  0.18959296498E+02 -0.96043526323E+01  0.43956168773E+02  0.48824617627E+02  0.00000000000E+00 0.  1.
</event>
<event>
 4    1  0.6225520E+003  0.2336243E+02  0.7546771E-02  0.1487997E+00
          2   -1    0    0  502    0  0.00000000000E+00  0.00000000000E+00  0.21189425610E+03  0.21189425610E+03  0.00000000000E+00 0. -1.
          2   -1    0    0  501    0 -0.00000000000E+00 -0.00000000000E+00 -0.26002958797E+01  0.26002958797E+01  0.00000000000E+00 0.  1.
          2    1    1    2  501    0 -0.22415811079E+02  0.65828854846E+01  0.11505051729E+03  0.11739857110E+03  0.00000000000E+00 0. -1.
          2    1    1    2  502    0  0.22415811079E+02 -0.65828854846E+01  0.94243442939E+02  0.97095980889E+02  0.00000000000E+00 0.  1.
</event>
<event>
 4    1  0.6225520E+003  0.2101903E+02  0.7546771E-02  0.1518993E+00
          2   -1    0    0  502    0  0.00000000000E+00  0.00000000000E+00  0.67118445598E+01  0.67118445598E+01  0.00000000000E+00 0. -1.
          2   -1    0    0  501    0 -0.00000000000E+00 -0.00000000000E+00 -0.11876457056E+04  0.11876457056E+04  0.00000000000E+00 0. -1.
          2    1    1    2  501    0 -0.19746668122E+02  0.72019928296E+01 -0.10073007877E+02  0.23308047759E+02  0.00000000000E+00 0. -1.
          2    1    1    2  502    0  0.19746668122E+02 -0.72019928296E+01 -0.11708608531E+04  0.11710495024E+04  0.00000000000E+00 0. -1.
</event>
<event>
 4    1  0.6225520E+003  0.5498818E+02  0.7546771E-02  0.1277882E+00
          2   -1    0    0  501    0  0.00000000000E+00  0.00000000000E+00  0.12486230745E+04  0.12486230745E+04  0.00000000000E+00 0. -1.
          2   -1    0    0  502    0 -0.00000000000E+00 -0.00000000000E+00 -0.16359083075E+03  0.16359083075E+03  0.00000000000E+00 0.  1.
          2    1    1    2  501    0  0.10223481194E+02 -0.54029440447E+02 -0.15834511101E+03  0.16762122236E+03  0.00000000000E+00 0.  1.
          2    1    1    2  502    0 -0.10223481194E+02  0.54029440447E+02  0.12433773547E+04  0.12445926829E+04  0.00000000000E+00 0. -1.
</event>
<event>
 4    1  0.6225520E+003  0.2015106E+02  0.7546771E-02  0.1531739E+00
          2   -1    0    0  501    0  0.00000000000E+00  0.00000000000E+00  0.81554149237E+03  0.81554149237E+03  0.00000000000E+00 0.  1.
          2   -1    0    0  502    0 -0.00000000000E+00 -0.00000000000E+00 -0.15156788106E+03  0.15156788106E+03  0.00000000000E+00 0.  1.
          2    1    1    2  501    0  0.17738390397E+02  0.95610964412E+01 -0.15077297631E+03  0.15211362675E+03  0.00000000000E+00 0.  1.
          2    1    1    2  502    0 -0.17738390397E+02 -0.95610964412E+01  0.81474658762E+03  0.81499574667E+03  0.00000000000E+00 0.  1.
</event>
<event>
 4    1  0.6225520E+003  0.4195462E+02  0.7546771E-02  0.1337397E+00
          2   -1    0    0  502    0  0.00000000000E+00  0.00000000000E+00  0.24963740751E+04  0.24963740751E+04  0.00000000000E+00 0. -1.
          2   -1    0    0  501    0 -0.00000000000E+00 -0.00000000000E+00 -0.84312355425E+00  0.84312355425E+00  0.00000000000E+00 0. -1.
          2    1    1    2  501    0  0.17730273103E+02 -0.38024034607E+02  0.17529610795E+04  0.17534630695E+04  0.00000000000E+00 0. -1.
          2    1    1    2  502    0 -0.17730273103E+02  0.38024034607E+02  0.74256987203E+03  0.74375412916E+03  0.00000000000E+00 0. -1.
</event>
<event>
 4    1  0.6225520E+003  0.2305786E+02  0.7546771E-02  0.1491773E+00
          2   -1    0    0  501    0  0.00000000000E+00  0.00000000000E+00  0.91464676962E+00  0.91464676962E+00  0.00000000000E+00 0.  1.
          2   -1    0    0  502    0 -0.00000000000E+00 -0.00000000000E+00 -0.97905229555E+03  0.97905229555E+03  0.00000000000E+00 0. -1.
          2    1    1    2  501    0 -0.20271177677E+02  0.10988371843E+02 -0.80138630769E+03  0.80171795484E+03  0.00000000000E+00 0. -1.
          2    1    1    2  502    0  0.20271177677E+02 -0.10988371843E+02 -0.17675134110E+03  0.17824898749E+03  0.00000000000E+00 0.  1.
</event>
<event>
 4    1  0.6225520E+003  0.2930921E+02  0.7546771E-02  0.1425696E+00
          2   -1    0    0  502    0  0.00000000000E+00  0.00000000000E+00  0.12997994804E+02  0.12997994804E+02  0.00000000000E+00 0. -1.
          2   -1    0    0  501    0 -0.00000000000E+00 -0.00000000000E+00 -0.12849044357E+04  0.12849044357E+04  0.00000000000E+00 0. -1.
          2    1    1    2  501    0  0.91016654486E+01 -0.27860181423E+02 -0.39118112319E+01  0.29569110402E+02  0.00000000000E+00 0. -1.
          2    1    1    2  502    0 -0.91016654486E+01  0.27860181423E+02 -0.12679946297E+04  0.12683333201E+04  0.00000000000E+00 0. -1.
</event>
<event>
 4    1  0.6225520E+003  0.2308600E+02  0.7546771E-02  0.1491421E+00
          2   -1    0    0  501    0  0.00000000000E+00  0.00000000000E+00  0.28666696366E+03  0.28666696366E+03  0.00000000000E+00 0.  1.
          2   -1    0    0  502    0 -0.00000000000E+00 -0.00000000000E+00 -0.71118655665E+02  0.71118655665E+02  0.00000000000E+00 0.  1.
          2    1    1    2  501    0  0.16843516815E+01  0.23024470482E+02 -0.68764877427E+02  0.72536691744E+02  0.00000000000E+00 0.  1.
          2    1    1    2  502    0 -0.16843516815E+01 -0.23024470482E+02  0.28431318543E+03  0.28524892759E+03  0.00000000000E+00 0.  1.
</event>
<event>
 4    1  0.6225520E+003  0.2747502E+02  0.7546771E-02  0.1442894E+00
          2   -1    0    0  502    0  0.00000000000E+00  0.00000000000E+00  0.87402806293E+02  0.87402806293E+02  0.00000000000E+00 0. -1.
          2   -1    0    0  501    0 -0.00000000000E+00 -0.00000000000E+00 -0.10970320738E+03  0.10970320738E+03  0.00000000000E+00 0.  1.
          2    1    1    2  501    0  0.45794914953E+01 -0.27090681460E+02  0.83443828498E+02  0.87850721560E+02  0.00000000000E+00 0. -1.
          2    1    1    2  502    0 -0.45794914953E+01  0.27090681460E+02 -0.10574422959E+03  0.10925529212E+03  0.00000000000E+00 0.  1.
</event>
<event>
 4    1  0.6225520E+003  0.2357253E+02  0.7546771E-02  0.1485431E+00
          2   -1    0    0  502    0  0.00000000000E+00  0.00000000000E+00  0.51686973261E+03  0.51686973261E+03  0.00000000000E+00 0.  1.
          2   -1    0    0  501    0 -0.00000000000E+00 -0.00000000000E+00 -0.79024847348E+02  0.79024847348E+02  0.00000000000E+00 0. -1.
          2    1    1    2  501    0  0.30199294976E+01  0.23378286322E+02  0.51483615027E+03  0.51537551928E+03  0.00000000000E+00 0.  1.
          2    1    1    2  502    0 -0.30199294976E+01 -0.23378286322E+02 -0.76991265007E+02  0.80519060681E+02  0.00000000000E+00 0. -1.
</event>
<event>
 4    1  0.6225520E+003  0.2491670E+02  0.7546771E-02  0.1469737E+00
          2   -1    0    0  501    0  0.00000000000E+00  0.00000000000E+00  0.23358626905E+03  0.23358626905E+03  0.00000000000E+00 0.  1.
          2   -1    0    0  502    0 -0.00000000000E+00 -0.00000000000E+00 -0.56896436625E+03  0.56896436625E+03  0.00000000000E+00 0. -1.
          2    1    1    2  501    0 -0.13674161777E+01 -0.24879149470E+02 -0.56802600691E+03  0.56857223502E+03  0.00000000000E+00 0. -1.
          2    1    1    2  502    0  0.13674161777E+01  0.24879149470E+02  0.23264790971E+03  0.23397840028E+03  0.00000000000E+00 0.  1.
</event>
<event>
 4    1  0.6225520E+003  0.2004971E+02  0.7546771E-02  0.1533277E+00
          2   -1    0    0  502    0  0.00000000000E+00  0.00000000000E+00  0.66704263956E+02  0.66704263956E+02  0.00000000000E+00 0.  1.
          2   -1    0    0  501    0 -0.00000000000E+00 -0.00000000000E+00 -0.63439429955E+01  0.63439429955E+01  0.00000000000E+00 0.  1.
          2    1    1    2  501    0  0.86093215084E+01  0.18107194206E+02  0.38350815593E+02  0.43275581516E+02  0.00000000000E+00 0.  1.
          2    1    1    2  502    0 -0.86093215084E+01 -0.18107194206E+02  0.22009505368E+02  0.29772625436E+02  0.00000000000E+00 0.  1.
</event>
<event>
 4    1  0.6225520E+003  0.5338258E+02  0.7546771E-02  0.1284137E+00
          2   -1    0    0  502    0  0.00000000000E+00  0.00000000000E+00  0.46990427423E+03  0.46990427423E+03  0.00000000000E+00 0.  1.
          2   -1    0    0  501    0 -0.00000000000E+00 -0.00000000000E+00 -0.63906459048E+01  0.63906459048E+01  0.00000000000E+00 0.  1.
          2    1    1    2  501    0  0.46475523680E+02  0.26262626942E+02  0.28556254739E+03  0.29050932575E+03  0.00000000000E+00 0.  1.
          2    1    1    2  502    0 -0.46475523680E+02 -0.26262626942E+02  0.17795108093E+03  0.18578559438E+03  0.00000000000E+00 0.  1.
</event>
<event>
 4    1  0.6225520E+003  0.4159352E+02  0.7546771E-02  0.1339393E+00
          2   -1    0    0  502    0  0.00000000000E+00  0.00000000000E+00  0.21306738916E+02  0.21306738916E+02  0.00000000000E+00 0.  1.
          2   -1    0    0  501    0 -0.00000000000E+00 -0.00000000000E+00 -0.28620365695E+03  0.28620365695E+03  0.00000000000E+00 0. -1.
          2    1    1    2  501    0 -0.41571239771E+02 -0.13611028203E+01 -0.23184895713E+01  0.41658084100E+02  0.00000000000E+00 0.  1.
          2    1    1    2  502    0  0.41571239771E+02  0.13611028203E+01 -0.26257842846E+03  0.26585231177E+03  0.00000000000E+00 0. -1.
</event>
<event>
 4    1  0.6225520E+003  0.2094025E+02  0.7546771E-02  0.1520120E+00
          2   -1    0    0  502    0  0.00000000000E+00  0.00000000000E+00  0.28100171848E+03  0.28100171848E+03  0.00000000000E+00 0.  1.
          2   -1    0    0  501    0 -0.00000000000E+00 -0.00000000000E+00 -0.50011493562E+01  0.50011493562E+01  0.00000000000E+00 0.  1.
          2    1    1    2  501    0 -0.23351798787E+01  0.20809634804E+02  0.25661204652E+03  0.25746501973E+03  0.00000000000E+00 0.  1.
          2    1    1    2  502    0  0.23351798787E+01 -0.20809634804E+02  0.19388522605E+02  0.28537848107E+02  0.00000000000E+00 0.  1.
</event>
<event>
 4    1  0.6225520E+003  0.2042640E+02  0.7546771E-02  0.1527614E+00
          2   -1    0    0  501    0  0.00000000000E+00  0.00000000000E+00  0.30156470072E+03  0.30156470072E+03  0.00000000000E+00 0. -1.
          2   -1    0    0  502    0 -0.00000000000E+00 -0.00000000000E+00 -0.44825736841E+02  0.44825736841E+02  0.00000000000E+00 0. -1.
          2    1    1    2  501    0 -0.86485272941E+01  0.18505151007E+02 -0.42131894940E+02  0.46822368686E+02  0.00000000000E+00 0. -1.
          2    1    1    2  502    0  0.86485272941E+01 -0.18505151007E+02  0.29887085882E+03  0.29956806887E+03  0.00000000000E+00 0. -1.
</event>
<event>
 4    1  0.6225520E+003  0.2841017E+02  0.7546771E-02  0.1433935E+00
          2   -1    0    0  501    0  0.00000000000E+00  0.00000000000E+00  0.79932703919E+03  0.79932703919E+03  0.00000000000E+00 0. -1.
          2   -1    0    0  502    0 -0.00000000000E+00 -0.00000000000E+00 -0.49264533305E+01  0.49264533305E+01  0.00000000000E+00 0.  1.
          2    1    1    2  501    0  0.80442837467E+01  0.27247522963E+02  0.38646025213E+02  0.47965125595E+02  0.00000000000E+00 0.  1.
          2    1    1    2  502    0 -0.80442837467E+01 -0.27247522963E+02  0.75575456065E+03  0.75628836693E+03  0.00000000000E+00 0. -1.
</event>
<event>
 4    1  0.6225520E+003  0.2480751E+02  0.7546771E-02  0.1470968E+00
          2   -1    0    0  501    0  0.00000000000E+00  0.00000000000E+00  0.51655012763E+01  0.51655012763E+01  0.00000000000E+00 0. -1.
          2   -1    0    0  502    0 -0.00000000000E+00 -0.00000000000E+00 -0.10369373275E+04  0.10369373275E+04  0.00000000000E+00 0. -1.
          2    1    1    2  501    0  0.22231980354E+02  0.11006885414E+02 -0.10060911699E+04  0.10063969667E+04  0.00000000000E+00 0. -1.
          2    1    1    2  502    0 -0.22231980354E+02 -0.11006885414E+02 -0.25680656382E+02  0.35705862112E+02  0.00000000000E+00 0. -1.
</event>
<event>
 4    1  0.6225520E+003  0.2771071E+02  0.7546771E-02  0.1440597E+00
          2   -1    0    0  501    0  0.00000000000E+00  0.00000000000E+00  0.70301006014E+02  0.70301006014E+02  0.00000000000E+00 0. -1.
          2   -1    0    0  502    0 -0.00000000000E+00 -0.00000000000E+00 -0.79688083247E+02  0.79688083247E+02  0.00000000000E+00 0. -1.
          2    1    1    2  501    0 -0.23427276948E+02  0.14800216669E+02 -0.74359014011E+02  0.79354563090E+02  0.00000000000E+00 0. -1.
          2    1    1    2  502    0  0.23427276948E+02 -0.14800216669E+02  0.64971936778E+02  0.70634526171E+02  0.00000000000E+00 0. -1.
</event>
<event>
 4    1  0.6225520E+003  0.2460212E+02  0.7546771E-02  0.1473304E+00
          2   -1    0    0  502    0  0.00000000000E+00  0.00000000000E+00  0.32516800228E+03  0.32516800228E+03  0.00000000000E+00 0.  1.
          2   -1    0    0  501    0 -0.00000000000E+00 -0.00000000000E+00 -0.33523019222E+01  0.33523019222E+01  0.00000000000E+00 0.  1.
          2    1    1    2  501    0 -0.15677069589E+02  0.18960325625E+02  0.27045136093E+03  0.27156804504E+03  0.00000000000E+00 0.  1.
          2    1    1    2  502    0  0.15677069589E+02 -0.18960325625E+02  0.51364339428E+02  0.56952259161E+02  0.00000000000E+00 0.  1.
</event>
<event>
 4    1  0.6225520E+003  0.2453330E+02  0.7546771E-02  0.1474093E+00
          2   -1    0    0  501    0  0.00000000000E+00  0.00000000000E+00  0.74350603000E+03  0.74350603000E+03  0.00000000000E+00 0. -1.
          2   -1    0    0  502    0 -0.00000000000E+00 -0.00000000000E+00 -0.11832926507E+02  0.11832926507E+02  0.00000000000E+00 0.  1.
          2    1    1    2  501    0  0.30635030092E+00  0.24531383208E+02  0.13145667597E+01  0.24568489949E+02  0.00000000000E+00 0.  1.
          2    1    1    2  502    0 -0.30635030092E+00 -0.24531383208E+02  0.73035853674E+03  0.73077046656E+03  0.00000000000E+00 0. -1.
</event>
<event>
 4    1  0.6225520E+003  0.2000322E+02  0.7546771E-02  0.1533986E+00
          2   -1    0    0  502    0  0.00000000000E+00  0.00000000000E+00  0.10902007157E+04  0.10902007157E+04  0.00000000000E+00 0. -1.
          2   -1    0    0  501    0 -0.00000000000E+00 -0.00000000000E+00 -0.19373768220E+01  0.19373768220E+01  0.00000000000E+00 0.  1.
          2    1    1    2  501    0  0.10206243616E+02  0.17203529403E+02  0.10357626645E+04  0.10359558032E+04  0.00000000000E+00 0. -1.
          2    1    1    2  502    0 -0.10206243616E+02 -0.17203529403E+02  0.52500674331E+02  0.56182289361E+02  0.00000000000E+00 0.  1.
</event>
<event>
 4    1  0.6225520E+003  0.2410704E+02  0.7546771E-02  0.1479046E+00
          2   -1    0    0  501    0  0.00000000000E+00  0.00000000000E+00  0.46064516292E+01  0.46064516292E+01  0.00000000000E+00 0. -1.
          2   -1    0    0  502    0 -0.00000000000E+00 -0.00000000000E+00 -0.33873266483E+03  0.33873266483E+03  0.00000000000E+00 0.  1.
          2    1    1    2  501    0  0.23934733585E+02 -0.28771745341E+01 -0.30305672597E+03  0.30401402725E+03  0.00000000000E+00 0.  1.
          2    1    1    2  502    0 -0.23934733585E+02  0.28771745341E+01 -0.31069487232E+02  0.39325089217E+02  0.00000000000E+00 0. -1.
</event>
<event>
 4    1  0.6449510E+003  0.4257913E+02  0.7546771E-02  0.1334001E+00
          2   -1    0    0  501    0  0.00000000000E+00  0.00000000000E+00  0.15293119682E+04  0.15293119682E+04  0.00000000000E+00 0. -1.
          2   -1    0    0  502    0 -0.00000000000E+00 -0.00000000000E+00 -0.52570491196E+03  0.52570491196E+03  0.00000000000E+00 0.  1.
          2    1    1    2  501    0  0.28655665266E+02 -0.31493418413E+02 -0.52454571842E+03  0.52627102644E+03  0.00000000000E+00 0.  1.
          2    1    1    2  502    0 -0.28655665266E+02  0.31493418413E+02  0.15281527747E+04  0.15287458538E+04  0.00000000000E+00 0. -1.
</event>
<event>
 4    1  0.6225520E+003  0.2853000E+02  0.7546771E-02  0.1432816E+00
          2   -1    0    0  502    0  0.00000000000E+00  0.00000000000E+00  0.70055450344E+01  0.70055450344E+01  0.00000000000E+00 0.  1.
          2   -1    0    0  501    0 -0.00000000000E+00 -0.00000000000E+00 -0.25687262943E+03  0.25687262943E+03  0.00000000000E+00 0.  1.
          2    1    1    2  501    0  0.28416601183E+02 -0.25412322680E+01 -0.27291308731E+02  0.39481345171E+02  0.00000000000E+00 0.  1.
          2    1    1    2  502    0 -0.28416601183E+02  0.25412322680E+01 -0.22257577567E+03  0.22439682930E+03  0.00000000000E+00 0.  1.
</event>
<event>
 4    1  0.6225520E+003  0.3161819E+02  0.7546771E-02  0.1406037E+00
          2   -1    0    0  502    0  0.00000000000E+00  0.00000000000E+00  0.41209423961E+03  0.41209423961E+03  0.00000000000E+00 0.  1.
          2   -1    0    0  501    0 -0.00000000000E+00 -0.00000000000E+00 -0.11368796008E+03  0.11368796008E+03  0.00000000000E+00 0. -1.
          2    1    1    2  501    0  0.26380821465E+02  0.17428777346E+02  0.40927426972E+03  0.41049377325E+03  0.00000000000E+00 0.  1.
          2    1    1    2  502    0 -0.26380821465E+02 -0.17428777346E+02 -0.11086799019E+03  0.11528842644E+03  0.00000000000E+00 0. -1.
</event>
<event>
 4    1  0.6225520E+003  0.2644183E+02  0.7546771E-02  0.1453297E+00
          2   -1    0    0  502    0  0.00000000000E+00  0.00000000000E+00  0.13738928788E+03  0.13738928788E+03  0.00000000000E+00 0.  1.
          2   -1    0    0  501    0 -0.00000000000E+00 -0.00000000000E+00 -0.10489509444E+02  0.10489509444E+02  0.00000000000E+00 0.  1.
          2    1    1    2  501    0 -0.20800927216E+02  0.16324573625E+02  0.11650372695E+03  0.11946668435E+03  0.00000000000E+00 0.  1.
          2    1    1    2  502    0  0.20800927216E+02 -0.16324573625E+02  0.10396051490E+02  0.28412112974E+02  0.00000000000E+00 0.  1.
</event>
<event>
 4    1  0.6225520E+003  0.2192819E+02  0.7546771E-02  0.1506414E+00
          2   -1    0    0  502    0  0.00000000000E+00  0.00000000000E+00  0.17965249598E+03  0.17965249598E+03  0.00000000000E+00 0. -1.
          2   -1    0    0  501    0 -0.00000000000E+00 -0.00000000000E+00 -0.10567397259E+03  0.10567397259E+03  0.00000000000E+00 0. -1.
          2    1    1    2  501    0 -0.22720612834E+01  0.21810167499E+02  0.17783420679E+03  0.17918105584E+03  0.00000000000E+00 0. -1.
          2    1    1    2  502    0  0.22720612834E+01 -0.21810167499E+02 -0.10385568339E+03  0.10614541272E+03  0.00000000000E+00 0. -1.
</event>
<event>
 4    1  0.6225520E+003  0.2464810E+02  0.7546771E-02  0.1472779E+00
          2   -1    0    0  502    0  0.00000000000E+00  0.00000000000E+00  0.73601561961E+03  0.73601561961E+03  0.00000000000E+00 0.  1.
          2   -1    0    0  501    0 -0.00000000000E+00 -0.00000000000E+00 -0.69516234329E+02  0.69516234329E+02  0.00000000000E+00 0.  1.
          2    1    1    2  501    0 -0.20423271190E+02  0.13799241504E+02  0.73361727550E+03  0.73403122275E+03  0.00000000000E+00 0.  1.
          2    1    1    2  502    0  0.20423271190E+02 -0.13799241504E+02 -0.67117890217E+02  0.71500631182E+02  0.00000000000E+00 0.  1.
</event>
<event>
 4    1  0.6225520E+003  0.2700859E+02  0.7546771E-02  0.1447522E+00
          2   -1    0    0  501    0  0.00000000000E+00  0.00000000000E+00  0.49833928116E+03  0.49833928116E+03  0.00000000000E+00 0. -1.
          2   -1    0    0  502    0 -0.00000000000E+00 -0.00000000000E+00 -0.52695955265E+01  0.52695955265E+01  0.00000000000E+00 0.  1.
          2    1    1    2  501    0  0.26277007732E+02 -0.62436214905E+01  0.32542590946E+02  0.42290473752E+02  0.00000000000E+00 0.  1.
          2    1    1    2  502    0 -0.26277007732E+02  0.62436214905E+01  0.46052709469E+03  0.46131840293E+03  0.00000000000E+00 0. -1.
</event>
<event>
 4    1  0.6225520E+003  0.2386623E+02  0.7546771E-02  0.1481898E+00
          2   -1    0    0  502    0  0.00000000000E+00  0.00000000000E+00  0.95115079758E+00  0.95115079758E+00  0.00000000000E+00 0. -1.
          2   -1    0    0  501    0 -0.00000000000E+00 -0.00000000000E+00 -0.72809516056E+03  0.72809516056E+03  0.00000000000E+00 0.  1.
          2    1    1    2  501    0 -0.21718486755E+02 -0.98946538642E+01 -0.20999087294E+03  0.21134276321E+03  0.00000000000E+00 0. -1.
          2    1    1    2  502    0  0.21718486755E+02  0.98946538642E+01 -0.51715313682E+03  0.51770354815E+03  0.00000000000E+00 0.  1.
</event>
<event>
 4    1  0.6225520E+003  0.2077037E+02  0.7546771E-02  0.1522569E+00
          2   -1    0    0  502    0  0.00000000000E+00  0.00000000000E+00  0.40746255089E+02  0.40746255089E+02  0.00000000000E+00 0. -1.
          2   -1    0    0  501    0 -0.00000000000E+00 -0.00000000000E+00 -0.33304721150E+02  0.33304721150E+02  0.00000000000E+00 0. -1.
          2    1    1    2  501    0 -0.20578959259E+02  0.28132797619E+01  0.34299805188E+02  0.40098438164E+02  0.00000000000E+00 0. -1.
          2    1    1    2  502    0  0.20578959259E+02 -0.28132797619E+01 -0.26858271250E+02  0.33952538075E+02  0.00000000000E+00 0. -1.
</event>
<event>
 4    1  0.6225520E+003  0.2269524E+02  0.7546771E-02  0.1496361E+00
          2   -1    0    0  502    0  0.00000000000E+00  0.00000000000E+00  0.12403467898E+01  0.12403467898E+01  0.00000000000E+00 0. -1.
          2   -1    0    0  501    0 -0.00000000000E+00 -0.00000000000E+00 -0.68922762985E+03  0.68922762985E+03  0.00000000000E+00 0.  1.
          2    1    1    2  501    0 -0.22046549583E+02 -0.53873349148E+01 -0.12633437781E+03  0.12835672457E+03  0.00000000000E+00 0. -1.
          2    1    1    2  502    0  0.22046549583E+02  0.53873349148E+01 -0.56165290525E+03  0.56211125207E+03  0.00000000000E+00 0.  1.
</event>
<event>
 4    1  0.6225520E+003  0.3020554E+02  0.7546771E-02  0.1417818E+00
          2   -1    0    0  502    0  0.00000000000E+00  0.00000000000E+00  0.34009833086E+03  0.34009833086E+03  0.00000000000E+00 0. -1.
          2   -1    0    0  501    0 -0.00000000000E+00 -0.00000000000E+00 -0.50819735021E+01  0.50819735021E+01  0.00000000000E+00 0. -1.
          2    1    1    2  501    0  0.25548332906E+02  0.16113893013E+02  0.28609639489E+03  0.28768649957E+03  0.00000000000E+00 0. -1.
          2    1    1    2  502    0 -0.25548332906E+02 -0.16113893013E+02  0.48919962467E+02  0.57493804797E+02  0.00000000000E+00 0. -1.
</event>
<event>
 4    1  0.6225520E+003  0.2317920E+02  0.7546771E-02  0.1490260E+00
          2   -1    0    0  501    0  0.00000000000E+00  0.00000000000E+00  0.70811514262E+01  0.70811514262E+01  0.00000000000E+00 0.  1.
          2   -1    0    0  502    0 -0.00000000000E+00 -0.00000000000E+00 -0.18657425893E+03  0.18657425893E+03  0.00000000000E+00 0.  1.
          2    1    1    2  501    0 -0.91709654081E+01  0.21287762481E+02 -0.16433096262E+03  0.16595764735E+03  0.00000000000E+00 0.  1.
          2    1    1    2  502    0  0.91709654081E+01 -0.21287762481E+02 -0.15162144876E+02  0.27697763000E+02  0.00000000000E+00 0.  1.
</event>
<event>
 4    1  0.6225520E+003  0.4237968E+02  0.7546771E-02  0.1335078E+00
          2   -1    0    0  501    0  0.00000000000E+00  0.00000000000E+00  0.17732955577E+04  0.17732955577E+04  0.00000000000E+00 0.  1.
          2   -1    0    0  502    0 -0.00000000000E+00 -0.00000000000E+00 -0.12734926768E+03  0.12734926768E+03  0.00000000000E+00 0.  1.
          2    1    1    2  501    0  0.42203099578E+02 -0.38646150558E+01 -0.12356270866E+03  0.13062840363E+03  0.00000000000E+00 0.  1.
          2    1    1    2  502    0 -0.42203099578E+02  0.38646150558E+01  0.17695089987E+04  0.17700164218E+04  0.00000000000E+00 0.  1.
</event>
<event>
 4    1  0.6225520E+003  0.3041650E+02  0.7546771E-02  0.1416011E+00
          2   -1    0    0  501    0  0.00000000000E+00  0.00000000000E+00  0.76709020876E+02  0.76709020876E+02  0.00000000000E+00 0. -1.
          2   -1    0    0  502    0 -0.00000000000E+00 -0.00000000000E+00 -0.18062018376E+04  0.18062018376E+04  0.00000000000E+00 0. -1.
          2    1    1    2  501    0 -0.23054279665E+02 -0.19840958041E+02 -0.18030533477E+04  0.18033098840E+04  0.00000000000E+00 0. -1.
          2    1    1    2  502    0  0.23054279665E+02  0.19840958041E+02  0.73560530904E+02  0.79600974452E+02  0.00000000000E+00 0. -1.
</event>
<event>
 4    1  0.6225520E+003  0.2773149E+02  0.7546771E-02  0.1440395E+00
          2   -1    0    0  501    0  0.00000000000E+00  0.00000000000E+00  0.51556170551E+02  0.51556170551E+02  0.00000000000E+00 0. -1.
          2   -1    0    0  502    0 -0.00000000000E+00 -0.00000000000E+00 -0.37348674303E+02  0.37348674303E+02  0.00000000000E+00 0.  1.
          2    1    1    2  501    0 -0.26517437976E+02 -0.81154633967E+01 -0.27346627762E+02  0.38947057821E+02  0.00000000000E+00 0.  1.
          2    1    1    2  502    0  0.26517437976E+02  0.81154633967E+01  0.41554124010E+02  0.49957787032E+02  0.00000000000E+00 0. -1.
</event>
<event>
 4    1  0.6225520E+003  0.2416629E+02  0.7546771E-02  0.1478350E+00
          2   -1    0    0  501    0  0.00000000000E+00  0.00000000000E+00  0.67819278751E+03  0.67819278751E+03  0.00000000000E+00 0.  1.
          2   -1    0    0  502    0 -0.00000000000E+00 -0.00000000000E+00 -0.34876738947E+02  0.34876738947E+02  0.00000000000E+00 0.  1.
          2    1    1    2  501    0  0.36927983962E+01 -0.23882480670E+02 -0.30447707367E+02  0.38872516343E+02  0.00000000000E+00 0.  1.
          2    1    1    2  502    0 -0.36927983962E+01  0.23882480670E+02  0.67376375593E+03  0.67419701012E+03  0.00000000000E+00 0.  1.
</event>
<event>
 4    1  0.6225520E+003  0.2755838E+02  0.7546771E-02  0.1442078E+00
          2   -1    0    0  502    0  0.00000000000E+00  0.00000000000E+00  0.15251498775E+04  0.15251498775E+04  0.00000000000E+00 0. -1.
          2   -1    0    0  501    0 -0.00000000000E+00 -0.00000000000E+00 -0.16682264970E+01  0.16682264970E+01  0.00000000000E+00 0. -1.
          2    1    1    2  501    0  0.66672080598E+01  0.26739722766E+02  0.14011400216E+04  0.14014110120E+04  0.00000000000E+00 0. -1.
          2    1    1    2  502    0 -0.66672080598E+01 -0.26739722766E+02  0.12234162937E+03  0.12540709196E+03  0.00000000000E+00 0. -1.
</event>
<event>
 4    1  0.6225520E+003  0.2325617E+02  0.7546771E-02  0.1489306E+00
          2   -1    0    0  502    0  0.00000000000E+00  0.00000000000E+00  0.61764247466E+03  0.61764247466E+03  0.00000000000E+00 0. -1.
          2   -1    0    0  501    0 -0.00000000000E+00 -0.00000000000E+00 -0.96282874821E+00  0.96282874821E+00  0.00000000000E+00 0. -1.
          2    1    1    2  501    0 -0.23239627172E+02  0.87704465485E+00  0.40140146069E+03  0.40207459770E+03  0.00000000000E+00 0. -1.
          2    1    1    2  502    0  0.23239627172E+02 -0.87704465485E+00  0.21527818523E+03  0.21653070571E+03  0.00000000000E+00 0. -1.
</event>
<event>
 4    1  0.6225520E+003  0.2019734E+02  0.7546771E-02  0.1531040E+00
          2   -1    0    0  502    0  0.00000000000E+00  0.00000000000E+00  0.13685706652E+04  0.13685706652E+04  0.00000000000E+00 0.  1.
          2   -1    0    0  501    0 -0.00000000000E+00 -0.00000000000E+00 -0.29851358651E+00  0.29851358651E+00  0.00000000000E+00 0.  1.
          2    1    1    2  501    0  0.11211194606E+02 -0.16800045423E+02  0.65780769706E+03  0.65811769367E+03  0.00000000000E+00 0.  1.
          2    1    1    2  502    0 -0.11211194606E+02  0.16800045423E+02  0.71046445451E+03  0.71075148508E+03  0.00000000000E+00 0.  1.
</event>
<event>
 4    1  0.6225520E+003  0.2979656E+02  0.7546771E-02  0.1421373E+00
          2   -1    0    0  501    0  0.00000000000E+00  0.00000000000E+00  0.46043371681E+01  0.46043371681E+01  0.00000000000E+00 0. -1.
          2   -1    0    0  502    0 -0.00000000000E+00 -0.00000000000E+00 -0.11562860800E+04  0.11562860800E+04  0.00000000000E+00 0.  1.
          2    1    1    2  501    0  0.18133003841E+02 -0.23643796583E+02 -0.11056817862E+04  0.11060832009E+04  0.00000000000E+00 0.  1.
          2    1    1    2  502    0 -0.18133003841E+02  0.23643796583E+02 -0.45999956549E+02  0.54807216201E+02  0.00000000000E+00 0. -1.
</event>
<event>
 4    1  0.6225520E+003  0.3978739E+02  0.7546771E-02  0.1349736E+00
          2   -1    0    0  502    0  0.00000000000E+00  0.00000000000E+00  0.49352751301E+02  0.49352751301E+02  0.00000000000E+00 0.  1.
          2   -1    0    0  501    0 -0.00000000000E+00 -0.00000000000E+00 -0.70507404009E+03  0.70507404009E+03  0.00000000000E+00 0.  1.
          2    1    1    2  501    0 -0.29658945252E+02 -0.26521382434E+02  0.40672589487E+02  0.56897243301E+02  0.00000000000E+00 0.  1.
          2    1    1    2  502    0  0.29658945252E+02  0.26521382434E+02 -0.69639387828E+03  0.69752954809E+03  0.00000000000E+00 0.  1.
</event>
<event>
 4    1  0.6225520E+003  0.2384929E+02  0.7546771E-02  0.1482100E+00
          2   -1    0    0  501    0  0.00000000000E+00  0.00000000000E+00  0.66799912596E+00  0.66799912596E+00  0.00000000000E+00 0.  1.
          2   -1    0    0  502    0 -0.00000000000E+00 -0.00000000000E+00 -0.19092282873E+04  0.19092282873E+04  0.00000000000E+00 0. -1.
          2    1    1    2  501    0  0.17830522399E+02  0.15838596373E+02 -0.16650709274E+04  0.16652417188E+04  0.00000000000E+00 0. -1.
          2    1    1    2  502    0 -0.17830522399E+02 -0.15838596373E+02 -0.24348936079E+03  0.24465456767E+03  0.00000000000E+00 0.  1.
</event>
<event>
 4    1  0.6225520E+003  0.4313447E+02  0.7546771E-02  0.1331036E+00
          2   -1    0    0  501    0  0.00000000000E+00  0.00000000000E+00  0.12460823729E+02  0.12460823729E+02  0.00000000000E+00 0.  1.
          2   -1    0    0  502    0 -0.00000000000E+00 -0.00000000000E+00 -0.16913731851E+04  0.16913731851E+04  0.00000000000E+00 0. -1.
          2    1    1    2  501    0  0.39653261937E+02  0.16976487547E+02 -0.16529008359E+04  0.16534635634E+04  0.00000000000E+00 0. -1.
          2    1    1    2  502    0 -0.39653261937E+02 -0.16976487547E+02 -0.26011525481E+02  0.50370445397E+02  0.00000000000E+00 0.  1.
</event>
<event>
 4    1  0.6225520E+003  0.7636205E+02  0.7546771E-02  0.1212555E+00
          2   -1    0    0  502    0  0.00000000000E+00  0.00000000000E+00  0.48766374743E+03  0.48766374743E+03  0.00000000000E+00 0.  1.
          2   -1    0    0  501    0 -0.00000000000E+00 -0.00000000000E+00 -0.26117330781E+02  0.26117330781E+02  0.00000000000E+00 0.  1.
          2    1    1    2  501    0 -0.73028728492E+02  0.22315190301E+02  0.41992704218E+03  0.42681364043E+03  0.00000000000E+00 0.  1.
          2    1    1    2  502    0  0.73028728492E+02 -0.22315190301E+02  0.41619374472E+02  0.86967437784E+02  0.00000000000E+00 0.  1.
</event>
<event>
 4    1  0.6225520E+003  0.2680104E+02  0.7546771E-02  0.1449617E+00
          2   -1    0    0  502    0  0.00000000000E+00  0.00000000000E+00  0.10114558978E+01  0.10114558978E+01  0.00000000000E+00 0.  1.
          2   -1    0    0  501    0 -0.00000000000E+00 -0.00000000000E+00 -0.17470539386E+04  0.17470539386E+04  0.00000000000E+00 0.  1.
          2    1    1    2  501    0 -0.16370032413E+02 -0.21220687824E+02 -0.19966997061E+03  0.20146064805E+03  0.00000000000E+00 0.  1.
          2    1    1    2  502    0  0.16370032413E+02  0.21220687824E+02 -0.15463725121E+04  0.15466047465E+04  0.00000000000E+00 0.  1.
</event>
<event>
 4    1  0.6225520E+003  0.2577141E+02  0.7546771E-02  0.1460356E+00
          2   -1    0    0  501    0  0.00000000000E+00  0.00000000000E+00  0.84727293474E+00  0.84727293474E+00  0.00000000000E+00 0.  1.
          2   -1    0    0  502    0 -0.00000000000E+00 -0.00000000000E+00 -0.11713880278E+04  0.11713880278E+04  0.00000000000E+00 0.  1.
          2    1    1    2  501    0  0.22638031455E+02  0.12316047021E+02 -0.92238014737E+03  0.92274010520E+03  0.00000000000E+00 0.  1.
          2    1    1    2  502    0 -0.22638031455E+02 -0.12316047021E+02 -0.24816060748E+03  0.24949519551E+03  0.00000000000E+00 0.  1.
</event>
<event>
 4    1  0.6225520E+003  0.2008001E+02  0.7546771E-02  0.1532816E+00
          2   -1    0    0  501    0  0.00000000000E+00  0.00000000000E+00  0.12191150063E+01  0.12191150063E+01  0.00000000000E+00 0.  1.
          2   -1    0    0  502    0 -0.00000000000E+00 -0.00000000000E+00 -0.33697897282E+03  0.33697897282E+03  0.00000000000E+00 0.  1.
          2    1    1    2  501    0 -0.17385853606E+02  0.10046831088E+02 -0.14486589875E+03  0.14625093279E+03  0.00000000000E+00 0.  1.
          2    1    1    2  502    0  0.17385853606E+02 -0.10046831088E+02 -0.19089395907E+03  0.19194715504E+03  0.00000000000E+00 0.  1.
</event>
<event>
 4    1  0.6225520E+003  0.3936817E+02  0.7546771E-02  0.1352229E+00
          2   -1    0    0  501    0  0.00000000000E+00  0.00000000000E+00  0.20640521253E+03  0.20640521253E+03  0.00000000000E+00 0.  1.
          2   -1    0    0  502    0 -0.00000000000E+00 -0.00000000000E+00 -0.77760230884E+01  0.77760230884E+01  0.00000000000E+00 0.  1.
          2    1    1    2  501    0  0.33424066501E+02 -0.20801075376E+02  0.79461898779E+02  0.88679458252E+02  0.00000000000E+00 0.  1.
          2    1    1    2  502    0 -0.33424066501E+02  0.20801075376E+02  0.11916729066E+03  0.12550177737E+03  0.00000000000E+00 0.  1.
</event>
<event>
 4    1  0.6225520E+003  0.2261222E+02  0.7546771E-02  0.1497426E+00
          2   -1    0    0  502    0  0.00000000000E+00  0.00000000000E+00  0.24414642052E+01  0.24414642052E+01  0.00000000000E+00 0. -1.
          2   -1    0    0  501    0 -0.00000000000E+00 -0.00000000000E+00 -0.47550214162E+03  0.47550214162E+03  0.00000000000E+00 0. -1.
          2    1    1    2  501    0  0.38409363615E+01  0.22283618309E+02 -0.57769960662E+02  0.62037736837E+02  0.00000000000E+00 0. -1.
          2    1    1    2  502    0 -0.38409363615E+01 -0.22283618309E+02 -0.41529071675E+03  0.41590586899E+03  0.00000000000E+00 0. -1.
</event>
<event>
 4    1  0.6225520E+003  0.2050116E+02  0.7546771E-02  0.1526507E+00
          2   -1    0    0  502    0  0.00000000000E+00  0.00000000000E+00  0.89626130958E+02  0.89626130958E+02  0.00000000000E+00 0.  1.
          2   -1    0    0  501    0 -0.00000000000E+00 -0.00000000000E+00 -0.48065616208E+02  0.48065616208E+02  0.00000000000E+00 0. -1.
          2    1    1    2  501    0 -0.17744341419E+02  0.10268208322E+02  0.86181531984E+02  0.88586422265E+02  0.00000000000E+00 0.  1.
          2    1    1    2  502    0  0.17744341419E+02 -0.10268208322E+02 -0.44621017234E+02  0.49105324901E+02  0.00000000000E+00 0. -1.
</event>
<event>
 4    1  0.6225520E+003  0.2054423E+02  0.7546771E-02  0.1525873E+00
          2   -1    0    0  501    0  0.00000000000E+00  0.00000000000E+00  0.88067592602E+01  0.88067592602E+01  0.00000000000E+00 0. -1.
          2   -1    0    0  502    0 -0.00000000000E+00 -0.00000000000E+00 -0.13508896018E+03  0.13508896018E+03  0.00000000000E+00 0.  1.
          2    1    1    2  501    0 -0.18072319348E+02 -0.97701862701E+01 -0.12093420848E+03  0.12266681722E+03  0.00000000000E+00 0.  1.
          2    1    1    2  502    0  0.18072319348E+02  0.97701862701E+01 -0.53479924420E+01  0.21228902222E+02  0.00000000000E+00 0. -1.
</event>
<event>
 4    1  0.6225520E+003  0.2638092E+02  0.7546771E-02  0.1453928E+00
          2   -1    0    0  502    0  0.00000000000E+00  0.00000000000E+00  0.50164399780E+03  0.50164399780E+03  0.00000000000E+00 0. -1.
          2   -1    0    0  501    0 -0.00000000000E+00 -0.00000000000E+00 -0.92538759440E+01  0.92538759440E+01  0.00000000000E+00 0. -1.
          2    1    1    2  501    0  0.20856086574E+02  0.16154774541E+02  0.48171837405E+03  0.48244019835E+03  0.00000000000E+00 0. -1.
          2    1    1    2  502    0 -0.20856086574E+02 -0.16154774541E+02  0.10671747809E+02  0.28457675396E+02  0.00000000000E+00 0. -1.
</event>
<event>
 4    1  0.6225520E+003  0.3227874E+02  0.7546771E-02  0.1400775E+00
          2   -1    0    0  501    0  0.00000000000E+00  0.00000000000E+00  0.44295341349E+01  0.44295341349E+01  0.00000000000E+00 0. -1.
          2   -1    0    0  502    0 -0.00000000000E+00 -0.00000000000E+00 -0.36040499186E+03  0.36040499186E+03  0.00000000000E+00 0. -1.
          2    1    1    2  501    0 -0.24860834551E+02  0.20587764768E+02 -0.28549697923E+03  0.28731592769E+03  0.00000000000E+00 0. -1.
          2    1    1    2  502    0  0.24860834551E+02 -0.20587764768E+02 -0.70478478494E+02  0.77518598307E+02  0.00000000000E+00 0. -1.
</event>
<event>
 4    1  0.6225520E+003  0.2167305E+02  0.7546771E-02  0.1509868E+00
          2   -1    0    0  502    0  0.00000000000E+00  0.00000000000E+00  0.48748292938E+03  0.48748292938E+03  0.00000000000E+00 0.  1.
          2   -1    0    0  501    0 -0.00000000000E+00 -0.00000000000E+00 -0.19903443636E+02  0.19903443636E+02  0.00000000000E+00 0. -1.
          2    1    1    2  501    0  0.13934680474E+02 -0.16599577222E+02  0.48126585951E+03  0.48175361837E+03  0.00000000000E+00 0.  1.
          2    1    1    2  502    0 -0.13934680474E+02  0.16599577222E+02 -0.13686373766E+02  0.25632754645E+02  0.00000000000E+00 0. -1.
</event>
<event>
 4    1  0.6225520E+003  0.2063717E+02  0.7546771E-02  0.1524509E+00
          2   -1    0    0  501    0  0.00000000000E+00  0.00000000000E+00  0.53914312744E+00  0.53914312744E+00  0.00000000000E+00 0. -1.
          2   -1    0    0  502    0 -0.00000000000E+00 -0.00000000000E+00 -0.14371005261E+04  0.14371005261E+04  0.00000000000E+00 0.  1.
          2    1    1    2  501    0  0.18690038025E+02 -0.87507364036E+01 -0.12006516208E+04  0.12008289668E+04  0.00000000000E+00 0.  1.
          2    1    1    2  502    0 -0.18690038025E+02  0.87507364036E+01 -0.23590976209E+03  0.23681070237E+03  0.00000000000E+00 0. -1.
</event>
<event>
 4    1  0.6225520E+003  0.2348502E+02  0.7546771E-02  0.1486496E+00
          2   -1    0    0  501    0  0.00000000000E+00  0.00000000000E+00  0.42442139496E+03  0.42442139496E+03  0.00000000000E+00 0. -1.
          2   -1    0    0  502    0 -0.00000000000E+00 -0.00000000000E+00 -0.99809129372E+02  0.99809129372E+02  0.00000000000E+00 0. -1.
          2    1    1    2  501    0 -0.23352893947E+02 -0.24877078629E+01 -0.98097154515E+02  0.10086921270E+03  0.00000000000E+00 0. -1.
          2    1    1    2  502    0  0.23352893947E+02  0.24877078629E+01  0.42270942010E+03  0.42336131164E+03  0.00000000000E+00 0. -1.
</event>
<event>
 4    1  0.6225520E+003  0.3630209E+02  0.7546771E-02  0.1371633E+00
          2   -1    0    0  502    0  0.00000000000E+00  0.00000000000E+00  0.34482415182E+01  0.34482415182E+01  0.00000000000E+00 0. -1.
          2   -1    0    0  501    0 -0.00000000000E+00 -0.00000000000E+00 -0.19291875511E+04  0.19291875511E+04  0.00000000000E+00 0. -1.
          2    1    1    2  501    0  0.33171339282E+02  0.14748022850E+02 -0.97544557747E+02  0.10408065466E+03  0.00000000000E+00 0. -1.
          2    1    1    2  502    0 -0.33171339282E+02 -0.14748022850E+02 -0.18281947518E+04  0.18285551380E+04  0.00000000000E+00 0. -1.
</event>
<event>
 4    1  0.6225520E+003  0.3170098E+02  0.7546771E-02  0.1405369E+00
          2   -1    0    0  501    0  0.00000000000E+00  0.00000000000E+00  0.31691952751E+01  0.31691952751E+01  0.00000000000E+00 0. -1.
          2   -1    0    0  502    0 -0.00000000000E+00 -0.00000000000E+00 -0.40485730311E+03  0.40485730311E+03  0.00000000000E+00 0. -1.
          2    1    1    2  501    0  0.30963517782E+02 -0.67980082697E+01 -0.29582764948E+03  0.29752134469E+03  0.00000000000E+00 0. -1.
          2    1    1    2  502    0 -0.30963517782E+02  0.67980082697E+01 -0.10586045836E+03  0.11050515370E+03  0.00000000000E+00 0. -1.
</event>
<event>
 4    1  0.6225520E+003  0.2537478E+02  0.7546771E-02  0.1464654E+00
          2   -1    0    0  502    0  0.00000000000E+00  0.00000000000E+00  0.47404548365E+01  0.47404548365E+01  0.00000000000E+00 0. -1.
          2   -1    0    0  501    0 -0.00000000000E+00 -0.00000000000E+00 -0.10040908699E+04  0.10040908699E+04  0.00000000000E+00 0. -1.
          2    1    1    2  501    0  0.21182578179E+02 -0.13970612120E+02 -0.30615604471E+02  0.39764240951E+02  0.00000000000E+00 0. -1.
          2    1    1    2  502    0 -0.21182578179E+02  0.13970612120E+02 -0.96873481059E+03  0.96906708378E+03  0.00000000000E+00 0. -1.
</event>
<event>
 4    1  0.6225520E+003  0.3591557E+02  0.7546771E-02  0.1374238E+00
          2   -1    0    0  502    0  0.00000000000E+00  0.00000000000E+00  0.20840803844E+02  0.20840803844E+02  0.00000000000E+00 0.  1.
          2   -1    0    0  501    0 -0.00000000000E+00 -0.00000000000E+00 -0.11896507337E+04  0.11896507337E+04  0.00000000000E+00 0. -1.
          2    1    1    2  501    0 -0.10162363990E+02 -0.34447854962E+02  0.48858439282E+01  0.36246376705E+02  0.00000000000E+00 0.  1.
          2    1    1    2  502    0  0.10162363990E+02  0.34447854962E+02 -0.11736957738E+04  0.11742451609E+04  0.00000000000E+00 0. -1.
</event>
<event>
 4    1  0.6225520E+003  0.2904685E+02  0.7546771E-02  0.1428064E+00
          2   -1    0    0  502    0  0.00000000000E+00  0.00000000000E+00  0.63562974354E+03  0.63562974354E+03  0.00000000000E+00 0.  1.
          2   -1    0    0  501    0 -0.00000000000E+00 -0.00000000000E+00 -0.20756530935E+01  0.20756530935E+01  0.00000000000E+00 0.  1.
          2    1    1    2  501    0 -0.28550274930E+02  0.53479948902E+01  0.50822208895E+03  0.50905148162E+03  0.00000000000E+00 0.  1.
          2    1    1    2  502    0  0.28550274930E+02 -0.53479948902E+01  0.12533200150E+03  0.12865391501E+03  0.00000000000E+00 0.  1.
</event>
<event>
 4    1  0.6225520E+003  0.3062246E+02  0.7546771E-02  0.1414263E+00
          2   -1    0    0  502    0  0.00000000000E+00  0.00000000000E+00  0.25934831165E+03  0.25934831165E+03  0.00000000000E+00 0.  1.
          2   -1    0    0  501    0 -0.00000000000E+00 -0.00000000000E+00 -0.10677221463E+02  0.10677221463E+02  0.00000000000E+00 0.  1.
          2    1    1    2  501    0 -0.13523156248E+02 -0.27474706084E+02  0.23413336621E+03  0.23612744102E+03  0.00000000000E+00 0.  1.
          2    1    1    2  502    0  0.13523156248E+02  0.27474706084E+02  0.14537723982E+02  0.33898092098E+02  0.00000000000E+00 0.  1.
</event>
<event>
 4    1  0.6225520E+003  0.2127088E+02  0.7546771E-02  0.1515432E+00
          2   -1    0    0  501    0  0.00000000000E+00  0.00000000000E+00  0.45118402962E+02  0.45118402962E+02  0.00000000000E+00 0. -1.
          2   -1    0    0  502    0 -0.00000000000E+00 -0.00000000000E+00 -0.36261637762E+02  0.36261637762E+02  0.00000000000E+00 0. -1.
          2    1    1    2  501    0 -0.21079194367E+02  0.28492023860E+01 -0.30180924121E+02  0.36923414931E+02  0.00000000000E+00 0. -1.
          2    1    1    2  502    0  0.21079194367E+02 -0.28492023860E+01  0.39037689321E+02  0.44456625793E+02  0.00000000000E+00 0. -1.
</event>
<event>
 4    1  0.6225520E+003  0.3809215E+02  0.7546771E-02  0.1360044E+00
          2   -1    0    0  501    0  0.00000000000E+00  0.00000000000E+00  0.12844428552E+03  0.12844428552E+03  0.00000000000E+00 0.  1.
          2   -1    0    0  502    0 -0.00000000000E+00 -0.00000000000E+00 -0.88284486065E+02  0.88284486065E+02  0.00000000000E+00 0. -1.
          2    1    1    2  501    0 -0.32985134187E+02 -0.19052371791E+02 -0.81114144920E+02  0.89613148892E+02  0.00000000000E+00 0. -1.
          2    1    1    2  502    0  0.32985134187E+02  0.19052371791E+02  0.12127394438E+03  0.12711562269E+03  0.00000000000E+00 0.  1.
</event>
<event>
 4    1  0.6225520E+003  0.4134253E+02  0.7546771E-02  0.1340793E+00
          2   -1    0    0  502    0  0.00000000000E+00  0.00000000000E+00  0.28504379259E+03  0.28504379259E+03  0.00000000000E+00 0.  1.
          2   -1    0    0  501    0 -0.00000000000E+00 -0.00000000000E+00 -0.79980014341E+01  0.79980014341E+01  0.00000000000E+00 0.  1.
          2    1    1    2  501    0  0.37118202599E+02 -0.18205593697E+02  0.21182388002E+03  0.21582066804E+03  0.00000000000E+00 0.  1.
          2    1    1    2  502    0 -0.37118202599E+02  0.18205593697E+02  0.65221911131E+02  0.77221125980E+02  0.00000000000E+00 0.  1.
</event>
<event>
 4    1  0.6225520E+003  0.2160611E+02  0.7546771E-02  0.1510784E+00
          2   -1    0    0  502    0  0.00000000000E+00  0.00000000000E+00  0.83533847548E+00  0.83533847548E+00  0.00000000000E+00 0.  1.
          2   -1    0    0  501    0 -0.00000000000E+00 -0.00000000000E+00 -0.10378089701E+04  0.10378089701E+04  0.00000000000E+00 0.  1.
          2    1    1    2  501    0  0.14806943010E+02 -0.15734626978E+02 -0.16568571377E+03  0.16708853879E+03  0.00000000000E+00 0.  1.
          2    1    1    2  502    0 -0.14806943010E+02  0.15734626978E+02 -0.87128791790E+03  0.87155576983E+03  0.00000000000E+00 0.  1.
</event>
<event>
 4    1  0.6225520E+003  0.2419576E+02  0.7546771E-02  0.1478005E+00
          2   -1    0    0  502    0  0.00000000000E+00  0.00000000000E+00  0.28835620219E+03  0.28835620219E+03  0.00000000000E+00 0. -1.
          2   -1    0    0  501    0 -0.00000000000E+00 -0.00000000000E+00 -0.17310519054E+02  0.17310519054E+02  0.00000000000E+00 0.  1.
          2    1    1    2  501    0 -0.43257172740E+01  0.23805939909E+02  0.27911431325E+03  0.28016108664E+03  0.00000000000E+00 0. -1.
          2    1    1    2  502    0  0.43257172740E+01 -0.23805939909E+02 -0.80686301116E+01  0.25505634608E+02  0.00000000000E+00 0.  1.
</event>
<event>
 4    1  0.6225520E+003  0.3468263E+02  0.7546771E-02  0.1382808E+00
          2   -1    0    0  501    0  0.00000000000E+00  0.00000000000E+00  0.11864177446E+04  0.11864177446E+04  0.00000000000E+00 0.  1.
          2   -1    0    0  502    0 -0.00000000000E+00 -0.00000000000E+00 -0.64486802250E+02  0.64486802250E+02  0.00000000000E+00 0. -1.
          2    1    1    2  501    0 -0.64220880412E+01 -0.34082866950E+02 -0.59550553865E+02  0.68914102330E+02  0.00000000000E+00 0. -1.
          2    1    1    2  502    0  0.64220880412E+01  0.34082866950E+02  0.11814814962E+04  0.11819904445E+04  0.00000000000E+00 0.  1.
</event>
<event>
 4    1  0.6225520E+003  0.2898977E+02  0.7546771E-02  0.1428583E+00
          2   -1    0    0  501    0  0.00000000000E+00  0.00000000000E+00  0.14597504166E+01  0.14597504166E+01  0.00000000000E+00 0.  1.
          2   -1    0    0  502    0 -0.00000000000E+00 -0.00000000000E+00 -0.12784591029E+04  0.12784591029E+04  0.00000000000E+00 0.  1.
          2    1    1    2  501    0 -0.19466104643E+02  0.21482027994E+02 -0.11129669256E+04  0.11133444141E+04  0.00000000000E+00 0.  1.
          2    1    1    2  502    0  0.19466104643E+02 -0.21482027994E+02 -0.16403242688E+03  0.16657443929E+03  0.00000000000E+00 0.  1.
</event>
<event>
 4    1  0.6225520E+003  0.2353104E+02  0.7546771E-02  0.1485935E+00
          2   -1    0    0  502    0  0.00000000000E+00  0.00000000000E+00  0.17248982277E+04  0.17248982277E+04  0.00000000000E+00 0.  1.
          2   -1    0    0  501    0 -0.00000000000E+00 -0.00000000000E+00 -0.17510393127E+01  0.17510393127E+01  0.00000000000E+00 0. -1.
          2    1    1    2  501    0  0.22460261844E+02  0.70175777794E+01  0.16417604669E+04  0.16419290912E+04  0.00000000000E+00 0.  1.
          2    1    1    2  502    0 -0.22460261844E+02 -0.70175777794E+01  0.81386721471E+02  0.84720175825E+02  0.00000000000E+00 0. -1.
</event>
<event>
 4    1  0.7599251E+003  0.2660836E+02  0.7546771E-02  0.1451582E+00
          2   -1    0    0  501    0  0.00000000000E+00  0.00000000000E+00  0.11143503220E+04  0.11143503220E+04  0.00000000000E+00 0.  1.
          2   -1    0    0  502    0 -0.00000000000E+00 -0.00000000000E+00 -0.47951999117E+03  0.47951999117E+03  0.00000000000E+00 0.  1.
          2    1    1    2  501    0 -0.19420053679E+02 -0.18189737060E+02 -0.47899185636E+03  0.47973034455E+03  0.00000000000E+00 0.  1.
          2    1    1    2  502    0  0.19420053679E+02  0.18189737060E+02  0.11138221872E+04  0.11141399686E+04  0.00000000000E+00 0.  1.
</event>
<event>
 4    1  0.6225520E+003  0.3114687E+02  0.7546771E-02  0.1409885E+00
          2   -1    0    0  501    0  0.00000000000E+00  0.00000000000E+00  0.13225692942E+01  0.13225692942E+01  0.00000000000E+00 0. -1.
          2   -1    0    0  502    0 -0.00000000000E+00 -0.00000000000E+00 -0.73921483238E+03  0.73921483238E+03  0.00000000000E+00 0.  1.
          2    1    1    2  501    0  0.20784553543E+02 -0.23197628120E+02 -0.40145265281E+03  0.40265911148E+03  0.00000000000E+00 0.  1.
          2    1    1    2  502    0 -0.20784553543E+02  0.23197628120E+02 -0.33643961028E+03  0.33787829019E+03  0.00000000000E+00 0. -1.
</event>
<event>
 4    1  0.6225520E+003  0.2218802E+02  0.7546771E-02  0.1502954E+00
          2   -1    0    0  502    0  0.00000000000E+00  0.00000000000E+00  0.13029772501E+02  0.13029772501E+02  0.00000000000E+00 0. -1.
          2   -1    0    0  501    0 -0.00000000000E+00 -0.00000000000E+00 -0.62131615267E+02  0.62131615267E+02  0.00000000000E+00 0. -1.
          2    1    1    2  501    0 -0.14514462638E+02  0.16782093959E+02 -0.10252195489E+01  0.22211694632E+02  0.00000000000E+00 0. -1.
          2    1    1    2  502    0  0.14514462638E+02 -0.16782093959E+02 -0.48076623217E+02  0.52949693137E+02  0.00000000000E+00 0. -1.
</event>
<event>
 4    1  0.6225520E+003  0.8733197E+02  0.7546771E-02  0.1187778E+00
          2   -1    0    0  502    0  0.00000000000E+00  0.00000000000E+00  0.25562464555E+02  0.25562464555E+02  0.00000000000E+00 0.  1.
          2   -1    0    0  501    0 -0.00000000000E+00 -0.00000000000E+00 -0.81574438508E+03  0.81574438508E+03  0.00000000000E+00 0.  1.
          2    1    1    2  501    0  0.66195166694E+02 -0.56965540849E+02 -0.60084546643E+02  0.10600483802E+03  0.00000000000E+00 0.  1.
          2    1    1    2  502    0 -0.66195166694E+02  0.56965540849E+02 -0.73009737389E+03  0.73530201162E+03  0.00000000000E+00 0.  1.
</event>
<event>
 4    1  0.6225520E+003  0.2586861E+02  0.7546771E-02  0.1459316E+00
          2   -1    0    0  501    0  0.00000000000E+00  0.00000000000E+00  0.54469313955E+02  0.54469313955E+02  0.00000000000E+00 0. -1.
          2   -1    0    0  502    0 -0.00000000000E+00 -0.00000000000E+00 -0.22465606707E+03  0.22465606707E+03  0.00000000000E+00 0. -1.
          2    1    1    2  501    0  0.92734159676E+01 -0.24149303684E+02 -0.22078635540E+03  0.22229664830E+03  0.00000000000E+00 0. -1.
          2    1    1    2  502    0 -0.92734159676E+01  0.24149303684E+02  0.50599602287E+02  0.56828732730E+02  0.00000000000E+00 0. -1.
</event>
<event>
 4    1  0.6225520E+003  0.3010669E+02  0.7546771E-02  0.1418672E+00
          2   -1    0    0  502    0  0.00000000000E+00  0.00000000000E+00  0.19964922371E+02  0.19964922371E+02  0.00000000000E+00 0. -1.
          2   -1    0    0  501    0 -0.00000000000E+00 -0.00000000000E+00 -0.26352868857E+03  0.26352868857E+03  0.00000000000E+00 0.  1.
          2    1    1    2  501    0 -0.24932204726E+02 -0.16875955612E+02  0.71782470553E+01  0.30950604859E+02  0.00000000000E+00 0. -1.
          2    1    1    2  502    0  0.24932204726E+02  0.16875955612E+02 -0.25074201326E+03  0.25254300609E+03  0.00000000000E+00 0.  1.
</event>
<event>
 4    1  0.6225520E+003  0.2486530E+02  0.7546771E-02  0.1470316E+00
          2   -1    0    0  501    0  0.00000000000E+00  0.00000000000E+00  0.32629144855E+03  0.32629144855E+03  0.00000000000E+00 0. -1.
          2   -1    0    0  502    0 -0.00000000000E+00 -0.00000000000E+00 -0.22840027611E+02  0.22840027611E+02  0.00000000000E+00 0.  1.
          2    1    1    2  501    0 -0.21156496428E+02 -0.13064680621E+02 -0.15442004788E+02  0.29270099636E+02  0.00000000000E+00 0.  1.
          2    1    1    2  502    0  0.21156496428E+02  0.13064680621E+02  0.31889342572E+03  0.31986137652E+03  0.00000000000E+00 0. -1.
</event>
<event>
 4    1  0.6225520E+003  0.2680322E+02  0.7546771E-02  0.1449595E+00
          2   -1    0    0  501    0  0.00000000000E+00  0.00000000000E+00  0.26204282260E+03  0.26204282260E+03  0.00000000000E+00 0.  1.
          2   -1    0    0  502    0 -0.00000000000E+00 -0.00000000000E+00 -0.13317656555E+03  0.13317656555E+03  0.00000000000E+00 0.  1.
          2    1    1    2  501    0  0.21095922820E+02 -0.16534036938E+02 -0.13113198365E+03  0.13384322722E+03  0.00000000000E+00 0.  1.
          2    1    1    2  502    0 -0.21095922820E+02  0.16534036938E+02  0.25999824070E+03  0.26137616093E+03  0.00000000000E+00 0.  1.
</event>
<event>
 4    1  0.6225520E+003  0.3608411E+02  0.7546771E-02  0.1373098E+00
          2   -1    0    0  502    0  0.00000000000E+00  0.00000000000E+00  0.48236318909E+02  0.48236318909E+02  0.00000000000E+00 0. -1.
          2   -1    0    0  501    0 -0.00000000000E+00 -0.00000000000E+00 -0.44329186232E+02  0.44329186232E+02  0.00000000000E+00 0. -1.
          2    1    1    2  501    0  0.17952067252E+02 -0.31301539210E+02  0.30896720495E+02  0.47504425193E+02  0.00000000000E+00 0. -1.
          2    1    1    2  502    0 -0.17952067252E+02  0.31301539210E+02 -0.26989587819E+02  0.45061079949E+02  0.00000000000E+00 0. -1.
</event>
<event>
 4    1  0.6225520E+003  0.6852852E+02  0.7546771E-02  0.1233319E+00
          2   -1    0    0  502    0  0.00000000000E+00  0.00000000000E+00  0.15845451788E+04  0.15845451788E+04  0.00000000000E+00 0. -1.
          2   -1    0    0  501    0 -0.00000000000E+00 -0.00000000000E+00 -0.32700069938E+02  0.32700069938E+02  0.00000000000E+00 0. -1.
          2    1    1    2  501    0  0.64863270535E+02 -0.22111401678E+02  0.15470307735E+04  0.15485478269E+04  0.00000000000E+00 0. -1.
          2    1    1    2  502    0 -0.64863270535E+02  0.22111401678E+02  0.48143353812E+01  0.68697421886E+02  0.00000000000E+00 0. -1.
</event>
<event>
 4    1  0.6225520E+003  0.2443703E+02  0.7546771E-02  0.1475201E+00
          2   -1    0    0  501    0  0.00000000000E+00  0.00000000000E+00  0.86776465533E+03  0.86776465533E+03  0.00000000000E+00 0. -1.
          2   -1    0    0  502    0 -0.00000000000E+00 -0.00000000000E+00 -0.35641850936E+02  0.35641850936E+02  0.00000000000E+00 0.  1.
          2    1    1    2  501    0  0.19085818264E+02  0.15261067794E+02 -0.31259878047E+02  0.39678062258E+02  0.00000000000E+00 0.  1.
          2    1    1    2  502    0 -0.19085818264E+02 -0.15261067794E+02  0.86338268244E+03  0.86372844401E+03  0.00000000000E+00 0. -1.
</event>
<event>
 4    1  0.6225520E+003  0.4124550E+02  0.7546771E-02  0.1341338E+00
          2   -1    0    0  502    0  0.00000000000E+00  0.00000000000E+00  0.61075350380E+03  0.61075350380E+03  0.00000000000E+00 0.  1.
          2   -1    0    0  501    0 -0.00000000000E+00 -0.00000000000E+00 -0.47078788736E+01  0.47078788736E+01  0.00000000000E+00 0. -1.
          2    1    1    2  501    0  0.17239148792E+02 -0.37470025980E+02  0.49967069606E+03  0.50137011837E+03  0.00000000000E+00 0.  1.
          2    1    1    2  502    0 -0.17239148792E+02  0.37470025980E+02  0.10637492887E+03  0.11409126430E+03  0.00000000000E+00 0. -1.
</event>
<event>
 4    1  0.6225520E+003  0.2140317E+02  0.7546771E-02  0.1513586E+00
          2   -1    0    0  501    0  0.00000000000E+00  0.00000000000E+00  0.57896389095E+03  0.57896389095E+03  0.00000000000E+00 0.  1.
          2   -1    0    0  502    0 -0.00000000000E+00 -0.00000000000E+00 -0.25359820939E+01  0.25359820939E+01  0.00000000000E+00 0.  1.
          2    1    1    2  501    0  0.21352312348E+02 -0.14745801026E+01  0.47049684306E+02  0.51689151883E+02  0.00000000000E+00 0.  1.
          2    1    1    2  502    0 -0.21352312348E+02  0.14745801026E+01  0.52937822455E+03  0.52981072116E+03  0.00000000000E+00 0.  1.
</event>
<event>
 4    1  0.6225520E+003  0.2370842E+02  0.7546771E-02  0.1483789E+00
          2   -1    0    0  502    0  0.00000000000E+00  0.00000000000E+00  0.16159472005E+01  0.16159472005E+01  0.00000000000E+00 0. -1.
          2   -1    0    0  501    0 -0.00000000000E+00 -0.00000000000E+00 -0.41641798887E+03  0.41641798887E+03  0.00000000000E+00 0. -1.
          2    1    1    2  501    0 -0.18450198094E+02 -0.14888893011E+02 -0.12257807573E+03  0.12484980414E+03  0.00000000000E+00 0. -1.
          2    1    1    2  502    0  0.18450198094E+02  0.14888893011E+02 -0.29222396594E+03  0.29318413193E+03  0.00000000000E+00 0. -1.
</event>
<event>
 4    1  0.6225520E+003  0.3071709E+02  0.7546771E-02  0.1413465E+00
          2   -1    0    0  502    0  0.00000000000E+00  0.00000000000E+00  0.20661856610E+03  0.20661856610E+03  0.00000000000E+00 0.  1.
          2   -1    0    0  501    0 -0.00000000000E+00 -0.00000000000E+00 -0.96547841259E+01  0.96547841259E+01  0.00000000000E+00 0.  1.
          2    1    1    2  501    0 -0.28837633081E+02  0.10579736159E+02  0.17698449370E+03  0.17963031734E+03  0.00000000000E+00 0.  1.
          2    1    1    2  502    0  0.28837633081E+02 -0.10579736159E+02  0.19979288276E+02  0.36643032883E+02  0.00000000000E+00 0.  1.
</event>
<event>
 4    1  0.6225520E+003  0.3882999E+02  0.7546771E-02  0.1355482E+00
          2   -1    0    0  502    0  0.00000000000E+00  0.00000000000E+00  0.23967353244E+03  0.23967353244E+03  0.00000000000E+00 0.  1.
          2   -1    0    0  501    0 -0.00000000000E+00 -0.00000000000E+00 -0.70476083847E+01  0.70476083847E+01  0.00000000000E+00 0.  1.
          2    1    1    2  501    0  0.38384769536E+02 -0.58632545237E+01  0.15673446927E+03  0.16147279072E+03  0.00000000000E+00 0.  1.
          2    1    1    2  502    0 -0.38384769536E+02  0.58632545237E+01  0.75891454787E+02  0.85248350105E+02  0.00000000000E+00 0.  1.
</event>
<event>
 4    1  0.6225520E+003  0.2104336E+02  0.7546771E-02  0.1518647E+00
          2   -1    0    0  501    0  0.00000000000E+00  0.00000000000E+00  0.62721491215E+02  0.62721491215E+02  0.00000000000E+00 0. -1.
          2   -1    0    0  502    0 -0.00000000000E+00 -0.00000000000E+00 -0.40030245613E+02  0.40030245613E+02  0.00000000000E+00 0.  1.
          2    1    1    2  501    0  0.13232991609E+02 -0.16361879693E+02 -0.35280053881E+02  0.41079257246E+02  0.00000000000E+00 0.  1.
          2    1    1    2  502    0 -0.13232991609E+02  0.16361879693E+02  0.57971299484E+02  0.61672479582E+02  0.00000000000E+00 0. -1.
</event>
<event>
 4    1  0.6225520E+003  0.2913830E+02  0.7546771E-02  0.1427235E+00
          2   -1    0    0  502    0  0.00000000000E+00  0.00000000000E+00  0.10737292389E+04  0.10737292389E+04  0.00000000000E+00 0.  1.
          2   -1    0    0  501    0 -0.00000000000E+00 -0.00000000000E+00 -0.19380907424E+03  0.19380907424E+03  0.00000000000E+00 0.  1.
          2    1    1    2  501    0 -0.29129491207E+02  0.71655760325E+00  0.10724350300E+04  0.10728308041E+04  0.00000000000E+00 0.  1.
          2    1    1    2  502    0  0.29129491207E+02 -0.71655760325E+00 -0.19251486531E+03  0.19470750904E+03  0.00000000000E+00 0.  1.
</event>
<event>
 4    1  0.6225520E+003  0.2746874E+02  0.7546771E-02  0.1442955E+00
          2   -1    0    0  502    0  0.00000000000E+00  0.00000000000E+00  0.10400612245E+03  0.10400612245E+03  0.00000000000E+00 0. -1.
          2   -1    0    0  501    0 -0.00000000000E+00 -0.00000000000E+00 -0.14016337585E+02  0.14016337585E+02  0.00000000000E+00 0.  1.
          2    1    1    2  501    0  0.26162565526E+02  0.83697084120E+01  0.85981668414E+02  0.90262833753E+02  0.00000000000E+00 0. -1.
          2    1    1    2  502    0 -0.26162565526E+02 -0.83697084120E+01  0.40081164500E+01  0.27759626282E+02  0.00000000000E+00 0.  1.
</event>
<event>
 4    1  0.6225520E+003  0.2380433E+02  0.7546771E-02  0.1482638E+00
          2   -1    0    0  502    0  0.00000000000E+00  0.00000000000E+00  0.15337787763E+03  0.15337787763E+03  0.00000000000E+00 0. -1.
          2   -1    0    0  501    0 -0.00000000000E+00 -0.00000000000E+00 -0.95084497710E+03  0.95084497710E+03  0.00000000000E+00 0.  1.
          2    1    1    2  501    0 -0.11305840015E+02  0.20948132859E+02  0.15230423730E+03  0.15415325811E+03  0.00000000000E+00 0. -1.
          2    1    1    2  502    0  0.11305840015E+02 -0.20948132859E+02 -0.94977133676E+03  0.95006959662E+03  0.00000000000E+00 0.  1.
</event>
<event>
 4    1  0.6225520E+003  0.3788826E+02  0.7546771E-02  0.1361325E+00
          2   -1    0    0  501    0  0.00000000000E+00  0.00000000000E+00  0.43234289959E+02  0.43234289959E+02  0.00000000000E+00 0.  1.
          2   -1    0    0  502    0 -0.00000000000E+00 -0.00000000000E+00 -0.72088122544E+02  0.72088122544E+02  0.00000000000E+00 0.  1.
          2    1    1    2  501    0 -0.36516920444E+02  0.10101221729E+02 -0.56775807905E+02  0.68256959516E+02  0.00000000000E+00 0.  1.
          2    1    1    2  502    0  0.36516920444E+02 -0.10101221729E+02  0.27921975320E+02  0.47065452987E+02  0.00000000000E+00 0.  1.
</event>
<event>
 4    1  0.6225520E+003  0.2439093E+02  0.7546771E-02  0.1475734E+00
          2   -1    0    0  501    0  0.00000000000E+00  0.00000000000E+00  0.31748791685E+01  0.31748791685E+01  0.00000000000E+00 0.  1.
          2   -1    0    0  502    0 -0.00000000000E+00 -0.00000000000E+00 -0.45594806937E+03  0.45594806937E+03  0.00000000000E+00 0.  1.
          2    1    1    2  501    0 -0.18938873068E+02 -0.15369982442E+02 -0.40257055229E+03  0.40330877358E+03  0.00000000000E+00 0.  1.
          2    1    1    2  502    0  0.18938873068E+02  0.15369982442E+02 -0.50202637913E+02  0.55814174962E+02  0.00000000000E+00 0.  1.
</event>
<event>
 4    1  0.6225520E+003  0.2987093E+02  0.7546771E-02  0.1420722E+00
          2   -1    0    0  501    0  0.00000000000E+00  0.00000000000E+00  0.59363023533E+03  0.59363023533E+03  0.00000000000E+00 0.  1.
          2   -1    0    0  502    0 -0.00000000000E+00 -0.00000000000E+00 -0.12420041329E+02  0.12420041329E+02  0.00000000000E+00 0.  1.
          2    1    1    2  501    0  0.26825488563E+02 -0.13140228110E+02  0.65071683802E+01  0.30571484618E+02  0.00000000000E+00 0.  1.
          2    1    1    2  502    0 -0.26825488563E+02  0.13140228110E+02  0.57470302562E+03  0.57547879204E+03  0.00000000000E+00 0.  1.
</event>
<event>
 4    1  0.6225520E+003  0.2441121E+02  0.7546771E-02  0.1475499E+00
          2   -1    0    0  501    0  0.00000000000E+00  0.00000000000E+00  0.56058762752E+02  0.56058762752E+02  0.00000000000E+00 0.  1.
          2   -1    0    0  502    0 -0.00000000000E+00 -0.00000000000E+00 -0.39830283676E+02  0.39830283676E+02  0.00000000000E+00 0.  1.
          2    1    1    2  501    0  0.16536423000E+02  0.17957006478E+02 -0.32936924740E+02  0.40996931332E+02  0.00000000000E+00 0.  1.
          2    1    1    2  502    0 -0.16536423000E+02 -0.17957006478E+02  0.49165403816E+02  0.54892115096E+02  0.00000000000E+00 0.  1.
</event>
<event>
 4    1  0.6225520E+003  0.2201825E+02  0.7546771E-02  0.1505208E+00
          2   -1    0    0  501    0  0.00000000000E+00  0.00000000000E+00  0.24067234002E+03  0.24067234002E+03  0.00000000000E+00 0.  1.
          2   -1    0    0  502    0 -0.00000000000E+00 -0.00000000000E+00 -0.16340847410E+02  0.16340847410E+02  0.00000000000E+00 0.  1.
          2    1    1    2  501    0  0.21957102330E+02 -0.16398459892E+01 -0.81597926878E+01  0.23481602464E+02  0.00000000000E+00 0.  1.
          2    1    1    2  502    0 -0.21957102330E+02  0.16398459892E+01  0.23249128530E+03  0.23353158497E+03  0.00000000000E+00 0.  1.
</event>
<event>
 4    1  0.6225520E+003  0.2625109E+02  0.7546771E-02  0.1455280E+00
          2   -1    0    0  501    0  0.00000000000E+00  0.00000000000E+00  0.28492231950E+01  0.28492231950E+01  0.00000000000E+00 0.  1.
          2   -1    0    0  502    0 -0.00000000000E+00 -0.00000000000E+00 -0.58166964334E+03  0.58166964334E+03  0.00000000000E+00 0. -1.
          2    1    1    2  501    0 -0.10437784746E+02 -0.24086770657E+02 -0.51279143817E+03  0.51346292849E+03  0.00000000000E+00 0. -1.
          2    1    1    2  502    0  0.10437784746E+02  0.24086770657E+02 -0.66028981973E+02  0.71055938045E+02  0.00000000000E+00 0.  1.
</event>
<event>
 4    1  0.6225520E+003  0.2240857E+02  0.7546771E-02  0.1500061E+00
          2   -1    0    0  502    0  0.00000000000E+00  0.00000000000E+00  0.36498608765E+02  0.36498608765E+02  0.00000000000E+00 0.  1.
          2   -1    0    0  501    0 -0.00000000000E+00 -0.00000000000E+00 -0.27955277591E+02  0.27955277591E+02  0.00000000000E+00 0.  1.
          2    1    1    2  501    0 -0.17741514598E+02 -0.13688785114E+02  0.27237979064E+02  0.35271116818E+02  0.00000000000E+00 0.  1.
          2    1    1    2  502    0  0.17741514598E+02  0.13688785114E+02 -0.18694647891E+02  0.29182769537E+02  0.00000000000E+00 0.  1.
</event>
<event>
 4    1  0.6225520E+003  0.2174753E+02  0.7546771E-02  0.1508854E+00
          2   -1    0    0  501    0  0.00000000000E+00  0.00000000000E+00  0.10492374335E+04  0.10492374335E+04  0.00000000000E+00 0. -1.
          2   -1    0    0  502    0 -0.00000000000E+00 -0.00000000000E+00 -0.49243772494E+00  0.49243772494E+00  0.00000000000E+00 0. -1.
          2    1    1    2  501    0 -0.95615844616E+01 -0.19532823847E+02  0.67706571169E+03  0.67741488989E+03  0.00000000000E+00 0. -1.
          2    1    1    2  502    0  0.95615844616E+01  0.19532823847E+02  0.37167928405E+03  0.37231498130E+03  0.00000000000E+00 0. -1.
</event>
<event>
 4    1  0.6225520E+003  0.2022040E+02  0.7546771E-02  0.1530693E+00
          2   -1    0    0  501    0  0.00000000000E+00  0.00000000000E+00  0.17477458908E+01  0.17477458908E+01  0.00000000000E+00 0.  1.
          2   -1    0    0  502    0 -0.00000000000E+00 -0.00000000000E+00 -0.52806257822E+03  0.52806257822E+03  0.00000000000E+00 0.  1.
          2    1    1    2  501    0  0.67368098417E+01 -0.19065151390E+02 -0.46086039092E+03  0.46130376600E+03  0.00000000000E+00 0.  1.
          2    1    1    2  502    0 -0.67368098417E+01  0.19065151390E+02 -0.65454441407E+02  0.68506558111E+02  0.00000000000E+00 0.  1.
</event>
<event>
 4    1  0.6225520E+003  0.3220036E+02  0.7546771E-02  0.1401392E+00
          2   -1    0    0  501    0  0.00000000000E+00  0.00000000000E+00  0.28426326725E+02  0.28426326725E+02  0.00000000000E+00 0.  1.
          2   -1    0    0  502    0 -0.00000000000E+00 -0.00000000000E+00 -0.10502317347E+04  0.10502317347E+04  0.00000000000E+00 0. -1.
          2    1    1    2  501    0 -0.30865486025E+02  0.91752415096E+01 -0.10407832893E+04  0.10412812870E+04  0.00000000000E+00 0. -1.
          2    1    1    2  502    0  0.30865486025E+02 -0.91752415096E+01  0.18977881374E+02  0.37376774417E+02  0.00000000000E+00 0.  1.
</event>
<event>
 4    1  0.6225520E+003  0.2763983E+02  0.7546771E-02  0.1441285E+00
          2   -1    0    0  502    0  0.00000000000E+00  0.00000000000E+00  0.74551945818E+02  0.74551945818E+02  0.00000000000E+00 0. -1.
          2   -1    0    0  501    0 -0.00000000000E+00 -0.00000000000E+00 -0.85668123988E+03  0.85668123988E+03  0.00000000000E+00 0. -1.
          2    1    1    2  501    0  0.36624056582E+01 -0.27396112881E+02  0.71758787551E+02  0.76897879079E+02  0.00000000000E+00 0. -1.
          2    1    1    2  502    0 -0.36624056582E+01  0.27396112881E+02 -0.85388808161E+03  0.85433530662E+03  0.00000000000E+00 0. -1.
</event>
<event>
 4    1  0.6225520E+003  0.2060258E+02  0.7546771E-02  0.1525015E+00
          2   -1    0    0  501    0  0.00000000000E+00  0.00000000000E+00  0.10205233757E+02  0.10205233757E+02  0.00000000000E+00 0. -1.
          2   -1    0    0  502    0 -0.00000000000E+00 -0.00000000000E+00 -0.20328295350E+03  0.20328295350E+03  0.00000000000E+00 0. -1.
          2    1    1    2  501    0  0.20521470104E+02  0.18263925462E+01 -0.19173840435E+03  0.19284211715E+03  0.00000000000E+00 0. -1.
          2    1    1    2  502    0 -0.20521470104E+02 -0.18263925462E+01 -0.13393153915E+01  0.20646070103E+02  0.00000000000E+00 0. -1.
</event>
<event>
 4    1  0.6225520E+003  0.4170512E+02  0.7546771E-02  0.1338773E+00
          2   -1    0    0  502    0  0.00000000000E+00  0.00000000000E+00  0.47716125607E+02  0.47716125607E+02  0.00000000000E+00 0. -1.
          2   -1    0    0  501    0 -0.00000000000E+00 -0.00000000000E+00 -0.19339990741E+04  0.19339990741E+04  0.00000000000E+00 0.  1.
          2    1    1    2  501    0 -0.33198472255E+02 -0.25242395626E+02  0.38334036465E+02  0.56646407200E+02  0.00000000000E+00 0. -1.
          2    1    1    2  502    0  0.33198472255E+02  0.25242395626E+02 -0.19246169849E+04  0.19250687925E+04  0.00000000000E+00 0.  1.
</event>
<event>
 4    1  0.6225520E+003  0.2591445E+02  0.7546771E-02  0.1458828E+00
          2   -1    0    0  501    0  0.00000000000E+00  0.00000000000E+00  0.16257101194E+02  0.16257101194E+02  0.00000000000E+00 0.  1.
          2   -1    0    0  502    0 -0.00000000000E+00 -0.00000000000E+00 -0.48121603022E+02  0.48121603022E+02  0.00000000000E+00 0.  1.
          2    1    1    2  501    0 -0.94821488101E+01  0.24117374758E+02 -0.28044083909E+02  0.38184153173E+02  0.00000000000E+00 0.  1.
          2    1    1    2  502    0  0.94821488101E+01 -0.24117374758E+02 -0.38204179194E+01  0.26194551043E+02  0.00000000000E+00 0.  1.
</event>
<event>
 4    1  0.6225520E+003  0.2051162E+02  0.7546771E-02  0.1526353E+00
          2   -1    0    0  502    0  0.00000000000E+00  0.00000000000E+00  0.18505487435E+02  0.18505487435E+02  0.00000000000E+00 0. -1.
          2   -1    0    0  501    0 -0.00000000000E+00 -0.00000000000E+00 -0.36444578943E+03  0.36444578943E+03  0.00000000000E+00 0. -1.
          2    1    1    2  501    0  0.19986436993E+02  0.46118100483E+01  0.12436905620E+02  0.23987560881E+02  0.00000000000E+00 0. -1.
          2    1    1    2  502    0 -0.19986436993E+02 -0.46118100483E+01 -0.35837720761E+03  0.35896371598E+03  0.00000000000E+00 0. -1.
</event>
<event>
 4    1  0.6225520E+003  0.2562685E+02  0.7546771E-02  0.1461911E+00
          2   -1    0    0  501    0  0.00000000000E+00  0.00000000000E+00  0.50980677262E+01  0.50980677262E+01  0.00000000000E+00 0.  1.
          2   -1    0    0  502    0 -0.00000000000E+00 -0.00000000000E+00 -0.31289690324E+03  0.31289690324E+03  0.00000000000E+00 0.  1.
          2    1    1    2  501    0 -0.20222749407E+02 -0.15740903693E+02 -0.27585134878E+03  0.27703917099E+03  0.00000000000E+00 0.  1.
          2    1    1    2  502    0  0.20222749407E+02  0.15740903693E+02 -0.31947486739E+02  0.40955799975E+02  0.00000000000E+00 0.  1.
</event>
<event>
 4    1  0.6225520E+003  0.2391148E+02  0.7546771E-02  0.1481359E+00
          2   -1    0    0  502    0  0.00000000000E+00  0.00000000000E+00  0.49663663031E+01  0.49663663031E+01  0.00000000000E+00 0. -1.
          2   -1    0    0  501    0 -0.00000000000E+00 -0.00000000000E+00 -0.90295419723E+03  0.90295419723E+03  0.00000000000E+00 0. -1.
          2    1    1    2  501    0  0.31722005845E+01 -0.23700129194E+02 -0.24959900531E+02  0.34565237087E+02  0.00000000000E+00 0. -1.
          2    1    1    2  502    0 -0.31722005845E+01  0.23700129194E+02 -0.87302793039E+03  0.87335532644E+03  0.00000000000E+00 0. -1.
</event>
<event>
 4    1  0.6225520E+003  0.2891304E+02  0.7546771E-02  0.1429283E+00
          2   -1    0    0  502    0  0.00000000000E+00  0.00000000000E+00  0.42667495085E+03  0.42667495085E+03  0.00000000000E+00 0.  1.
          2   -1    0    0  501    0 -0.00000000000E+00 -0.00000000000E+00 -0.95195793284E+02  0.95195793284E+02  0.00000000000E+00 0.  1.
          2    1    1    2  501    0  0.19635126345E+02  0.21223229221E+02  0.42397579801E+03  0.42496051692E+03  0.00000000000E+00 0.  1.
          2    1    1    2  502    0 -0.19635126345E+02 -0.21223229221E+02 -0.92496640443E+02  0.96910227213E+02  0.00000000000E+00 0.  1.
</event>
<event>
 4    1  0.6225520E+003  0.2005974E+02  0.7546771E-02  0.1533124E+00
          2   -1    0    0  501    0  0.00000000000E+00  0.00000000000E+00  0.12697656881E+02  0.12697656881E+02  0.00000000000E+00 0. -1.
          2   -1    0    0  502    0 -0.00000000000E+00 -0.00000000000E+00 -0.84894390892E+03  0.84894390892E+03  0.00000000000E+00 0. -1.
          2    1    1    2  501    0 -0.17751950593E+02  0.93413905393E+01 -0.84082634459E+03  0.84106559499E+03  0.00000000000E+00 0. -1.
          2    1    1    2  502    0  0.17751950593E+02 -0.93413905393E+01  0.45800925473E+01  0.20575970810E+02  0.00000000000E+00 0. -1.
</event>
<event>
 4    1  0.6225520E+003  0.2510856E+02  0.7546771E-02  0.1467592E+00
          2   -1    0    0  502    0  0.00000000000E+00  0.00000000000E+00  0.15668525702E+04  0.15668525702E+04  0.00000000000E+00 0.  1.
          2   -1    0    0  501    0 -0.00000000000E+00 -0.00000000000E+00 -0.60034694198E+00  0.60034694198E+00  0.00000000000E+00 0.  1.
          2    1    1    2  501    0  0.22243414276E+02  0.11647769871E+02  0.12331968483E+04  0.12334524339E+04  0.00000000000E+00 0.  1.
          2    1    1    2  502    0 -0.22243414276E+02 -0.11647769871E+02  0.33305537498E+03  0.33400048327E+03  0.00000000000E+00 0.  1.
</event>
<event>
 4    1  0.6225520E+003  0.3658967E+02  0.7546771E-02  0.1369719E+00
          2   -1    0    0  501    0  0.00000000000E+00  0.00000000000E+00  0.20167827091E+01  0.20167827091E+01  0.00000000000E+00 0.  1.
          2   -1    0    0  502    0 -0.00000000000E+00 -0.00000000000E+00 -0.76097085859E+03  0.76097085859E+03  0.00000000000E+00 0.  1.
          2    1    1    2  501    0  0.29862881743E+02 -0.21142670894E+02 -0.24317550967E+03  0.24591285599E+03  0.00000000000E+00 0.  1.
          2    1    1    2  502    0 -0.29862881743E+02  0.21142670894E+02 -0.51577856621E+03  0.51707478531E+03  0.00000000000E+00 0.  1.
</event>
<event>
 4    1  0.6225520E+003  0.3712460E+02  0.7546771E-02  0.1366213E+00
          2   -1    0    0  502    0  0.00000000000E+00  0.00000000000E+00  0.15845222153E+04  0.15845222153E+04  0.00000000000E+00 0. -1.
          2   -1    0    0  501    0 -0.00000000000E+00 -0.00000000000E+00 -0.16429604297E+03  0.16429604297E+03  0.00000000000E+00 0.  1.
          2    1    1    2  501    0  0.11576165989E+02 -0.35273617216E+02  0.15822045075E+04  0.15826399904E+04  0.00000000000E+00 0. -1.
          2    1    1    2  502    0 -0.11576165989E+02  0.35273617216E+02 -0.16197833510E+03  0.16617826793E+03  0.00000000000E+00 0.  1.
</event>
<event>
 4    1  0.6225520E+003  0.2078479E+02  0.7546771E-02  0.1522360E+00
          2   -1    0    0  502    0  0.00000000000E+00  0.00000000000E+00  0.28832825715E+02  0.28832825715E+02  0.00000000000E+00 0.  1.
          2   -1    0    0  501    0 -0.00000000000E+00 -0.00000000000E+00 -0.26828181978E+03  0.26828181978E+03  0.00000000000E+00 0. -1.
          2    1    1    2  501    0 -0.20190401655E+02 -0.49351015157E+01  0.24624864502E+02  0.32224082574E+02  0.00000000000E+00 0.  1.
          2    1    1    2  502    0  0.20190401655E+02  0.49351015157E+01 -0.26407385857E+03  0.26489056292E+03  0.00000000000E+00 0. -1.
</event>
<event>
 4    1  0.6225520E+003  0.2094132E+02  0.7546771E-02  0.1520104E+00
          2   -1    0    0  502    0  0.00000000000E+00  0.00000000000E+00  0.84505511888E+03  0.84505511888E+03  0.00000000000E+00 0.  1.
          2   -1    0    0  501    0 -0.00000000000E+00 -0.00000000000E+00 -0.36005694863E+02  0.36005694863E+02  0.00000000000E+00 0.  1.
          2    1    1    2  501    0  0.17978825439E+02 -0.10737817363E+02  0.84186893264E+03  0.84212934792E+03  0.00000000000E+00 0.  1.
          2    1    1    2  502    0 -0.17978825439E+02  0.10737817363E+02 -0.32819508615E+02  0.38931465829E+02  0.00000000000E+00 0.  1.
</event>
<event>
 4    1  0.6225520E+003  0.2292154E+02  0.7546771E-02  0.1493486E+00
          2   -1    0    0  501    0  0.00000000000E+00  0.00000000000E+00  0.66567271831E+01  0.66567271831E+01  0.00000000000E+00 0.  1.
          2   -1    0    0  502    0 -0.00000000000E+00 -0.00000000000E+00 -0.15978437038E+03  0.15978437038E+03  0.00000000000E+00 0.  1.
          2    1    1    2  501    0  0.41575279495E+01  0.22541338308E+02 -0.13576394923E+03  0.13768531833E+03  0.00000000000E+00 0.  1.
          2    1    1    2  502    0 -0.41575279495E+01 -0.22541338308E+02 -0.17363693961E+02  0.28755779234E+02  0.00000000000E+00 0.  1.
</event>
<event>
 4    1  0.6225520E+003  0.2285013E+02  0.7546771E-02  0.1494389E+00
          2   -1    0    0  502    0  0.00000000000E+00  0.00000000000E+00  0.24530951826E+03  0.24530951826E+03  0.00000000000E+00 0.  1.
          2   -1    0    0  501    0 -0.00000000000E+00 -0.00000000000E+00 -0.53746686983E+01  0.53746686983E+01  0.00000000000E+00 0. -1.
          2    1    1    2  501    0 -0.32621393968E+01 -0.22616080873E+02  0.21737889201E+03  0.21857655720E+03  0.00000000000E+00 0.  1.
          2    1    1    2  502    0  0.32621393968E+01  0.22616080873E+02  0.22555957557E+02  0.32107629760E+02  0.00000000000E+00 0. -1.
</event>
<event>
 4    1  0.6225520E+003  0.2016440E+02  0.7546771E-02  0.1531537E+00
          2   -1    0    0  501    0  0.00000000000E+00  0.00000000000E+00  0.13395785157E+02  0.13395785157E+02  0.00000000000E+00 0. -1.
          2   -1    0    0  502    0 -0.00000000000E+00 -0.00000000000E+00 -0.44373308236E+02  0.44373308236E+02  0.00000000000E+00 0. -1.
          2    1    1    2  501    0  0.13763530421E+02  0.14736635572E+02 -0.31724885433E+02  0.37590844010E+02  0.00000000000E+00 0. -1.
          2    1    1    2  502    0 -0.13763530421E+02 -0.14736635572E+02  0.74736235464E+00  0.20178249382E+02  0.00000000000E+00 0. -1.
</event>
<event>
 4    1  0.6225520E+003  0.2437106E+02  0.7546771E-02  0.1475964E+00
          2   -1    0    0  502    0  0.00000000000E+00  0.00000000000E+00  0.29026161692E+03  0.29026161692E+03  0.00000000000E+00 0.  1.
          2   -1    0    0  501    0 -0.00000000000E+00 -0.00000000000E+00 -0.11727119538E+02  0.11727119538E+02  0.00000000000E+00 0. -1.
          2    1    1    2  501    0 -0.23906244855E+02  0.47370643628E+01  0.27645717389E+03  0.27752930893E+03  0.00000000000E+00 0.  1.
          2    1    1    2  502    0  0.23906244855E+02 -0.47370643628E+01  0.20773234906E+01  0.24459427523E+02  0.00000000000E+00 0. -1.
</event>
<event>
 4    1  0.6225520E+003  0.4746966E+02  0.7546771E-02  0.1309532E+00
          2   -1    0    0  501    0  0.00000000000E+00  0.00000000000E+00  0.28685235939E+03  0.28685235939E+03  0.00000000000E+00 0. -1.
          2   -1    0    0  502    0 -0.00000000000E+00 -0.00000000000E+00 -0.77719405911E+02  0.77719405911E+02  0.00000000000E+00 0. -1.
          2    1    1    2  501    0  0.21700436287E+02 -0.42219189674E+02 -0.68261771626E+02  0.83144683398E+02  0.00000000000E+00 0. -1.
          2    1    1    2  502    0 -0.21700436287E+02  0.42219189674E+02  0.27739472511E+03  0.28142708190E+03  0.00000000000E+00 0. -1.
</event>
<event>
 4    1  0.6225520E+003  0.2332863E+02  0.7546771E-02  0.1488412E+00
          2   -1    0    0  502    0  0.00000000000E+00  0.00000000000E+00  0.17569878022E+03  0.17569878022E+03  0.00000000000E+00 0.  1.
          2   -1    0    0  501    0 -0.00000000000E+00 -0.00000000000E+00 -0.25550107908E+02  0.25550107908E+02  0.00000000000E+00 0. -1.
          2    1    1    2  501    0  0.23175301853E+02  0.26702609227E+01  0.16940233788E+03  0.17100110231E+03  0.00000000000E+00 0.  1.
          2    1    1    2  502    0 -0.23175301853E+02 -0.26702609227E+01 -0.19253665570E+02  0.30247785824E+02  0.00000000000E+00 0. -1.
</event>
<event>
 4    1  0.6225520E+003  0.3138730E+02  0.7546771E-02  0.1407912E+00
          2   -1    0    0  502    0  0.00000000000E+00  0.00000000000E+00  0.12290970348E+01  0.12290970348E+01  0.00000000000E+00 0. -1.
          2   -1    0    0  501    0 -0.00000000000E+00 -0.00000000000E+00 -0.81389947211E+03  0.81389947211E+03  0.00000000000E+00 0.  1.
          2    1    1    2  501    0 -0.11794319256E+02 -0.29087054472E+02 -0.45657189917E+03  0.45764949668E+03  0.00000000000E+00 0.  1.
          2    1    1    2  502    0  0.11794319256E+02  0.29087054472E+02 -0.35609847591E+03  0.35747907246E+03  0.00000000000E+00 0. -1.
</event>
<event>
 4    1  0.6225520E+003  0.3952047E+02  0.7546771E-02  0.1351319E+00
          2   -1    0    0  501    0  0.00000000000E+00  0.00000000000E+00  0.46951144373E+03  0.46951144373E+03  0.00000000000E+00 0. -1.
          2   -1    0    0  502    0 -0.00000000000E+00 -0.00000000000E+00 -0.27274780099E+02  0.27274780099E+02  0.00000000000E+00 0. -1.
          2    1    1    2  501    0 -0.47305214608E+00 -0.39517635135E+02 -0.11634707544E+02  0.41197496096E+02  0.00000000000E+00 0. -1.
          2    1    1    2  502    0  0.47305214608E+00  0.39517635135E+02  0.45387137118E+03  0.45558872773E+03  0.00000000000E+00 0. -1.
</event>
<event>
 4    1  0.6225520E+003  0.2398667E+02  0.7546771E-02  0.1480467E+00
          2   -1    0    0  502    0  0.00000000000E+00  0.00000000000E+00  0.23228042927E+02  0.23228042927E+02  0.00000000000E+00 0.  1.
          2   -1    0    0  501    0 -0.00000000000E+00 -0.00000000000E+00 -0.29636088608E+02  0.29636088608E+02  0.00000000000E+00 0.  1.
          2    1    1    2  501    0 -0.11836738773E+02  0.20862692155E+02  0.75064201130E+01  0.25133775118E+02  0.00000000000E+00 0.  1.
          2    1    1    2  502    0  0.11836738773E+02 -0.20862692155E+02 -0.13914465794E+02  0.27730356418E+02  0.00000000000E+00 0.  1.
</event>
<event>
 4    1  0.6225520E+003  0.2013312E+02  0.7546771E-02  0.1532010E+00
          2   -1    0    0  502    0  0.00000000000E+00  0.00000000000E+00  0.88715913023E+03  0.88715913023E+03  0.00000000000E+00 0.  1.
          2   -1    0    0  501    0 -0.00000000000E+00 -0.00000000000E+00 -0.10918390788E+01  0.10918390788E+01  0.00000000000E+00 0.  1.
          2    1    1    2  501    0 -0.20081067288E+02  0.14468459374E+01  0.78171598620E+03  0.78197520786E+03  0.00000000000E+00 0.  1.
          2    1    1    2  502    0  0.20081067288E+02 -0.14468459374E+01  0.10435130495E+03  0.10627576145E+03  0.00000000000E+00 0.  1.
</event>
<event>
 4    1  0.6225520E+003  0.2530996E+02  0.7546771E-02  0.1465366E+00
          2   -1    0    0  502    0  0.00000000000E+00  0.00000000000E+00  0.64685504397E+03  0.64685504397E+03  0.00000000000E+00 0.  1.
          2   -1    0    0  501    0 -0.00000000000E+00 -0.00000000000E+00 -0.17933706340E+02  0.17933706340E+02  0.00000000000E+00 0. -1.
          2    1    1    2  501    0 -0.19301937695E+02  0.16371606068E+02  0.63754710808E+03  0.63804930006E+03  0.00000000000E+00 0.  1.
          2    1    1    2  502    0  0.19301937695E+02 -0.16371606068E+02 -0.86257704486E+01  0.26739450253E+02  0.00000000000E+00 0. -1.
</event>
<event>
 4    1  0.6225520E+003  0.2369954E+02  0.7546771E-02  0.1483896E+00
          2   -1    0    0  502    0  0.00000000000E+00  0.00000000000E+00  0.35496153036E+01  0.35496153036E+01  0.00000000000E+00 0.  1.
          2   -1    0    0  501    0 -0.00000000000E+00 -0.00000000000E+00 -0.59251208319E+03  0.59251208319E+03  0.00000000000E+00 0.  1.
          2    1    1    2  501    0 -0.23565959612E+02  0.25127111902E+01 -0.39330510339E+02  0.45919028882E+02  0.00000000000E+00 0.  1.
          2    1    1    2  502    0  0.23565959612E+02 -0.25127111902E+01 -0.54963195755E+03  0.55014266961E+03  0.00000000000E+00 0.  1.
</event>
<event>
 4    1  0.6225520E+003  0.2157627E+02  0.7546771E-02  0.1511194E+00
          2   -1    0    0  502    0  0.00000000000E+00  0.00000000000E+00  0.18268112825E+01  0.18268112825E+01  0.00000000000E+00 0. -1.
          2   -1    0    0  501    0 -0.00000000000E+00 -0.00000000000E+00 -0.14567633235E+04  0.14567633235E+04  0.00000000000E+00 0.  1.
          2    1    1    2  501    0  0.15649664941E+02 -0.14853403438E+02 -0.65025971359E+02  0.68512134383E+02  0.00000000000E+00 0. -1.
          2    1    1    2  502    0 -0.15649664941E+02  0.14853403438E+02 -0.13899105409E+04  0.13900780004E+04  0.00000000000E+00 0.  1.
</event>
<event>
 4    1  0.6225520E+003  0.3031903E+02  0.7546771E-02  0.1416844E+00
          2   -1    0    0  502    0  0.00000000000E+00  0.00000000000E+00  0.17331936540E+02  0.17331936540E+02  0.00000000000E+00 0. -1.
          2   -1    0    0  501    0 -0.00000000000E+00 -0.00000000000E+00 -0.33774386533E+03  0.33774386533E+03  0.00000000000E+00 0. -1.
          2    1    1    2  501    0 -0.25208811628E+02 -0.16845161563E+02  0.27971445169E+01  0.30447785950E+02  0.00000000000E+00 0. -1.
          2    1    1    2  502    0  0.25208811628E+02  0.16845161563E+02 -0.32320907331E+03  0.32462801592E+03  0.00000000000E+00 0. -1.
</event>
<event>
 4    1  0.6225520E+003  0.2702158E+02  0.7546771E-02  0.1447391E+00
          2   -1    0    0  501    0  0.00000000000E+00  0.00000000000E+00  0.12332985327E+03  0.12332985327E+03  0.00000000000E+00 0. -1.
          2   -1    0    0  502    0 -0.00000000000E+00 -0.00000000000E+00 -0.33175139059E+03  0.33175139059E+03  0.00000000000E+00 0.  1.
          2    1    1    2  501    0  0.10666199588E+02  0.24827367813E+02 -0.32971190665E+03  0.33081733237E+03  0.00000000000E+00 0.  1.
          2    1    1    2  502    0 -0.10666199588E+02 -0.24827367813E+02  0.12129036934E+03  0.12426391150E+03  0.00000000000E+00 0. -1.
</event>
<event>
 4    1  0.6225520E+003  0.2035167E+02  0.7546771E-02  0.1528726E+00
          2   -1    0    0  502    0  0.00000000000E+00  0.00000000000E+00  0.32685153690E+02  0.32685153690E+02  0.00000000000E+00 0.  1.
          2   -1    0    0  501    0 -0.00000000000E+00 -0.00000000000E+00 -0.77967277395E+02  0.77967277395E+02  0.00000000000E+00 0. -1.
          2    1    1    2  501    0 -0.34758627823E+01  0.20052646880E+02  0.27989792797E+02  0.34606628986E+02  0.00000000000E+00 0.  1.
          2    1    1    2  502    0  0.34758627823E+01 -0.20052646880E+02 -0.73271916502E+02  0.76045802098E+02  0.00000000000E+00 0. -1.
</event>
<event>
 4    1  0.6225520E+003  0.2262032E+02  0.7546771E-02  0.1497322E+00
          2   -1    0    0  502    0  0.00000000000E+00  0.00000000000E+00  0.56996827849E+02  0.56996827849E+02  0.00000000000E+00 0. -1.
          2   -1    0    0  501    0 -0.00000000000E+00 -0.00000000000E+00 -0.55028075524E+02  0.55028075524E+02  0.00000000000E+00 0. -1.
          2    1    1    2  501    0 -0.22535910503E+02 -0.19523543236E+01  0.52224572410E+02  0.56912959095E+02  0.00000000000E+00 0. -1.
          2    1    1    2  502    0  0.22535910503E+02  0.19523543236E+01 -0.50255820085E+02  0.55111944278E+02  0.00000000000E+00 0. -1.
</event>
<event>
 4    1  0.6225520E+003  0.2996170E+02  0.7546771E-02  0.1419930E+00
          2   -1    0    0  501    0  0.00000000000E+00  0.00000000000E+00  0.76393366860E+03  0.76393366860E+03  0.00000000000E+00 0. -1.
          2   -1    0    0  502    0 -0.00000000000E+00 -0.00000000000E+00 -0.37086192039E+01  0.37086192039E+01  0.00000000000E+00 0. -1.
          2    1    1    2  501    0 -0.29803710938E+02 -0.30728490424E+01  0.62875185655E+02  0.69649067173E+02  0.00000000000E+00 0. -1.
          2    1    1    2  502    0  0.29803710938E+02  0.30728490424E+01  0.69734986374E+03  0.69799322063E+03  0.00000000000E+00 0. -1.
</event>
<event>
 4    1  0.6225520E+003  0.2962560E+02  0.7546771E-02  0.1422878E+00
          2   -1    0    0  502    0  0.00000000000E+00  0.00000000000E+00  0.16779805760E+03  0.16779805760E+03  0.00000000000E+00 0.  1.
          2   -1    0    0  501    0 -0.00000000000E+00 -0.00000000000E+00 -0.11862616675E+03  0.11862616675E+03  0.00000000000E+00 0. -1.
          2    1    1    2  501    0  0.28267589607E+01 -0.29490433180E+02  0.16460515906E+03  0.16724991660E+03  0.00000000000E+00 0.  1.
          2    1    1    2  502    0 -0.28267589607E+01  0.29490433180E+02 -0.11543326822E+03  0.11917430774E+03  0.00000000000E+00 0. -1.
</event>
<event>
 4    1  0.6225520E+003  0.3952472E+02  0.7546771E-02  0.1351294E+00
          2   -1    0    0  501    0  0.00000000000E+00  0.00000000000E+00  0.81809116732E+01  0.81809116732E+01  0.00000000000E+00 0.  1.
          2   -1    0    0  502    0 -0.00000000000E+00 -0.00000000000E+00 -0.70171945419E+03  0.70171945419E+03  0.00000000000E+00 0.  1.
          2    1    1    2  501    0  0.38516926065E+02  0.88684948054E+01 -0.64959659148E+03  0.65079792214E+03  0.00000000000E+00 0.  1.
          2    1    1    2  502    0 -0.38516926065E+02 -0.88684948054E+01 -0.43941951037E+02  0.59102443727E+02  0.00000000000E+00 0.  1.
</event>
<event>
 4    1  0.6225520E+003  0.2328482E+02  0.7546771E-02  0.1488952E+00
          2   -1    0    0  502    0  0.00000000000E+00  0.00000000000E+00  0.22884036033E+03  0.22884036033E+03  0.00000000000E+00 0. -1.
          2   -1    0    0  501    0 -0.00000000000E+00 -0.00000000000E+00 -0.26166263402E+03  0.26166263402E+03  0.00000000000E+00 0.  1.
          2    1    1    2  501    0 -0.84965924508E+01 -0.21679275353E+02  0.22772750237E+03  0.22891482782E+03  0.00000000000E+00 0. -1.
          2    1    1    2  502    0  0.84965924508E+01  0.21679275353E+02 -0.26054977605E+03  0.26158816652E+03  0.00000000000E+00 0.  1.
</event>
<event>
 4    1  0.6225520E+003  0.3828959E+02  0.7546771E-02  0.1358811E+00
          2   -1    0    0  502    0  0.00000000000E+00  0.00000000000E+00  0.49834765613E+02  0.49834765613E+02  0.00000000000E+00 0.  1.
          2   -1    0    0  501    0 -0.00000000000E+00 -0.00000000000E+00 -0.13267757942E+04  0.13267757942E+04  0.00000000000E+00 0. -1.
          2    1    1    2  501    0  0.28175943095E+02  0.25926992681E+02  0.42160968858E+02  0.56952963170E+02  0.00000000000E+00 0.  1.
          2    1    1    2  502    0 -0.28175943095E+02 -0.25926992681E+02 -0.13191019975E+04  0.13196575967E+04  0.00000000000E+00 0. -1.
</event>
<event>
 4    1  0.6225520E+003  0.2229497E+02  0.7546771E-02  0.1501546E+00
          2   -1    0    0  502    0  0.00000000000E+00  0.00000000000E+00  0.31888741239E+01  0.31888741239E+01  0.00000000000E+00 0. -1.
          2   -1    0    0  501    0 -0.00000000000E+00 -0.00000000000E+00 -0.31479436724E+03  0.31479436724E+03  0.00000000000E+00 0.  1.
          2    1    1    2  501    0  0.17992907221E+02  0.13165138001E+02 -0.42836355920E+02  0.48290982154E+02  0.00000000000E+00 0. -1.
          2    1    1    2  502    0 -0.17992907221E+02 -0.13165138001E+02 -0.26876913720E+03  0.26969225921E+03  0.00000000000E+00 0.  1.
</event>
<event>
 4    1  0.6225520E+003  0.2782164E+02  0.7546771E-02  0.1439525E+00
          2   -1    0    0  502    0  0.00000000000E+00  0.00000000000E+00  0.15213674250E+02  0.15213674250E+02  0.00000000000E+00 0.  1.
          2   -1    0    0  501    0 -0.00000000000E+00 -0.00000000000E+00 -0.14450035636E+03  0.14450035636E+03  0.00000000000E+00 0. -1.
          2    1    1    2  501    0 -0.20767222625E+02  0.18513941751E+02 -0.36449746848E+00  0.27824026185E+02  0.00000000000E+00 0.  1.
          2    1    1    2  502    0  0.20767222625E+02 -0.18513941751E+02 -0.12892218464E+03  0.13189000442E+03  0.00000000000E+00 0. -1.
</event>
<event>
 4    1  0.1270034E+004  0.2360016E+02  0.7546771E-02  0.1485096E+00
          2   -1    0    0  502    0  0.00000000000E+00  0.00000000000E+00  0.62587438070E+03  0.62587438070E+03  0.00000000000E+00 0.  1.
          2   -1    0    0  501    0 -0.00000000000E+00 -0.00000000000E+00 -0.10447374609E+04  0.10447374609E+04  0.00000000000E+00 0.  1.
          2    1    1    2  501    0 -0.22154838272E+02  0.81320701045E+01  0.62551854991E+03  0.62596359615E+03  0.00000000000E+00 0.  1.
          2    1    1    2  502    0  0.22154838272E+02 -0.81320701045E+01 -0.10443816301E+04  0.10446482455E+04  0.00000000000E+00 0.  1.
</event>
<event>
 4    1  0.6225520E+003  0.3024313E+02  0.7546771E-02  0.1417495E+00
          2   -1    0    0  502    0  0.00000000000E+00  0.00000000000E+00  0.29611403006E+01  0.29611403006E+01  0.00000000000E+00 0.  1.
          2   -1    0    0  501    0 -0.00000000000E+00 -0.00000000000E+00 -0.16276552940E+04  0.16276552940E+04  0.00000000000E+00 0. -1.
          2    1    1    2  501    0 -0.17561727645E+02  0.24621788159E+02 -0.78466382927E+02  0.84092924671E+02  0.00000000000E+00 0.  1.
          2    1    1    2  502    0  0.17561727645E+02 -0.24621788159E+02 -0.15462277707E+04  0.15465235096E+04  0.00000000000E+00 0. -1.
</event>
<event>
 4    1  0.6225520E+003  0.3013989E+02  0.7546771E-02  0.1418385E+00
          2   -1    0    0  502    0  0.00000000000E+00  0.00000000000E+00  0.12217290167E+03  0.12217290167E+03  0.00000000000E+00 0.  1.
          2   -1    0    0  501    0 -0.00000000000E+00 -0.00000000000E+00 -0.10796700170E+04  0.10796700170E+04  0.00000000000E+00 0.  1.
          2    1    1    2  501    0 -0.26766668480E+02  0.13854899931E+02  0.12010011459E+03  0.12382427192E+03  0.00000000000E+00 0.  1.
          2    1    1    2  502    0  0.26766668480E+02 -0.13854899931E+02 -0.10775972299E+04  0.10780186467E+04  0.00000000000E+00 0.  1.
</event>
<event>
 4    1  0.6225520E+003  0.3017948E+02  0.7546771E-02  0.1418043E+00
          2   -1    0    0  502    0  0.00000000000E+00  0.00000000000E+00  0.17242858295E+01  0.17242858295E+01  0.00000000000E+00 0. -1.
          2   -1    0    0  501    0 -0.00000000000E+00 -0.00000000000E+00 -0.57220008182E+03  0.57220008182E+03  0.00000000000E+00 0. -1.
          2    1    1    2  501    0  0.30092581003E+02  0.22885482304E+01 -0.20568011566E+03  0.20788244482E+03  0.00000000000E+00 0. -1.
          2    1    1    2  502    0 -0.30092581003E+02 -0.22885482304E+01 -0.36479568033E+03  0.36604192283E+03  0.00000000000E+00 0. -1.
</event>
<event>
 4    1  0.6225520E+003  0.3237639E+02  0.7546771E-02  0.1400010E+00
          2   -1    0    0  502    0  0.00000000000E+00  0.00000000000E+00  0.33515735147E+03  0.33515735147E+03  0.00000000000E+00 0.  1.
          2   -1    0    0  501    0 -0.00000000000E+00 -0.00000000000E+00 -0.26974690766E+03  0.26974690766E+03  0.00000000000E+00 0. -1.
          2    1    1    2  501    0 -0.90639367714E+01 -0.31081755278E+02  0.33339885068E+03  0.33496719854E+03  0.00000000000E+00 0.  1.
          2    1    1    2  502    0  0.90639367714E+01  0.31081755278E+02 -0.26798840688E+03  0.26993706059E+03  0.00000000000E+00 0. -1.
</event>
<event>
 4    1  0.6225520E+003  0.2383747E+02  0.7546771E-02  0.1482242E+00
          2   -1    0    0  502    0  0.00000000000E+00  0.00000000000E+00  0.11369429341E+04  0.11369429341E+04  0.00000000000E+00 0. -1.
          2   -1    0    0  501    0 -0.00000000000E+00 -0.00000000000E+00 -0.55875226464E+00  0.55875226464E+00  0.00000000000E+00 0.  1.
          2    1    1    2  501    0 -0.83546904458E+01  0.22325410576E+02  0.75295937235E+03  0.75333660552E+03  0.00000000000E+00 0. -1.
          2    1    1    2  502    0  0.83546904458E+01 -0.22325410576E+02  0.38342480947E+03  0.38416508083E+03  0.00000000000E+00 0.  1.
</event>
<event>
 4    1  0.6225520E+003  0.4837470E+02  0.7546771E-02  0.1305377E+00
          2   -1    0    0  502    0  0.00000000000E+00  0.00000000000E+00  0.16523642332E+02  0.16523642332E+02  0.00000000000E+00 0. -1.
          2   -1    0    0  501    0 -0.00000000000E+00 -0.00000000000E+00 -0.71138165884E+03  0.71138165884E+03  0.00000000000E+00 0. -1.
          2    1    1    2  501    0 -0.47904202748E+02 -0.67304458934E+01 -0.21712780336E+02  0.53024111240E+02  0.00000000000E+00 0. -1.
          2    1    1    2  502    0  0.47904202748E+02  0.67304458934E+01 -0.67314523617E+03  0.67488118993E+03  0.00000000000E+00 0. -1.
</event>
<event>
 4    1  0.6225520E+003  0.2534177E+02  0.7546771E-02  0.1465016E+00
          2   -1    0    0  502    0  0.00000000000E+00  0.00000000000E+00  0.83108610267E+02  0.83108610267E+02  0.00000000000E+00 0.  1.
          2   -1    0    0  501    0 -0.00000000000E+00 -0.00000000000E+00 -0.66298455246E+02  0.66298455246E+02  0.00000000000E+00 0. -1.
          2    1    1    2  501    0 -0.24474599695E+02 -0.65726087730E+01  0.78620308388E+02  0.82603620425E+02  0.00000000000E+00 0.  1.
          2    1    1    2  502    0  0.24474599695E+02  0.65726087730E+01 -0.61810153367E+02  0.66803445088E+02  0.00000000000E+00 0. -1.
</event>
<event>
 4    1  0.6225520E+003  0.2711999E+02  0.7546771E-02  0.1446407E+00
          2   -1    0    0  501    0  0.00000000000E+00  0.00000000000E+00  0.46239114690E+02  0.46239114690E+02  0.00000000000E+00 0.  1.
          2   -1    0    0  502    0 -0.00000000000E+00 -0.00000000000E+00 -0.24034019788E+02  0.24034019788E+02  0.00000000000E+00 0. -1.
          2    1    1    2  501    0 -0.27028525270E+02 -0.22254064323E+01 -0.93303644695E+01  0.28680120523E+02  0.00000000000E+00 0. -1.
          2    1    1    2  502    0  0.27028525270E+02  0.22254064323E+01  0.31535459372E+02  0.41593013955E+02  0.00000000000E+00 0.  1.
</event>
<event>
 4    1  0.6225520E+003  0.2135599E+02  0.7546771E-02  0.1514243E+00
          2   -1    0    0  501    0  0.00000000000E+00  0.00000000000E+00  0.43520213363E+01  0.43520213363E+01  0.00000000000E+00 0. -1.
          2   -1    0    0  502    0 -0.00000000000E+00 -0.00000000000E+00 -0.60707641047E+03  0.60707641047E+03  0.00000000000E+00 0.  1.
          2    1    1    2  501    0  0.66694951268E+01 -0.20287831150E+02 -0.57944023549E+03  0.57983365267E+03  0.00000000000E+00 0.  1.
          2    1    1    2  502    0 -0.66694951268E+01  0.20287831150E+02 -0.23284153640E+02  0.31594779138E+02  0.00000000000E+00 0. -1.
</event>
<event>
 4    1  0.6225520E+003  0.3518929E+02  0.7546771E-02  0.1379237E+00
          2   -1    0    0  501    0  0.00000000000E+00  0.00000000000E+00  0.75564167852E+00  0.75564167852E+00  0.00000000000E+00 0. -1.
          2   -1    0    0  502    0 -0.00000000000E+00 -0.00000000000E+00 -0.17497742424E+04  0.17497742424E+04  0.00000000000E+00 0. -1.
          2    1    1    2  501    0  0.21209938143E+02  0.28078897540E+02 -0.10950120191E+04  0.10955772944E+04  0.00000000000E+00 0. -1.
          2    1    1    2  502    0 -0.21209938143E+02 -0.28078897540E+02 -0.65400658157E+03  0.65495258966E+03  0.00000000000E+00 0. -1.
</event>
<event>
 4    1  0.6225520E+003  0.3420433E+02  0.7546771E-02  0.1386245E+00
          2   -1    0    0  502    0  0.00000000000E+00  0.00000000000E+00  0.13503556447E+02  0.13503556447E+02  0.00000000000E+00 0.  1.
          2   -1    0    0  501    0 -0.00000000000E+00 -0.00000000000E+00 -0.73653056018E+03  0.73653056018E+03  0.00000000000E+00 0. -1.
          2    1    1    2  501    0  0.31480783339E+02 -0.13375221564E+02 -0.92431890961E+01  0.35431240681E+02  0.00000000000E+00 0.  1.
          2    1    1    2  502    0 -0.31480783339E+02  0.13375221564E+02 -0.71378381464E+03  0.71460287595E+03  0.00000000000E+00 0. -1.
</event>
<event>
 4    1  0.6225520E+003  0.2577312E+02  0.7546771E-02  0.1460337E+00
          2   -1    0    0  502    0  0.00000000000E+00  0.00000000000E+00  0.35908776037E+03  0.35908776037E+03  0.00000000000E+00 0. -1.
          2   -1    0    0  501    0 -0.00000000000E+00 -0.00000000000E+00 -0.41589789858E+02  0.41589789858E+02  0.00000000000E+00 0. -1.
          2    1    1    2  501    0  0.74092117178E+01  0.24685165967E+02  0.35458173624E+03  0.35551717470E+03  0.00000000000E+00 0. -1.
          2    1    1    2  502    0 -0.74092117178E+01 -0.24685165967E+02 -0.37083765725E+02  0.45160375524E+02  0.00000000000E+00 0. -1.
</event>
<event>
 4    1  0.6225520E+003  0.3434258E+02  0.7546771E-02  0.1385245E+00
          2   -1    0    0  501    0  0.00000000000E+00  0.00000000000E+00  0.14510778057E+02  0.14510778057E+02  0.00000000000E+00 0. -1.
          2   -1    0    0  502    0 -0.00000000000E+00 -0.00000000000E+00 -0.93781913999E+02  0.93781913999E+02  0.00000000000E+00 0. -1.
          2    1    1    2  501    0 -0.32419282934E+02  0.11331486401E+02 -0.59406450213E+02  0.68618793468E+02  0.00000000000E+00 0. -1.
          2    1    1    2  502    0  0.32419282934E+02 -0.11331486401E+02 -0.19864685728E+02  0.39673898587E+02  0.00000000000E+00 0. -1.
</event>
<event>
 4    1  0.6225520E+003  0.2556685E+02  0.7546771E-02  0.1462561E+00
          2   -1    0    0  502    0  0.00000000000E+00  0.00000000000E+00  0.99050064145E+01  0.99050064145E+01  0.00000000000E+00 0.  1.
          2   -1    0    0  501    0 -0.00000000000E+00 -0.00000000000E+00 -0.68870939689E+02  0.68870939689E+02  0.00000000000E+00 0.  1.
          2    1    1    2  501    0 -0.16742516397E+02 -0.19322317839E+02 -0.21431673346E+02  0.33361361549E+02  0.00000000000E+00 0.  1.
          2    1    1    2  502    0  0.16742516397E+02  0.19322317839E+02 -0.37534259929E+02  0.45414584555E+02  0.00000000000E+00 0.  1.
</event>
<event>
 4    1  0.6225520E+003  0.2247979E+02  0.7546771E-02  0.1499136E+00
          2   -1    0    0  501    0  0.00000000000E+00  0.00000000000E+00  0.71734733998E+02  0.71734733998E+02  0.00000000000E+00 0. -1.
          2   -1    0    0  502    0 -0.00000000000E+00 -0.00000000000E+00 -0.10665668343E+04  0.10665668343E+04  0.00000000000E+00 0. -1.
          2    1    1    2  501    0 -0.67265625463E+01  0.21449808658E+02 -0.10646841255E+04  0.10649214187E+04  0.00000000000E+00 0. -1.
          2    1    1    2  502    0  0.67265625463E+01 -0.21449808658E+02  0.69852025177E+02  0.73380149608E+02  0.00000000000E+00 0. -1.
</event>
<event>
 4    1  0.6225520E+003  0.2306007E+02  0.7546771E-02  0.1491745E+00
          2   -1    0    0  501    0  0.00000000000E+00  0.00000000000E+00  0.70455281321E+01  0.70455281321E+01  0.00000000000E+00 0. -1.
          2   -1    0    0  502    0 -0.00000000000E+00 -0.00000000000E+00 -0.13950414619E+04  0.13950414619E+04  0.00000000000E+00 0. -1.
          2    1    1    2  501    0 -0.14235085122E+02  0.18141914605E+02 -0.13758135339E+04  0.13760067757E+04  0.00000000000E+00 0. -1.
          2    1    1    2  502    0  0.14235085122E+02 -0.18141914605E+02 -0.12182399903E+02  0.26080214365E+02  0.00000000000E+00 0. -1.
</event>
<event>
 4    1  0.6225520E+003  0.2024700E+02  0.7546771E-02  0.1530293E+00
          2   -1    0    0  502    0  0.00000000000E+00  0.00000000000E+00  0.55505507297E+00  0.55505507297E+00  0.00000000000E+00 0. -1.
          2   -1    0    0  501    0 -0.00000000000E+00 -0.00000000000E+00 -0.11506217977E+04  0.11506217977E+04  0.00000000000E+00 0. -1.
          2    1    1    2  501    0  0.16612255154E+02 -0.11574715018E+02 -0.23058246266E+03  0.23146968081E+03  0.00000000000E+00 0. -1.
          2    1    1    2  502    0 -0.16612255154E+02  0.11574715018E+02 -0.91948427994E+03  0.91970717194E+03  0.00000000000E+00 0. -1.
</event>
<event>
 4    1  0.6225520E+003  0.2176185E+02  0.7546771E-02  0.1508660E+00
          2   -1    0    0  501    0  0.00000000000E+00  0.00000000000E+00  0.12006955149E+04  0.12006955149E+04  0.00000000000E+00 0. -1.
          2   -1    0    0  502    0 -0.00000000000E+00 -0.00000000000E+00 -0.94806115699E+00  0.94806115699E+00  0.00000000000E+00 0. -1.
          2    1    1    2  501    0  0.19987864564E+02 -0.86059973154E+01  0.14073723363E+03  0.14240978495E+03  0.00000000000E+00 0. -1.
          2    1    1    2  502    0 -0.19987864564E+02  0.86059973154E+01  0.10590102201E+04  0.10592337911E+04  0.00000000000E+00 0. -1.
</event>
<event>
 4    1  0.6225520E+003  0.2143970E+02  0.7546771E-02  0.1513079E+00
          2   -1    0    0  502    0  0.00000000000E+00  0.00000000000E+00  0.85048727677E+03  0.85048727677E+03  0.00000000000E+00 0.  1.
          2   -1    0    0  501    0 -0.00000000000E+00 -0.00000000000E+00 -0.64391382849E+00  0.64391382849E+00  0.00000000000E+00 0. -1.
          2    1    1    2  501    0 -0.16026767068E+02 -0.14240910184E+02  0.59549458554E+03  0.59588040931E+03  0.00000000000E+00 0.  1.
          2    1    1    2  502    0  0.16026767068E+02  0.14240910184E+02  0.25434877740E+03  0.25525078129E+03  0.00000000000E+00 0. -1.
</event>
<event>
 4    1  0.6225520E+003  0.2090068E+02  0.7546771E-02  0.1520688E+00
          2   -1    0    0  501    0  0.00000000000E+00  0.00000000000E+00  0.36344251236E+02  0.36344251236E+02  0.00000000000E+00 0.  1.
          2   -1    0    0  502    0 -0.00000000000E+00 -0.00000000000E+00 -0.21664751735E+02  0.21664751735E+02  0.00000000000E+00 0. -1.
          2    1    1    2  501    0  0.10730949040E+02  0.17935585659E+02 -0.12013151961E+02  0.24107142516E+02  0.00000000000E+00 0. -1.
          2    1    1    2  502    0 -0.10730949040E+02 -0.17935585659E+02  0.26692651463E+02  0.33901860455E+02  0.00000000000E+00 0.  1.
</event>
<event>
 4    1  0.6225520E+003  0.2667588E+02  0.7546771E-02  0.1450891E+00
          2   -1    0    0  501    0  0.00000000000E+00  0.00000000000E+00  0.15578777299E+03  0.15578777299E+03  0.00000000000E+00 0. -1.
          2   -1    0    0  502    0 -0.00000000000E+00 -0.00000000000E+00 -0.17980342480E+02  0.17980342480E+02  0.00000000000E+00 0.  1.
          2    1    1    2  501    0  0.19859136550E+02 -0.17810587434E+02 -0.61370400668E+01  0.27372716161E+02  0.00000000000E+00 0.  1.
          2    1    1    2  502    0 -0.19859136550E+02  0.17810587434E+02  0.14394447058E+03  0.14639539931E+03  0.00000000000E+00 0. -1.
</event>
<event>
 4    1  0.6225520E+003  0.2116978E+02  0.7546771E-02  0.1516855E+00
          2   -1    0    0  501    0  0.00000000000E+00  0.00000000000E+00  0.44649864214E+00  0.44649864214E+00  0.00000000000E+00 0.  1.
          2   -1    0    0  502    0 -0.00000000000E+00 -0.00000000000E+00 -0.10699963089E+04  0.10699963089E+04  0.00000000000E+00 0.  1.
          2    1    1    2  501    0 -0.14357016797E+02  0.15557493305E+02 -0.66798039819E+03  0.66831577259E+03  0.00000000000E+00 0.  1.
          2    1    1    2  502    0  0.14357016797E+02 -0.15557493305E+02 -0.40156941208E+03  0.40212703496E+03  0.00000000000E+00 0.  1.
</event>
<event>
 4    1  0.6225520E+003  0.2002712E+02  0.7546771E-02  0.1533621E+00
          2   -1    0    0  502    0  0.00000000000E+00  0.00000000000E+00  0.38327004136E+02  0.38327004136E+02  0.00000000000E+00 0.  1.
          2   -1    0    0  501    0 -0.00000000000E+00 -0.00000000000E+00 -0.72284661164E+03  0.72284661164E+03  0.00000000000E+00 0.  1.
          2    1    1    2  501    0  0.87658060663E+01 -0.18006838808E+02  0.35562035358E+02  0.40813526663E+02  0.00000000000E+00 0.  1.
          2    1    1    2  502    0 -0.87658060663E+01  0.18006838808E+02 -0.72008164286E+03  0.72036008911E+03  0.00000000000E+00 0.  1.
</event>
<event>
 4    1  0.6225520E+003  0.3009842E+02  0.7546771E-02  0.1418743E+00
          2   -1    0    0  501    0  0.00000000000E+00  0.00000000000E+00  0.19869082752E+03  0.19869082752E+03  0.00000000000E+00 0.  1.
          2   -1    0    0  502    0 -0.00000000000E+00 -0.00000000000E+00 -0.26902547593E+02  0.26902547593E+02  0.00000000000E+00 0. -1.
          2    1    1    2  501    0  0.24449715938E+02  0.17553522292E+02 -0.16900775444E+02  0.34518849414E+02  0.00000000000E+00 0. -1.
          2    1    1    2  502    0 -0.24449715938E+02 -0.17553522292E+02  0.18868905537E+03  0.19107452570E+03  0.00000000000E+00 0.  1.
</event>
<event>
 4    1  0.6225520E+003  0.2974608E+02  0.7546771E-02  0.1421816E+00
          2   -1    0    0  501    0  0.00000000000E+00  0.00000000000E+00  0.54412170757E+03  0.54412170757E+03  0.00000000000E+00 0.  1.
          2   -1    0    0  502    0 -0.00000000000E+00 -0.00000000000E+00 -0.28273519518E+01  0.28273519518E+01  0.00000000000E+00 0.  1.
          2    1    1    2  501    0 -0.28336347687E+02 -0.90488066638E+01  0.92395768200E+02  0.97065995505E+02  0.00000000000E+00 0.  1.
          2    1    1    2  502    0  0.28336347687E+02  0.90488066638E+01  0.44889858741E+03  0.44988306401E+03  0.00000000000E+00 0.  1.
</event>
<event>
 4    1  0.6225520E+003  0.3502518E+02  0.7546771E-02  0.1380386E+00
          2   -1    0    0  502    0  0.00000000000E+00  0.00000000000E+00  0.57111219839E+02  0.57111219839E+02  0.00000000000E+00 0. -1.
          2   -1    0    0  501    0 -0.00000000000E+00 -0.00000000000E+00 -0.33846764474E+03  0.33846764474E+03  0.00000000000E+00 0. -1.
          2    1    1    2  501    0  0.25536784410E+02  0.23971557780E+02  0.50732175977E+02  0.61648330227E+02  0.00000000000E+00 0. -1.
          2    1    1    2  502    0 -0.25536784410E+02 -0.23971557780E+02 -0.33208860088E+03  0.33393053436E+03  0.00000000000E+00 0. -1.
</event>
<event>
 4    1  0.6225520E+003  0.2961856E+02  0.7546771E-02  0.1422940E+00
          2   -1    0    0  501    0  0.00000000000E+00  0.00000000000E+00  0.18818958560E+03  0.18818958560E+03  0.00000000000E+00 0.  1.
          2   -1    0    0  502    0 -0.00000000000E+00 -0.00000000000E+00 -0.22399088208E+03  0.22399088208E+03  0.00000000000E+00 0. -1.
          2    1    1    2  501    0 -0.57716459346E+01 -0.29050771310E+02 -0.22183509015E+03  0.22380363365E+03  0.00000000000E+00 0. -1.
          2    1    1    2  502    0  0.57716459346E+01  0.29050771310E+02  0.18603379367E+03  0.18837683403E+03  0.00000000000E+00 0.  1.
</event>
<event>
 4    1  0.6225520E+003  0.2912055E+02  0.7546771E-02  0.1427396E+00
          2   -1    0    0  501    0  0.00000000000E+00  0.00000000000E+00  0.10538862213E+03  0.10538862213E+03  0.00000000000E+00 0.  1.
          2   -1    0    0  502    0 -0.00000000000E+00 -0.00000000000E+00 -0.98863923996E+02  0.98863923996E+02  0.00000000000E+00 0.  1.
          2    1    1    2  501    0  0.26996766035E+02  0.10917004474E+02 -0.94619738499E+02  0.98999501396E+02  0.00000000000E+00 0.  1.
          2    1    1    2  502    0 -0.26996766035E+02 -0.10917004474E+02  0.10114443664E+03  0.10525304473E+03  0.00000000000E+00 0.  1.
</event>
<event>
 4    1  0.6225520E+003  0.2530836E+02  0.7546771E-02  0.1465383E+00
          2   -1    0    0  502    0  0.00000000000E+00  0.00000000000E+00  0.26947167502E+03  0.26947167502E+03  0.00000000000E+00 0.  1.
          2   -1    0    0  501    0 -0.00000000000E+00 -0.00000000000E+00 -0.24158682221E+02  0.24158682221E+02  0.00000000000E+00 0. -1.
          2    1    1    2  501    0 -0.16815737105E+01 -0.25252435871E+02  0.26206228954E+03  0.26328151627E+03  0.00000000000E+00 0.  1.
          2    1    1    2  502    0  0.16815737105E+01  0.25252435871E+02 -0.16749296738E+02  0.30348840980E+02  0.00000000000E+00 0. -1.
</event>
<event>
 4    1  0.6225520E+003  0.2209929E+02  0.7546771E-02  0.1504129E+00
          2   -1    0    0  501    0  0.00000000000E+00  0.00000000000E+00  0.83421187366E+02  0.83421187366E+02  0.00000000000E+00 0. -1.
          2   -1    0    0  502    0 -0.00000000000E+00 -0.00000000000E+00 -0.86875914669E+03  0.86875914669E+03  0.00000000000E+00 0.  1.
          2    1    1    2  501    0  0.22008043894E+02  0.20061179085E+01 -0.86715230345E+03  0.86743385678E+03  0.00000000000E+00 0.  1.
          2    1    1    2  502    0 -0.22008043894E+02 -0.20061179085E+01  0.81814344130E+02  0.84746477275E+02  0.00000000000E+00 0. -1.
</event>
<event>
 4    1  0.6225520E+003  0.2553988E+02  0.7546771E-02  0.1462854E+00
          2   -1    0    0  502    0  0.00000000000E+00  0.00000000000E+00  0.35946249741E+00  0.35946249741E+00  0.00000000000E+00 0.  1.
          2   -1    0    0  501    0 -0.00000000000E+00 -0.00000000000E+00 -0.21436444185E+04  0.21436444185E+04  0.00000000000E+00 0.  1.
          2    1    1    2  501    0  0.18648729670E+02 -0.17450220005E+02 -0.14916314890E+04  0.14918501212E+04  0.00000000000E+00 0.  1.
          2    1    1    2  502    0 -0.18648729670E+02  0.17450220005E+02 -0.65165346703E+03  0.65215375978E+03  0.00000000000E+00 0.  1.
</event>
<event>
 4    1  0.6225520E+003  0.2506620E+02  0.7546771E-02  0.1468064E+00
          2   -1    0    0  501    0  0.00000000000E+00  0.00000000000E+00  0.14894352521E+01  0.14894352521E+01  0.00000000000E+00 0.  1.
          2   -1    0    0  502    0 -0.00000000000E+00 -0.00000000000E+00 -0.55031481840E+03  0.55031481840E+03  0.00000000000E+00 0.  1.
          2    1    1    2  501    0  0.23495308448E+02 -0.87341343177E+01 -0.40771745823E+03  0.40848725851E+03  0.00000000000E+00 0.  1.
          2    1    1    2  502    0 -0.23495308448E+02  0.87341343177E+01 -0.14110792492E+03  0.14331699514E+03  0.00000000000E+00 0.  1.
</event>
<event>
 4    1  0.6225520E+003  0.2116539E+02  0.7546771E-02  0.1516916E+00
          2   -1    0    0  502    0  0.00000000000E+00  0.00000000000E+00  0.38361602708E+03  0.38361602708E+03  0.00000000000E+00 0.  1.
          2   -1    0    0  501    0 -0.00000000000E+00 -0.00000000000E+00 -0.66872234026E+03  0.66872234026E+03  0.00000000000E+00 0.  1.
          2    1    1    2  501    0  0.65113755825E+01  0.20138912663E+02  0.38315641102E+03  0.38374054923E+03  0.00000000000E+00 0.  1.
          2    1    1    2  502    0 -0.65113755825E+01 -0.20138912663E+02 -0.66826272421E+03  0.66859781811E+03  0.00000000000E+00 0.  1.
</event>
<event>
 4    1  0.6225520E+003  0.3265951E+02  0.7546771E-02  0.1397809E+00
          2   -1    0    0  502    0  0.00000000000E+00  0.00000000000E+00  0.21799227769E+04  0.21799227769E+04  0.00000000000E+00 0. -1.
          2   -1    0    0  501    0 -0.00000000000E+00 -0.00000000000E+00 -0.12256031135E+01  0.12256031135E+01  0.00000000000E+00 0.  1.
          2    1    1    2  501    0 -0.18853223219E+02 -0.26668328740E+02  0.19346421892E+04  0.19349178391E+04  0.00000000000E+00 0. -1.
          2    1    1    2  502    0  0.18853223219E+02  0.26668328740E+02  0.24405498456E+03  0.24623054090E+03  0.00000000000E+00 0.  1.
</event>
<event>
 4    1  0.6225520E+003  0.2562254E+02  0.7546771E-02  0.1461958E+00
          2   -1    0    0  501    0  0.00000000000E+00  0.00000000000E+00  0.14780635178E+02  0.14780635178E+02  0.00000000000E+00 0. -1.
          2   -1    0    0  502    0 -0.00000000000E+00 -0.00000000000E+00 -0.44634822089E+02  0.44634822089E+02  0.00000000000E+00 0. -1.
          2    1    1    2  501    0 -0.30942988680E+01  0.25435012904E+02 -0.17001408463E+02  0.30749999295E+02  0.00000000000E+00 0. -1.
          2    1    1    2  502    0  0.30942988680E+01 -0.25435012904E+02 -0.12852778448E+02  0.28665457972E+02  0.00000000000E+00 0. -1.
</event>
<event>
 4    1  0.6225520E+003  0.3830463E+02  0.7546771E-02  0.1358718E+00
          2   -1    0    0  501    0  0.00000000000E+00  0.00000000000E+00  0.13294877380E+01  0.13294877380E+01  0.00000000000E+00 0. -1.
          2   -1    0    0  502    0 -0.00000000000E+00 -0.00000000000E+00 -0.28147106349E+04  0.28147106349E+04  0.00000000000E+00 0. -1.
          2    1    1    2  501    0  0.36669395785E+02 -0.11072500591E+02 -0.25045048971E+04  0.25047978011E+04  0.00000000000E+00 0. -1.
          2    1    1    2  502    0 -0.36669395785E+02  0.11072500591E+02 -0.30887625005E+03  0.31124232152E+03  0.00000000000E+00 0. -1.
</event>
<event>
 4    1  0.6225520E+003  0.2273351E+02  0.7546771E-02  0.1495872E+00
          2   -1    0    0  502    0  0.00000000000E+00  0.00000000000E+00  0.59630342572E+03  0.59630342572E+03  0.00000000000E+00 0. -1.
          2   -1    0    0  501    0 -0.00000000000E+00 -0.00000000000E+00 -0.20238143211E+01  0.20238143211E+01  0.00000000000E+00 0.  1.
          2    1    1    2  501    0  0.16797781313E+02  0.15318197332E+02  0.52335027447E+03  0.52384379582E+03  0.00000000000E+00 0. -1.
          2    1    1    2  502    0 -0.16797781313E+02 -0.15318197332E+02  0.70929336926E+02  0.74483444223E+02  0.00000000000E+00 0.  1.
</event>
<event>
 4    1  0.6225520E+003  0.3244250E+02  0.7546771E-02  0.1399494E+00
          2   -1    0    0  501    0  0.00000000000E+00  0.00000000000E+00  0.13339966350E+04  0.13339966350E+04  0.00000000000E+00 0.  1.
          2   -1    0    0  502    0 -0.00000000000E+00 -0.00000000000E+00 -0.57529171511E+02  0.57529171511E+02  0.00000000000E+00 0.  1.
          2    1    1    2  501    0  0.31331219817E+02  0.84184582070E+01 -0.52741616218E+02  0.61920867687E+02  0.00000000000E+00 0.  1.
          2    1    1    2  502    0 -0.31331219817E+02 -0.84184582070E+01  0.13292090797E+04  0.13296049389E+04  0.00000000000E+00 0.  1.
</event>
<event>
 4    1  0.6225520E+003  0.2762086E+02  0.7546771E-02  0.1441469E+00
          2   -1    0    0  501    0  0.00000000000E+00  0.00000000000E+00  0.54816283201E+00  0.54816283201E+00  0.00000000000E+00 0.  1.
          2   -1    0    0  502    0 -0.00000000000E+00 -0.00000000000E+00 -0.20945563681E+04  0.20945563681E+04  0.00000000000E+00 0.  1.
          2    1    1    2  501    0 -0.25525192894E+02  0.10553493149E+02 -0.16538020425E+04  0.16540326803E+04  0.00000000000E+00 0.  1.
          2    1    1    2  502    0  0.25525192894E+02 -0.10553493149E+02 -0.44020616277E+03  0.44107185064E+03  0.00000000000E+00 0.  1.
</event>
<event>
 4    1  0.6225520E+003  0.3722527E+02  0.7546771E-02  0.1365560E+00
          2   -1    0    0  502    0  0.00000000000E+00  0.00000000000E+00  0.13350211123E+04  0.13350211123E+04  0.00000000000E+00 0.  1.
          2   -1    0    0  501    0 -0.00000000000E+00 -0.00000000000E+00 -0.21146871617E+01  0.21146871617E+01  0.00000000000E+00 0. -1.
          2    1    1    2  501    0 -0.20658833120E+02 -0.30966644709E+02  0.11435120812E+04  0.11441178263E+04  0.00000000000E+00 0.  1.
          2    1    1    2  502    0  0.20658833120E+02  0.30966644709E+02  0.18939434390E+03  0.19301797319E+03  0.00000000000E+00 0. -1.
</event>
<event>
 4    1  0.6225520E+003  0.2023573E+02  0.7546771E-02  0.1530462E+00
          2   -1    0    0  502    0  0.00000000000E+00  0.00000000000E+00  0.87213109925E+03  0.87213109925E+03  0.00000000000E+00 0. -1.
          2   -1    0    0  501    0 -0.00000000000E+00 -0.00000000000E+00 -0.77075735641E+00  0.77075735641E+00  0.00000000000E+00 0. -1.
          2    1    1    2  501    0 -0.25241365195E+01  0.20077690648E+02  0.70853358880E+03  0.70882249639E+03  0.00000000000E+00 0. -1.
          2    1    1    2  502    0  0.25241365195E+01 -0.20077690648E+02  0.16282675309E+03  0.16407936022E+03  0.00000000000E+00 0. -1.
</event>
<event>
 4    1  0.6225520E+003  0.2240927E+02  0.7546771E-02  0.1500052E+00
          2   -1    0    0  501    0  0.00000000000E+00  0.00000000000E+00  0.10141691615E+02  0.10141691615E+02  0.00000000000E+00 0. -1.
          2   -1    0    0  502    0 -0.00000000000E+00 -0.00000000000E+00 -0.69093842731E+03  0.69093842731E+03  0.00000000000E+00 0. -1.
          2    1    1    2  501    0  0.22386696799E+02  0.10056069492E+01 -0.67814425696E+03  0.67851441303E+03  0.00000000000E+00 0. -1.
          2    1    1    2  502    0 -0.22386696799E+02 -0.10056069492E+01 -0.26524787282E+01  0.22565705890E+02  0.00000000000E+00 0. -1.
</event>
<event>
 4    1  0.6225520E+003  0.3923898E+02  0.7546771E-02  0.1353004E+00
          2   -1    0    0  502    0  0.00000000000E+00  0.00000000000E+00  0.14603623837E+04  0.14603623837E+04  0.00000000000E+00 0. -1.
          2   -1    0    0  501    0 -0.00000000000E+00 -0.00000000000E+00 -0.11779458267E+01  0.11779458267E+01  0.00000000000E+00 0. -1.
          2    1    1    2  501    0  0.29031577794E+02  0.26398206280E+02  0.96632722766E+03  0.96712357469E+03  0.00000000000E+00 0. -1.
          2    1    1    2  502    0 -0.29031577794E+02 -0.26398206280E+02  0.49285721024E+03  0.49441675486E+03  0.00000000000E+00 0. -1.
</event>
<event>
 4    1  0.6225520E+003  0.2507648E+02  0.7546771E-02  0.1467950E+00
          2   -1    0    0  501    0  0.00000000000E+00  0.00000000000E+00  0.44984259148E+01  0.44984259148E+01  0.00000000000E+00 0. -1.
          2   -1    0    0  502    0 -0.00000000000E+00 -0.00000000000E+00 -0.88717260036E+03  0.88717260036E+03  0.00000000000E+00 0. -1.
          2    1    1    2  501    0  0.24026051780E+02  0.71818439517E+01 -0.85054347812E+03  0.85091306150E+03  0.00000000000E+00 0. -1.
          2    1    1    2  502    0 -0.24026051780E+02 -0.71818439517E+01 -0.32130696318E+02  0.40757964775E+02  0.00000000000E+00 0. -1.
</event>
<event>
 4    1  0.6225520E+003  0.2286633E+02  0.7546771E-02  0.1494184E+00
          2   -1    0    0  502    0  0.00000000000E+00  0.00000000000E+00  0.85743727303E+01  0.85743727303E+01  0.00000000000E+00 0.  1.
          2   -1    0    0  501    0 -0.00000000000E+00 -0.00000000000E+00 -0.15560190638E+03  0.15560190638E+03  0.00000000000E+00 0.  1.
          2    1    1    2  501    0  0.42173954574E+01  0.22474040361E+02 -0.95008197598E+01  0.24761552672E+02  0.00000000000E+00 0.  1.
          2    1    1    2  502    0 -0.42173954574E+01 -0.22474040361E+02 -0.13752671389E+03  0.13941472644E+03  0.00000000000E+00 0.  1.
</event>
<event>
 4    1  0.6225520E+003  0.2951343E+02  0.7546771E-02  0.1423872E+00
          2   -1    0    0  501    0  0.00000000000E+00  0.00000000000E+00  0.16477246687E+03  0.16477246687E+03  0.00000000000E+00 0. -1.
          2   -1    0    0  502    0 -0.00000000000E+00 -0.00000000000E+00 -0.16746983132E+04  0.16746983132E+04  0.00000000000E+00 0.  1.
          2    1    1    2  501    0  0.27175599913E+02 -0.11512143800E+02 -0.16732455520E+04  0.16735058171E+04  0.00000000000E+00 0.  1.
          2    1    1    2  502    0 -0.27175599913E+02  0.11512143800E+02  0.16331970564E+03  0.16596496297E+03  0.00000000000E+00 0. -1.
</event>
<event>
 4    1  0.6225520E+003  0.2236874E+02  0.7546771E-02  0.1500581E+00
          2   -1    0    0  502    0  0.00000000000E+00  0.00000000000E+00  0.62477038485E+03  0.62477038485E+03  0.00000000000E+00 0.  1.
          2   -1    0    0  501    0 -0.00000000000E+00 -0.00000000000E+00 -0.13200417672E+02  0.13200417672E+02  0.00000000000E+00 0.  1.
          2    1    1    2  501    0 -0.36841132063E+01  0.22063266411E+02  0.61494254772E+03  0.61534924832E+03  0.00000000000E+00 0.  1.
          2    1    1    2  502    0  0.36841132063E+01 -0.22063266411E+02 -0.33725805429E+01  0.22621554199E+02  0.00000000000E+00 0.  1.
</event>
<event>
 4    1  0.6225520E+003  0.2093360E+02  0.7546771E-02  0.1520215E+00
          2   -1    0    0  502    0  0.00000000000E+00  0.00000000000E+00  0.11494675322E+04  0.11494675322E+04  0.00000000000E+00 0.  1.
          2   -1    0    0  501    0 -0.00000000000E+00 -0.00000000000E+00 -0.39169775152E+02  0.39169775152E+02  0.00000000000E+00 0.  1.
          2    1    1    2  501    0 -0.66752539428E+01 -0.19840778155E+02  0.11465682538E+04  0.11467593366E+04  0.00000000000E+00 0.  1.
          2    1    1    2  502    0  0.66752539428E+01  0.19840778155E+02 -0.36270496786E+02  0.41877970702E+02  0.00000000000E+00 0.  1.
</event>
<event>
 4    1  0.6225520E+003  0.2231355E+02  0.7546771E-02  0.1501303E+00
          2   -1    0    0  502    0  0.00000000000E+00  0.00000000000E+00  0.15717867516E+01  0.15717867516E+01  0.00000000000E+00 0. -1.
          2   -1    0    0  501    0 -0.00000000000E+00 -0.00000000000E+00 -0.97802982498E+03  0.97802982498E+03  0.00000000000E+00 0. -1.
          2    1    1    2  501    0 -0.22242703080E+02  0.17766940918E+01 -0.85484536153E+02  0.88348743078E+02  0.00000000000E+00 0. -1.
          2    1    1    2  502    0  0.22242703080E+02 -0.17766940918E+01 -0.89097350207E+03  0.89125286865E+03  0.00000000000E+00 0. -1.
</event>
<event>
 4    1  0.6225520E+003  0.4318345E+02  0.7546771E-02  0.1330777E+00
          2   -1    0    0  502    0  0.00000000000E+00  0.00000000000E+00  0.33864609045E+03  0.33864609045E+03  0.00000000000E+00 0. -1.
          2   -1    0    0  501    0 -0.00000000000E+00 -0.00000000000E+00 -0.94421424881E+02  0.94421424881E+02  0.00000000000E+00 0. -1.
          2    1    1    2  501    0  0.23990911606E+02  0.35906082595E+02  0.33223711067E+03  0.33503180194E+03  0.00000000000E+00 0. -1.
          2    1    1    2  502    0 -0.23990911606E+02 -0.35906082595E+02 -0.88012445101E+02  0.98035713389E+02  0.00000000000E+00 0. -1.
</event>
<event>
 4    1  0.6225520E+003  0.2398401E+02  0.7546771E-02  0.1480498E+00
          2   -1    0    0  502    0  0.00000000000E+00  0.00000000000E+00  0.64354933490E+02  0.64354933490E+02  0.00000000000E+00 0.  1.
          2   -1    0    0  501    0 -0.00000000000E+00 -0.00000000000E+00 -0.18448591518E+02  0.18448591518E+02  0.00000000000E+00 0. -1.
          2    1    1    2  501    0  0.21895919698E+02 -0.97878320579E+01  0.52678786342E+02  0.57881667964E+02  0.00000000000E+00 0.  1.
          2    1    1    2  502    0 -0.21895919698E+02  0.97878320579E+01 -0.67724443696E+01  0.24921857045E+02  0.00000000000E+00 0. -1.
</event>
<event>
 4    1  0.6225520E+003  0.3051719E+02  0.7546771E-02  0.1415154E+00
          2   -1    0    0  501    0  0.00000000000E+00  0.00000000000E+00  0.10729844883E+04  0.10729844883E+04  0.00000000000E+00 0. -1.
          2   -1    0    0  502    0 -0.00000000000E+00 -0.00000000000E+00 -0.96464611491E+00  0.96464611491E+00  0.00000000000E+00 0. -1.
          2    1    1    2  501    0  0.16474664719E+02  0.25688208651E+02  0.36600145574E+03  0.36727151298E+03  0.00000000000E+00 0. -1.
          2    1    1    2  502    0 -0.16474664719E+02 -0.25688208651E+02  0.70601838640E+03  0.70667762139E+03  0.00000000000E+00 0. -1.
</event>
<event>
 4    1  0.6225520E+003  0.2462054E+02  0.7546771E-02  0.1473093E+00
          2   -1    0    0  501    0  0.00000000000E+00  0.00000000000E+00  0.37823407770E+02  0.37823407770E+02  0.00000000000E+00 0.  1.
          2   -1    0    0  502    0 -0.00000000000E+00 -0.00000000000E+00 -0.67444690103E+02  0.67444690103E+02  0.00000000000E+00 0.  1.
          2    1    1    2  501    0  0.22172150288E+02 -0.10703595786E+02 -0.60767667525E+02  0.65565849553E+02  0.00000000000E+00 0.  1.
          2    1    1    2  502    0 -0.22172150288E+02  0.10703595786E+02  0.31146385192E+02  0.39702248320E+02  0.00000000000E+00 0.  1.
</event>
<event>
 4    1  0.6225520E+003  0.2197477E+02  0.7546771E-02  0.1505789E+00
          2   -1    0    0  501    0  0.00000000000E+00  0.00000000000E+00  0.29997816365E+03  0.29997816365E+03  0.00000000000E+00 0. -1.
          2   -1    0    0  502    0 -0.00000000000E+00 -0.00000000000E+00 -0.45671120081E+01  0.45671120081E+01  0.00000000000E+00 0.  1.
          2    1    1    2  501    0  0.21658786811E+02 -0.37131490264E+01  0.25172510824E+02  0.33414754571E+02  0.00000000000E+00 0.  1.
          2    1    1    2  502    0 -0.21658786811E+02  0.37131490264E+01  0.27023854082E+03  0.27113052109E+03  0.00000000000E+00 0. -1.
</event>
<event>
 4    1  0.6225520E+003  0.3843659E+02  0.7546771E-02  0.1357899E+00
          2   -1    0    0  501    0  0.00000000000E+00  0.00000000000E+00  0.67997711253E+03  0.67997711253E+03  0.00000000000E+00 0. -1.
          2   -1    0    0  502    0 -0.00000000000E+00 -0.00000000000E+00 -0.81656690781E+02  0.81656690781E+02  0.00000000000E+00 0. -1.
          2    1    1    2  501    0 -0.34350294797E+02  0.17246116524E+02 -0.76556247400E+02  0.85663471234E+02  0.00000000000E+00 0. -1.
          2    1    1    2  502    0  0.34350294797E+02 -0.17246116524E+02  0.67487666915E+03  0.67597033208E+03  0.00000000000E+00 0. -1.
</event>
<event>
 4    1  0.6225520E+003  0.6116281E+02  0.7546771E-02  0.1255932E+00
          2   -1    0    0  502    0  0.00000000000E+00  0.00000000000E+00  0.40360262880E+02  0.40360262880E+02  0.00000000000E+00 0.  1.
          2   -1    0    0  501    0 -0.00000000000E+00 -0.00000000000E+00 -0.41863497792E+03  0.41863497792E+03  0.00000000000E+00 0.  1.
          2    1    1    2  501    0  0.31874133895E+02 -0.52200856050E+02  0.13366955644E+02  0.62606431675E+02  0.00000000000E+00 0.  1.
          2    1    1    2  502    0 -0.31874133895E+02  0.52200856050E+02 -0.39164167069E+03  0.39638880913E+03  0.00000000000E+00 0.  1.
</event>
<event>
 4    1  0.6225520E+003  0.2135067E+02  0.7546771E-02  0.1514317E+00
          2   -1    0    0  502    0  0.00000000000E+00  0.00000000000E+00  0.70318597109E+00  0.70318597109E+00  0.00000000000E+00 0.  1.
          2   -1    0    0  501    0 -0.00000000000E+00 -0.00000000000E+00 -0.71337200181E+03  0.71337200181E+03  0.00000000000E+00 0.  1.
          2    1    1    2  501    0  0.17132989027E+02  0.12740170352E+02 -0.24847255718E+03  0.24938817720E+03  0.00000000000E+00 0.  1.
          2    1    1    2  502    0 -0.17132989027E+02 -0.12740170352E+02 -0.46419625865E+03  0.46468701058E+03  0.00000000000E+00 0.  1.
</event>
<event>
 4    1  0.6225520E+003  0.2085599E+02  0.7546771E-02  0.1521331E+00
          2   -1    0    0  501    0  0.00000000000E+00  0.00000000000E+00  0.31983540570E+03  0.31983540570E+03  0.00000000000E+00 0.  1.
          2   -1    0    0  502    0 -0.00000000000E+00 -0.00000000000E+00 -0.15239134695E+03  0.15239134695E+03  0.00000000000E+00 0.  1.
          2    1    1    2  501    0 -0.20514343797E+02 -0.37595457227E+01 -0.15133541060E+03  0.15276576510E+03  0.00000000000E+00 0.  1.
          2    1    1    2  502    0  0.20514343797E+02  0.37595457227E+01  0.31877946935E+03  0.31946098755E+03  0.00000000000E+00 0.  1.
</event>
<event>
 4    1  0.6225520E+003  0.2015265E+02  0.7546771E-02  0.1531715E+00
          2   -1    0    0  502    0  0.00000000000E+00  0.00000000000E+00  0.12360773808E+02  0.12360773808E+02  0.00000000000E+00 0.  1.
          2   -1    0    0  501    0 -0.00000000000E+00 -0.00000000000E+00 -0.97655563005E+02  0.97655563005E+02  0.00000000000E+00 0.  1.
          2    1    1    2  501    0  0.16572419739E+02  0.11466656102E+02  0.21614475719E+01  0.20268230158E+02  0.00000000000E+00 0.  1.
          2    1    1    2  502    0 -0.16572419739E+02 -0.11466656102E+02 -0.87456236769E+02  0.89748106654E+02  0.00000000000E+00 0.  1.
</event>
<event>
 4    1  0.6225520E+003  0.2158313E+02  0.7546771E-02  0.1511100E+00
          2   -1    0    0  502    0  0.00000000000E+00  0.00000000000E+00  0.31735594564E+02  0.31735594564E+02  0.00000000000E+00 0.  1.
          2   -1    0    0  501    0 -0.00000000000E+00 -0.00000000000E+00 -0.15753803813E+02  0.15753803813E+02  0.00000000000E+00 0.  1.
          2    1    1    2  501    0 -0.20119634460E+02  0.78122856420E+01  0.14194382751E+02  0.25832382767E+02  0.00000000000E+00 0.  1.
          2    1    1    2  502    0  0.20119634460E+02 -0.78122856420E+01  0.17874079999E+01  0.21657015610E+02  0.00000000000E+00 0.  1.
</event>
<event>
 4    1  0.6225520E+003  0.2984870E+02  0.7546771E-02  0.1420916E+00
          2   -1    0    0  501    0  0.00000000000E+00  0.00000000000E+00  0.78165912018E+03  0.78165912018E+03  0.00000000000E+00 0. -1.
          2   -1    0    0  502    0 -0.00000000000E+00 -0.00000000000E+00 -0.66791897965E+01  0.66791897965E+01  0.00000000000E+00 0.  1.
          2    1    1    2  501    0  0.23545851074E+02 -0.18344960139E+02  0.28525692465E+02  0.41287525911E+02  0.00000000000E+00 0.  1.
          2    1    1    2  502    0 -0.23545851074E+02  0.18344960139E+02  0.74645423792E+03  0.74705078406E+03  0.00000000000E+00 0. -1.
</event>
<event>
 4    1  0.6225520E+003  0.2704904E+02  0.7546771E-02  0.1447116E+00
          2   -1    0    0  501    0  0.00000000000E+00  0.00000000000E+00  0.32027766629E+02  0.32027766629E+02  0.00000000000E+00 0.  1.
          2   -1    0    0  502    0 -0.00000000000E+00 -0.00000000000E+00 -0.73361255467E+03  0.73361255467E+03  0.00000000000E+00 0. -1.
          2    1    1    2  501    0  0.25389570659E+02 -0.93284510325E+01 -0.72760502338E+03  0.72810762964E+03  0.00000000000E+00 0. -1.
          2    1    1    2  502    0 -0.25389570659E+02  0.93284510325E+01  0.26020235331E+02  0.37532691665E+02  0.00000000000E+00 0.  1.
</event>
<event>
 4    1  0.6225520E+003  0.4631948E+02  0.7546771E-02  0.1314970E+00
          2   -1    0    0  502    0  0.00000000000E+00  0.00000000000E+00  0.10523650732E+02  0.10523650732E+02  0.00000000000E+00 0.  1.
          2   -1    0    0  501    0 -0.00000000000E+00 -0.00000000000E+00 -0.30239683420E+03  0.30239683420E+03  0.00000000000E+00 0. -1.
          2    1    1    2  501    0  0.32829674300E+02  0.32675784304E+02 -0.56629747487E+02  0.73160253519E+02  0.00000000000E+00 0.  1.
          2    1    1    2  502    0 -0.32829674300E+02 -0.32675784304E+02 -0.23524343598E+03  0.23976023142E+03  0.00000000000E+00 0. -1.
</event>
<event>
 4    1  0.6225520E+003  0.2552591E+02  0.7546771E-02  0.1463005E+00
          2   -1    0    0  501    0  0.00000000000E+00  0.00000000000E+00  0.19871437638E+02  0.19871437638E+02  0.00000000000E+00 0.  1.
          2   -1    0    0  502    0 -0.00000000000E+00 -0.00000000000E+00 -0.33088885025E+02  0.33088885025E+02  0.00000000000E+00 0.  1.
          2    1    1    2  501    0  0.94217644729E+01 -0.23723461727E+02 -0.91279993963E+01  0.27108903612E+02  0.00000000000E+00 0.  1.
          2    1    1    2  502    0 -0.94217644729E+01  0.23723461727E+02 -0.40894479909E+01  0.25851419051E+02  0.00000000000E+00 0.  1.
</event>
<event>
 4    1  0.6225520E+003  0.3114336E+02  0.7546771E-02  0.1409914E+00
          2   -1    0    0  501    0  0.00000000000E+00  0.00000000000E+00  0.13038715664E+01  0.13038715664E+01  0.00000000000E+00 0.  1.
          2   -1    0    0  502    0 -0.00000000000E+00 -0.00000000000E+00 -0.17510597889E+04  0.17510597889E+04  0.00000000000E+00 0.  1.
          2    1    1    2  501    0  0.22404456255E+02 -0.21632134527E+02 -0.15393852480E+04  0.15397002470E+04  0.00000000000E+00 0.  1.
          2    1    1    2  502    0 -0.22404456255E+02  0.21632134527E+02 -0.21037066939E+03  0.21266341350E+03  0.00000000000E+00 0.  1.
</event>
<event>
 4    1  0.6225520E+003  0.2027593E+02  0.7546771E-02  0.1529859E+00
          2   -1    0    0  502    0  0.00000000000E+00  0.00000000000E+00  0.70623461069E+00  0.70623461069E+00  0.00000000000E+00 0. -1.
          2   -1    0    0  501    0 -0.00000000000E+00 -0.00000000000E+00 -0.82017243368E+03  0.82017243368E+03  0.00000000000E+00 0.  1.
          2    1    1    2  501    0  0.18629840679E+02 -0.80026603089E+01 -0.18861087863E+03  0.18969759375E+03  0.00000000000E+00 0. -1.
          2    1    1    2  502    0 -0.18629840679E+02  0.80026603089E+01 -0.63085532044E+03  0.63118107455E+03  0.00000000000E+00 0.  1.
</event>
<event>
 4    1  0.6225520E+003  0.2553340E+02  0.7546771E-02  0.1462924E+00
          2   -1    0    0  501    0  0.00000000000E+00  0.00000000000E+00  0.12525188898E+04  0.12525188898E+04  0.00000000000E+00 0.  1.
          2   -1    0    0  502    0 -0.00000000000E+00 -0.00000000000E+00 -0.21013308932E+01  0.21013308932E+01  0.00000000000E+00 0. -1.
          2    1    1    2  501    0 -0.21127904711E+02 -0.14337571671E+02  0.81112480693E+02  0.85036397167E+02  0.00000000000E+00 0. -1.
          2    1    1    2  502    0  0.21127904711E+02  0.14337571671E+02  0.11693050782E+04  0.11695838235E+04  0.00000000000E+00 0.  1.
</event>
<event>
 4    1  0.6225520E+003  0.2004465E+02  0.7546771E-02  0.1533354E+00
          2   -1    0    0  502    0  0.00000000000E+00  0.00000000000E+00  0.68761337791E+03  0.68761337791E+03  0.00000000000E+00 0.  1.
          2   -1    0    0  501    0 -0.00000000000E+00 -0.00000000000E+00 -0.16418021171E+01  0.16418021171E+01  0.00000000000E+00 0.  1.
          2    1    1    2  501    0 -0.18031448061E+02  0.87552738124E+01  0.61956889342E+03  0.61989305661E+03  0.00000000000E+00 0.  1.
          2    1    1    2  502    0  0.18031448061E+02 -0.87552738124E+01  0.66402682373E+02  0.69362123417E+02  0.00000000000E+00 0.  1.
</event>
<event>
 4    1  0.6225520E+003  0.2154994E+02  0.7546771E-02  0.1511556E+00
          2   -1    0    0  502    0  0.00000000000E+00  0.00000000000E+00  0.13779013656E+02  0.13779013656E+02  0.00000000000E+00 0.  1.
          2   -1    0    0  501    0 -0.00000000000E+00 -0.00000000000E+00 -0.35912776248E+02  0.35912776248E+02  0.00000000000E+00 0.  1.
          2    1    1    2  501    0  0.18462187495E+02  0.11115197454E+02 -0.49043046062E+01  0.22100954396E+02  0.00000000000E+00 0.  1.
          2    1    1    2  502    0 -0.18462187495E+02 -0.11115197454E+02 -0.17229457986E+02  0.27590835508E+02  0.00000000000E+00 0.  1.
</event>
<event>
 4    1  0.6225520E+003  0.3467626E+02  0.7546771E-02  0.1382854E+00
          2   -1    0    0  502    0  0.00000000000E+00  0.00000000000E+00  0.31749881250E+03  0.31749881250E+03  0.00000000000E+00 0. -1.
          2   -1    0    0  501    0 -0.00000000000E+00 -0.00000000000E+00 -0.14345178664E+02  0.14345178664E+02  0.00000000000E+00 0. -1.
          2    1    1    2  501    0  0.20381836024E+01 -0.34616309735E+02  0.29392129386E+03  0.29595974402E+03  0.00000000000E+00 0. -1.
          2    1    1    2  502    0 -0.20381836024E+01  0.34616309735E+02  0.92323399739E+01  0.35884247149E+02  0.00000000000E+00 0. -1.
</event>
<event>
 4    1  0.6225520E+003  0.2243396E+02  0.7546771E-02  0.1499731E+00
          2   -1    0    0  501    0  0.00000000000E+00  0.00000000000E+00  0.94200536434E+01  0.94200536434E+01  0.00000000000E+00 0. -1.
          2   -1    0    0  502    0 -0.00000000000E+00 -0.00000000000E+00 -0.55755334973E+02  0.55755334973E+02  0.00000000000E+00 0.  1.
          2    1    1    2  501    0  0.20669887261E+02  0.87199918602E+01 -0.16507859414E+02  0.27853041483E+02  0.00000000000E+00 0. -1.
          2    1    1    2  502    0 -0.20669887261E+02 -0.87199918602E+01 -0.29827421916E+02  0.37322347134E+02  0.00000000000E+00 0.  1.
</event>
<event>
 4    1  0.6225520E+003  0.2215955E+02  0.7546771E-02  0.1503330E+00
          2   -1    0    0  502    0  0.00000000000E+00  0.00000000000E+00  0.24008261213E+03  0.24008261213E+03  0.00000000000E+00 0. -1.
          2   -1    0    0  501    0 -0.00000000000E+00 -0.00000000000E+00 -0.72891710799E+01  0.72891710799E+01  0.00000000000E+00 0. -1.
          2    1    1    2  501    0  0.20141210140E+02 -0.92399867464E+01  0.22130415799E+03  0.22241082717E+03  0.00000000000E+00 0. -1.
          2    1    1    2  502    0 -0.20141210140E+02  0.92399867464E+01  0.11489283061E+02  0.24960956036E+02  0.00000000000E+00 0. -1.
</event>
<event>
 4    1  0.6225520E+003  0.2714902E+02  0.7546771E-02  0.1446117E+00
          2   -1    0    0  502    0  0.00000000000E+00  0.00000000000E+00  0.13617284265E+02  0.13617284265E+02  0.00000000000E+00 0. -1.
          2   -1    0    0  501    0 -0.00000000000E+00 -0.00000000000E+00 -0.14606968186E+04  0.14606968186E+04  0.00000000000E+00 0.  1.
          2    1    1    2  501    0 -0.18005708735E+01 -0.27089245183E+02 -0.16966331716E+00  0.27149549640E+02  0.00000000000E+00 0. -1.
          2    1    1    2  502    0  0.18005708735E+01  0.27089245183E+02 -0.14469098710E+04  0.14471645532E+04  0.00000000000E+00 0.  1.
</event>
<event>
 4    1  0.6225520E+003  0.2542196E+02  0.7546771E-02  0.1464138E+00
          2   -1    0    0  502    0  0.00000000000E+00  0.00000000000E+00  0.65931604327E+01  0.65931604327E+01  0.00000000000E+00 0.  1.
          2   -1    0    0  501    0 -0.00000000000E+00 -0.00000000000E+00 -0.17854229651E+03  0.17854229651E+03  0.00000000000E+00 0. -1.
          2    1    1    2  501    0 -0.22740626598E+02  0.11363985007E+02 -0.23810256943E+02  0.34831086532E+02  0.00000000000E+00 0.  1.
          2    1    1    2  502    0  0.22740626598E+02 -0.11363985007E+02 -0.14813887913E+03  0.15030437041E+03  0.00000000000E+00 0. -1.
</event>
<event>
 4    1  0.6225520E+003  0.2348148E+02  0.7546771E-02  0.1486539E+00
          2   -1    0    0  502    0  0.00000000000E+00  0.00000000000E+00  0.56707555730E+02  0.56707555730E+02  0.00000000000E+00 0.  1.
          2   -1    0    0  501    0 -0.00000000000E+00 -0.00000000000E+00 -0.42573274737E+03  0.42573274737E+03  0.00000000000E+00 0. -1.
          2    1    1    2  501    0  0.13382228368E+02  0.19294963912E+02  0.53937059576E+02  0.58826746163E+02  0.00000000000E+00 0.  1.
          2    1    1    2  502    0 -0.13382228368E+02 -0.19294963912E+02 -0.42296225122E+03  0.42361355694E+03  0.00000000000E+00 0. -1.
</event>
<event>
 4    1  0.6225520E+003  0.2288334E+02  0.7546771E-02  0.1493968E+00
          2   -1    0    0  502    0  0.00000000000E+00  0.00000000000E+00  0.67642833030E+02  0.67642833030E+02  0.00000000000E+00 0. -1.
          2   -1    0    0  501    0 -0.00000000000E+00 -0.00000000000E+00 -0.95482880243E+02  0.95482880243E+02  0.00000000000E+00 0. -1.
          2    1    1    2  501    0 -0.17240492545E+02  0.15047019849E+02  0.64266563220E+02  0.68219048202E+02  0.00000000000E+00 0. -1.
          2    1    1    2  502    0  0.17240492545E+02 -0.15047019849E+02 -0.92106610433E+02  0.94906665071E+02  0.00000000000E+00 0. -1.
</event>
<event>
 4    1  0.6225520E+003  0.2181021E+02  0.7546771E-02  0.1508004E+00
          2   -1    0    0  501    0  0.00000000000E+00  0.00000000000E+00  0.12215653224E+03  0.12215653224E+03  0.00000000000E+00 0.  1.
          2   -1    0    0  502    0 -0.00000000000E+00 -0.00000000000E+00 -0.11023939517E+02  0.11023939517E+02  0.00000000000E+00 0. -1.
          2    1    1    2  501    0 -0.17527775434E+02 -0.12979308500E+02  0.20133814697E+01  0.21902946508E+02  0.00000000000E+00 0. -1.
          2    1    1    2  502    0  0.17527775434E+02  0.12979308500E+02  0.10911921125E+03  0.11127752524E+03  0.00000000000E+00 0.  1.
</event>
<event>
 4    1  0.6225520E+003  0.2115288E+02  0.7546771E-02  0.1517093E+00
          2   -1    0    0  502    0  0.00000000000E+00  0.00000000000E+00  0.44075218719E+01  0.44075218719E+01  0.00000000000E+00 0. -1.
          2   -1    0    0  501    0 -0.00000000000E+00 -0.00000000000E+00 -0.12567691638E+03  0.12567691638E+03  0.00000000000E+00 0.  1.
          2    1    1    2  501    0 -0.17603139069E+02 -0.11729194095E+02 -0.32117761111E+02  0.38457705054E+02  0.00000000000E+00 0. -1.
          2    1    1    2  502    0  0.17603139069E+02  0.11729194095E+02 -0.89151633402E+02  0.91626733203E+02  0.00000000000E+00 0.  1.
</event>
<event>
 4    1  0.6225520E+003  0.4630954E+02  0.7546771E-02  0.1315018E+00
          2   -1    0    0  502    0  0.00000000000E+00  0.00000000000E+00  0.56546993811E+03  0.56546993811E+03  0.00000000000E+00 0. -1.
          2   -1    0    0  501    0 -0.00000000000E+00 -0.00000000000E+00 -0.61387113794E+01  0.61387113794E+01  0.00000000000E+00 0.  1.
          2    1    1    2  501    0  0.25596888287E+02 -0.38592397841E+02  0.45635440101E+03  0.45869806320E+03  0.00000000000E+00 0. -1.
          2    1    1    2  502    0 -0.25596888287E+02  0.38592397841E+02  0.10297682572E+03  0.11291058629E+03  0.00000000000E+00 0.  1.
</event>
<event>
 4    1  0.6225520E+003  0.4364170E+02  0.7546771E-02  0.1328373E+00
          2   -1    0    0  502    0  0.00000000000E+00  0.00000000000E+00  0.19418066839E+01  0.19418066839E+01  0.00000000000E+00 0. -1.
          2   -1    0    0  501    0 -0.00000000000E+00 -0.00000000000E+00 -0.11442121782E+04  0.11442121782E+04  0.00000000000E+00 0. -1.
          2    1    1    2  501    0  0.43635398577E+02 -0.74181458663E+00 -0.35458874666E+03  0.35726429650E+03  0.00000000000E+00 0. -1.
          2    1    1    2  502    0 -0.43635398577E+02  0.74181458663E+00 -0.78768162486E+03  0.78888968838E+03  0.00000000000E+00 0. -1.
</event>
<event>
 4    1  0.6225520E+003  0.4623806E+02  0.7546771E-02  0.1315362E+00
          2   -1    0    0  501    0  0.00000000000E+00  0.00000000000E+00  0.11716095776E+03  0.11716095776E+03  0.00000000000E+00 0.  1.
          2   -1    0    0  502    0 -0.00000000000E+00 -0.00000000000E+00 -0.19501458819E+02  0.19501458819E+02  0.00000000000E+00 0. -1.
          2    1    1    2  501    0  0.62442350579E+01  0.45814496271E+02  0.31506369718E+02  0.55951853167E+02  0.00000000000E+00 0. -1.
          2    1    1    2  502    0 -0.62442350579E+01 -0.45814496271E+02  0.66153129220E+02  0.80710563408E+02  0.00000000000E+00 0.  1.
</event>
<event>
 4    1  0.6225520E+003  0.2551918E+02  0.7546771E-02  0.1463078E+00
          2   -1    0    0  501    0  0.00000000000E+00  0.00000000000E+00  0.11481451863E+02  0.11481451863E+02  0.00000000000E+00 0. -1.
          2   -1    0    0  502    0 -0.00000000000E+00 -0.00000000000E+00 -0.11950375299E+04  0.11950375299E+04  0.00000000000E+00 0.  1.
          2    1    1    2  501    0  0.11768025879E+02 -0.22643809322E+02 -0.11805472531E+04  0.11808230373E+04  0.00000000000E+00 0.  1.
          2    1    1    2  502    0 -0.11768025879E+02  0.22643809322E+02 -0.30088248836E+01  0.25695944444E+02  0.00000000000E+00 0. -1.
</event>
<event>
 4    1  0.6225520E+003  0.2089597E+02  0.7546771E-02  0.1520755E+00
          2   -1    0    0  501    0  0.00000000000E+00  0.00000000000E+00  0.18094392609E+01  0.18094392609E+01  0.00000000000E+00 0.  1.
          2   -1    0    0  502    0 -0.00000000000E+00 -0.00000000000E+00 -0.99667769296E+03  0.99667769296E+03  0.00000000000E+00 0. -1.
          2    1    1    2  501    0  0.12573913541E+02  0.16689459759E+02 -0.93205784619E+03  0.93229205189E+03  0.00000000000E+00 0. -1.
          2    1    1    2  502    0 -0.12573913541E+02 -0.16689459759E+02 -0.62810407501E+02  0.66195080325E+02  0.00000000000E+00 0.  1.
</event>
<event>
 4    1  0.6225520E+003  0.2990830E+02  0.7546771E-02  0.1420395E+00
          2   -1    0    0  501    0  0.00000000000E+00  0.00000000000E+00  0.16744431693E+03  0.16744431693E+03  0.00000000000E+00 0. -1.
          2   -1    0    0  502    0 -0.00000000000E+00 -0.00000000000E+00 -0.35396631708E+02  0.35396631708E+02  0.00000000000E+00 0.  1.
          2    1    1    2  501    0 -0.14231208241E+02  0.26305491322E+02 -0.27430517995E+02  0.40582502130E+02  0.00000000000E+00 0.  1.
          2    1    1    2  502    0  0.14231208241E+02 -0.26305491322E+02  0.15947820322E+03  0.16225844651E+03  0.00000000000E+00 0. -1.
</event>
<event>
 4    1  0.6225520E+003  0.2148867E+02  0.7546771E-02  0.1512401E+00
          2   -1    0    0  502    0  0.00000000000E+00  0.00000000000E+00  0.76006095922E+02  0.76006095922E+02  0.00000000000E+00 0.  1.
          2   -1    0    0  501    0 -0.00000000000E+00 -0.00000000000E+00 -0.14670208666E+03  0.14670208666E+03  0.00000000000E+00 0.  1.
          2    1    1    2  501    0  0.40037431717E+01  0.21112384166E+02  0.73675976662E+02  0.76745763803E+02  0.00000000000E+00 0.  1.
          2    1    1    2  502    0 -0.40037431717E+01 -0.21112384166E+02 -0.14437196740E+03  0.14596241878E+03  0.00000000000E+00 0.  1.
</event>
<event>
 4    1  0.6225520E+003  0.2106355E+02  0.7546771E-02  0.1518359E+00
          2   -1    0    0  502    0  0.00000000000E+00  0.00000000000E+00  0.24651201190E+02  0.24651201190E+02  0.00000000000E+00 0.  1.
          2   -1    0    0  501    0 -0.00000000000E+00 -0.00000000000E+00 -0.85669207070E+03  0.85669207070E+03  0.00000000000E+00 0. -1.
          2    1    1    2  501    0 -0.20085561346E+02 -0.63437791603E+01  0.19997647257E+02  0.29044435000E+02  0.00000000000E+00 0.  1.
          2    1    1    2  502    0  0.20085561346E+02  0.63437791603E+01 -0.85203851677E+03  0.85229883689E+03  0.00000000000E+00 0. -1.
</event>
<event>
 4    1  0.6225520E+003  0.4545508E+02  0.7546771E-02  0.1319179E+00
          2   -1    0    0  501    0  0.00000000000E+00  0.00000000000E+00  0.81419933959E+02  0.81419933959E+02  0.00000000000E+00 0. -1.
          2   -1    0    0  502    0 -0.00000000000E+00 -0.00000000000E+00 -0.11869413651E+03  0.11869413651E+03  0.00000000000E+00 0. -1.
          2    1    1    2  501    0 -0.41002922112E+02  0.19619495498E+02 -0.10735567286E+03  0.11658218012E+03  0.00000000000E+00 0. -1.
          2    1    1    2  502    0  0.41002922112E+02 -0.19619495498E+02  0.70081470310E+02  0.83531890354E+02  0.00000000000E+00 0. -1.
</event>
<event>
 4    1  0.6225520E+003  0.2751945E+02  0.7546771E-02  0.1442459E+00
          2   -1    0    0  501    0  0.00000000000E+00  0.00000000000E+00  0.16575590286E+04  0.16575590286E+04  0.00000000000E+00 0.  1.
          2   -1    0    0  502    0 -0.00000000000E+00 -0.00000000000E+00 -0.23589404916E+01  0.23589404916E+01  0.00000000000E+00 0.  1.
          2    1    1    2  501    0 -0.13440953439E+02  0.24013761439E+02  0.82337475907E+02  0.86814629565E+02  0.00000000000E+00 0.  1.
          2    1    1    2  502    0  0.13440953439E+02 -0.24013761439E+02  0.15728626122E+04  0.15731033395E+04  0.00000000000E+00 0.  1.
</event>
<event>
 4    1  0.6225520E+003  0.2728862E+02  0.7546771E-02  0.1444730E+00
          2   -1    0    0  502    0  0.00000000000E+00  0.00000000000E+00  0.14674040890E+04  0.14674040890E+04  0.00000000000E+00 0.  1.
          2   -1    0    0  501    0 -0.00000000000E+00 -0.00000000000E+00 -0.95763708471E+01  0.95763708471E+01  0.00000000000E+00 0. -1.
          2    1    1    2  501    0 -0.81230437611E+01 -0.26051584278E+02  0.14475706206E+04  0.14478278110E+04  0.00000000000E+00 0.  1.
          2    1    1    2  502    0  0.81230437611E+01  0.26051584278E+02  0.10257097628E+02  0.29152648853E+02  0.00000000000E+00 0. -1.
</event>
<event>
 4    1  0.6225520E+003  0.2086555E+02  0.7546771E-02  0.1521193E+00
          2   -1    0    0  502    0  0.00000000000E+00  0.00000000000E+00  0.57027160098E+03  0.57027160098E+03  0.00000000000E+00 0.  1.
          2   -1    0    0  501    0 -0.00000000000E+00 -0.00000000000E+00 -0.76550560554E+01  0.76550560554E+01  0.00000000000E+00 0. -1.
          2    1    1    2  501    0 -0.97499391131E+01 -0.18447485148E+02  0.55548394793E+03  0.55587569422E+03  0.00000000000E+00 0.  1.
          2    1    1    2  502    0  0.97499391131E+01  0.18447485148E+02  0.71325969936E+01  0.22050962810E+02  0.00000000000E+00 0. -1.
</event>
<event>
 4    1  0.6225520E+003  0.2354951E+02  0.7546771E-02  0.1485711E+00
          2   -1    0    0  502    0  0.00000000000E+00  0.00000000000E+00  0.10536697024E+04  0.10536697024E+04  0.00000000000E+00 0. -1.
          2   -1    0    0  501    0 -0.00000000000E+00 -0.00000000000E+00 -0.33601709867E+01  0.33601709867E+01  0.00000000000E+00 0. -1.
          2    1    1    2  501    0  0.19077807104E+01  0.23472106027E+02  0.10105150236E+04  0.10107893907E+04  0.00000000000E+00 0. -1.
          2    1    1    2  502    0 -0.19077807104E+01 -0.23472106027E+02  0.39794507787E+02  0.46240482681E+02  0.00000000000E+00 0. -1.
</event>
<event>
 4    1  0.6225520E+003  0.2547237E+02  0.7546771E-02  0.1463588E+00
          2   -1    0    0  502    0  0.00000000000E+00  0.00000000000E+00  0.16545469721E+03  0.16545469721E+03  0.00000000000E+00 0. -1.
          2   -1    0    0  501    0 -0.00000000000E+00 -0.00000000000E+00 -0.41277067562E+01  0.41277067562E+01  0.00000000000E+00 0. -1.
          2    1    1    2  501    0  0.24709548708E+02 -0.61870652801E+01  0.99612130230E+02  0.10281740156E+03  0.00000000000E+00 0. -1.
          2    1    1    2  502    0 -0.24709548708E+02  0.61870652801E+01  0.61714860220E+02  0.66765002405E+02  0.00000000000E+00 0. -1.
</event>
<event>
 4    1  0.6225520E+003  0.3140917E+02  0.7546771E-02  0.1407734E+00
          2   -1    0    0  502    0  0.00000000000E+00  0.00000000000E+00  0.27618115776E+02  0.27618115776E+02  0.00000000000E+00 0. -1.
          2   -1    0    0  501    0 -0.00000000000E+00 -0.00000000000E+00 -0.94225748546E+02  0.94225748546E+02  0.00000000000E+00 0.  1.
          2    1    1    2  501    0 -0.10960233647E+02  0.29434827445E+02  0.14701119872E+02  0.34679370148E+02  0.00000000000E+00 0. -1.
          2    1    1    2  502    0  0.10960233647E+02 -0.29434827445E+02 -0.81308752643E+02  0.87164494174E+02  0.00000000000E+00 0.  1.
</event>
<event>
 4    1  0.6225520E+003  0.2178305E+02  0.7546771E-02  0.1508372E+00
          2   -1    0    0  502    0  0.00000000000E+00  0.00000000000E+00  0.19521798278E+03  0.19521798278E+03  0.00000000000E+00 0. -1.
          2   -1    0    0  501    0 -0.00000000000E+00 -0.00000000000E+00 -0.24765335214E+01  0.24765335214E+01  0.00000000000E+00 0. -1.
          2    1    1    2  501    0 -0.15642814506E+02 -0.15159278108E+02  0.10982925621E+03  0.11196859773E+03  0.00000000000E+00 0. -1.
          2    1    1    2  502    0  0.15642814506E+02  0.15159278108E+02  0.82912193047E+02  0.85725918568E+02  0.00000000000E+00 0. -1.
</event>
<event>
 4    1  0.6225520E+003  0.2430607E+02  0.7546771E-02  0.1476718E+00
          2   -1    0    0  501    0  0.00000000000E+00  0.00000000000E+00  0.10090299000E+03  0.10090299000E+03  0.00000000000E+00 0.  1.
          2   -1    0    0  502    0 -0.00000000000E+00 -0.00000000000E+00 -0.39196743615E+03  0.39196743615E+03  0.00000000000E+00 0.  1.
          2    1    1    2  501    0 -0.16298754178E+02  0.18031524154E+02 -0.39011995779E+03  0.39087640850E+03  0.00000000000E+00 0.  1.
          2    1    1    2  502    0  0.16298754178E+02 -0.18031524154E+02  0.99055511636E+02  0.10199401765E+03  0.00000000000E+00 0.  1.
</event>
<event>
 4    1  0.6225520E+003  0.2248883E+02  0.7546771E-02  0.1499019E+00
          2   -1    0    0  502    0  0.00000000000E+00  0.00000000000E+00  0.25631155393E+02  0.25631155393E+02  0.00000000000E+00 0.  1.
          2   -1    0    0  501    0 -0.00000000000E+00 -0.00000000000E+00 -0.29064205126E+03  0.29064205126E+03  0.00000000000E+00 0. -1.
          2    1    1    2  501    0 -0.22031932594E+02 -0.45101670881E+01  0.20168852029E+02  0.30208115684E+02  0.00000000000E+00 0.  1.
          2    1    1    2  502    0  0.22031932594E+02  0.45101670881E+01 -0.28517974790E+03  0.28606509097E+03  0.00000000000E+00 0. -1.
</event>
<event>
 4    1  0.6225520E+003  0.2801217E+02  0.7546771E-02  0.1437697E+00
          2   -1    0    0  501    0  0.00000000000E+00  0.00000000000E+00  0.77611383406E+03  0.77611383406E+03  0.00000000000E+00 0.  1.
          2   -1    0    0  502    0 -0.00000000000E+00 -0.00000000000E+00 -0.44168854420E+02  0.44168854420E+02  0.00000000000E+00 0. -1.
          2    1    1    2  501    0 -0.19400846176E+02  0.20206151616E+02 -0.39447547391E+02  0.48381715457E+02  0.00000000000E+00 0. -1.
          2    1    1    2  502    0  0.19400846176E+02 -0.20206151616E+02  0.77139252703E+03  0.77190097302E+03  0.00000000000E+00 0.  1.
</event>
<event>
 4    1  0.6225520E+003  0.2926901E+02  0.7546771E-02  0.1426057E+00
          2   -1    0    0  501    0  0.00000000000E+00  0.00000000000E+00  0.56883516020E+01  0.56883516020E+01  0.00000000000E+00 0.  1.
          2   -1    0    0  502    0 -0.00000000000E+00 -0.00000000000E+00 -0.22096055551E+03  0.22096055551E+03  0.00000000000E+00 0.  1.
          2    1    1    2  501    0 -0.83091864020E+01 -0.28064788724E+02 -0.17158394478E+03  0.17406241712E+03  0.00000000000E+00 0.  1.
          2    1    1    2  502    0  0.83091864020E+01  0.28064788724E+02 -0.43688259127E+02  0.52586489998E+02  0.00000000000E+00 0.  1.
</event>
<event>
 4    1  0.6225520E+003  0.2615096E+02  0.7546771E-02  0.1456328E+00
          2   -1    0    0  502    0  0.00000000000E+00  0.00000000000E+00  0.28999357057E+01  0.28999357057E+01  0.00000000000E+00 0.  1.
          2   -1    0    0  501    0 -0.00000000000E+00 -0.00000000000E+00 -0.31712249865E+03  0.31712249865E+03  0.00000000000E+00 0. -1.
          2    1    1    2  501    0  0.25064276167E+02  0.74602023073E+01 -0.76093584165E+02  0.80461830139E+02  0.00000000000E+00 0.  1.
          2    1    1    2  502    0 -0.25064276167E+02 -0.74602023073E+01 -0.23812897878E+03  0.23956060422E+03  0.00000000000E+00 0. -1.
</event>
<event>
 4    1  0.6225520E+003  0.2035632E+02  0.7546771E-02  0.1528657E+00
          2   -1    0    0  501    0  0.00000000000E+00  0.00000000000E+00  0.57400314327E+03  0.57400314327E+03  0.00000000000E+00 0.  1.
          2   -1    0    0  502    0 -0.00000000000E+00 -0.00000000000E+00 -0.60454684438E+03  0.60454684438E+03  0.00000000000E+00 0. -1.
          2    1    1    2  501    0  0.19958408935E+02 -0.40051904373E+01 -0.60419490173E+03  0.60453772332E+03  0.00000000000E+00 0. -1.
          2    1    1    2  502    0 -0.19958408935E+02  0.40051904373E+01  0.57365120061E+03  0.57401226433E+03  0.00000000000E+00 0.  1.
</event>
<event>
 4    1  0.6225520E+003  0.2253642E+02  0.7546771E-02  0.1498403E+00
          2   -1    0    0  502    0  0.00000000000E+00  0.00000000000E+00  0.46821476939E+01  0.46821476939E+01  0.00000000000E+00 0. -1.
          2   -1    0    0  501    0 -0.00000000000E+00 -0.00000000000E+00 -0.95417704622E+03  0.95417704622E+03  0.00000000000E+00 0.  1.
          2    1    1    2  501    0  0.39637033621E+01 -0.22185114944E+02 -0.23391301677E+02  0.32481429519E+02  0.00000000000E+00 0. -1.
          2    1    1    2  502    0 -0.39637033621E+01  0.22185114944E+02 -0.92610359684E+03  0.92637776439E+03  0.00000000000E+00 0.  1.
</event>
<event>
 4    1  0.6225520E+003  0.2031048E+02  0.7546771E-02  0.1529341E+00
          2   -1    0    0  502    0  0.00000000000E+00  0.00000000000E+00  0.12160637677E+02  0.12160637677E+02  0.00000000000E+00 0. -1.
          2   -1    0    0  501    0 -0.00000000000E+00 -0.00000000000E+00 -0.60498014738E+02  0.60498014738E+02  0.00000000000E+00 0. -1.
          2    1    1    2  501    0  0.18168915567E+01 -0.20229047454E+02 -0.90147918890E-01  0.20310676564E+02  0.00000000000E+00 0. -1.
          2    1    1    2  502    0 -0.18168915567E+01  0.20229047454E+02 -0.48247229142E+02  0.52347975852E+02  0.00000000000E+00 0. -1.
</event>
<event>
 4    1  0.6225520E+003  0.2191652E+02  0.7546771E-02  0.1506571E+00
          2   -1    0    0  502    0  0.00000000000E+00  0.00000000000E+00  0.50304571031E+01  0.50304571031E+01  0.00000000000E+00 0. -1.
          2   -1    0    0  501    0 -0.00000000000E+00 -0.00000000000E+00 -0.10900650986E+03  0.10900650986E+03  0.00000000000E+00 0.  1.
          2    1    1    2  501    0 -0.13929591507E+02  0.16920414973E+02 -0.31906367097E+02  0.38708529082E+02  0.00000000000E+00 0. -1.
          2    1    1    2  502    0  0.13929591507E+02 -0.16920414973E+02 -0.72069685659E+02  0.75328437880E+02  0.00000000000E+00 0.  1.
</event>
<event>
 4    1  0.6225520E+003  0.2314302E+02  0.7546771E-02  0.1490710E+00
          2   -1    0    0  502    0  0.00000000000E+00  0.00000000000E+00  0.69871299785E+00  0.69871299785E+00  0.00000000000E+00 0.  1.
          2   -1    0    0  501    0 -0.00000000000E+00 -0.00000000000E+00 -0.18550807069E+04  0.18550807069E+04  0.00000000000E+00 0. -1.
          2    1    1    2  501    0 -0.11425544497E+02 -0.20126008971E+02 -0.21641123723E+03  0.21764517661E+03  0.00000000000E+00 0.  1.
          2    1    1    2  502    0  0.11425544497E+02  0.20126008971E+02 -0.16379707567E+04  0.16381342433E+04  0.00000000000E+00 0. -1.
</event>
<event>
 4    1  0.6225520E+003  0.2815318E+02  0.7546771E-02  0.1436356E+00
          2   -1    0    0  501    0  0.00000000000E+00  0.00000000000E+00  0.11616509519E+04  0.11616509519E+04  0.00000000000E+00 0.  1.
          2   -1    0    0  502    0 -0.00000000000E+00 -0.00000000000E+00 -0.99280638507E+01  0.99280638507E+01  0.00000000000E+00 0. -1.
          2    1    1    2  501    0 -0.19574502199E+02  0.20234631405E+02  0.10559388273E+02  0.30068291024E+02  0.00000000000E+00 0. -1.
          2    1    1    2  502    0  0.19574502199E+02 -0.20234631405E+02  0.11411634998E+04  0.11415107248E+04  0.00000000000E+00 0.  1.
</event>
<event>
 4    1  0.6225520E+003  0.2201456E+02  0.7546771E-02  0.1505257E+00
          2   -1    0    0  501    0  0.00000000000E+00  0.00000000000E+00  0.12276415020E+04  0.12276415020E+04  0.00000000000E+00 0.  1.
          2   -1    0    0  502    0 -0.00000000000E+00 -0.00000000000E+00 -0.23667140879E+01  0.23667140879E+01  0.00000000000E+00 0. -1.
          2    1    1    2  501    0 -0.16564016476E+02 -0.14500841375E+02  0.51263815759E+02  0.55790858109E+02  0.00000000000E+00 0. -1.
          2    1    1    2  502    0  0.16564016476E+02  0.14500841375E+02  0.11740109722E+04  0.11742173580E+04  0.00000000000E+00 0.  1.
</event>
<event>
 4    1  0.6225520E+003  0.2268353E+02  0.7546771E-02  0.1496511E+00
          2   -1    0    0  502    0  0.00000000000E+00  0.00000000000E+00  0.10799104402E+02  0.10799104402E+02  0.00000000000E+00 0. -1.
          2   -1    0    0  501    0 -0.00000000000E+00 -0.00000000000E+00 -0.24318264918E+03  0.24318264918E+03  0.00000000000E+00 0. -1.
          2    1    1    2  501    0  0.22248198109E+02 -0.44227178279E+01 -0.23191226296E+01  0.22801778042E+02  0.00000000000E+00 0. -1.
          2    1    1    2  502    0 -0.22248198109E+02  0.44227178279E+01 -0.23006442215E+03  0.23117997554E+03  0.00000000000E+00 0. -1.
</event>
<event>
 4    1  0.6225520E+003  0.2153795E+02  0.7546771E-02  0.1511721E+00
          2   -1    0    0  501    0  0.00000000000E+00  0.00000000000E+00  0.35293715054E+01  0.35293715054E+01  0.00000000000E+00 0. -1.
          2   -1    0    0  502    0 -0.00000000000E+00 -0.00000000000E+00 -0.87474474178E+03  0.87474474178E+03  0.00000000000E+00 0. -1.
          2    1    1    2  501    0  0.12332456162E+02  0.17657689183E+02 -0.84041121027E+03  0.84068715098E+03  0.00000000000E+00 0. -1.
          2    1    1    2  502    0 -0.12332456162E+02 -0.17657689183E+02 -0.30804159999E+02  0.37586962307E+02  0.00000000000E+00 0. -1.
</event>
<event>
 4    1  0.6225520E+003  0.3313980E+02  0.7546771E-02  0.1394135E+00
          2   -1    0    0  501    0  0.00000000000E+00  0.00000000000E+00  0.11050548220E+03  0.11050548220E+03  0.00000000000E+00 0. -1.
          2   -1    0    0  502    0 -0.00000000000E+00 -0.00000000000E+00 -0.55617031779E+02  0.55617031779E+02  0.00000000000E+00 0.  1.
          2    1    1    2  501    0  0.12185735552E+02  0.30818077374E+02 -0.47830851973E+02  0.58189659257E+02  0.00000000000E+00 0.  1.
          2    1    1    2  502    0 -0.12185735552E+02 -0.30818077374E+02  0.10271930239E+03  0.10793285472E+03  0.00000000000E+00 0. -1.
</event>
<event>
 4    1  0.6225520E+003  0.4348146E+02  0.7546771E-02  0.1329210E+00
          2   -1    0    0  502    0  0.00000000000E+00  0.00000000000E+00  0.77026231399E+02  0.77026231399E+02  0.00000000000E+00 0.  1.
          2   -1    0    0  501    0 -0.00000000000E+00 -0.00000000000E+00 -0.77885700278E+03  0.77885700278E+03  0.00000000000E+00 0.  1.
          2    1    1    2  501    0  0.42396807155E+02  0.96513184735E+01  0.70229045260E+02  0.82599975807E+02  0.00000000000E+00 0.  1.
          2    1    1    2  502    0 -0.42396807155E+02 -0.96513184735E+01 -0.77205981665E+03  0.77328325838E+03  0.00000000000E+00 0.  1.
</event>
<event>
 4    1  0.6225520E+003  0.2652031E+02  0.7546771E-02  0.1452487E+00
          2   -1    0    0  502    0  0.00000000000E+00  0.00000000000E+00  0.21687707877E+03  0.21687707877E+03  0.00000000000E+00 0. -1.
          2   -1    0    0  501    0 -0.00000000000E+00 -0.00000000000E+00 -0.23540013137E+02  0.23540013137E+02  0.00000000000E+00 0.  1.
          2    1    1    2  501    0 -0.13738304511E+02 -0.22684482889E+02  0.20829015654E+03  0.20997170306E+03  0.00000000000E+00 0. -1.
          2    1    1    2  502    0  0.13738304511E+02  0.22684482889E+02 -0.14953090902E+02  0.30445388851E+02  0.00000000000E+00 0.  1.
</event>
<event>
 4    1  0.6225520E+003  0.3237105E+02  0.7546771E-02  0.1400052E+00
          2   -1    0    0  502    0  0.00000000000E+00  0.00000000000E+00  0.80843629171E+02  0.80843629171E+02  0.00000000000E+00 0.  1.
          2   -1    0    0  501    0 -0.00000000000E+00 -0.00000000000E+00 -0.59167702596E+02  0.59167702596E+02  0.00000000000E+00 0.  1.
          2    1    1    2  501    0 -0.15938817273E+02 -0.28175144559E+02  0.72702139555E+02  0.79583200255E+02  0.00000000000E+00 0.  1.
          2    1    1    2  502    0  0.15938817273E+02  0.28175144559E+02 -0.51026212980E+02  0.60428131512E+02  0.00000000000E+00 0.  1.
</event>
<event>
 4    1  0.6225520E+003  0.2737184E+02  0.7546771E-02  0.1443908E+00
          2   -1    0    0  501    0  0.00000000000E+00  0.00000000000E+00  0.42792009983E+02  0.42792009983E+02  0.00000000000E+00 0.  1.
          2   -1    0    0  502    0 -0.00000000000E+00 -0.00000000000E+00 -0.55109764740E+02  0.55109764740E+02  0.00000000000E+00 0. -1.
          2    1    1    2  501    0  0.15986880788E+02 -0.22217955094E+02 -0.46593028452E+02  0.54038210428E+02  0.00000000000E+00 0. -1.
          2    1    1    2  502    0 -0.15986880788E+02  0.22217955094E+02  0.34275273695E+02  0.43863564296E+02  0.00000000000E+00 0.  1.
</event>
<event>
 4    1  0.6225520E+003  0.2082176E+02  0.7546771E-02  0.1521825E+00
          2   -1    0    0  502    0  0.00000000000E+00  0.00000000000E+00  0.16007597170E+03  0.16007597170E+03  0.00000000000E+00 0. -1.
          2   -1    0    0  501    0 -0.00000000000E+00 -0.00000000000E+00 -0.82679417683E+02  0.82679417683E+02  0.00000000000E+00 0. -1.
          2    1    1    2  501    0  0.12740081697E+01  0.20782748323E+02  0.15807140114E+03  0.15943686394E+03  0.00000000000E+00 0. -1.
          2    1    1    2  502    0 -0.12740081697E+01 -0.20782748323E+02 -0.80674847120E+02  0.83318525446E+02  0.00000000000E+00 0. -1.
</event>
<event>
 4    1  0.6225520E+003  0.2610873E+02  0.7546771E-02  0.1456772E+00
          2   -1    0    0  502    0  0.00000000000E+00  0.00000000000E+00  0.66933719435E+03  0.66933719435E+03  0.00000000000E+00 0.  1.
          2   -1    0    0  501    0 -0.00000000000E+00 -0.00000000000E+00 -0.27395461716E+03  0.27395461716E+03  0.00000000000E+00 0. -1.
          2    1    1    2  501    0  0.25791448051E+02 -0.40579564773E+01  0.66845971242E+03  0.66896939611E+03  0.00000000000E+00 0.  1.
          2    1    1    2  502    0 -0.25791448051E+02  0.40579564773E+01 -0.27307713524E+03  0.27432241540E+03  0.00000000000E+00 0. -1.
</event>
<event>
 4    1  0.6225520E+003  0.3587046E+02  0.7546771E-02  0.1374545E+00
          2   -1    0    0  502    0  0.00000000000E+00  0.00000000000E+00  0.24818977550E+02  0.24818977550E+02  0.00000000000E+00 0.  1.
          2   -1    0    0  501    0 -0.00000000000E+00 -0.00000000000E+00 -0.65637942069E+02  0.65637942069E+02  0.00000000000E+00 0.  1.
          2    1    1    2  501    0  0.12756753819E+01  0.35847767947E+02  0.32506415812E+00  0.35871931662E+02  0.00000000000E+00 0.  1.
          2    1    1    2  502    0 -0.12756753819E+01 -0.35847767947E+02 -0.41144028677E+02  0.54584987957E+02  0.00000000000E+00 0.  1.
</event>
<event>
 4    1  0.6225520E+003  0.2831916E+02  0.7546771E-02  0.1434789E+00
          2   -1    0    0  501    0  0.00000000000E+00  0.00000000000E+00  0.98625201482E+03  0.98625201482E+03  0.00000000000E+00 0. -1.
          2   -1    0    0  502    0 -0.00000000000E+00 -0.00000000000E+00 -0.30737137150E+01  0.30737137150E+01  0.00000000000E+00 0.  1.
          2    1    1    2  501    0 -0.15329333097E+01  0.28277638357E+02  0.67374563873E+02  0.73084242985E+02  0.00000000000E+00 0.  1.
          2    1    1    2  502    0  0.15329333097E+01 -0.28277638357E+02  0.91580373723E+03  0.91624148555E+03  0.00000000000E+00 0. -1.
</event>
<event>
 4    1  0.6225520E+003  0.2449051E+02  0.7546771E-02  0.1474584E+00
          2   -1    0    0  501    0  0.00000000000E+00  0.00000000000E+00  0.92517210015E+02  0.92517210015E+02  0.00000000000E+00 0.  1.
          2   -1    0    0  502    0 -0.00000000000E+00 -0.00000000000E+00 -0.40500369765E+02  0.40500369765E+02  0.00000000000E+00 0. -1.
          2    1    1    2  501    0 -0.18999807084E+02 -0.15452916073E+02 -0.34945294671E+02  0.42672695064E+02  0.00000000000E+00 0. -1.
          2    1    1    2  502    0  0.18999807084E+02  0.15452916073E+02  0.86962134920E+02  0.90344884716E+02  0.00000000000E+00 0.  1.
</event>
<event>
 4    1  0.6225520E+003  0.2558809E+02  0.7546771E-02  0.1462331E+00
          2   -1    0    0  502    0  0.00000000000E+00  0.00000000000E+00  0.12992909500E+03  0.12992909500E+03  0.00000000000E+00 0. -1.
          2   -1    0    0  501    0 -0.00000000000E+00 -0.00000000000E+00 -0.53735440199E+03  0.53735440199E+03  0.00000000000E+00 0.  1.
          2    1    1    2  501    0  0.11258392629E+02 -0.22978232328E+02  0.12836096938E+03  0.13088655021E+03  0.00000000000E+00 0. -1.
          2    1    1    2  502    0 -0.11258392629E+02  0.22978232328E+02 -0.53578627638E+03  0.53639694678E+03  0.00000000000E+00 0.  1.
</event>
<event>
 4    1  0.6225520E+003  0.2128971E+02  0.7546771E-02  0.1515169E+00
          2   -1    0    0  501    0  0.00000000000E+00  0.00000000000E+00  0.10299194569E+01  0.10299194569E+01  0.00000000000E+00 0.  1.
          2   -1    0    0  502    0 -0.00000000000E+00 -0.00000000000E+00 -0.44488951810E+03  0.44488951810E+03  0.00000000000E+00 0.  1.
          2    1    1    2  501    0 -0.21074841651E+02 -0.30170869052E+01 -0.24510055330E+03  0.24602343992E+03  0.00000000000E+00 0.  1.
          2    1    1    2  502    0  0.21074841651E+02  0.30170869052E+01 -0.19875904534E+03  0.19989599763E+03  0.00000000000E+00 0.  1.
</event>
<event>
 4    1  0.6225520E+003  0.2034659E+02  0.7546771E-02  0.1528802E+00
          2   -1    0    0  502    0  0.00000000000E+00  0.00000000000E+00  0.13128345032E+04  0.13128345032E+04  0.00000000000E+00 0.  1.
          2   -1    0    0  501    0 -0.00000000000E+00 -0.00000000000E+00 -0.13525157095E+01  0.13525157095E+01  0.00000000000E+00 0. -1.
          2    1    1    2  501    0  0.19509978220E+02 -0.57744683124E+01  0.12311584909E+04  0.12313266071E+04  0.00000000000E+00 0.  1.
          2    1    1    2  502    0 -0.19509978220E+02  0.57744683124E+01  0.80323496645E+02  0.82860411824E+02  0.00000000000E+00 0. -1.
</event>
<event>
 4    1  0.6225520E+003  0.3190325E+02  0.7546771E-02  0.1403748E+00
          2   -1    0    0  501    0  0.00000000000E+00  0.00000000000E+00  0.95182670584E+03  0.95182670584E+03  0.00000000000E+00 0.  1.
          2   -1    0    0  502    0 -0.00000000000E+00 -0.00000000000E+00 -0.20552522037E+03  0.20552522037E+03  0.00000000000E+00 0.  1.
          2    1    1    2  501    0 -0.26608818472E+02  0.17600806629E+02 -0.20401785545E+03  0.20649722263E+03  0.00000000000E+00 0.  1.
          2    1    1    2  502    0  0.26608818472E+02 -0.17600806629E+02  0.95031934091E+03  0.95085470358E+03  0.00000000000E+00 0.  1.
</event>
<event>
 4    1  0.6225520E+003  0.3441540E+02  0.7546771E-02  0.1384720E+00
          2   -1    0    0  502    0  0.00000000000E+00  0.00000000000E+00  0.11623111042E+02  0.11623111042E+02  0.00000000000E+00 0. -1.
          2   -1    0    0  501    0 -0.00000000000E+00 -0.00000000000E+00 -0.31312000989E+03  0.31312000989E+03  0.00000000000E+00 0.  1.
          2    1    1    2  501    0 -0.14650540608E+02  0.31141312366E+02 -0.17390195217E+02  0.38559545714E+02  0.00000000000E+00 0. -1.
          2    1    1    2  502    0  0.14650540608E+02 -0.31141312366E+02 -0.28410670363E+03  0.28618357522E+03  0.00000000000E+00 0.  1.
</event>
<event>
 4    1  0.6225520E+003  0.7226124E+02  0.7546771E-02  0.1223051E+00
          2   -1    0    0  501    0  0.00000000000E+00  0.00000000000E+00  0.20759382696E+03  0.20759382696E+03  0.00000000000E+00 0. -1.
          2   -1    0    0  502    0 -0.00000000000E+00 -0.00000000000E+00 -0.60013487787E+03  0.60013487787E+03  0.00000000000E+00 0. -1.
          2    1    1    2  501    0  0.69197584896E+02 -0.20817808195E+02 -0.59158072672E+03  0.59597772032E+03  0.00000000000E+00 0. -1.
          2    1    1    2  502    0 -0.69197584896E+02  0.20817808195E+02  0.19903967581E+03  0.21175098450E+03  0.00000000000E+00 0. -1.
</event>
<event>
 4    1  0.6225520E+003  0.2253624E+02  0.7546771E-02  0.1498405E+00
          2   -1    0    0  502    0  0.00000000000E+00  0.00000000000E+00  0.23083814761E+01  0.23083814761E+01  0.00000000000E+00 0. -1.
          2   -1    0    0  501    0 -0.00000000000E+00 -0.00000000000E+00 -0.48180581873E+03  0.48180581873E+03  0.00000000000E+00 0. -1.
          2    1    1    2  501    0  0.71873952437E+01  0.21359384940E+02 -0.61322866023E+02  0.65332808547E+02  0.00000000000E+00 0. -1.
          2    1    1    2  502    0 -0.71873952437E+01 -0.21359384940E+02 -0.41817457123E+03  0.41878139165E+03  0.00000000000E+00 0. -1.
</event>
<event>
 4    1  0.6225520E+003  0.2008985E+02  0.7546771E-02  0.1532667E+00
          2   -1    0    0  501    0  0.00000000000E+00  0.00000000000E+00  0.14338015539E+04  0.14338015539E+04  0.00000000000E+00 0.  1.
          2   -1    0    0  502    0 -0.00000000000E+00 -0.00000000000E+00 -0.75466914634E+00  0.75466914634E+00  0.00000000000E+00 0. -1.
          2    1    1    2  501    0  0.14052205171E+02 -0.14357498798E+02  0.14855838557E+03  0.14991062726E+03  0.00000000000E+00 0. -1.
          2    1    1    2  502    0 -0.14052205171E+02  0.14357498798E+02  0.12844884992E+04  0.12846455958E+04  0.00000000000E+00 0.  1.
</event>
<event>
 4    1  0.6225520E+003  0.2069575E+02  0.7546771E-02  0.1523653E+00
          2   -1    0    0  501    0  0.00000000000E+00  0.00000000000E+00  0.11744285678E+04  0.11744285678E+04  0.00000000000E+00 0.  1.
          2   -1    0    0  502    0 -0.00000000000E+00 -0.00000000000E+00 -0.26226462789E+01  0.26226462789E+01  0.00000000000E+00 0.  1.
          2    1    1    2  501    0 -0.20558657520E+02  0.23781739153E+01  0.39827947143E+02  0.44884067148E+02  0.00000000000E+00 0.  1.
          2    1    1    2  502    0  0.20558657520E+02 -0.23781739153E+01  0.11319779744E+04  0.11321671469E+04  0.00000000000E+00 0.  1.
</event>
<event>
 4    1  0.6225520E+003  0.2425814E+02  0.7546771E-02  0.1477276E+00
          2   -1    0    0  501    0  0.00000000000E+00  0.00000000000E+00  0.41377667817E+03  0.41377667817E+03  0.00000000000E+00 0. -1.
          2   -1    0    0  502    0 -0.00000000000E+00 -0.00000000000E+00 -0.51896659860E+01  0.51896659860E+01  0.00000000000E+00 0. -1.
          2    1    1    2  501    0 -0.37364866502E+01  0.23968647455E+02  0.25806621695E+02  0.35418062011E+02  0.00000000000E+00 0. -1.
          2    1    1    2  502    0  0.37364866502E+01 -0.23968647455E+02  0.38278039049E+03  0.38354828215E+03  0.00000000000E+00 0. -1.
</event>
<event>
 4    1  0.6225520E+003  0.2372888E+02  0.7546771E-02  0.1483543E+00
          2   -1    0    0  502    0  0.00000000000E+00  0.00000000000E+00  0.90251633467E+03  0.90251633467E+03  0.00000000000E+00 0.  1.
          2   -1    0    0  501    0 -0.00000000000E+00 -0.00000000000E+00 -0.31472268413E+01  0.31472268413E+01  0.00000000000E+00 0. -1.
          2    1    1    2  501    0  0.20188555309E+02  0.12469236870E+02  0.85515720427E+03  0.85548635504E+03  0.00000000000E+00 0.  1.
          2    1    1    2  502    0 -0.20188555309E+02 -0.12469236870E+02  0.44211903553E+02  0.50177206472E+02  0.00000000000E+00 0. -1.
</event>
<event>
 4    1  0.6225520E+003  0.2935638E+02  0.7546771E-02  0.1425273E+00
          2   -1    0    0  502    0  0.00000000000E+00  0.00000000000E+00  0.67392095838E+01  0.67392095838E+01  0.00000000000E+00 0.  1.
          2   -1    0    0  501    0 -0.00000000000E+00 -0.00000000000E+00 -0.30229977553E+03  0.30229977553E+03  0.00000000000E+00 0.  1.
          2    1    1    2  501    0  0.27134028835E+02  0.11204536165E+02 -0.30408252276E+02  0.42266522899E+02  0.00000000000E+00 0.  1.
          2    1    1    2  502    0 -0.27134028835E+02 -0.11204536165E+02 -0.26515231367E+03  0.26677246222E+03  0.00000000000E+00 0.  1.
</event>
<event>
 4    1  0.6225520E+003  0.2803469E+02  0.7546771E-02  0.1437482E+00
          2   -1    0    0  501    0  0.00000000000E+00  0.00000000000E+00  0.17011856753E+02  0.17011856753E+02  0.00000000000E+00 0.  1.
          2   -1    0    0  502    0 -0.00000000000E+00 -0.00000000000E+00 -0.60359382298E+03  0.60359382298E+03  0.00000000000E+00 0. -1.
          2    1    1    2  501    0 -0.26259980289E+02 -0.98161806707E+01 -0.59148197527E+03  0.59214598795E+03  0.00000000000E+00 0. -1.
          2    1    1    2  502    0  0.26259980289E+02  0.98161806707E+01  0.49000090490E+01  0.28459691784E+02  0.00000000000E+00 0.  1.
</event>
<event>
 4    1  0.6225520E+003  0.3228049E+02  0.7546771E-02  0.1400761E+00
          2   -1    0    0  501    0  0.00000000000E+00  0.00000000000E+00  0.14771605370E+04  0.14771605370E+04  0.00000000000E+00 0.  1.
          2   -1    0    0  502    0 -0.00000000000E+00 -0.00000000000E+00 -0.19980167245E+01  0.19980167245E+01  0.00000000000E+00 0. -1.
          2    1    1    2  501    0 -0.29438644803E+02 -0.13243732815E+02  0.14272043227E+03  0.14632550036E+03  0.00000000000E+00 0. -1.
          2    1    1    2  502    0  0.29438644803E+02  0.13243732815E+02  0.13324420880E+04  0.13328330534E+04  0.00000000000E+00 0.  1.
</event>
<event>
 4    1  0.6225520E+003  0.3470753E+02  0.7546771E-02  0.1382631E+00
          2   -1    0    0  501    0  0.00000000000E+00  0.00000000000E+00  0.10532391636E+03  0.10532391636E+03  0.00000000000E+00 0. -1.
          2   -1    0    0  502    0 -0.00000000000E+00 -0.00000000000E+00 -0.14610726857E+04  0.14610726857E+04  0.00000000000E+00 0.  1.
          2    1    1    2  501    0  0.11960186893E+02  0.32581693621E+02 -0.14580012401E+04  0.14584142858E+04  0.00000000000E+00 0.  1.
          2    1    1    2  502    0 -0.11960186893E+02 -0.32581693621E+02  0.10225247081E+03  0.10798231622E+03  0.00000000000E+00 0. -1.
</event>
<event>
 4    1  0.6225520E+003  0.4161963E+02  0.7546771E-02  0.1339248E+00
          2   -1    0    0  502    0  0.00000000000E+00  0.00000000000E+00  0.30202375766E+04  0.30202375766E+04  0.00000000000E+00 0. -1.
          2   -1    0    0  501    0 -0.00000000000E+00 -0.00000000000E+00 -0.14929505692E+01  0.14929505692E+01  0.00000000000E+00 0.  1.
          2    1    1    2  501    0 -0.19083676793E+02 -0.36986575695E+02  0.26950329237E+04  0.26953542723E+04  0.00000000000E+00 0. -1.
          2    1    1    2  502    0  0.19083676793E+02  0.36986575695E+02  0.32371170232E+03  0.32637625484E+03  0.00000000000E+00 0.  1.
</event>
<event>
 4    1  0.6225520E+003  0.2167571E+02  0.7546771E-02  0.1509832E+00
          2   -1    0    0  501    0  0.00000000000E+00  0.00000000000E+00  0.64096050192E+02  0.64096050192E+02  0.00000000000E+00 0. -1.
          2   -1    0    0  502    0 -0.00000000000E+00 -0.00000000000E+00 -0.85096670158E+03  0.85096670158E+03  0.00000000000E+00 0. -1.
          2    1    1    2  501    0  0.21559649792E+02  0.22400222616E+01 -0.84899186205E+03  0.84926851939E+03  0.00000000000E+00 0. -1.
          2    1    1    2  502    0 -0.21559649792E+02 -0.22400222616E+01  0.62121210669E+02  0.65794232375E+02  0.00000000000E+00 0. -1.
</event>
<event>
 4    1  0.6225520E+003  0.2066230E+02  0.7546771E-02  0.1524141E+00
          2   -1    0    0  502    0  0.00000000000E+00  0.00000000000E+00  0.61369956023E+03  0.61369956023E+03  0.00000000000E+00 0.  1.
          2   -1    0    0  501    0 -0.00000000000E+00 -0.00000000000E+00 -0.23394075172E+01  0.23394075172E+01  0.00000000000E+00 0. -1.
          2    1    1    2  501    0  0.60254963267E+01  0.19764211345E+02  0.56387152352E+03  0.56424996738E+03  0.00000000000E+00 0.  1.
          2    1    1    2  502    0 -0.60254963267E+01 -0.19764211345E+02  0.47488629198E+02  0.51789000369E+02  0.00000000000E+00 0. -1.
</event>
<event>
 4    1  0.6225520E+003  0.2284672E+02  0.7546771E-02  0.1494432E+00
          2   -1    0    0  501    0  0.00000000000E+00  0.00000000000E+00  0.72529058156E+01  0.72529058156E+01  0.00000000000E+00 0.  1.
          2   -1    0    0  502    0 -0.00000000000E+00 -0.00000000000E+00 -0.16602152259E+04  0.16602152259E+04  0.00000000000E+00 0.  1.
          2    1    1    2  501    0  0.83275976450E+01  0.21274953917E+02 -0.16419445901E+04  0.16421035320E+04  0.00000000000E+00 0.  1.
          2    1    1    2  502    0 -0.83275976450E+01 -0.21274953917E+02 -0.11017729892E+02  0.25364599715E+02  0.00000000000E+00 0.  1.
</event>
<event>
 4    1  0.6225520E+003  0.9075468E+02  0.7546771E-02  0.1180871E+00
          2   -1    0    0  501    0  0.00000000000E+00  0.00000000000E+00  0.85443700608E+03  0.85443700608E+03  0.00000000000E+00 0. -1.
          2   -1    0    0  502    0 -0.00000000000E+00 -0.00000000000E+00 -0.26162644342E+02  0.26162644342E+02  0.00000000000E+00 0.  1.
          2    1    1    2  501    0 -0.42480487153E+02  0.80198627760E+02  0.64229863173E+02  0.11118402316E+03  0.00000000000E+00 0.  1.
          2    1    1    2  502    0  0.42480487153E+02 -0.80198627760E+02  0.76404449857E+03  0.76941562726E+03  0.00000000000E+00 0. -1.
</event>
<event>
 4    1  0.6225520E+003  0.2247978E+02  0.7546771E-02  0.1499136E+00
          2   -1    0    0  502    0  0.00000000000E+00  0.00000000000E+00  0.12568058560E+02  0.12568058560E+02  0.00000000000E+00 0.  1.
          2   -1    0    0  501    0 -0.00000000000E+00 -0.00000000000E+00 -0.21869399443E+03  0.21869399443E+03  0.00000000000E+00 0. -1.
          2    1    1    2  501    0 -0.41840054570E+01 -0.22086982900E+02  0.13988587622E+01  0.22523266218E+02  0.00000000000E+00 0.  1.
          2    1    1    2  502    0  0.41840054570E+01  0.22086982900E+02 -0.20752479463E+03  0.20873878677E+03  0.00000000000E+00 0. -1.
</event>
<event>
 4    1  0.6225520E+003  0.2365102E+02  0.7546771E-02  0.1484481E+00
          2   -1    0    0  502    0  0.00000000000E+00  0.00000000000E+00  0.54900482607E+03  0.54900482607E+03  0.00000000000E+00 0. -1.
          2   -1    0    0  501    0 -0.00000000000E+00 -0.00000000000E+00 -0.12599075435E+03  0.12599075435E+03  0.00000000000E+00 0.  1.
          2    1    1    2  501    0  0.19401834715E+02  0.13525522898E+02  0.54763739098E+03  0.54814786597E+03  0.00000000000E+00 0. -1.
          2    1    1    2  502    0 -0.19401834715E+02 -0.13525522898E+02 -0.12462331926E+03  0.12684771446E+03  0.00000000000E+00 0.  1.
</event>
<event>
 4    1  0.6225520E+003  0.4403180E+02  0.7546771E-02  0.1326352E+00
          2   -1    0    0  501    0  0.00000000000E+00  0.00000000000E+00  0.16089081941E+01  0.16089081941E+01  0.00000000000E+00 0.  1.
          2   -1    0    0  502    0 -0.00000000000E+00 -0.00000000000E+00 -0.21759958546E+04  0.21759958546E+04  0.00000000000E+00 0.  1.
          2    1    1    2  501    0 -0.32101468193E+02  0.30137935075E+02 -0.18145036774E+04  0.18150378494E+04  0.00000000000E+00 0.  1.
          2    1    1    2  502    0  0.32101468193E+02 -0.30137935075E+02 -0.35988326897E+03  0.36256691337E+03  0.00000000000E+00 0.  1.
</event>
<event>
 4    1  0.6225520E+003  0.3792574E+02  0.7546771E-02  0.1361089E+00
          2   -1    0    0  502    0  0.00000000000E+00  0.00000000000E+00  0.15793055684E+01  0.15793055684E+01  0.00000000000E+00 0.  1.
          2   -1    0    0  501    0 -0.00000000000E+00 -0.00000000000E+00 -0.10456933717E+04  0.10456933717E+04  0.00000000000E+00 0.  1.
          2    1    1    2  501    0  0.34320076973E+02 -0.16139835941E+02 -0.33395488347E+03  0.33610151172E+03  0.00000000000E+00 0.  1.
          2    1    1    2  502    0 -0.34320076973E+02  0.16139835941E+02 -0.71015918270E+03  0.71117116559E+03  0.00000000000E+00 0.  1.
</event>
<event>
 4    1  0.6225520E+003  0.2259349E+02  0.7546771E-02  0.1497667E+00
          2   -1    0    0  501    0  0.00000000000E+00  0.00000000000E+00  0.64851445015E+01  0.64851445015E+01  0.00000000000E+00 0. -1.
          2   -1    0    0  502    0 -0.00000000000E+00 -0.00000000000E+00 -0.22274687735E+03  0.22274687735E+03  0.00000000000E+00 0.  1.
          2    1    1    2  501    0 -0.21612267145E+02 -0.65860104285E+01 -0.20029707015E+03  0.20156731365E+03  0.00000000000E+00 0.  1.
          2    1    1    2  502    0  0.21612267145E+02  0.65860104285E+01 -0.15964662704E+02  0.27664708199E+02  0.00000000000E+00 0. -1.
</event>
<event>
 4    1  0.6225520E+003  0.2038567E+02  0.7546771E-02  0.1528219E+00
          2   -1    0    0  501    0  0.00000000000E+00  0.00000000000E+00  0.89666516757E+03  0.89666516757E+03  0.00000000000E+00 0.  1.
          2   -1    0    0  502    0 -0.00000000000E+00 -0.00000000000E+00 -0.11550409158E+02  0.11550409158E+02  0.00000000000E+00 0.  1.
          2    1    1    2  501    0  0.14231156415E+02  0.14596216389E+02 -0.23464495489E+01  0.20520262456E+02  0.00000000000E+00 0.  1.
          2    1    1    2  502    0 -0.14231156415E+02 -0.14596216389E+02  0.88746120796E+03  0.88769531427E+03  0.00000000000E+00 0.  1.
</event>
<event>
 4    1  0.9260794E+003  0.3679184E+02  0.7546771E-02  0.1368385E+00
          2   -1    0    0  501    0  0.00000000000E+00  0.00000000000E+00  0.16045431155E+04  0.16045431155E+04  0.00000000000E+00 0. -1.
          2   -1    0    0  502    0 -0.00000000000E+00 -0.00000000000E+00 -0.67861263734E+03  0.67861263734E+03  0.00000000000E+00 0. -1.
          2    1    1    2  501    0 -0.16462051202E+02 -0.32903499541E+02 -0.67790283040E+03  0.67890049851E+03  0.00000000000E+00 0. -1.
          2    1    1    2  502    0  0.16462051202E+02  0.32903499541E+02  0.16038333085E+04  0.16042552543E+04  0.00000000000E+00 0. -1.
</event>
<event>
 4    1  0.6225520E+003  0.2106034E+02  0.7546771E-02  0.1518405E+00
          2   -1    0    0  501    0  0.00000000000E+00  0.00000000000E+00  0.94387234638E+01  0.94387234638E+01  0.00000000000E+00 0.  1.
          2   -1    0    0  502    0 -0.00000000000E+00 -0.00000000000E+00 -0.86126696641E+03  0.86126696641E+03  0.00000000000E+00 0.  1.
          2    1    1    2  501    0 -0.56446766252E+01  0.20289784864E+02 -0.84922382508E+03  0.84948492796E+03  0.00000000000E+00 0.  1.
          2    1    1    2  502    0  0.56446766252E+01 -0.20289784864E+02 -0.26044178705E+01  0.21220761920E+02  0.00000000000E+00 0.  1.
</event>
<event>
 4    1  0.6225520E+003  0.3572085E+02  0.7546771E-02  0.1375565E+00
          2   -1    0    0  501    0  0.00000000000E+00  0.00000000000E+00  0.68519495361E+01  0.68519495361E+01  0.00000000000E+00 0.  1.
          2   -1    0    0  502    0 -0.00000000000E+00 -0.00000000000E+00 -0.58330687156E+03  0.58330687156E+03  0.00000000000E+00 0.  1.
          2    1    1    2  501    0  0.35628063046E+02  0.25730452761E+01 -0.53169012815E+03  0.53288870490E+03  0.00000000000E+00 0.  1.
          2    1    1    2  502    0 -0.35628063046E+02 -0.25730452761E+01 -0.44764793872E+02  0.57270116193E+02  0.00000000000E+00 0.  1.
</event>
<event>
 4    1  0.6225520E+003  0.2058872E+02  0.7546771E-02  0.1525219E+00
          2   -1    0    0  501    0  0.00000000000E+00  0.00000000000E+00  0.10777112527E+03  0.10777112527E+03  0.00000000000E+00 0.  1.
          2   -1    0    0  502    0 -0.00000000000E+00 -0.00000000000E+00 -0.11381383491E+02  0.11381383491E+02  0.00000000000E+00 0. -1.
          2    1    1    2  501    0  0.17408261641E+02  0.10993084512E+02  0.29968714284E-03  0.20588722169E+02  0.00000000000E+00 0. -1.
          2    1    1    2  502    0 -0.17408261641E+02 -0.10993084512E+02  0.96389442096E+02  0.98563786595E+02  0.00000000000E+00 0.  1.
</event>
<event>
 4    1  0.6225520E+003  0.2187062E+02  0.7546771E-02  0.1507189E+00
          2   -1    0    0  502    0  0.00000000000E+00  0.00000000000E+00  0.12745097276E+03  0.12745097276E+03  0.00000000000E+00 0. -1.
          2   -1    0    0  501    0 -0.00000000000E+00 -0.00000000000E+00 -0.10158994338E+04  0.10158994338E+04  0.00000000000E+00 0.  1.
          2    1    1    2  501    0  0.21857699339E+02 -0.75156123260E+00  0.12639403554E+03  0.12827227325E+03  0.00000000000E+00 0. -1.
          2    1    1    2  502    0 -0.21857699339E+02  0.75156123260E+00 -0.10148424966E+04  0.10150781333E+04  0.00000000000E+00 0.  1.
</event>
<event>
 4    1  0.6225520E+003  0.2204381E+02  0.7546771E-02  0.1504867E+00
          2   -1    0    0  501    0  0.00000000000E+00  0.00000000000E+00  0.50677338085E+02  0.50677338085E+02  0.00000000000E+00 0. -1.
          2   -1    0    0  502    0 -0.00000000000E+00 -0.00000000000E+00 -0.10611006464E+04  0.10611006464E+04  0.00000000000E+00 0. -1.
          2    1    1    2  501    0  0.11536657561E+02 -0.18783905057E+02 -0.10585832855E+04  0.10588127794E+04  0.00000000000E+00 0. -1.
          2    1    1    2  502    0 -0.11536657561E+02  0.18783905057E+02  0.48159977119E+02  0.52965205116E+02  0.00000000000E+00 0. -1.
</event>
<event>
 4    1  0.6225520E+003  0.3548355E+02  0.7546771E-02  0.1377195E+00
          2   -1    0    0  501    0  0.00000000000E+00  0.00000000000E+00  0.28765971732E+01  0.28765971732E+01  0.00000000000E+00 0.  1.
          2   -1    0    0  502    0 -0.00000000000E+00 -0.00000000000E+00 -0.13286701968E+04  0.13286701968E+04  0.00000000000E+00 0. -1.
          2    1    1    2  501    0  0.34268814000E+02 -0.92049099157E+01 -0.12080892327E+04  0.12086102251E+04  0.00000000000E+00 0. -1.
          2    1    1    2  502    0 -0.34268814000E+02  0.92049099157E+01 -0.11770436689E+03  0.12293656886E+03  0.00000000000E+00 0.  1.
</event>
<event>
 4    1  0.6225520E+003  0.2321714E+02  0.7546771E-02  0.1489789E+00
          2   -1    0    0  501    0  0.00000000000E+00  0.00000000000E+00  0.16426346774E+04  0.16426346774E+04  0.00000000000E+00 0.  1.
          2   -1    0    0  502    0 -0.00000000000E+00 -0.00000000000E+00 -0.43289964068E+00  0.43289964068E+00  0.00000000000E+00 0. -1.
          2    1    1    2  501    0  0.22932412047E+02  0.36249081289E+01  0.41698875623E+03  0.41763459903E+03  0.00000000000E+00 0. -1.
          2    1    1    2  502    0 -0.22932412047E+02 -0.36249081289E+01  0.12252130215E+04  0.12254329780E+04  0.00000000000E+00 0.  1.
</event>
<event>
 4    1  0.6225520E+003  0.2126571E+02  0.7546771E-02  0.1515505E+00
          2   -1    0    0  502    0  0.00000000000E+00  0.00000000000E+00  0.14761784906E+01  0.14761784906E+01  0.00000000000E+00 0. -1.
          2   -1    0    0  501    0 -0.00000000000E+00 -0.00000000000E+00 -0.33886150886E+03  0.33886150886E+03  0.00000000000E+00 0. -1.
          2    1    1    2  501    0  0.18385076288E+02  0.10687341506E+02 -0.11598499316E+03  0.11791839948E+03  0.00000000000E+00 0. -1.
          2    1    1    2  502    0 -0.18385076288E+02 -0.10687341506E+02 -0.22140033721E+03  0.22241928787E+03  0.00000000000E+00 0. -1.
</event>
<event>
 4    1  0.6225520E+003  0.1149366E+03  0.7546771E-02  0.1140177E+00
          2   -1    0    0  501    0  0.00000000000E+00  0.00000000000E+00  0.45372922649E+03  0.45372922649E+03  0.00000000000E+00 0.  1.
          2   -1    0    0  502    0 -0.00000000000E+00 -0.00000000000E+00 -0.21171469986E+03  0.21171469986E+03  0.00000000000E+00 0. -1.
          2    1    1    2  501    0  0.95115379446E+02 -0.64525035990E+02 -0.18799080113E+03  0.22034281696E+03  0.00000000000E+00 0. -1.
          2    1    1    2  502    0 -0.95115379446E+02  0.64525035990E+02  0.43000532776E+03  0.44510110939E+03  0.00000000000E+00 0.  1.
</event>
<event>
 4    1  0.6225520E+003  0.2690974E+02  0.7546771E-02  0.1448517E+00
          2   -1    0    0  501    0  0.00000000000E+00  0.00000000000E+00  0.11454904241E+03  0.11454904241E+03  0.00000000000E+00 0.  1.
          2   -1    0    0  502    0 -0.00000000000E+00 -0.00000000000E+00 -0.26398601557E+03  0.26398601557E+03  0.00000000000E+00 0. -1.
          2    1    1    2  501    0  0.22652376191E+02  0.14525983699E+02 -0.26170611172E+03  0.26308596174E+03  0.00000000000E+00 0. -1.
          2    1    1    2  502    0 -0.22652376191E+02 -0.14525983699E+02  0.11226913856E+03  0.11544909624E+03  0.00000000000E+00 0.  1.
</event>
<event>
 4    1  0.6225520E+003  0.5612819E+02  0.7546771E-02  0.1273587E+00
          2   -1    0    0  502    0  0.00000000000E+00  0.00000000000E+00  0.15242242794E+03  0.15242242794E+03  0.00000000000E+00 0. -1.
          2   -1    0    0  501    0 -0.00000000000E+00 -0.00000000000E+00 -0.16417980065E+03  0.16417980065E+03  0.00000000000E+00 0.  1.
          2    1    1    2  501    0  0.52646952191E+02  0.19459501851E+02  0.14212306482E+03  0.15280490614E+03  0.00000000000E+00 0. -1.
          2    1    1    2  502    0 -0.52646952191E+02 -0.19459501851E+02 -0.15388043753E+03  0.16379732245E+03  0.00000000000E+00 0.  1.
</event>
<event>
 4    1  0.6225520E+003  0.6925257E+02  0.7546771E-02  0.1231270E+00
          2   -1    0    0  501    0  0.00000000000E+00  0.00000000000E+00  0.30224530752E+03  0.30224530752E+03  0.00000000000E+00 0. -1.
          2   -1    0    0  502    0 -0.00000000000E+00 -0.00000000000E+00 -0.47849729668E+02  0.47849729668E+02  0.00000000000E+00 0.  1.
          2    1    1    2  501    0 -0.36433688933E+02  0.58894015563E+02 -0.15912103291E+02  0.71057116389E+02  0.00000000000E+00 0.  1.
          2    1    1    2  502    0  0.36433688933E+02 -0.58894015563E+02  0.27030768115E+03  0.27903792080E+03  0.00000000000E+00 0. -1.
</event>
<event>
 4    1  0.6225520E+003  0.2055207E+02  0.7546771E-02  0.1525757E+00
          2   -1    0    0  502    0  0.00000000000E+00  0.00000000000E+00  0.35874930066E+03  0.35874930066E+03  0.00000000000E+00 0.  1.
          2   -1    0    0  501    0 -0.00000000000E+00 -0.00000000000E+00 -0.14963391304E+03  0.14963391304E+03  0.00000000000E+00 0.  1.
          2    1    1    2  501    0 -0.17312591689E+02  0.11075284604E+02  0.35774727630E+03  0.35833713380E+03  0.00000000000E+00 0.  1.
          2    1    1    2  502    0  0.17312591689E+02 -0.11075284604E+02 -0.14863188868E+03  0.15004607990E+03  0.00000000000E+00 0.  1.
</event>
<event>
 4    1  0.6225520E+003  0.2282899E+02  0.7546771E-02  0.1494657E+00
          2   -1    0    0  501    0  0.00000000000E+00  0.00000000000E+00  0.15456228003E+03  0.15456228003E+03  0.00000000000E+00 0.  1.
          2   -1    0    0  502    0 -0.00000000000E+00 -0.00000000000E+00 -0.39015758801E+01  0.39015758801E+01  0.00000000000E+00 0. -1.
          2    1    1    2  501    0  0.16401124883E+02 -0.15879726964E+02  0.46135854118E+02  0.51475039204E+02  0.00000000000E+00 0.  1.
          2    1    1    2  502    0 -0.16401124883E+02  0.15879726964E+02  0.10452485003E+03  0.10698881671E+03  0.00000000000E+00 0. -1.
</event>
<event>
 4    1  0.6225520E+003  0.2132464E+02  0.7546771E-02  0.1514680E+00
          2   -1    0    0  501    0  0.00000000000E+00  0.00000000000E+00  0.31221967331E+03  0.31221967331E+03  0.00000000000E+00 0. -1.
          2   -1    0    0  502    0 -0.00000000000E+00 -0.00000000000E+00 -0.26111286266E+01  0.26111286266E+01  0.00000000000E+00 0. -1.
          2    1    1    2  501    0  0.20246692656E+02  0.66941511277E+01  0.25948311303E+03  0.26035788095E+03  0.00000000000E+00 0. -1.
          2    1    1    2  502    0 -0.20246692656E+02 -0.66941511277E+01  0.50125431652E+02  0.54472920990E+02  0.00000000000E+00 0. -1.
</event>
<event>
 4    1  0.6225520E+003  0.2683820E+02  0.7546771E-02  0.1449240E+00
          2   -1    0    0  502    0  0.00000000000E+00  0.00000000000E+00  0.19580164253E+04  0.19580164253E+04  0.00000000000E+00 0.  1.
          2   -1    0    0  501    0 -0.00000000000E+00 -0.00000000000E+00 -0.12440590176E+02  0.12440590176E+02  0.00000000000E+00 0. -1.
          2    1    1    2  501    0 -0.21775648693E+02 -0.15687889320E+02  0.19433405845E+04  0.19435258980E+04  0.00000000000E+00 0.  1.
          2    1    1    2  502    0  0.21775648693E+02  0.15687889320E+02  0.22352506858E+01  0.26931117559E+02  0.00000000000E+00 0. -1.
</event>
<event>
 4    1  0.6225520E+003  0.4168479E+02  0.7546771E-02  0.1338886E+00
          2   -1    0    0  502    0  0.00000000000E+00  0.00000000000E+00  0.25714290485E+02  0.25714290485E+02  0.00000000000E+00 0.  1.
          2   -1    0    0  501    0 -0.00000000000E+00 -0.00000000000E+00 -0.94928933708E+02  0.94928933708E+02  0.00000000000E+00 0.  1.
          2    1    1    2  501    0  0.12083970298E+02 -0.39894851198E+02 -0.22263236745E+01  0.41744197290E+02  0.00000000000E+00 0.  1.
          2    1    1    2  502    0 -0.12083970298E+02  0.39894851198E+02 -0.66988319549E+02  0.78899026903E+02  0.00000000000E+00 0.  1.
</event>
<event>
 4    1  0.6225520E+003  0.2238631E+02  0.7546771E-02  0.1500351E+00
          2   -1    0    0  502    0  0.00000000000E+00  0.00000000000E+00  0.11023601995E+03  0.11023601995E+03  0.00000000000E+00 0.  1.
          2   -1    0    0  501    0 -0.00000000000E+00 -0.00000000000E+00 -0.64106445793E+01  0.64106445793E+01  0.00000000000E+00 0.  1.
          2    1    1    2  501    0 -0.54805534089E+00  0.22379599010E+02  0.83366613502E+02  0.86319980672E+02  0.00000000000E+00 0.  1.
          2    1    1    2  502    0  0.54805534089E+00 -0.22379599010E+02  0.20458761866E+02  0.30326683855E+02  0.00000000000E+00 0.  1.
</event>
<event>
 4    1  0.6225520E+003  0.2425141E+02  0.7546771E-02  0.1477355E+00
          2   -1    0    0  502    0  0.00000000000E+00  0.00000000000E+00  0.26999534789E+00  0.26999534789E+00  0.00000000000E+00 0.  1.
          2   -1    0    0  501    0 -0.00000000000E+00 -0.00000000000E+00 -0.23480719780E+04  0.23480719780E+04  0.00000000000E+00 0.  1.
          2    1    1    2  501    0 -0.24208994647E+02 -0.14336416456E+01 -0.85817582804E+03  0.85851842297E+03  0.00000000000E+00 0.  1.
          2    1    1    2  502    0  0.24208994647E+02  0.14336416456E+01 -0.14896261546E+04  0.14898235504E+04  0.00000000000E+00 0.  1.
</event>
<event>
 4    1  0.6225520E+003  0.2403344E+02  0.7546771E-02  0.1479913E+00
          2   -1    0    0  502    0  0.00000000000E+00  0.00000000000E+00  0.68655186502E+01  0.68655186502E+01  0.00000000000E+00 0. -1.
          2   -1    0    0  501    0 -0.00000000000E+00 -0.00000000000E+00 -0.60452753283E+03  0.60452753283E+03  0.00000000000E+00 0.  1.
          2    1    1    2  501    0  0.10238411007E+02  0.21743535208E+02 -0.15202780958E+02  0.28438194952E+02  0.00000000000E+00 0. -1.
          2    1    1    2  502    0 -0.10238411007E+02 -0.21743535208E+02 -0.58245923322E+03  0.58295485653E+03  0.00000000000E+00 0.  1.
</event>
<event>
 4    1  0.6225520E+003  0.2323183E+02  0.7546771E-02  0.1489607E+00
          2   -1    0    0  502    0  0.00000000000E+00  0.00000000000E+00  0.24231980446E+03  0.24231980446E+03  0.00000000000E+00 0. -1.
          2   -1    0    0  501    0 -0.00000000000E+00 -0.00000000000E+00 -0.14584823061E+02  0.14584823061E+02  0.00000000000E+00 0. -1.
          2    1    1    2  501    0  0.17534756674E+02 -0.15239758798E+02  0.23210550663E+03  0.23326526563E+03  0.00000000000E+00 0. -1.
          2    1    1    2  502    0 -0.17534756674E+02  0.15239758798E+02 -0.43705252339E+01  0.23639361892E+02  0.00000000000E+00 0. -1.
</event>
<event>
 4    1  0.6225520E+003  0.2093460E+02  0.7546771E-02  0.1520201E+00
          2   -1    0    0  501    0  0.00000000000E+00  0.00000000000E+00  0.27907140898E+03  0.27907140898E+03  0.00000000000E+00 0. -1.
          2   -1    0    0  502    0 -0.00000000000E+00 -0.00000000000E+00 -0.57249780101E+02  0.57249780101E+02  0.00000000000E+00 0. -1.
          2    1    1    2  501    0 -0.11919414980E+02  0.17210031831E+02 -0.54927342998E+02  0.58781550319E+02  0.00000000000E+00 0. -1.
          2    1    1    2  502    0  0.11919414980E+02 -0.17210031831E+02  0.27674897188E+03  0.27753963876E+03  0.00000000000E+00 0. -1.
</event>
<event>
 4    1  0.6225520E+003  0.2641251E+02  0.7546771E-02  0.1453600E+00
          2   -1    0    0  501    0  0.00000000000E+00  0.00000000000E+00  0.47675234216E+01  0.47675234216E+01  0.00000000000E+00 0. -1.
          2   -1    0    0  502    0 -0.00000000000E+00 -0.00000000000E+00 -0.29160028786E+03  0.29160028786E+03  0.00000000000E+00 0. -1.
          2    1    1    2  501    0 -0.12539671628E+02  0.23246018439E+02 -0.24800848617E+03  0.24941096598E+03  0.00000000000E+00 0. -1.
          2    1    1    2  502    0  0.12539671628E+02 -0.23246018439E+02 -0.38824278268E+02  0.46956845303E+02  0.00000000000E+00 0. -1.
</event>
<event>
 4    1  0.6225520E+003  0.3052378E+02  0.7546771E-02  0.1415098E+00
          2   -1    0    0  501    0  0.00000000000E+00  0.00000000000E+00  0.76250256117E+03  0.76250256117E+03  0.00000000000E+00 0. -1.
          2   -1    0    0  502    0 -0.00000000000E+00 -0.00000000000E+00 -0.10034658072E+02  0.10034658072E+02  0.00000000000E+00 0. -1.
          2    1    1    2  501    0 -0.30376330798E+02  0.29966034097E+01  0.14246032990E+02  0.33684574522E+02  0.00000000000E+00 0. -1.
          2    1    1    2  502    0  0.30376330798E+02 -0.29966034097E+01  0.73822187011E+03  0.73885264472E+03  0.00000000000E+00 0. -1.
</event>
<event>
 4    1  0.6225520E+003  0.2559970E+02  0.7546771E-02  0.1462205E+00
          2   -1    0    0  502    0  0.00000000000E+00  0.00000000000E+00  0.56677187267E+02  0.56677187267E+02  0.00000000000E+00 0. -1.
          2   -1    0    0  501    0 -0.00000000000E+00 -0.00000000000E+00 -0.46375621719E+03  0.46375621719E+03  0.00000000000E+00 0.  1.
          2    1    1    2  501    0  0.23290882700E+02 -0.10624477553E+02  0.53412739886E+02  0.59230613050E+02  0.00000000000E+00 0. -1.
          2    1    1    2  502    0 -0.23290882700E+02  0.10624477553E+02 -0.46049176981E+03  0.46120279141E+03  0.00000000000E+00 0.  1.
</event>
<event>
 4    1  0.6225520E+003  0.2087030E+02  0.7546771E-02  0.1521125E+00
          2   -1    0    0  501    0  0.00000000000E+00  0.00000000000E+00  0.38550484322E+02  0.38550484322E+02  0.00000000000E+00 0. -1.
          2   -1    0    0  502    0 -0.00000000000E+00 -0.00000000000E+00 -0.53310707805E+03  0.53310707805E+03  0.00000000000E+00 0.  1.
          2    1    1    2  501    0  0.20189877629E+02 -0.52856553053E+01 -0.53006192894E+03  0.53047263626E+03  0.00000000000E+00 0.  1.
          2    1    1    2  502    0 -0.20189877629E+02  0.52856553053E+01  0.35505335209E+02  0.41184926114E+02  0.00000000000E+00 0. -1.
</event>
<event>
 4    1  0.6225520E+003  0.3574659E+02  0.7546771E-02  0.1375389E+00
          2   -1    0    0  501    0  0.00000000000E+00  0.00000000000E+00  0.12453219920E+03  0.12453219920E+03  0.00000000000E+00 0.  1.
          2   -1    0    0  502    0 -0.00000000000E+00 -0.00000000000E+00 -0.94495726762E+02  0.94495726762E+02  0.00000000000E+00 0.  1.
          2    1    1    2  501    0 -0.12834616004E+02 -0.33363028098E+02 -0.88379044640E+02  0.95334540138E+02  0.00000000000E+00 0.  1.
          2    1    1    2  502    0  0.12834616004E+02  0.33363028098E+02  0.11841551707E+03  0.12369338582E+03  0.00000000000E+00 0.  1.
</event>
<event>
 4    1  0.6225520E+003  0.2429768E+02  0.7546771E-02  0.1476816E+00
          2   -1    0    0  501    0  0.00000000000E+00  0.00000000000E+00  0.28215901088E+03  0.28215901088E+03  0.00000000000E+00 0. -1.
          2   -1    0    0  502    0 -0.00000000000E+00 -0.00000000000E+00 -0.46350208058E+03  0.46350208058E+03  0.00000000000E+00 0.  1.
          2    1    1    2  501    0 -0.24199424265E+02 -0.21829058636E+01 -0.46265960675E+03  0.46329719288E+03  0.00000000000E+00 0.  1.
          2    1    1    2  502    0  0.24199424265E+02  0.21829058636E+01  0.28131653704E+03  0.28236389859E+03  0.00000000000E+00 0. -1.
</event>
<event>
 4    1  0.6225520E+003  0.5317247E+02  0.7546771E-02  0.1284974E+00
          2   -1    0    0  501    0  0.00000000000E+00  0.00000000000E+00  0.26326860946E+04  0.26326860946E+04  0.00000000000E+00 0. -1.
          2   -1    0    0  502    0 -0.00000000000E+00 -0.00000000000E+00 -0.28674933767E+01  0.28674933767E+01  0.00000000000E+00 0.  1.
          2    1    1    2  501    0  0.21275439258E+02  0.48730554894E+02  0.27271322342E+03  0.27784854422E+03  0.00000000000E+00 0.  1.
          2    1    1    2  502    0 -0.21275439258E+02 -0.48730554894E+02  0.23571053778E+04  0.23577050438E+04  0.00000000000E+00 0. -1.
</event>
<event>
 4    1  0.6225520E+003  0.2522578E+02  0.7546771E-02  0.1466293E+00
          2   -1    0    0  502    0  0.00000000000E+00  0.00000000000E+00  0.67702038399E+00  0.67702038399E+00  0.00000000000E+00 0.  1.
          2   -1    0    0  501    0 -0.00000000000E+00 -0.00000000000E+00 -0.15978347904E+04  0.15978347904E+04  0.00000000000E+00 0.  1.
          2    1    1    2  501    0 -0.22661397083E+02  0.11081575150E+02 -0.28570915265E+03  0.28682060619E+03  0.00000000000E+00 0.  1.
          2    1    1    2  502    0  0.22661397083E+02 -0.11081575150E+02 -0.13114486174E+04  0.13116912046E+04  0.00000000000E+00 0.  1.
</event>
<event>
 4    1  0.6225520E+003  0.3695955E+02  0.7546771E-02  0.1367287E+00
          2   -1    0    0  502    0  0.00000000000E+00  0.00000000000E+00  0.23145708476E+02  0.23145708476E+02  0.00000000000E+00 0. -1.
          2   -1    0    0  501    0 -0.00000000000E+00 -0.00000000000E+00 -0.19602782359E+04  0.19602782359E+04  0.00000000000E+00 0. -1.
          2    1    1    2  501    0  0.10096951262E+02  0.35553620830E+02  0.81029642851E+01  0.37837367894E+02  0.00000000000E+00 0. -1.
          2    1    1    2  502    0 -0.10096951262E+02 -0.35553620830E+02 -0.19452354917E+04  0.19455865765E+04  0.00000000000E+00 0. -1.
</event>
<event>
 4    1  0.6225520E+003  0.2374673E+02  0.7546771E-02  0.1483328E+00
          2   -1    0    0  502    0  0.00000000000E+00  0.00000000000E+00  0.29310293678E+02  0.29310293678E+02  0.00000000000E+00 0. -1.
          2   -1    0    0  501    0 -0.00000000000E+00 -0.00000000000E+00 -0.16278286711E+04  0.16278286711E+04  0.00000000000E+00 0. -1.
          2    1    1    2  501    0  0.22753662772E+02  0.67954268305E+01  0.24399332433E+02  0.34047531754E+02  0.00000000000E+00 0. -1.
          2    1    1    2  502    0 -0.22753662772E+02 -0.67954268305E+01 -0.16229177098E+04  0.16230914330E+04  0.00000000000E+00 0. -1.
</event>
<event>
 4    1  0.6225520E+003  0.2391157E+02  0.7546771E-02  0.1481358E+00
          2   -1    0    0  502    0  0.00000000000E+00  0.00000000000E+00  0.10680995875E+04  0.10680995875E+04  0.00000000000E+00 0.  1.
          2   -1    0    0  501    0 -0.00000000000E+00 -0.00000000000E+00 -0.19241518869E+01  0.19241518869E+01  0.00000000000E+00 0.  1.
          2    1    1    2  501    0  0.23208398616E+02 -0.57561763626E+01  0.98762582567E+03  0.98791524680E+03  0.00000000000E+00 0.  1.
          2    1    1    2  502    0 -0.23208398616E+02  0.57561763626E+01  0.78549609975E+02  0.82108492617E+02  0.00000000000E+00 0.  1.
</event>
<event>
 4    1  0.6225520E+003  0.2995160E+02  0.7546771E-02  0.1420018E+00
          2   -1    0    0  502    0  0.00000000000E+00  0.00000000000E+00  0.29854648472E+03  0.29854648472E+03  0.00000000000E+00 0.  1.
          2   -1    0    0  501    0 -0.00000000000E+00 -0.00000000000E+00 -0.45237481784E+01  0.45237481784E+01  0.00000000000E+00 0.  1.
          2    1    1    2  501    0  0.94861152632E+01 -0.28409711253E+02  0.23481718699E+03  0.23671968524E+03  0.00000000000E+00 0.  1.
          2    1    1    2  502    0 -0.94861152632E+01  0.28409711253E+02  0.59205549550E+02  0.66350547653E+02  0.00000000000E+00 0.  1.
</event>
<event>
 4    1  0.6225520E+003  0.3482103E+02  0.7546771E-02  0.1381826E+00
          2   -1    0    0  502    0  0.00000000000E+00  0.00000000000E+00  0.13023564353E+03  0.13023564353E+03  0.00000000000E+00 0. -1.
          2   -1    0    0  501    0 -0.00000000000E+00 -0.00000000000E+00 -0.22130870983E+04  0.22130870983E+04  0.00000000000E+00 0. -1.
          2    1    1    2  501    0 -0.20057983707E+02  0.28463688390E+02  0.12776855634E+03  0.13242850243E+03  0.00000000000E+00 0. -1.
          2    1    1    2  502    0  0.20057983707E+02 -0.28463688390E+02 -0.22106200111E+04  0.22108942394E+04  0.00000000000E+00 0. -1.
</event>
<event>
 4    1  0.6225520E+003  0.2167028E+02  0.7546771E-02  0.1509906E+00
          2   -1    0    0  501    0  0.00000000000E+00  0.00000000000E+00  0.20830423233E+04  0.20830423233E+04  0.00000000000E+00 0. -1.
          2   -1    0    0  502    0 -0.00000000000E+00 -0.00000000000E+00 -0.22747921752E+00  0.22747921752E+00  0.00000000000E+00 0. -1.
          2    1    1    2  501    0 -0.18641812256E+02 -0.11049147479E+02  0.11400327725E+04  0.11402387133E+04  0.00000000000E+00 0. -1.
          2    1    1    2  502    0  0.18641812256E+02  0.11049147479E+02  0.94278207154E+03  0.94303108922E+03  0.00000000000E+00 0. -1.
</event>
<event>
 4    1  0.6225520E+003  0.2104704E+02  0.7546771E-02  0.1518594E+00
          2   -1    0    0  501    0  0.00000000000E+00  0.00000000000E+00  0.49824683122E+03  0.49824683122E+03  0.00000000000E+00 0.  1.
          2   -1    0    0  502    0 -0.00000000000E+00 -0.00000000000E+00 -0.21086896684E+02  0.21086896684E+02  0.00000000000E+00 0. -1.
          2    1    1    2  501    0  0.20291886496E+02 -0.55872264970E+01 -0.15553865966E+02  0.26170603814E+02  0.00000000000E+00 0. -1.
          2    1    1    2  502    0 -0.20291886496E+02  0.55872264970E+01  0.49271380050E+03  0.49316312409E+03  0.00000000000E+00 0.  1.
</event>
<event>
 4    1  0.6225520E+003  0.2944518E+02  0.7546771E-02  0.1424480E+00
          2   -1    0    0  502    0  0.00000000000E+00  0.00000000000E+00  0.22671284025E+03  0.22671284025E+03  0.00000000000E+00 0.  1.
          2   -1    0    0  501    0 -0.00000000000E+00 -0.00000000000E+00 -0.52628326947E+03  0.52628326947E+03  0.00000000000E+00 0.  1.
          2    1    1    2  501    0  0.14159652509E+02 -0.25817105932E+02  0.22534241088E+03  0.22725804906E+03  0.00000000000E+00 0.  1.
          2    1    1    2  502    0 -0.14159652509E+02  0.25817105932E+02 -0.52491284011E+03  0.52573806066E+03  0.00000000000E+00 0.  1.
</event>
<event>
 4    1  0.6225520E+003  0.4208719E+02  0.7546771E-02  0.1336671E+00
          2   -1    0    0  502    0  0.00000000000E+00  0.00000000000E+00  0.17022731975E+04  0.17022731975E+04  0.00000000000E+00 0. -1.
          2   -1    0    0  501    0 -0.00000000000E+00 -0.00000000000E+00 -0.99931696604E+01  0.99931696604E+01  0.00000000000E+00 0.  1.
          2    1    1    2  501    0 -0.30763510490E+02 -0.28721734235E+02  0.16564745012E+04  0.16570090841E+04  0.00000000000E+00 0. -1.
          2    1    1    2  502    0  0.30763510490E+02  0.28721734235E+02  0.35805526628E+02  0.55257283069E+02  0.00000000000E+00 0.  1.
</event>
<event>
 4    1  0.6225520E+003  0.2078235E+02  0.7546771E-02  0.1522395E+00
          2   -1    0    0  501    0  0.00000000000E+00  0.00000000000E+00  0.27166664818E+02  0.27166664818E+02  0.00000000000E+00 0.  1.
          2   -1    0    0  502    0 -0.00000000000E+00 -0.00000000000E+00 -0.38287347561E+03  0.38287347561E+03  0.00000000000E+00 0.  1.
          2    1    1    2  501    0 -0.95643590997E+01  0.18450721114E+02 -0.37857173369E+03  0.37914174608E+03  0.00000000000E+00 0.  1.
          2    1    1    2  502    0  0.95643590997E+01 -0.18450721114E+02  0.22864922891E+02  0.30898394350E+02  0.00000000000E+00 0.  1.
</event>
<event>
 4    1  0.6225520E+003  0.2518030E+02  0.7546771E-02  0.1466796E+00
          2   -1    0    0  501    0  0.00000000000E+00  0.00000000000E+00  0.36854793996E+02  0.36854793996E+02  0.00000000000E+00 0. -1.
          2   -1    0    0  502    0 -0.00000000000E+00 -0.00000000000E+00 -0.18388936414E+03  0.18388936414E+03  0.00000000000E+00 0.  1.
          2    1    1    2  501    0 -0.66281667460E+01  0.24292283468E+02 -0.17859962412E+03  0.18036594292E+03  0.00000000000E+00 0.  1.
          2    1    1    2  502    0  0.66281667460E+01 -0.24292283468E+02  0.31565053982E+02  0.40378215208E+02  0.00000000000E+00 0. -1.
</event>
<event>
 4    1  0.6225520E+003  0.2750971E+02  0.7546771E-02  0.1442554E+00
          2   -1    0    0  501    0  0.00000000000E+00  0.00000000000E+00  0.38195749997E+03  0.38195749997E+03  0.00000000000E+00 0. -1.
          2   -1    0    0  502    0 -0.00000000000E+00 -0.00000000000E+00 -0.66773004270E+03  0.66773004270E+03  0.00000000000E+00 0. -1.
          2    1    1    2  501    0 -0.27508700512E+02  0.23613406158E+00 -0.66695078918E+03  0.66751789456E+03  0.00000000000E+00 0. -1.
          2    1    1    2  502    0  0.27508700512E+02 -0.23613406158E+00  0.38117824646E+03  0.38216964811E+03  0.00000000000E+00 0. -1.
</event>
<event>
 4    1  0.6225520E+003  0.2007435E+02  0.7546771E-02  0.1532902E+00
          2   -1    0    0  501    0  0.00000000000E+00  0.00000000000E+00  0.12326645863E+03  0.12326645863E+03  0.00000000000E+00 0. -1.
          2   -1    0    0  502    0 -0.00000000000E+00 -0.00000000000E+00 -0.86767044148E+02  0.86767044148E+02  0.00000000000E+00 0. -1.
          2    1    1    2  501    0  0.15364506038E+02  0.12919425768E+02 -0.84769659229E+02  0.87114147725E+02  0.00000000000E+00 0. -1.
          2    1    1    2  502    0 -0.15364506038E+02 -0.12919425768E+02  0.12126907372E+03  0.12291935506E+03  0.00000000000E+00 0. -1.
</event>
<event>
 4    1  0.6225520E+003  0.2868354E+02  0.7546771E-02  0.1431392E+00
          2   -1    0    0  502    0  0.00000000000E+00  0.00000000000E+00  0.93234113838E+03  0.93234113838E+03  0.00000000000E+00 0.  1.
          2   -1    0    0  501    0 -0.00000000000E+00 -0.00000000000E+00 -0.53699267622E+02  0.53699267622E+02  0.00000000000E+00 0. -1.
          2    1    1    2  501    0 -0.28079428727E+02 -0.58558786039E+01  0.92827340569E+03  0.92871645907E+03  0.00000000000E+00 0.  1.
          2    1    1    2  502    0  0.28079428727E+02  0.58558786039E+01 -0.49631534935E+02  0.57323946932E+02  0.00000000000E+00 0. -1.
</event>
<event>
 4    1  0.6225520E+003  0.2840756E+02  0.7546771E-02  0.1433959E+00
          2   -1    0    0  501    0  0.00000000000E+00  0.00000000000E+00  0.37186406542E+03  0.37186406542E+03  0.00000000000E+00 0. -1.
          2   -1    0    0  502    0 -0.00000000000E+00 -0.00000000000E+00 -0.75307163425E+01  0.75307163425E+01  0.00000000000E+00 0. -1.
          2    1    1    2  501    0 -0.17907651621E+01  0.28351060743E+02  0.22118847100E+02  0.36003234329E+02  0.00000000000E+00 0. -1.
          2    1    1    2  502    0  0.17907651621E+01 -0.28351060743E+02  0.34221450198E+03  0.34339154743E+03  0.00000000000E+00 0. -1.
</event>
<event>
 4    1  0.6225520E+003  0.3469187E+02  0.7546771E-02  0.1382742E+00
          2   -1    0    0  501    0  0.00000000000E+00  0.00000000000E+00  0.20414045874E+04  0.20414045874E+04  0.00000000000E+00 0.  1.
          2   -1    0    0  502    0 -0.00000000000E+00 -0.00000000000E+00 -0.13927600711E+01  0.13927600711E+01  0.00000000000E+00 0.  1.
          2    1    1    2  501    0  0.24772276659E+02 -0.24287043057E+02  0.24434915807E+03  0.24679958914E+03  0.00000000000E+00 0.  1.
          2    1    1    2  502    0 -0.24772276659E+02  0.24287043057E+02  0.17956626692E+04  0.17959977583E+04  0.00000000000E+00 0.  1.
</event>
<event>
 4    1  0.6225520E+003  0.2044571E+02  0.7546771E-02  0.1527328E+00
          2   -1    0    0  502    0  0.00000000000E+00  0.00000000000E+00  0.19622063619E+03  0.19622063619E+03  0.00000000000E+00 0. -1.
          2   -1    0    0  501    0 -0.00000000000E+00 -0.00000000000E+00 -0.28099581560E+02  0.28099581560E+02  0.00000000000E+00 0.  1.
          2    1    1    2  501    0 -0.17280108444E+02 -0.10928171845E+02  0.19188508492E+03  0.19297127481E+03  0.00000000000E+00 0. -1.
          2    1    1    2  502    0  0.17280108444E+02  0.10928171845E+02 -0.23764030291E+02  0.31348942938E+02  0.00000000000E+00 0.  1.
</event>
<event>
 4    1  0.6225520E+003  0.2068388E+02  0.7546771E-02  0.1523826E+00
          2   -1    0    0  502    0  0.00000000000E+00  0.00000000000E+00  0.61426670170E+03  0.61426670170E+03  0.00000000000E+00 0.  1.
          2   -1    0    0  501    0 -0.00000000000E+00 -0.00000000000E+00 -0.16143657342E+02  0.16143657342E+02  0.00000000000E+00 0. -1.
          2    1    1    2  501    0 -0.95242304862E+01  0.18360606422E+02  0.60739237462E+03  0.60774445253E+03  0.00000000000E+00 0.  1.
          2    1    1    2  502    0  0.95242304862E+01 -0.18360606422E+02 -0.92693302606E+01  0.22665906512E+02  0.00000000000E+00 0. -1.
</event>
<event>
 4    1  0.6225520E+003  0.4969420E+02  0.7546771E-02  0.1299504E+00
          2   -1    0    0  501    0  0.00000000000E+00  0.00000000000E+00  0.12778756007E+04  0.12778756007E+04  0.00000000000E+00 0.  1.
          2   -1    0    0  502    0 -0.00000000000E+00 -0.00000000000E+00 -0.19897142896E+01  0.19897142896E+01  0.00000000000E+00 0.  1.
          2    1    1    2  501    0  0.25253296308E+02  0.42799349313E+02  0.52944145647E+03  0.53176852963E+03  0.00000000000E+00 0.  1.
          2    1    1    2  502    0 -0.25253296308E+02 -0.42799349313E+02  0.74644442994E+03  0.74809678536E+03  0.00000000000E+00 0.  1.
</event>
<event>
 4    1  0.6225520E+003  0.3456189E+02  0.7546771E-02  0.1383670E+00
          2   -1    0    0  501    0  0.00000000000E+00  0.00000000000E+00  0.50421243854E+01  0.50421243854E+01  0.00000000000E+00 0.  1.
          2   -1    0    0  502    0 -0.00000000000E+00 -0.00000000000E+00 -0.77090193796E+03  0.77090193796E+03  0.00000000000E+00 0.  1.
          2    1    1    2  501    0 -0.29374389628E+02 -0.18211791094E+02 -0.70583035699E+03  0.70667603394E+03  0.00000000000E+00 0.  1.
          2    1    1    2  502    0  0.29374389628E+02  0.18211791094E+02 -0.60029456580E+02  0.69268028398E+02  0.00000000000E+00 0.  1.
</event>
<event>
 4    1  0.6225520E+003  0.8319701E+02  0.7546771E-02  0.1196614E+00
          2   -1    0    0  501    0  0.00000000000E+00  0.00000000000E+00  0.22961408599E+04  0.22961408599E+04  0.00000000000E+00 0.  1.
          2   -1    0    0  502    0 -0.00000000000E+00 -0.00000000000E+00 -0.21827287987E+02  0.21827287987E+02  0.00000000000E+00 0. -1.
          2    1    1    2  501    0 -0.47870750576E+02  0.68045090099E+02  0.61177212531E+02  0.10326855465E+03  0.00000000000E+00 0. -1.
          2    1    1    2  502    0  0.47870750576E+02 -0.68045090099E+02  0.22131363594E+04  0.22146995932E+04  0.00000000000E+00 0.  1.
</event>
<event>
 4    1  0.6225520E+003  0.3163553E+02  0.7546771E-02  0.1405897E+00
          2   -1    0    0  502    0  0.00000000000E+00  0.00000000000E+00  0.10114304456E+04  0.10114304456E+04  0.00000000000E+00 0. -1.
          2   -1    0    0  501    0 -0.00000000000E+00 -0.00000000000E+00 -0.11658687247E+01  0.11658687247E+01  0.00000000000E+00 0. -1.
          2    1    1    2  501    0 -0.24986443714E+02  0.19403210096E+02  0.70205534197E+03  0.70276774977E+03  0.00000000000E+00 0. -1.
          2    1    1    2  502    0  0.24986443714E+02 -0.19403210096E+02  0.30820923486E+03  0.30982856451E+03  0.00000000000E+00 0. -1.
</event>
<event>
 4    1  0.6225520E+003  0.3424615E+02  0.7546771E-02  0.1385942E+00
          2   -1    0    0  501    0  0.00000000000E+00  0.00000000000E+00  0.55619276326E+01  0.55619276326E+01  0.00000000000E+00 0.  1.
          2   -1    0    0  502    0 -0.00000000000E+00 -0.00000000000E+00 -0.21103685087E+03  0.21103685087E+03  0.00000000000E+00 0.  1.
          2    1    1    2  501    0 -0.10151969440E+02  0.32706824451E+02 -0.10585531447E+03  0.11125711866E+03  0.00000000000E+00 0.  1.
          2    1    1    2  502    0  0.10151969440E+02 -0.32706824451E+02 -0.99619608762E+02  0.10534165985E+03  0.00000000000E+00 0.  1.
</event>
<event>
 4    1  0.6225520E+003  0.6362919E+02  0.7546771E-02  0.1247976E+00
          2   -1    0    0  501    0  0.00000000000E+00  0.00000000000E+00  0.72714038620E+01  0.72714038620E+01  0.00000000000E+00 0.  1.
          2   -1    0    0  502    0 -0.00000000000E+00 -0.00000000000E+00 -0.65039338740E+03  0.65039338740E+03  0.00000000000E+00 0. -1.
          2    1    1    2  501    0  0.49050751423E-01 -0.63629173093E+02 -0.44630595825E+03  0.45081890205E+03  0.00000000000E+00 0. -1.
          2    1    1    2  502    0 -0.49050751423E-01  0.63629173093E+02 -0.19681602528E+03  0.20684588921E+03  0.00000000000E+00 0.  1.
</event>
<event>
 4    1  0.6225520E+003  0.2594720E+02  0.7546771E-02  0.1458480E+00
          2   -1    0    0  501    0  0.00000000000E+00  0.00000000000E+00  0.65470721579E+03  0.65470721579E+03  0.00000000000E+00 0. -1.
          2   -1    0    0  502    0 -0.00000000000E+00 -0.00000000000E+00 -0.48811709830E+01  0.48811709830E+01  0.00000000000E+00 0.  1.
          2    1    1    2  501    0  0.25278868949E+02  0.58511565103E+01  0.31910506504E+02  0.41128307444E+02  0.00000000000E+00 0.  1.
          2    1    1    2  502    0 -0.25278868949E+02 -0.58511565103E+01  0.61791553831E+03  0.61846007933E+03  0.00000000000E+00 0. -1.
</event>
<event>
 4    1  0.6225520E+003  0.2219334E+02  0.7546771E-02  0.1502884E+00
          2   -1    0    0  501    0  0.00000000000E+00  0.00000000000E+00  0.92564374943E+01  0.92564374943E+01  0.00000000000E+00 0.  1.
          2   -1    0    0  502    0 -0.00000000000E+00 -0.00000000000E+00 -0.64841410619E+03  0.64841410619E+03  0.00000000000E+00 0. -1.
          2    1    1    2  501    0 -0.83100347184E+01 -0.20578813534E+02 -0.63463266502E+03  0.63502060104E+03  0.00000000000E+00 0. -1.
          2    1    1    2  502    0  0.83100347184E+01  0.20578813534E+02 -0.45250036826E+01  0.22649942644E+02  0.00000000000E+00 0.  1.
</event>
<event>
 4    1  0.6225520E+003  0.2797547E+02  0.7546771E-02  0.1438048E+00
          2   -1    0    0  501    0  0.00000000000E+00  0.00000000000E+00  0.10620549840E+01  0.10620549840E+01  0.00000000000E+00 0.  1.
          2   -1    0    0  502    0 -0.00000000000E+00 -0.00000000000E+00 -0.12244291451E+04  0.12244291451E+04  0.00000000000E+00 0. -1.
          2    1    1    2  501    0  0.27945881787E+02  0.12862290764E+01 -0.99833027786E+03  0.99872216877E+03  0.00000000000E+00 0. -1.
          2    1    1    2  502    0 -0.27945881787E+02 -0.12862290764E+01 -0.22503681222E+03  0.22676903128E+03  0.00000000000E+00 0.  1.
</event>
<event>
 4    1  0.6225520E+003  0.2422823E+02  0.7546771E-02  0.1477625E+00
          2   -1    0    0  501    0  0.00000000000E+00  0.00000000000E+00  0.82940460616E+01  0.82940460616E+01  0.00000000000E+00 0.  1.
          2   -1    0    0  502    0 -0.00000000000E+00 -0.00000000000E+00 -0.40887126877E+03  0.40887126877E+03  0.00000000000E+00 0. -1.
          2    1    1    2  501    0  0.77978606057E+01  0.22939065277E+02 -0.38996155298E+03  0.39071347577E+03  0.00000000000E+00 0. -1.
          2    1    1    2  502    0 -0.77978606057E+01 -0.22939065277E+02 -0.10615669724E+02  0.26451839057E+02  0.00000000000E+00 0.  1.
</event>
<event>
 4    1  0.6225520E+003  0.3564825E+02  0.7546771E-02  0.1376062E+00
          2   -1    0    0  502    0  0.00000000000E+00  0.00000000000E+00  0.15966911895E+01  0.15966911895E+01  0.00000000000E+00 0. -1.
          2   -1    0    0  501    0 -0.00000000000E+00 -0.00000000000E+00 -0.82878300726E+03  0.82878300726E+03  0.00000000000E+00 0. -1.
          2    1    1    2  501    0  0.16962625178E+02 -0.31353902893E+02 -0.49630121063E+03  0.49757983234E+03  0.00000000000E+00 0. -1.
          2    1    1    2  502    0 -0.16962625178E+02  0.31353902893E+02 -0.33088510545E+03  0.33279986611E+03  0.00000000000E+00 0. -1.
</event>
<event>
 4    1  0.6225520E+003  0.4129125E+02  0.7546771E-02  0.1341081E+00
          2   -1    0    0  501    0  0.00000000000E+00  0.00000000000E+00  0.94988640310E+03  0.94988640310E+03  0.00000000000E+00 0.  1.
          2   -1    0    0  502    0 -0.00000000000E+00 -0.00000000000E+00 -0.16407137168E+02  0.16407137168E+02  0.00000000000E+00 0.  1.
          2    1    1    2  501    0  0.37489275741E+01  0.41120708206E+02  0.10785893230E+02  0.42676721923E+02  0.00000000000E+00 0.  1.
          2    1    1    2  502    0 -0.37489275741E+01 -0.41120708206E+02  0.92269337270E+03  0.92361681834E+03  0.00000000000E+00 0.  1.
</event>
<event>
 4    1  0.6225520E+003  0.2196788E+02  0.7546771E-02  0.1505882E+00
          2   -1    0    0  502    0  0.00000000000E+00  0.00000000000E+00  0.11670539873E+02  0.11670539873E+02  0.00000000000E+00 0. -1.
          2   -1    0    0  501    0 -0.00000000000E+00 -0.00000000000E+00 -0.13779451644E+03  0.13779451644E+03  0.00000000000E+00 0. -1.
          2    1    1    2  501    0 -0.14581842700E+02 -0.16430383043E+02 -0.54034369324E+00  0.21974521491E+02  0.00000000000E+00 0. -1.
          2    1    1    2  502    0  0.14581842700E+02  0.16430383043E+02 -0.12558363287E+03  0.12749053482E+03  0.00000000000E+00 0. -1.
</event>
<event>
 4    1  0.7224333E+003  0.3085922E+02  0.7546771E-02  0.1412274E+00
          2   -1    0    0  501    0  0.00000000000E+00  0.00000000000E+00  0.48112300233E+03  0.48112300233E+03  0.00000000000E+00 0. -1.
          2   -1    0    0  502    0 -0.00000000000E+00 -0.00000000000E+00 -0.72867370893E+03  0.72867370893E+03  0.00000000000E+00 0. -1.
          2    1    1    2  501    0 -0.28919455545E+02 -0.10768303339E+02 -0.72785160219E+03  0.72850548802E+03  0.00000000000E+00 0. -1.
          2    1    1    2  502    0  0.28919455545E+02  0.10768303339E+02  0.48030089559E+03  0.48129122324E+03  0.00000000000E+00 0. -1.
</event>
<event>
 4    1  0.6225520E+003  0.2296128E+02  0.7546771E-02  0.1492985E+00
          2   -1    0    0  502    0  0.00000000000E+00  0.00000000000E+00  0.27291917561E+00  0.27291917561E+00  0.00000000000E+00 0.  1.
          2   -1    0    0  501    0 -0.00000000000E+00 -0.00000000000E+00 -0.19418750323E+04  0.19418750323E+04  0.00000000000E+00 0.  1.
          2    1    1    2  501    0 -0.17638271912E+02 -0.14700734232E+02 -0.90079065156E+03  0.90108324708E+03  0.00000000000E+00 0.  1.
          2    1    1    2  502    0  0.17638271912E+02  0.14700734232E+02 -0.10408114616E+04  0.10410647044E+04  0.00000000000E+00 0.  1.
</event>
<event>
 4    1  0.6225520E+003  0.2716477E+02  0.7546771E-02  0.1445960E+00
          2   -1    0    0  501    0  0.00000000000E+00  0.00000000000E+00  0.99592475357E+02  0.99592475357E+02  0.00000000000E+00 0. -1.
          2   -1    0    0  502    0 -0.00000000000E+00 -0.00000000000E+00 -0.85690386262E+02  0.85690386262E+02  0.00000000000E+00 0. -1.
          2    1    1    2  501    0  0.30714848917E+01 -0.26990570337E+02 -0.81594604345E+02  0.85997699764E+02  0.00000000000E+00 0. -1.
          2    1    1    2  502    0 -0.30714848917E+01  0.26990570337E+02  0.95496693440E+02  0.99285161855E+02  0.00000000000E+00 0. -1.
</event>
<event>
 4    1  0.6225520E+003  0.2527591E+02  0.7546771E-02  0.1465740E+00
          2   -1    0    0  501    0  0.00000000000E+00  0.00000000000E+00  0.38673122318E+02  0.38673122318E+02  0.00000000000E+00 0. -1.
          2   -1    0    0  502    0 -0.00000000000E+00 -0.00000000000E+00 -0.16012090291E+03  0.16012090291E+03  0.00000000000E+00 0. -1.
          2    1    1    2  501    0 -0.12482532969E+02 -0.21978585864E+02 -0.15485392510E+03  0.15690318666E+03  0.00000000000E+00 0. -1.
          2    1    1    2  502    0  0.12482532969E+02  0.21978585864E+02  0.33406144501E+02  0.41890838573E+02  0.00000000000E+00 0. -1.
</event>
<event>
 4    1  0.6225520E+003  0.2266101E+02  0.7546771E-02  0.1496799E+00
          2   -1    0    0  501    0  0.00000000000E+00  0.00000000000E+00  0.79501410819E+02  0.79501410819E+02  0.00000000000E+00 0. -1.
          2   -1    0    0  502    0 -0.00000000000E+00 -0.00000000000E+00 -0.19631834783E+03  0.19631834783E+03  0.00000000000E+00 0. -1.
          2    1    1    2  501    0 -0.18334693192E+02  0.13317664060E+02 -0.19403061564E+03  0.19534943295E+03  0.00000000000E+00 0. -1.
          2    1    1    2  502    0  0.18334693192E+02 -0.13317664060E+02  0.77213678627E+02  0.80470325696E+02  0.00000000000E+00 0. -1.
</event>
<event>
 4    1  0.6225520E+003  0.2283960E+02  0.7546771E-02  0.1494522E+00
          2   -1    0    0  502    0  0.00000000000E+00  0.00000000000E+00  0.16582285961E+04  0.16582285961E+04  0.00000000000E+00 0. -1.
          2   -1    0    0  501    0 -0.00000000000E+00 -0.00000000000E+00 -0.60247082905E+01  0.60247082905E+01  0.00000000000E+00 0. -1.
          2    1    1    2  501    0 -0.17369341927E+02  0.14830819850E+02  0.16362125427E+04  0.16363719419E+04  0.00000000000E+00 0. -1.
          2    1    1    2  502    0  0.17369341927E+02 -0.14830819850E+02  0.15991345063E+02  0.27881362472E+02  0.00000000000E+00 0. -1.
</event>
<event>
 4    1  0.6225520E+003  0.2144850E+02  0.7546771E-02  0.1512957E+00
          2   -1    0    0  501    0  0.00000000000E+00  0.00000000000E+00  0.62051601703E+00  0.62051601703E+00  0.00000000000E+00 0.  1.
          2   -1    0    0  502    0 -0.00000000000E+00 -0.00000000000E+00 -0.78943872356E+03  0.78943872356E+03  0.00000000000E+00 0.  1.
          2    1    1    2  501    0 -0.20332754478E+02  0.68276848252E+01 -0.29694236876E+03  0.29771598639E+03  0.00000000000E+00 0.  1.
          2    1    1    2  502    0  0.20332754478E+02 -0.68276848252E+01 -0.49187583879E+03  0.49234325319E+03  0.00000000000E+00 0.  1.
</event>
<event>
 4    1  0.6225520E+003  0.2066630E+02  0.7546771E-02  0.1524083E+00
          2   -1    0    0  502    0  0.00000000000E+00  0.00000000000E+00  0.34596257388E+01  0.34596257388E+01  0.00000000000E+00 0. -1.
          2   -1    0    0  501    0 -0.00000000000E+00 -0.00000000000E+00 -0.35509794133E+03  0.35509794133E+03  0.00000000000E+00 0. -1.
          2    1    1    2  501    0 -0.20324535970E+02 -0.37428933239E+01 -0.31019468892E+02  0.37273361308E+02  0.00000000000E+00 0. -1.
          2    1    1    2  502    0  0.20324535970E+02  0.37428933239E+01 -0.32061884670E+03  0.32128420576E+03  0.00000000000E+00 0. -1.
</event>
<event>
 4    1  0.6225520E+003  0.2966794E+02  0.7546771E-02  0.1422504E+00
          2   -1    0    0  501    0  0.00000000000E+00  0.00000000000E+00  0.14750946426E+03  0.14750946426E+03  0.00000000000E+00 0. -1.
          2   -1    0    0  502    0 -0.00000000000E+00 -0.00000000000E+00 -0.50096078061E+03  0.50096078061E+03  0.00000000000E+00 0.  1.
          2    1    1    2  501    0  0.25128346910E+02  0.15771907191E+02 -0.49902400021E+03  0.49990513066E+03  0.00000000000E+00 0.  1.
          2    1    1    2  502    0 -0.25128346910E+02 -0.15771907191E+02  0.14557268386E+03  0.14856511421E+03  0.00000000000E+00 0. -1.
</event>
<event>
 4    1  0.6225520E+003  0.2546871E+02  0.7546771E-02  0.1463628E+00
          2   -1    0    0  502    0  0.00000000000E+00  0.00000000000E+00  0.60963129501E+01  0.60963129501E+01  0.00000000000E+00 0.  1.
          2   -1    0    0  501    0 -0.00000000000E+00 -0.00000000000E+00 -0.11770503711E+03  0.11770503711E+03  0.00000000000E+00 0. -1.
          2    1    1    2  501    0 -0.63854035858E+00  0.25460699699E+02 -0.36621607736E+02  0.44607141985E+02  0.00000000000E+00 0.  1.
          2    1    1    2  502    0  0.63854035858E+00 -0.25460699699E+02 -0.74987116422E+02  0.79194208072E+02  0.00000000000E+00 0. -1.
</event>
<event>
 4    1  0.6225520E+003  0.4572337E+02  0.7546771E-02  0.1317861E+00
          2   -1    0    0  502    0  0.00000000000E+00  0.00000000000E+00  0.12840966490E+03  0.12840966490E+03  0.00000000000E+00 0.  1.
          2   -1    0    0  501    0 -0.00000000000E+00 -0.00000000000E+00 -0.25569664896E+03  0.25569664896E+03  0.00000000000E+00 0.  1.
          2    1    1    2  501    0  0.45572999897E+02  0.37051449360E+01  0.12219483159E+03  0.13046916604E+03  0.00000000000E+00 0.  1.
          2    1    1    2  502    0 -0.45572999897E+02 -0.37051449360E+01 -0.24948181564E+03  0.25363714782E+03  0.00000000000E+00 0.  1.
</event>
<event>
 4    1  0.6225520E+003  0.2373331E+02  0.7546771E-02  0.1483490E+00
          2   -1    0    0  501    0  0.00000000000E+00  0.00000000000E+00  0.87548008862E+01  0.87548008862E+01  0.00000000000E+00 0.  1.
          2   -1    0    0  502    0 -0.00000000000E+00 -0.00000000000E+00 -0.16828917128E+03  0.16828917128E+03  0.00000000000E+00 0.  1.
          2    1    1    2  501    0 -0.99216883820E+01 -0.21559919541E+02 -0.14933956924E+03  0.15121367985E+03  0.00000000000E+00 0.  1.
          2    1    1    2  502    0  0.99216883820E+01  0.21559919541E+02 -0.10194801156E+02  0.25830292325E+02  0.00000000000E+00 0.  1.
</event>
<event>
 4    1  0.6225520E+003  0.2550530E+02  0.7546771E-02  0.1463229E+00
          2   -1    0    0  502    0  0.00000000000E+00  0.00000000000E+00  0.95160313342E+01  0.95160313342E+01  0.00000000000E+00 0. -1.
          2   -1    0    0  501    0 -0.00000000000E+00 -0.00000000000E+00 -0.11798741384E+04  0.11798741384E+04  0.00000000000E+00 0. -1.
          2    1    1    2  501    0 -0.52047964545E+01 -0.24968589717E+02 -0.79689667099E+01  0.26721242655E+02  0.00000000000E+00 0. -1.
          2    1    1    2  502    0  0.52047964545E+01  0.24968589717E+02 -0.11623891404E+04  0.11626689271E+04  0.00000000000E+00 0. -1.
</event>
<event>
 4    1  0.6225520E+003  0.4687058E+02  0.7546771E-02  0.1312342E+00
          2   -1    0    0  501    0  0.00000000000E+00  0.00000000000E+00  0.27646161645E+01  0.27646161645E+01  0.00000000000E+00 0. -1.
          2   -1    0    0  502    0 -0.00000000000E+00 -0.00000000000E+00 -0.84407485930E+03  0.84407485930E+03  0.00000000000E+00 0. -1.
          2    1    1    2  501    0  0.33850646165E+02 -0.32418899010E+02 -0.31817625046E+03  0.32160997748E+03  0.00000000000E+00 0. -1.
          2    1    1    2  502    0 -0.33850646165E+02  0.32418899010E+02 -0.52313399267E+03  0.52522949798E+03  0.00000000000E+00 0. -1.
</event>
<event>
 4    1  0.6225520E+003  0.3652812E+02  0.7546771E-02  0.1370127E+00
          2   -1    0    0  501    0  0.00000000000E+00  0.00000000000E+00  0.63768545902E+02  0.63768545902E+02  0.00000000000E+00 0.  1.
          2   -1    0    0  502    0 -0.00000000000E+00 -0.00000000000E+00 -0.12686899968E+03  0.12686899968E+03  0.00000000000E+00 0.  1.
          2    1    1    2  501    0 -0.26938000387E+02  0.24670790441E+02 -0.11865472288E+03  0.12415009878E+03  0.00000000000E+00 0.  1.
          2    1    1    2  502    0  0.26938000387E+02 -0.24670790441E+02  0.55554269105E+02  0.66487446797E+02  0.00000000000E+00 0.  1.
</event>
<event>
 4    1  0.6225520E+003  0.2286309E+02  0.7546771E-02  0.1494225E+00
          2   -1    0    0  501    0  0.00000000000E+00  0.00000000000E+00  0.50883534205E+01  0.50883534205E+01  0.00000000000E+00 0. -1.
          2   -1    0    0  502    0 -0.00000000000E+00 -0.00000000000E+00 -0.37779138502E+03  0.37779138502E+03  0.00000000000E+00 0.  1.
          2    1    1    2  501    0  0.20934563619E+02 -0.91904758118E+01 -0.34970261763E+03  0.35044919971E+03  0.00000000000E+00 0.  1.
          2    1    1    2  502    0 -0.20934563619E+02  0.91904758118E+01 -0.23000413967E+02  0.32430538729E+02  0.00000000000E+00 0. -1.
</event>
<event>
 4    1  0.6225520E+003  0.2366387E+02  0.7546771E-02  0.1484326E+00
          2   -1    0    0  501    0  0.00000000000E+00  0.00000000000E+00  0.30919154947E+01  0.30919154947E+01  0.00000000000E+00 0. -1.
          2   -1    0    0  502    0 -0.00000000000E+00 -0.00000000000E+00 -0.11705334115E+04  0.11705334115E+04  0.00000000000E+00 0.  1.
          2    1    1    2  501    0  0.14877957228E+02 -0.18401764841E+02 -0.11232295535E+04  0.11234787975E+04  0.00000000000E+00 0.  1.
          2    1    1    2  502    0 -0.14877957228E+02  0.18401764841E+02 -0.44211942467E+02  0.50146529463E+02  0.00000000000E+00 0. -1.
</event>
<event>
 4    1  0.6225520E+003  0.4365340E+02  0.7546771E-02  0.1328312E+00
          2   -1    0    0  501    0  0.00000000000E+00  0.00000000000E+00  0.73939997719E+03  0.73939997719E+03  0.00000000000E+00 0.  1.
          2   -1    0    0  502    0 -0.00000000000E+00 -0.00000000000E+00 -0.10522184366E+03  0.10522184366E+03  0.00000000000E+00 0.  1.
          2    1    1    2  501    0 -0.53197597510E+01 -0.43328049882E+02 -0.10001784323E+03  0.10912922942E+03  0.00000000000E+00 0.  1.
          2    1    1    2  502    0  0.53197597510E+01  0.43328049882E+02  0.73419597676E+03  0.73549259143E+03  0.00000000000E+00 0.  1.
</event>
<event>
 4    1  0.6225520E+003  0.2587712E+02  0.7546771E-02  0.1459226E+00
          2   -1    0    0  501    0  0.00000000000E+00  0.00000000000E+00  0.49644846798E+03  0.49644846798E+03  0.00000000000E+00 0. -1.
          2   -1    0    0  502    0 -0.00000000000E+00 -0.00000000000E+00 -0.48084745942E+02  0.48084745942E+02  0.00000000000E+00 0.  1.
          2    1    1    2  501    0  0.19743303962E+02  0.16728031366E+02 -0.44238892281E+02  0.51251387054E+02  0.00000000000E+00 0.  1.
          2    1    1    2  502    0 -0.19743303962E+02 -0.16728031366E+02  0.49260261432E+03  0.49328182687E+03  0.00000000000E+00 0. -1.
</event>
<event>
 4    1  0.6225520E+003  0.2885034E+02  0.7546771E-02  0.1429857E+00
          2   -1    0    0  502    0  0.00000000000E+00  0.00000000000E+00  0.14503719884E+02  0.14503719884E+02  0.00000000000E+00 0. -1.
          2   -1    0    0  501    0 -0.00000000000E+00 -0.00000000000E+00 -0.20651779829E+04  0.20651779829E+04  0.00000000000E+00 0.  1.
          2    1    1    2  501    0  0.23474772389E+02 -0.16771327877E+02 -0.45879291798E-01  0.28850380975E+02  0.00000000000E+00 0. -1.
          2    1    1    2  502    0 -0.23474772389E+02  0.16771327877E+02 -0.20506283837E+04  0.20508313218E+04  0.00000000000E+00 0.  1.
</event>
<event>
 4    1  0.6225520E+003  0.2080661E+02  0.7546771E-02  0.1522044E+00
          2   -1    0    0  502    0  0.00000000000E+00  0.00000000000E+00  0.66446907985E+01  0.66446907985E+01  0.00000000000E+00 0. -1.
          2   -1    0    0  501    0 -0.00000000000E+00 -0.00000000000E+00 -0.22183825287E+03  0.22183825287E+03  0.00000000000E+00 0.  1.
          2    1    1    2  501    0  0.20749056260E+02 -0.15465668979E+01 -0.11585789622E+02  0.23814821562E+02  0.00000000000E+00 0. -1.
          2    1    1    2  502    0 -0.20749056260E+02  0.15465668979E+01 -0.20360777245E+03  0.20466812211E+03  0.00000000000E+00 0.  1.
</event>
<event>
 4    1  0.6225520E+003  0.2443801E+02  0.7546771E-02  0.1475190E+00
          2   -1    0    0  501    0  0.00000000000E+00  0.00000000000E+00  0.40619301712E+03  0.40619301712E+03  0.00000000000E+00 0. -1.
          2   -1    0    0  502    0 -0.00000000000E+00 -0.00000000000E+00 -0.16415694798E+02  0.16415694798E+02  0.00000000000E+00 0. -1.
          2    1    1    2  501    0  0.18364929125E+02  0.16122831481E+02 -0.67309826524E+01  0.25348026436E+02  0.00000000000E+00 0. -1.
          2    1    1    2  502    0 -0.18364929125E+02 -0.16122831481E+02  0.39650830497E+03  0.39726068548E+03  0.00000000000E+00 0. -1.
</event>
<event>
 4    1  0.6225520E+003  0.2135803E+02  0.7546771E-02  0.1514214E+00
          2   -1    0    0  501    0  0.00000000000E+00  0.00000000000E+00  0.58106115148E+02  0.58106115148E+02  0.00000000000E+00 0.  1.
          2   -1    0    0  502    0 -0.00000000000E+00 -0.00000000000E+00 -0.33024326718E+02  0.33024326718E+02  0.00000000000E+00 0. -1.
          2    1    1    2  501    0  0.20780603645E+02  0.49327274850E+01 -0.27241474092E+02  0.34615938512E+02  0.00000000000E+00 0. -1.
          2    1    1    2  502    0 -0.20780603645E+02 -0.49327274850E+01  0.52323262523E+02  0.56514503354E+02  0.00000000000E+00 0.  1.
</event>
<event>
 4    1  0.6225520E+003  0.4063519E+02  0.7546771E-02  0.1344803E+00
          2   -1    0    0  502    0  0.00000000000E+00  0.00000000000E+00  0.12242967201E+01  0.12242967201E+01  0.00000000000E+00 0.  1.
          2   -1    0    0  501    0 -0.00000000000E+00 -0.00000000000E+00 -0.13979329491E+04  0.13979329491E+04  0.00000000000E+00 0.  1.
          2    1    1    2  501    0 -0.40615945898E+02  0.12505204053E+01 -0.56707821497E+03  0.56853225129E+03  0.00000000000E+00 0.  1.
          2    1    1    2  502    0  0.40615945898E+02 -0.12505204053E+01 -0.82963043742E+03  0.83062499454E+03  0.00000000000E+00 0.  1.
</event>
<event>
 4    1  0.6225520E+003  0.2179415E+02  0.7546771E-02  0.1508222E+00
          2   -1    0    0  501    0  0.00000000000E+00  0.00000000000E+00  0.19256750210E+02  0.19256750210E+02  0.00000000000E+00 0. -1.
          2   -1    0    0  502    0 -0.00000000000E+00 -0.00000000000E+00 -0.29932867010E+02  0.29932867010E+02  0.00000000000E+00 0.  1.
          2    1    1    2  501    0 -0.21615326921E+02  0.27861312456E+01 -0.15654976778E+02  0.26833993053E+02  0.00000000000E+00 0.  1.
          2    1    1    2  502    0  0.21615326921E+02 -0.27861312456E+01  0.49788599784E+01  0.22355624168E+02  0.00000000000E+00 0. -1.
</event>
<event>
 4    1  0.6225520E+003  0.2788409E+02  0.7546771E-02  0.1438924E+00
          2   -1    0    0  501    0  0.00000000000E+00  0.00000000000E+00  0.83967570182E+03  0.83967570182E+03  0.00000000000E+00 0.  1.
          2   -1    0    0  502    0 -0.00000000000E+00 -0.00000000000E+00 -0.25606972398E+01  0.25606972398E+01  0.00000000000E+00 0.  1.
          2    1    1    2  501    0  0.26721957790E+02 -0.79661536519E+01  0.82087571463E+02  0.86694244450E+02  0.00000000000E+00 0.  1.
          2    1    1    2  502    0 -0.26721957790E+02  0.79661536519E+01  0.75502743312E+03  0.75554215461E+03  0.00000000000E+00 0.  1.
</event>
<event>
 4    1  0.6225520E+003  0.4697741E+02  0.7546771E-02  0.1311838E+00
          2   -1    0    0  502    0  0.00000000000E+00  0.00000000000E+00  0.10560793028E+03  0.10560793028E+03  0.00000000000E+00 0.  1.
          2   -1    0    0  501    0 -0.00000000000E+00 -0.00000000000E+00 -0.52267992775E+03  0.52267992775E+03  0.00000000000E+00 0. -1.
          2    1    1    2  501    0 -0.45004335104E+02 -0.13471700131E+02  0.99264096512E+02  0.10981911372E+03  0.00000000000E+00 0.  1.
          2    1    1    2  502    0  0.45004335104E+02  0.13471700131E+02 -0.51633609398E+03  0.51846874431E+03  0.00000000000E+00 0. -1.
</event>
<event>
 4    1  0.6225520E+003  0.4115463E+02  0.7546771E-02  0.1341849E+00
          2   -1    0    0  501    0  0.00000000000E+00  0.00000000000E+00  0.32499859931E+01  0.32499859931E+01  0.00000000000E+00 0. -1.
          2   -1    0    0  502    0 -0.00000000000E+00 -0.00000000000E+00 -0.91200851229E+03  0.91200851229E+03  0.00000000000E+00 0.  1.
          2    1    1    2  501    0 -0.36951778517E+02  0.18118211920E+02 -0.75397020159E+03  0.75509255620E+03  0.00000000000E+00 0.  1.
          2    1    1    2  502    0  0.36951778517E+02 -0.18118211920E+02 -0.15478832471E+03  0.16016594209E+03  0.00000000000E+00 0. -1.
</event>
<event>
 4    1  0.6225520E+003  0.2480479E+02  0.7546771E-02  0.1470999E+00
          2   -1    0    0  502    0  0.00000000000E+00  0.00000000000E+00  0.17091020867E+03  0.17091020867E+03  0.00000000000E+00 0. -1.
          2   -1    0    0  501    0 -0.00000000000E+00 -0.00000000000E+00 -0.40286477776E+02  0.40286477776E+02  0.00000000000E+00 0.  1.
          2    1    1    2  501    0  0.11454414405E+02 -0.22001682435E+02  0.16608167390E+03  0.16792379237E+03  0.00000000000E+00 0. -1.
          2    1    1    2  502    0 -0.11454414405E+02  0.22001682435E+02 -0.35457943006E+02  0.43272894074E+02  0.00000000000E+00 0.  1.
</event>
<event>
 4    1  0.6225520E+003  0.2333113E+02  0.7546771E-02  0.1488381E+00
          2   -1    0    0  501    0  0.00000000000E+00  0.00000000000E+00  0.18653390820E+03  0.18653390820E+03  0.00000000000E+00 0. -1.
          2   -1    0    0  502    0 -0.00000000000E+00 -0.00000000000E+00 -0.20221134088E+02  0.20221134088E+02  0.00000000000E+00 0.  1.
          2    1    1    2  501    0 -0.22408260372E+02  0.64970548394E+01 -0.12471229244E+02  0.26455120739E+02  0.00000000000E+00 0.  1.
          2    1    1    2  502    0  0.22408260372E+02 -0.64970548394E+01  0.17878400336E+03  0.18029992155E+03  0.00000000000E+00 0. -1.
</event>
<event>
 4    1  0.6225520E+003  0.2522469E+02  0.7546771E-02  0.1466305E+00
          2   -1    0    0  502    0  0.00000000000E+00  0.00000000000E+00  0.96495880551E+02  0.96495880551E+02  0.00000000000E+00 0.  1.
          2   -1    0    0  501    0 -0.00000000000E+00 -0.00000000000E+00 -0.28403908301E+03  0.28403908301E+03  0.00000000000E+00 0.  1.
          2    1    1    2  501    0  0.23846254477E+02 -0.82244193306E+01  0.94274402240E+02  0.97590715971E+02  0.00000000000E+00 0.  1.
          2    1    1    2  502    0 -0.23846254477E+02  0.82244193306E+01 -0.28181760470E+03  0.28294424759E+03  0.00000000000E+00 0.  1.
</event>
<event>
 4    1  0.6225520E+003  0.2759020E+02  0.7546771E-02  0.1441768E+00
          2   -1    0    0  502    0  0.00000000000E+00  0.00000000000E+00  0.11948182744E+02  0.11948182744E+02  0.00000000000E+00 0. -1.
          2   -1    0    0  501    0 -0.00000000000E+00 -0.00000000000E+00 -0.49701449094E+03  0.49701449094E+03  0.00000000000E+00 0. -1.
          2    1    1    2  501    0  0.10145305823E+02 -0.25657196258E+02 -0.49213577827E+01  0.28025679519E+02  0.00000000000E+00 0. -1.
          2    1    1    2  502    0 -0.10145305823E+02  0.25657196258E+02 -0.48014495041E+03  0.48093699416E+03  0.00000000000E+00 0. -1.
</event>
<event>
 4    1  0.6225520E+003  0.3086707E+02  0.7546771E-02  0.1412208E+00
          2   -1    0    0  501    0  0.00000000000E+00  0.00000000000E+00  0.29588657836E+03  0.29588657836E+03  0.00000000000E+00 0. -1.
          2   -1    0    0  502    0 -0.00000000000E+00 -0.00000000000E+00 -0.30880500656E+02  0.30880500656E+02  0.00000000000E+00 0. -1.
          2    1    1    2  501    0 -0.18402506744E+02 -0.24781526054E+02 -0.22127611192E+02  0.37979039813E+02  0.00000000000E+00 0. -1.
          2    1    1    2  502    0  0.18402506744E+02  0.24781526054E+02  0.28713368889E+03  0.28878803920E+03  0.00000000000E+00 0. -1.
</event>
<event>
 4    1  0.6225520E+003  0.3456783E+02  0.7546771E-02  0.1383627E+00
          2   -1    0    0  502    0  0.00000000000E+00  0.00000000000E+00  0.70888911414E+02  0.70888911414E+02  0.00000000000E+00 0. -1.
          2   -1    0    0  501    0 -0.00000000000E+00 -0.00000000000E+00 -0.64412918491E+02  0.64412918491E+02  0.00000000000E+00 0.  1.
          2    1    1    2  501    0 -0.21221901339E+02  0.27286727868E+02  0.61366887067E+02  0.70433155846E+02  0.00000000000E+00 0. -1.
          2    1    1    2  502    0  0.21221901339E+02 -0.27286727868E+02 -0.54890894144E+02  0.64868674059E+02  0.00000000000E+00 0.  1.
</event>
<event>
 4    1  0.6225520E+003  0.2770393E+02  0.7546771E-02  0.1440662E+00
          2   -1    0    0  502    0  0.00000000000E+00  0.00000000000E+00  0.59589110031E+01  0.59589110031E+01  0.00000000000E+00 0. -1.
          2   -1    0    0  501    0 -0.00000000000E+00 -0.00000000000E+00 -0.29238187789E+03  0.29238187789E+03  0.00000000000E+00 0.  1.
          2    1    1    2  501    0  0.24318576952E+02 -0.13270818699E+02 -0.31634403805E+02  0.42050485348E+02  0.00000000000E+00 0. -1.
          2    1    1    2  502    0 -0.24318576952E+02  0.13270818699E+02 -0.25478856308E+03  0.25629030355E+03  0.00000000000E+00 0.  1.
</event>
<event>
 4    1  0.6225520E+003  0.2113872E+02  0.7546771E-02  0.1517293E+00
          2   -1    0    0  502    0  0.00000000000E+00  0.00000000000E+00  0.56527534548E+02  0.56527534548E+02  0.00000000000E+00 0.  1.
          2   -1    0    0  501    0 -0.00000000000E+00 -0.00000000000E+00 -0.34366863575E+02  0.34366863575E+02  0.00000000000E+00 0.  1.
          2    1    1    2  501    0 -0.13105227402E+02 -0.16586096730E+02  0.50959683521E+02  0.55170054690E+02  0.00000000000E+00 0.  1.
          2    1    1    2  502    0  0.13105227402E+02  0.16586096730E+02 -0.28799012548E+02  0.35724343433E+02  0.00000000000E+00 0.  1.
</event>
<event>
 4    1  0.6225520E+003  0.2220149E+02  0.7546771E-02  0.1502776E+00
          2   -1    0    0  502    0  0.00000000000E+00  0.00000000000E+00  0.14244522630E+02  0.14244522630E+02  0.00000000000E+00 0. -1.
          2   -1    0    0  501    0 -0.00000000000E+00 -0.00000000000E+00 -0.12700454960E+04  0.12700454960E+04  0.00000000000E+00 0.  1.
          2    1    1    2  501    0 -0.21878721885E+02  0.37719521086E+01  0.54362860112E+01  0.22857368607E+02  0.00000000000E+00 0. -1.
          2    1    1    2  502    0  0.21878721885E+02 -0.37719521086E+01 -0.12612372594E+04  0.12614326501E+04  0.00000000000E+00 0.  1.
</event>
<event>
 4    1  0.6225520E+003  0.2518771E+02  0.7546771E-02  0.1466714E+00
          2   -1    0    0  502    0  0.00000000000E+00  0.00000000000E+00  0.44189724301E+00  0.44189724301E+00  0.00000000000E+00 0.  1.
          2   -1    0    0  501    0 -0.00000000000E+00 -0.00000000000E+00 -0.16412750184E+04  0.16412750184E+04  0.00000000000E+00 0. -1.
          2    1    1    2  501    0  0.12439639357E+02 -0.21901508471E+02 -0.52988757474E+03  0.53048587405E+03  0.00000000000E+00 0.  1.
          2    1    1    2  502    0 -0.12439639357E+02  0.21901508471E+02 -0.11109455464E+04  0.11112310416E+04  0.00000000000E+00 0. -1.
</event>
<event>
 4    1  0.6969603E+003  0.2950734E+02  0.7546771E-02  0.1423927E+00
          2   -1    0    0  501    0  0.00000000000E+00  0.00000000000E+00  0.17275763136E+04  0.17275763136E+04  0.00000000000E+00 0.  1.
          2   -1    0    0  502    0 -0.00000000000E+00 -0.00000000000E+00 -0.23820143920E+03  0.23820143920E+03  0.00000000000E+00 0.  1.
          2    1    1    2  501    0  0.19447062092E+02 -0.22192226033E+02 -0.23716108115E+03  0.23898966826E+03  0.00000000000E+00 0.  1.
          2    1    1    2  502    0 -0.19447062092E+02  0.22192226033E+02  0.17265359556E+04  0.17267880846E+04  0.00000000000E+00 0.  1.
</event>
<event>
 4    1  0.6225520E+003  0.2116088E+02  0.7546771E-02  0.1516980E+00
          2   -1    0    0  501    0  0.00000000000E+00  0.00000000000E+00  0.63736722519E+01  0.63736722519E+01  0.00000000000E+00 0. -1.
          2   -1    0    0  502    0 -0.00000000000E+00 -0.00000000000E+00 -0.28934651077E+03  0.28934651077E+03  0.00000000000E+00 0. -1.
          2    1    1    2  501    0  0.27115859601E+01  0.20986426322E+02 -0.27014967947E+03  0.27097718005E+03  0.00000000000E+00 0. -1.
          2    1    1    2  502    0 -0.27115859601E+01 -0.20986426322E+02 -0.12823159045E+02  0.24743002973E+02  0.00000000000E+00 0. -1.
</event>
<event>
 4    1  0.6225520E+003  0.2246991E+02  0.7546771E-02  0.1499264E+00
          2   -1    0    0  502    0  0.00000000000E+00  0.00000000000E+00  0.10145237682E+04  0.10145237682E+04  0.00000000000E+00 0. -1.
          2   -1    0    0  501    0 -0.00000000000E+00 -0.00000000000E+00 -0.11020821790E+01  0.11020821790E+01  0.00000000000E+00 0. -1.
          2    1    1    2  501    0  0.18395237011E+02  0.12903964889E+02  0.88277653445E+03  0.88306245919E+03  0.00000000000E+00 0. -1.
          2    1    1    2  502    0 -0.18395237011E+02 -0.12903964889E+02  0.13064515155E+03  0.13256339117E+03  0.00000000000E+00 0. -1.
</event>
<event>
 4    1  0.6225520E+003  0.4344566E+02  0.7546771E-02  0.1329397E+00
          2   -1    0    0  501    0  0.00000000000E+00  0.00000000000E+00  0.17880369178E+02  0.17880369178E+02  0.00000000000E+00 0. -1.
          2   -1    0    0  502    0 -0.00000000000E+00 -0.00000000000E+00 -0.13434545069E+03  0.13434545069E+03  0.00000000000E+00 0. -1.
          2    1    1    2  501    0 -0.31038843283E+02  0.30399274054E+02 -0.93461692531E+02  0.10306606438E+03  0.00000000000E+00 0. -1.
          2    1    1    2  502    0  0.31038843283E+02 -0.30399274054E+02 -0.23003388980E+02  0.49159755491E+02  0.00000000000E+00 0. -1.
</event>
<event>
 4    1  0.6225520E+003  0.2378928E+02  0.7546771E-02  0.1482818E+00
          2   -1    0    0  501    0  0.00000000000E+00  0.00000000000E+00  0.15743050712E+04  0.15743050712E+04  0.00000000000E+00 0.  1.
          2   -1    0    0  502    0 -0.00000000000E+00 -0.00000000000E+00 -0.14402518408E+01  0.14402518408E+01  0.00000000000E+00 0. -1.
          2    1    1    2  501    0 -0.21956912073E+02  0.91555422453E+01  0.10393032707E+03  0.10661821058E+03  0.00000000000E+00 0. -1.
          2    1    1    2  502    0  0.21956912073E+02 -0.91555422453E+01  0.14689344923E+04  0.14691271125E+04  0.00000000000E+00 0.  1.
</event>
<event>
 4    1  0.6225520E+003  0.2309450E+02  0.7546771E-02  0.1491315E+00
          2   -1    0    0  501    0  0.00000000000E+00  0.00000000000E+00  0.26455961515E+01  0.26455961515E+01  0.00000000000E+00 0.  1.
          2   -1    0    0  502    0 -0.00000000000E+00 -0.00000000000E+00 -0.96394187152E+03  0.96394187152E+03  0.00000000000E+00 0.  1.
          2    1    1    2  501    0  0.16525788239E+02 -0.16132403201E+02 -0.91044199668E+03  0.91073486011E+03  0.00000000000E+00 0.  1.
          2    1    1    2  502    0 -0.16525788239E+02  0.16132403201E+02 -0.50854278693E+02  0.55852607561E+02  0.00000000000E+00 0.  1.
</event>
<event>
 4    1  0.6225520E+003  0.2579330E+02  0.7546771E-02  0.1460121E+00
          2   -1    0    0  501    0  0.00000000000E+00  0.00000000000E+00  0.11984951454E+01  0.11984951454E+01  0.00000000000E+00 0. -1.
          2   -1    0    0  502    0 -0.00000000000E+00 -0.00000000000E+00 -0.74548329422E+03  0.74548329422E+03  0.00000000000E+00 0.  1.
          2    1    1    2  501    0  0.12398921310E+02  0.22617710551E+02 -0.56080771015E+03  0.56140055384E+03  0.00000000000E+00 0.  1.
          2    1    1    2  502    0 -0.12398921310E+02 -0.22617710551E+02 -0.18347708893E+03  0.18528123553E+03  0.00000000000E+00 0. -1.
</event>
<event>
 4    1  0.6225520E+003  0.3779191E+02  0.7546771E-02  0.1361935E+00
          2   -1    0    0  502    0  0.00000000000E+00  0.00000000000E+00  0.58463513918E+02  0.58463513918E+02  0.00000000000E+00 0. -1.
          2   -1    0    0  501    0 -0.00000000000E+00 -0.00000000000E+00 -0.17072773497E+04  0.17072773497E+04  0.00000000000E+00 0. -1.
          2    1    1    2  501    0  0.33338997254E+02 -0.17797192239E+02  0.52124265843E+02  0.64382978178E+02  0.00000000000E+00 0. -1.
          2    1    1    2  502    0 -0.33338997254E+02  0.17797192239E+02 -0.17009381016E+04  0.17013578854E+04  0.00000000000E+00 0. -1.
</event>
<event>
 4    1  0.6225520E+003  0.3180012E+02  0.7546771E-02  0.1404573E+00
          2   -1    0    0  501    0  0.00000000000E+00  0.00000000000E+00  0.28800719126E+01  0.28800719126E+01  0.00000000000E+00 0. -1.
          2   -1    0    0  502    0 -0.00000000000E+00 -0.00000000000E+00 -0.47775622093E+03  0.47775622093E+03  0.00000000000E+00 0. -1.
          2    1    1    2  501    0 -0.31689414577E+02 -0.26511152158E+01 -0.36116505388E+03  0.36256233057E+03  0.00000000000E+00 0. -1.
          2    1    1    2  502    0  0.31689414577E+02  0.26511152158E+01 -0.11371109514E+03  0.11807396227E+03  0.00000000000E+00 0. -1.
</event>
<event>
 4    1  0.6225520E+003  0.2065508E+02  0.7546771E-02  0.1524247E+00
          2   -1    0    0  502    0  0.00000000000E+00  0.00000000000E+00  0.57232897813E+01  0.57232897813E+01  0.00000000000E+00 0. -1.
          2   -1    0    0  501    0 -0.00000000000E+00 -0.00000000000E+00 -0.13443610893E+04  0.13443610893E+04  0.00000000000E+00 0.  1.
          2    1    1    2  501    0 -0.19683980224E+02 -0.62588405265E+01 -0.13258724731E+02  0.24544366842E+02  0.00000000000E+00 0. -1.
          2    1    1    2  502    0  0.19683980224E+02  0.62588405265E+01 -0.13253790748E+04  0.13255400123E+04  0.00000000000E+00 0.  1.
</event>
<event>
 4    1  0.6225520E+003  0.2794052E+02  0.7546771E-02  0.1438382E+00
          2   -1    0    0  501    0  0.00000000000E+00  0.00000000000E+00  0.13747741323E+02  0.13747741323E+02  0.00000000000E+00 0. -1.
          2   -1    0    0  502    0 -0.00000000000E+00 -0.00000000000E+00 -0.44286972374E+03  0.44286972374E+03  0.00000000000E+00 0. -1.
          2    1    1    2  501    0  0.57748393462E+01 -0.27337225737E+02 -0.42773072476E+03  0.42864232827E+03  0.00000000000E+00 0. -1.
          2    1    1    2  502    0 -0.57748393462E+01  0.27337225737E+02 -0.13912576507E+01  0.27975136788E+02  0.00000000000E+00 0. -1.
</event>
<event>
 4    1  0.6225520E+003  0.2693627E+02  0.7546771E-02  0.1448249E+00
          2   -1    0    0  502    0  0.00000000000E+00  0.00000000000E+00  0.27124409013E+01  0.27124409013E+01  0.00000000000E+00 0. -1.
          2   -1    0    0  501    0 -0.00000000000E+00 -0.00000000000E+00 -0.17237749813E+04  0.17237749813E+04  0.00000000000E+00 0. -1.
          2    1    1    2  501    0 -0.26611546508E+02 -0.41699103454E+01 -0.67088373767E+02  0.72293930966E+02  0.00000000000E+00 0. -1.
          2    1    1    2  502    0  0.26611546508E+02  0.41699103454E+01 -0.16539741666E+04  0.16541934912E+04  0.00000000000E+00 0. -1.
</event>
<event>
 4    1  0.6225520E+003  0.2074040E+02  0.7546771E-02  0.1523004E+00
          2   -1    0    0  501    0  0.00000000000E+00  0.00000000000E+00  0.52614421418E+00  0.52614421418E+00  0.00000000000E+00 0.  1.
          2   -1    0    0  502    0 -0.00000000000E+00 -0.00000000000E+00 -0.12706682097E+04  0.12706682097E+04  0.00000000000E+00 0. -1.
          2    1    1    2  501    0  0.17899242540E+02 -0.10477656444E+02 -0.10146114262E+04  0.10148233887E+04  0.00000000000E+00 0. -1.
          2    1    1    2  502    0 -0.17899242540E+02  0.10477656444E+02 -0.25553063933E+03  0.25637096521E+03  0.00000000000E+00 0.  1.
</event>
<event>
 4    1  0.6225520E+003  0.2149266E+02  0.7546771E-02  0.1512346E+00
          2   -1    0    0  501    0  0.00000000000E+00  0.00000000000E+00  0.59440065545E+03  0.59440065545E+03  0.00000000000E+00 0. -1.
          2   -1    0    0  502    0 -0.00000000000E+00 -0.00000000000E+00 -0.55486485627E+01  0.55486485627E+01  0.00000000000E+00 0. -1.
          2    1    1    2  501    0 -0.15973097460E+02 -0.14380349839E+02  0.16250638493E+02  0.26944712939E+02  0.00000000000E+00 0. -1.
          2    1    1    2  502    0  0.15973097460E+02  0.14380349839E+02  0.57260136840E+03  0.57300459107E+03  0.00000000000E+00 0. -1.
</event>
<event>
 4    1  0.6225520E+003  0.2222955E+02  0.7546771E-02  0.1502406E+00
          2   -1    0    0  502    0  0.00000000000E+00  0.00000000000E+00  0.21088226721E+03  0.21088226721E+03  0.00000000000E+00 0.  1.
          2   -1    0    0  501    0 -0.00000000000E+00 -0.00000000000E+00 -0.48537758484E+03  0.48537758484E+03  0.00000000000E+00 0.  1.
          2    1    1    2  501    0 -0.21594529540E+02 -0.52753528921E+01  0.21004091434E+03  0.21121396438E+03  0.00000000000E+00 0.  1.
          2    1    1    2  502    0  0.21594529540E+02  0.52753528921E+01 -0.48453623197E+03  0.48504588767E+03  0.00000000000E+00 0.  1.
</event>
<event>
 4    1  0.6225520E+003  0.2404803E+02  0.7546771E-02  0.1479741E+00
          2   -1    0    0  501    0  0.00000000000E+00  0.00000000000E+00  0.68982797978E+03  0.68982797978E+03  0.00000000000E+00 0.  1.
          2   -1    0    0  502    0 -0.00000000000E+00 -0.00000000000E+00 -0.81646512849E+02  0.81646512849E+02  0.00000000000E+00 0.  1.
          2    1    1    2  501    0 -0.87105133448E+01  0.22415054488E+02 -0.79661052336E+02  0.83211723752E+02  0.00000000000E+00 0.  1.
          2    1    1    2  502    0  0.87105133448E+01 -0.22415054488E+02  0.68784251927E+03  0.68826276888E+03  0.00000000000E+00 0.  1.
</event>
<event>
 4    1  0.6225520E+003  0.2415317E+02  0.7546771E-02  0.1478504E+00
          2   -1    0    0  501    0  0.00000000000E+00  0.00000000000E+00  0.17463500364E+03  0.17463500364E+03  0.00000000000E+00 0. -1.
          2   -1    0    0  502    0 -0.00000000000E+00 -0.00000000000E+00 -0.67606923150E+03  0.67606923150E+03  0.00000000000E+00 0.  1.
          2    1    1    2  501    0 -0.87947045850E+01  0.22495081127E+02 -0.67501707148E+03  0.67544905233E+03  0.00000000000E+00 0.  1.
          2    1    1    2  502    0  0.87947045850E+01 -0.22495081127E+02  0.17358284362E+03  0.17525518281E+03  0.00000000000E+00 0. -1.
</event>
<event>
 4    1  0.6225520E+003  0.3511768E+02  0.7546771E-02  0.1379738E+00
          2   -1    0    0  501    0  0.00000000000E+00  0.00000000000E+00  0.34542199436E+03  0.34542199436E+03  0.00000000000E+00 0. -1.
          2   -1    0    0  502    0 -0.00000000000E+00 -0.00000000000E+00 -0.68041272320E+01  0.68041272320E+01  0.00000000000E+00 0. -1.
          2    1    1    2  501    0 -0.17997403280E+02 -0.30155347697E+02  0.47895864847E+02  0.59390785387E+02  0.00000000000E+00 0. -1.
          2    1    1    2  502    0  0.17997403280E+02  0.30155347697E+02  0.29072200228E+03  0.29283533620E+03  0.00000000000E+00 0. -1.
</event>
<event>
 4    1  0.6225520E+003  0.4247471E+02  0.7546771E-02  0.1334564E+00
          2   -1    0    0  502    0  0.00000000000E+00  0.00000000000E+00  0.31856096934E+02  0.31856096934E+02  0.00000000000E+00 0. -1.
          2   -1    0    0  501    0 -0.00000000000E+00 -0.00000000000E+00 -0.32712841600E+03  0.32712841600E+03  0.00000000000E+00 0. -1.
          2    1    1    2  501    0  0.42097899527E+02 -0.56451401652E+01  0.15581323933E+02  0.45242440336E+02  0.00000000000E+00 0. -1.
          2    1    1    2  502    0 -0.42097899527E+02  0.56451401652E+01 -0.31085364300E+03  0.31374207260E+03  0.00000000000E+00 0. -1.
</event>
<event>
 4    1  0.6225520E+003  0.2596130E+02  0.7546771E-02  0.1458331E+00
          2   -1    0    0  502    0  0.00000000000E+00  0.00000000000E+00  0.11593927007E+03  0.11593927007E+03  0.00000000000E+00 0. -1.
          2   -1    0    0  501    0 -0.00000000000E+00 -0.00000000000E+00 -0.29158105674E+03  0.29158105674E+03  0.00000000000E+00 0. -1.
          2    1    1    2  501    0 -0.62920236128E+01  0.25187292362E+02  0.11389784517E+03  0.11681912683E+03  0.00000000000E+00 0. -1.
          2    1    1    2  502    0  0.62920236128E+01 -0.25187292362E+02 -0.28953963185E+03  0.29070119998E+03  0.00000000000E+00 0. -1.
</event>
<event>
 4    1  0.6225520E+003  0.2578083E+02  0.7546771E-02  0.1460255E+00
          2   -1    0    0  502    0  0.00000000000E+00  0.00000000000E+00  0.48406013375E+03  0.48406013375E+03  0.00000000000E+00 0.  1.
          2   -1    0    0  501    0 -0.00000000000E+00 -0.00000000000E+00 -0.14413898964E+02  0.14413898964E+02  0.00000000000E+00 0.  1.
          2    1    1    2  501    0 -0.25518779154E+02 -0.36664911182E+01  0.47189186757E+03  0.47259558390E+03  0.00000000000E+00 0.  1.
          2    1    1    2  502    0  0.25518779154E+02  0.36664911182E+01 -0.22456327766E+01  0.25878448818E+02  0.00000000000E+00 0.  1.
</event>
<event>
 4    1  0.6225520E+003  0.2206152E+02  0.7546771E-02  0.1504631E+00
          2   -1    0    0  502    0  0.00000000000E+00  0.00000000000E+00  0.18136326483E+03  0.18136326483E+03  0.00000000000E+00 0.  1.
          2   -1    0    0  501    0 -0.00000000000E+00 -0.00000000000E+00 -0.10297102478E+03  0.10297102478E+03  0.00000000000E+00 0.  1.
          2    1    1    2  501    0 -0.13875539693E+02 -0.17151681928E+02  0.17949845923E+03  0.18084912955E+03  0.00000000000E+00 0.  1.
          2    1    1    2  502    0  0.13875539693E+02  0.17151681928E+02 -0.10110621918E+03  0.10348516005E+03  0.00000000000E+00 0.  1.
</event>
<event>
 4    1  0.6225520E+003  0.2023698E+02  0.7546771E-02  0.1530443E+00
          2   -1    0    0  501    0  0.00000000000E+00  0.00000000000E+00  0.41795643865E+01  0.41795643865E+01  0.00000000000E+00 0. -1.
          2   -1    0    0  502    0 -0.00000000000E+00 -0.00000000000E+00 -0.16625693747E+03  0.16625693747E+03  0.00000000000E+00 0.  1.
          2    1    1    2  501    0  0.82884051138E+01  0.18461789638E+02 -0.13564756967E+03  0.13714881879E+03  0.00000000000E+00 0.  1.
          2    1    1    2  502    0 -0.82884051138E+01 -0.18461789638E+02 -0.26429803413E+02  0.33287683074E+02  0.00000000000E+00 0. -1.
</event>
<event>
 4    1  0.6225520E+003  0.2303994E+02  0.7546771E-02  0.1491997E+00
          2   -1    0    0  501    0  0.00000000000E+00  0.00000000000E+00  0.11323734675E+04  0.11323734675E+04  0.00000000000E+00 0. -1.
          2   -1    0    0  502    0 -0.00000000000E+00 -0.00000000000E+00 -0.60690651666E+00  0.60690651666E+00  0.00000000000E+00 0. -1.
          2    1    1    2  501    0  0.20849751451E+02  0.98044183459E+01  0.29563467168E+03  0.29653110773E+03  0.00000000000E+00 0. -1.
          2    1    1    2  502    0 -0.20849751451E+02 -0.98044183459E+01  0.83613188934E+03  0.83644926632E+03  0.00000000000E+00 0. -1.
</event>
<event>
 4    1  0.6225520E+003  0.2219637E+02  0.7546771E-02  0.1502844E+00
          2   -1    0    0  502    0  0.00000000000E+00  0.00000000000E+00  0.59015457044E+00  0.59015457044E+00  0.00000000000E+00 0.  1.
          2   -1    0    0  501    0 -0.00000000000E+00 -0.00000000000E+00 -0.87994351001E+03  0.87994351001E+03  0.00000000000E+00 0.  1.
          2    1    1    2  501    0  0.17453875270E+01  0.22127643667E+02 -0.33998937900E+03  0.34071315916E+03  0.00000000000E+00 0.  1.
          2    1    1    2  502    0 -0.17453875270E+01 -0.22127643667E+02 -0.53936397644E+03  0.53982050542E+03  0.00000000000E+00 0.  1.
</event>
<event>
 4    1  0.6225520E+003  0.2010462E+02  0.7546771E-02  0.1532442E+00
          2   -1    0    0  501    0  0.00000000000E+00  0.00000000000E+00  0.12956326670E+01  0.12956326670E+01  0.00000000000E+00 0.  1.
          2   -1    0    0  502    0 -0.00000000000E+00 -0.00000000000E+00 -0.32048076606E+03  0.32048076606E+03  0.00000000000E+00 0. -1.
          2    1    1    2  501    0  0.80739015694E+01  0.18412169248E+02 -0.18581421037E+03  0.18689868014E+03  0.00000000000E+00 0. -1.
          2    1    1    2  502    0 -0.80739015694E+01 -0.18412169248E+02 -0.13337092302E+03  0.13487771859E+03  0.00000000000E+00 0.  1.
</event>
<event>
 4    1  0.6225520E+003  0.2570770E+02  0.7546771E-02  0.1461040E+00
          2   -1    0    0  502    0  0.00000000000E+00  0.00000000000E+00  0.89273194187E+01  0.89273194187E+01  0.00000000000E+00 0. -1.
          2   -1    0    0  501    0 -0.00000000000E+00 -0.00000000000E+00 -0.66660161610E+03  0.66660161610E+03  0.00000000000E+00 0.  1.
          2    1    1    2  501    0 -0.54537323312E+01  0.25122550981E+02 -0.10379742046E+02  0.27724083557E+02  0.00000000000E+00 0. -1.
          2    1    1    2  502    0  0.54537323312E+01 -0.25122550981E+02 -0.64729455464E+03  0.64780485197E+03  0.00000000000E+00 0.  1.
</event>
<event>
 4    1  0.6225520E+003  0.2055588E+02  0.7546771E-02  0.1525701E+00
          2   -1    0    0  501    0  0.00000000000E+00  0.00000000000E+00  0.11159131586E+02  0.11159131586E+02  0.00000000000E+00 0.  1.
          2   -1    0    0  502    0 -0.00000000000E+00 -0.00000000000E+00 -0.10065816215E+04  0.10065816215E+04  0.00000000000E+00 0. -1.
          2    1    1    2  501    0  0.20555787656E+02  0.60724805079E-01 -0.99691859977E+03  0.99713050232E+03  0.00000000000E+00 0. -1.
          2    1    1    2  502    0 -0.20555787656E+02 -0.60724805079E-01  0.14961098149E+01  0.20610250805E+02  0.00000000000E+00 0.  1.
</event>
<event>
 4    1  0.6225520E+003  0.2343259E+02  0.7546771E-02  0.1487136E+00
          2   -1    0    0  502    0  0.00000000000E+00  0.00000000000E+00  0.43953099403E+00  0.43953099403E+00  0.00000000000E+00 0. -1.
          2   -1    0    0  501    0 -0.00000000000E+00 -0.00000000000E+00 -0.17237249067E+04  0.17237249067E+04  0.00000000000E+00 0.  1.
          2    1    1    2  501    0 -0.23170449883E+02 -0.34952230327E+01 -0.40935058622E+03  0.41002071749E+03  0.00000000000E+00 0. -1.
          2    1    1    2  502    0  0.23170449883E+02  0.34952230327E+01 -0.13139347895E+04  0.13141437202E+04  0.00000000000E+00 0.  1.
</event>
<event>
 4    1  0.6225520E+003  0.2491379E+02  0.7546771E-02  0.1469770E+00
          2   -1    0    0  501    0  0.00000000000E+00  0.00000000000E+00  0.13759304493E+03  0.13759304493E+03  0.00000000000E+00 0.  1.
          2   -1    0    0  502    0 -0.00000000000E+00 -0.00000000000E+00 -0.12870455171E+03  0.12870455171E+03  0.00000000000E+00 0. -1.
          2    1    1    2  501    0 -0.13634667580E+02  0.20851690541E+02 -0.12635029857E+03  0.12878313207E+03  0.00000000000E+00 0. -1.
          2    1    1    2  502    0  0.13634667580E+02 -0.20851690541E+02  0.13523879179E+03  0.13751446456E+03  0.00000000000E+00 0.  1.
</event>
<event>
 4    1  0.6225520E+003  0.3372897E+02  0.7546771E-02  0.1389726E+00
          2   -1    0    0  501    0  0.00000000000E+00  0.00000000000E+00  0.47417111798E+01  0.47417111798E+01  0.00000000000E+00 0. -1.
          2   -1    0    0  502    0 -0.00000000000E+00 -0.00000000000E+00 -0.64305585755E+03  0.64305585755E+03  0.00000000000E+00 0.  1.
          2    1    1    2  501    0  0.33712679349E+02 -0.10480969415E+01 -0.57561098638E+03  0.57659834451E+03  0.00000000000E+00 0.  1.
          2    1    1    2  502    0 -0.33712679349E+02  0.10480969415E+01 -0.62703159992E+02  0.71199224217E+02  0.00000000000E+00 0. -1.
</event>
<event>
 4    1  0.6225520E+003  0.2579369E+02  0.7546771E-02  0.1460117E+00
          2   -1    0    0  501    0  0.00000000000E+00  0.00000000000E+00  0.10792533591E+03  0.10792533591E+03  0.00000000000E+00 0.  1.
          2   -1    0    0  502    0 -0.00000000000E+00 -0.00000000000E+00 -0.35411488254E+03  0.35411488254E+03  0.00000000000E+00 0.  1.
          2    1    1    2  501    0  0.72057747684E+01  0.24766736294E+02 -0.35209520661E+03  0.35303873574E+03  0.00000000000E+00 0.  1.
          2    1    1    2  502    0 -0.72057747684E+01 -0.24766736294E+02  0.10590565998E+03  0.10900148271E+03  0.00000000000E+00 0.  1.
</event>
<event>
 4    1  0.6225520E+003  0.2259327E+02  0.7546771E-02  0.1497670E+00
          2   -1    0    0  501    0  0.00000000000E+00  0.00000000000E+00  0.76887261800E+02  0.76887261800E+02  0.00000000000E+00 0.  1.
          2   -1    0    0  502    0 -0.00000000000E+00 -0.00000000000E+00 -0.30777260220E+03  0.30777260220E+03  0.00000000000E+00 0.  1.
          2    1    1    2  501    0  0.83291759946E+01  0.21001924696E+02 -0.30568690099E+03  0.30652069661E+03  0.00000000000E+00 0.  1.
          2    1    1    2  502    0 -0.83291759946E+01 -0.21001924696E+02  0.74801560590E+02  0.78139167390E+02  0.00000000000E+00 0.  1.
</event>
<event>
 4    1  0.6225520E+003  0.4109228E+02  0.7546771E-02  0.1342201E+00
          2   -1    0    0  501    0  0.00000000000E+00  0.00000000000E+00  0.20076831059E+02  0.20076831059E+02  0.00000000000E+00 0.  1.
          2   -1    0    0  502    0 -0.00000000000E+00 -0.00000000000E+00 -0.20454051572E+04  0.20454051572E+04  0.00000000000E+00 0.  1.
          2    1    1    2  501    0  0.40398542316E+02 -0.75188328507E+01 -0.20239494807E+04  0.20243665862E+04  0.00000000000E+00 0.  1.
          2    1    1    2  502    0 -0.40398542316E+02  0.75188328507E+01 -0.13788454462E+01  0.41115402022E+02  0.00000000000E+00 0.  1.
</event>
<event>
 4    1  0.6225520E+003  0.2037014E+02  0.7546771E-02  0.1528451E+00
          2   -1    0    0  501    0  0.00000000000E+00  0.00000000000E+00  0.10373085157E+04  0.10373085157E+04  0.00000000000E+00 0.  1.
          2   -1    0    0  502    0 -0.00000000000E+00 -0.00000000000E+00 -0.25683427175E+03  0.25683427175E+03  0.00000000000E+00 0.  1.
          2    1    1    2  501    0 -0.17469561861E+02  0.10476507565E+02 -0.25633016939E+03  0.25713828681E+03  0.00000000000E+00 0.  1.
          2    1    1    2  502    0  0.17469561861E+02 -0.10476507565E+02  0.10368044133E+04  0.10370045006E+04  0.00000000000E+00 0.  1.
</event>
<event>
 4    1  0.6225520E+003  0.2163273E+02  0.7546771E-02  0.1510420E+00
          2   -1    0    0  501    0  0.00000000000E+00  0.00000000000E+00  0.14451027700E+04  0.14451027700E+04  0.00000000000E+00 0. -1.
          2   -1    0    0  502    0 -0.00000000000E+00 -0.00000000000E+00 -0.57670468519E+00  0.57670468519E+00  0.00000000000E+00 0.  1.
          2    1    1    2  501    0  0.16863505422E+02  0.13549798663E+02  0.24361788394E+03  0.24457646705E+03  0.00000000000E+00 0.  1.
          2    1    1    2  502    0 -0.16863505422E+02 -0.13549798663E+02  0.12009081813E+04  0.12011030076E+04  0.00000000000E+00 0. -1.
</event>
<event>
 4    1  0.6225520E+003  0.3109518E+02  0.7546771E-02  0.1410312E+00
          2   -1    0    0  502    0  0.00000000000E+00  0.00000000000E+00  0.72484240191E+02  0.72484240191E+02  0.00000000000E+00 0. -1.
          2   -1    0    0  501    0 -0.00000000000E+00 -0.00000000000E+00 -0.22140316740E+02  0.22140316740E+02  0.00000000000E+00 0.  1.
          2    1    1    2  501    0 -0.31053776204E+02 -0.16040622849E+01  0.55001135299E+02  0.63182552311E+02  0.00000000000E+00 0. -1.
          2    1    1    2  502    0  0.31053776204E+02  0.16040622849E+01 -0.46572118484E+01  0.31442004620E+02  0.00000000000E+00 0.  1.
</event>
<event>
 4    1  0.6225520E+003  0.6625201E+02  0.7546771E-02  0.1239952E+00
          2   -1    0    0  501    0  0.00000000000E+00  0.00000000000E+00  0.19459544033E+03  0.19459544033E+03  0.00000000000E+00 0. -1.
          2   -1    0    0  502    0 -0.00000000000E+00 -0.00000000000E+00 -0.28884407881E+04  0.28884407881E+04  0.00000000000E+00 0. -1.
          2    1    1    2  501    0 -0.64637348441E+02  0.14537620040E+02 -0.28824100424E+04  0.28831713410E+04  0.00000000000E+00 0. -1.
          2    1    1    2  502    0  0.64637348441E+02 -0.14537620040E+02  0.18856469456E+03  0.19986488747E+03  0.00000000000E+00 0. -1.
</event>
<event>
 4    1  0.6225520E+003  0.2756919E+02  0.7546771E-02  0.1441973E+00
          2   -1    0    0  502    0  0.00000000000E+00  0.00000000000E+00  0.75840779755E+03  0.75840779755E+03  0.00000000000E+00 0. -1.
          2   -1    0    0  501    0 -0.00000000000E+00 -0.00000000000E+00 -0.14926625072E+03  0.14926625072E+03  0.00000000000E+00 0. -1.
          2    1    1    2  501    0  0.34375484701E+01  0.27354044253E+02  0.75688169235E+03  0.75738362584E+03  0.00000000000E+00 0. -1.
          2    1    1    2  502    0 -0.34375484701E+01 -0.27354044253E+02 -0.14774014552E+03  0.15029042244E+03  0.00000000000E+00 0. -1.
</event>
<event>
 4    1  0.6225520E+003  0.3070152E+02  0.7546771E-02  0.1413596E+00
          2   -1    0    0  502    0  0.00000000000E+00  0.00000000000E+00  0.16309694577E+04  0.16309694577E+04  0.00000000000E+00 0.  1.
          2   -1    0    0  501    0 -0.00000000000E+00 -0.00000000000E+00 -0.80813520793E+02  0.80813520793E+02  0.00000000000E+00 0. -1.
          2    1    1    2  501    0  0.22572765298E+02 -0.20809937813E+02  0.16279035639E+04  0.16281930464E+04  0.00000000000E+00 0.  1.
          2    1    1    2  502    0 -0.22572765298E+02  0.20809937813E+02 -0.77747626950E+02  0.83589932057E+02  0.00000000000E+00 0. -1.
</event>
<event>
 4    1  0.6225520E+003  0.5839583E+02  0.7546771E-02  0.1265383E+00
          2   -1    0    0  502    0  0.00000000000E+00  0.00000000000E+00  0.31734801820E+04  0.31734801820E+04  0.00000000000E+00 0. -1.
          2   -1    0    0  501    0 -0.00000000000E+00 -0.00000000000E+00 -0.20320312313E+01  0.20320312313E+01  0.00000000000E+00 0. -1.
          2    1    1    2  501    0 -0.45992794442E+02 -0.35982429898E+02  0.26756150962E+04  0.26762522706E+04  0.00000000000E+00 0. -1.
          2    1    1    2  502    0  0.45992794442E+02  0.35982429898E+02  0.49583305455E+03  0.49925994270E+03  0.00000000000E+00 0. -1.
</event>
<event>
 4    1  0.6225520E+003  0.2295363E+02  0.7546771E-02  0.1493081E+00
          2   -1    0    0  501    0  0.00000000000E+00  0.00000000000E+00  0.39575313692E+03  0.39575313692E+03  0.00000000000E+00 0. -1.
          2   -1    0    0  502    0 -0.00000000000E+00 -0.00000000000E+00 -0.19618121530E+02  0.19618121530E+02  0.00000000000E+00 0. -1.
          2    1    1    2  501    0 -0.26509104097E+01 -0.22800034567E+02 -0.12447446327E+02  0.26111450023E+02  0.00000000000E+00 0. -1.
          2    1    1    2  502    0  0.26509104097E+01  0.22800034567E+02  0.38858246172E+03  0.38925980843E+03  0.00000000000E+00 0. -1.
</event>
<event>
 4    1  0.6225520E+003  0.2118753E+02  0.7546771E-02  0.1516604E+00
          2   -1    0    0  502    0  0.00000000000E+00  0.00000000000E+00  0.32001369689E+02  0.32001369689E+02  0.00000000000E+00 0.  1.
          2   -1    0    0  501    0 -0.00000000000E+00 -0.00000000000E+00 -0.13494275776E+03  0.13494275776E+03  0.00000000000E+00 0. -1.
          2    1    1    2  501    0 -0.14619704914E+02 -0.15335438185E+02  0.27543702455E+02  0.34750064475E+02  0.00000000000E+00 0.  1.
          2    1    1    2  502    0  0.14619704914E+02  0.15335438185E+02 -0.13048509052E+03  0.13219406297E+03  0.00000000000E+00 0. -1.
</event>
<event>
 4    1  0.6225520E+003  0.2121523E+02  0.7546771E-02  0.1516214E+00
          2   -1    0    0  502    0  0.00000000000E+00  0.00000000000E+00  0.64379226020E+03  0.64379226020E+03  0.00000000000E+00 0.  1.
          2   -1    0    0  501    0 -0.00000000000E+00 -0.00000000000E+00 -0.17905059966E+02  0.17905059966E+02  0.00000000000E+00 0.  1.
          2    1    1    2  501    0 -0.18404339098E+02 -0.10553025138E+02  0.63726882746E+03  0.63762186638E+03  0.00000000000E+00 0.  1.
          2    1    1    2  502    0  0.18404339098E+02  0.10553025138E+02 -0.11381627217E+02  0.24075453792E+02  0.00000000000E+00 0.  1.
</event>
<event>
 4    1  0.6225520E+003  0.2506499E+02  0.7546771E-02  0.1468078E+00
          2   -1    0    0  501    0  0.00000000000E+00  0.00000000000E+00  0.21419299263E+04  0.21419299263E+04  0.00000000000E+00 0.  1.
          2   -1    0    0  502    0 -0.00000000000E+00 -0.00000000000E+00 -0.62246175917E+00  0.62246175917E+00  0.00000000000E+00 0.  1.
          2    1    1    2  501    0  0.95336452052E+01 -0.23181094776E+02  0.29164567416E+03  0.29272077618E+03  0.00000000000E+00 0.  1.
          2    1    1    2  502    0 -0.95336452052E+01  0.23181094776E+02  0.18496617904E+04  0.18498316119E+04  0.00000000000E+00 0.  1.
</event>
<event>
 4    1  0.6225520E+003  0.4089429E+02  0.7546771E-02  0.1343324E+00
          2   -1    0    0  502    0  0.00000000000E+00  0.00000000000E+00  0.24829269977E+03  0.24829269977E+03  0.00000000000E+00 0.  1.
          2   -1    0    0  501    0 -0.00000000000E+00 -0.00000000000E+00 -0.73555808418E+01  0.73555808418E+01  0.00000000000E+00 0.  1.
          2    1    1    2  501    0 -0.46003771768E+01 -0.40634706098E+02  0.15758570954E+03  0.16280540120E+03  0.00000000000E+00 0.  1.
          2    1    1    2  502    0  0.46003771768E+01  0.40634706098E+02  0.83351409389E+02  0.92842879409E+02  0.00000000000E+00 0.  1.
</event>
<event>
 4    1  0.6225520E+003  0.2227169E+02  0.7546771E-02  0.1501852E+00
          2   -1    0    0  502    0  0.00000000000E+00  0.00000000000E+00  0.25550672401E+04  0.25550672401E+04  0.00000000000E+00 0. -1.
          2   -1    0    0  501    0 -0.00000000000E+00 -0.00000000000E+00 -0.19583212090E+00  0.19583212090E+00  0.00000000000E+00 0. -1.
          2    1    1    2  501    0 -0.21940501042E+02 -0.38265650978E+01  0.11585007128E+04  0.11587147750E+04  0.00000000000E+00 0. -1.
          2    1    1    2  502    0  0.21940501042E+02  0.38265650978E+01  0.13963706952E+04  0.13965482973E+04  0.00000000000E+00 0. -1.
</event>
<event>
 4    1  0.6225520E+003  0.2019149E+02  0.7546771E-02  0.1531128E+00
          2   -1    0    0  502    0  0.00000000000E+00  0.00000000000E+00  0.29403131260E+03  0.29403131260E+03  0.00000000000E+00 0. -1.
          2   -1    0    0  501    0 -0.00000000000E+00 -0.00000000000E+00 -0.16359526230E+02  0.16359526230E+02  0.00000000000E+00 0. -1.
          2    1    1    2  501    0 -0.18789262510E+02 -0.73932410247E+01  0.28730881192E+03  0.28801744705E+03  0.00000000000E+00 0. -1.
          2    1    1    2  502    0  0.18789262510E+02  0.73932410247E+01 -0.96370255468E+01  0.22373391784E+02  0.00000000000E+00 0. -1.
</event>
<event>
 4    1  0.6225520E+003  0.2542502E+02  0.7546771E-02  0.1464104E+00
          2   -1    0    0  502    0  0.00000000000E+00  0.00000000000E+00  0.33960656964E+03  0.33960656964E+03  0.00000000000E+00 0. -1.
          2   -1    0    0  501    0 -0.00000000000E+00 -0.00000000000E+00 -0.26189381053E+01  0.26189381053E+01  0.00000000000E+00 0.  1.
          2    1    1    2  501    0 -0.94766709821E+01 -0.23592884220E+02  0.25793023453E+03  0.25918031824E+03  0.00000000000E+00 0. -1.
          2    1    1    2  502    0  0.94766709821E+01  0.23592884220E+02  0.79057397010E+02  0.83045189509E+02  0.00000000000E+00 0.  1.
</event>
<event>
 4    1  0.6225520E+003  0.2060760E+02  0.7546771E-02  0.1524942E+00
          2   -1    0    0  501    0  0.00000000000E+00  0.00000000000E+00  0.10049404572E+02  0.10049404572E+02  0.00000000000E+00 0. -1.
          2   -1    0    0  502    0 -0.00000000000E+00 -0.00000000000E+00 -0.12034692774E+03  0.12034692774E+03  0.00000000000E+00 0.  1.
          2    1    1    2  501    0  0.13447677225E+02 -0.15615162665E+02 -0.10766710994E+03  0.10962153023E+03  0.00000000000E+00 0.  1.
          2    1    1    2  502    0 -0.13447677225E+02  0.15615162665E+02 -0.26304132326E+01  0.20774802083E+02  0.00000000000E+00 0. -1.
</event>
<event>
 4    1  0.6225520E+003  0.2581816E+02  0.7546771E-02  0.1459855E+00
          2   -1    0    0  501    0  0.00000000000E+00  0.00000000000E+00  0.15914423601E+03  0.15914423601E+03  0.00000000000E+00 0.  1.
          2   -1    0    0  502    0 -0.00000000000E+00 -0.00000000000E+00 -0.19249882996E+02  0.19249882996E+02  0.00000000000E+00 0.  1.
          2    1    1    2  501    0 -0.17421599629E+02 -0.19054269011E+02 -0.89513269223E+01  0.27325877019E+02  0.00000000000E+00 0.  1.
          2    1    1    2  502    0  0.17421599629E+02  0.19054269011E+02  0.14884567993E+03  0.15106824198E+03  0.00000000000E+00 0.  1.
</event>
<event>
 4    1  0.6225520E+003  0.2086096E+02  0.7546771E-02  0.1521259E+00
          2   -1    0    0  502    0  0.00000000000E+00  0.00000000000E+00  0.31680846442E+03  0.31680846442E+03  0.00000000000E+00 0. -1.
          2   -1    0    0  501    0 -0.00000000000E+00 -0.00000000000E+00 -0.63124249021E+01  0.63124249021E+01  0.00000000000E+00 0.  1.
          2    1    1    2  501    0  0.20766154375E+02  0.19865841381E+01  0.29815292473E+03  0.29888182649E+03  0.00000000000E+00 0. -1.
          2    1    1    2  502    0 -0.20766154375E+02 -0.19865841381E+01  0.12343114789E+02  0.24239062828E+02  0.00000000000E+00 0.  1.
</event>
<event>
 4    1  0.6225520E+003  0.2409116E+02  0.7546771E-02  0.1479233E+00
          2   -1    0    0  501    0  0.00000000000E+00  0.00000000000E+00  0.29830130417E+02  0.29830130417E+02  0.00000000000E+00 0. -1.
          2   -1    0    0  502    0 -0.00000000000E+00 -0.00000000000E+00 -0.12871738901E+03  0.12871738901E+03  0.00000000000E+00 0. -1.
          2    1    1    2  501    0  0.22703910484E+02  0.80570858175E+01 -0.12248074145E+03  0.12482754588E+03  0.00000000000E+00 0. -1.
          2    1    1    2  502    0 -0.22703910484E+02 -0.80570858175E+01  0.23593482855E+02  0.33719973553E+02  0.00000000000E+00 0. -1.
</event>
<event>
 4    1  0.6225520E+003  0.5000523E+02  0.7546771E-02  0.1298150E+00
          2   -1    0    0  501    0  0.00000000000E+00  0.00000000000E+00  0.45765776577E+02  0.45765776577E+02  0.00000000000E+00 0.  1.
          2   -1    0    0  502    0 -0.00000000000E+00 -0.00000000000E+00 -0.20338434419E+03  0.20338434419E+03  0.00000000000E+00 0.  1.
          2    1    1    2  501    0  0.14546360636E+02 -0.47842722136E+02 -0.18534528332E+03  0.19197238530E+03  0.00000000000E+00 0.  1.
          2    1    1    2  502    0 -0.14546360636E+02  0.47842722136E+02  0.27726715707E+02  0.57177735466E+02  0.00000000000E+00 0.  1.
</event>
<event>
 4    1  0.6225520E+003  0.3532909E+02  0.7546771E-02  0.1378264E+00
          2   -1    0    0  502    0  0.00000000000E+00  0.00000000000E+00  0.36661263287E+03  0.36661263287E+03  0.00000000000E+00 0. -1.
          2   -1    0    0  501    0 -0.00000000000E+00 -0.00000000000E+00 -0.12542053478E+02  0.12542053478E+02  0.00000000000E+00 0.  1.
          2    1    1    2  501    0  0.19425397440E+02 -0.29509290284E+02  0.33884937563E+03  0.34068613656E+03  0.00000000000E+00 0. -1.
          2    1    1    2  502    0 -0.19425397440E+02  0.29509290284E+02  0.15221203759E+02  0.38468549786E+02  0.00000000000E+00 0.  1.
</event>
<event>
 4    1  0.6225520E+003  0.2979121E+02  0.7546771E-02  0.1421420E+00
          2   -1    0    0  502    0  0.00000000000E+00  0.00000000000E+00  0.31605584975E+01  0.31605584975E+01  0.00000000000E+00 0. -1.
          2   -1    0    0  501    0 -0.00000000000E+00 -0.00000000000E+00 -0.84058650860E+03  0.84058650860E+03  0.00000000000E+00 0. -1.
          2    1    1    2  501    0 -0.46538221415E+01 -0.29425463766E+02 -0.74443543009E+02  0.80183271785E+02  0.00000000000E+00 0. -1.
          2    1    1    2  502    0  0.46538221415E+01  0.29425463766E+02 -0.76298240709E+03  0.76356379531E+03  0.00000000000E+00 0. -1.
</event>
<event>
 4    1  0.6225520E+003  0.3537677E+02  0.7546771E-02  0.1377934E+00
          2   -1    0    0  502    0  0.00000000000E+00  0.00000000000E+00  0.73108045520E+00  0.73108045520E+00  0.00000000000E+00 0.  1.
          2   -1    0    0  501    0 -0.00000000000E+00 -0.00000000000E+00 -0.17142251915E+04  0.17142251915E+04  0.00000000000E+00 0.  1.
          2    1    1    2  501    0  0.29872193685E+02  0.18951727985E+02 -0.88851905135E+03  0.88922304320E+03  0.00000000000E+00 0.  1.
          2    1    1    2  502    0 -0.29872193685E+02 -0.18951727985E+02 -0.82497505972E+03  0.82573322878E+03  0.00000000000E+00 0.  1.
</event>
<event>
 4    1  0.6225520E+003  0.2286542E+02  0.7546771E-02  0.1494195E+00
          2   -1    0    0  501    0  0.00000000000E+00  0.00000000000E+00  0.74858782679E+01  0.74858782679E+01  0.00000000000E+00 0.  1.
          2   -1    0    0  502    0 -0.00000000000E+00 -0.00000000000E+00 -0.36736138333E+03  0.36736138333E+03  0.00000000000E+00 0. -1.
          2    1    1    2  501    0 -0.59456084216E+01  0.22078890314E+02 -0.34860677627E+03  0.34935585313E+03  0.00000000000E+00 0. -1.
          2    1    1    2  502    0  0.59456084216E+01 -0.22078890314E+02 -0.11268728794E+02  0.25491408467E+02  0.00000000000E+00 0.  1.
</event>
<event>
 4    1  0.6225520E+003  0.2541743E+02  0.7546771E-02  0.1464187E+00
          2   -1    0    0  502    0  0.00000000000E+00  0.00000000000E+00  0.43706048678E+02  0.43706048678E+02  0.00000000000E+00 0. -1.
          2   -1    0    0  501    0 -0.00000000000E+00 -0.00000000000E+00 -0.27029373153E+02  0.27029373153E+02  0.00000000000E+00 0.  1.
          2    1    1    2  501    0  0.15576981200E+02  0.20084907500E+02  0.32146031098E+02  0.40980643821E+02  0.00000000000E+00 0. -1.
          2    1    1    2  502    0 -0.15576981200E+02 -0.20084907500E+02 -0.15469355573E+02  0.29754778010E+02  0.00000000000E+00 0.  1.
</event>
<event>
 4    1  0.6225520E+003  0.2360013E+02  0.7546771E-02  0.1485097E+00
          2   -1    0    0  501    0  0.00000000000E+00  0.00000000000E+00  0.50909511984E+03  0.50909511984E+03  0.00000000000E+00 0. -1.
          2   -1    0    0  502    0 -0.00000000000E+00 -0.00000000000E+00 -0.28179638934E+01  0.28179638934E+01  0.00000000000E+00 0.  1.
          2    1    1    2  501    0 -0.23581014121E+02 -0.94977008236E+00  0.52941105859E+02  0.57963151914E+02  0.00000000000E+00 0.  1.
          2    1    1    2  502    0  0.23581014121E+02  0.94977008236E+00  0.45333605009E+03  0.45394993182E+03  0.00000000000E+00 0. -1.
</event>
<event>
 4    1  0.6225520E+003  0.2196717E+02  0.7546771E-02  0.1505891E+00
          2   -1    0    0  501    0  0.00000000000E+00  0.00000000000E+00  0.17551603892E+02  0.17551603892E+02  0.00000000000E+00 0.  1.
          2   -1    0    0  502    0 -0.00000000000E+00 -0.00000000000E+00 -0.67702349140E+02  0.67702349140E+02  0.00000000000E+00 0.  1.
          2    1    1    2  501    0 -0.95309246817E+01  0.19791864211E+02 -0.57925953521E+02  0.61951372104E+02  0.00000000000E+00 0.  1.
          2    1    1    2  502    0  0.95309246817E+01 -0.19791864211E+02  0.77752082728E+01  0.23302580928E+02  0.00000000000E+00 0.  1.
</event>
<event>
 4    1  0.6225520E+003  0.6313201E+02  0.7546771E-02  0.1249547E+00
          2   -1    0    0  502    0  0.00000000000E+00  0.00000000000E+00  0.80355063003E+02  0.80355063003E+02  0.00000000000E+00 0.  1.
          2   -1    0    0  501    0 -0.00000000000E+00 -0.00000000000E+00 -0.31572610957E+03  0.31572610957E+03  0.00000000000E+00 0.  1.
          2    1    1    2  501    0  0.42891250125E+02 -0.46324843139E+02  0.64134746463E+02  0.89993978316E+02  0.00000000000E+00 0.  1.
          2    1    1    2  502    0 -0.42891250125E+02  0.46324843139E+02 -0.29950579303E+03  0.30608719425E+03  0.00000000000E+00 0.  1.
</event>
<event>
 4    1  0.6225520E+003  0.2257736E+02  0.7546771E-02  0.1497875E+00
          2   -1    0    0  501    0  0.00000000000E+00  0.00000000000E+00  0.37463112493E+03  0.37463112493E+03  0.00000000000E+00 0.  1.
          2   -1    0    0  502    0 -0.00000000000E+00 -0.00000000000E+00 -0.47613898526E+02  0.47613898526E+02  0.00000000000E+00 0. -1.
          2    1    1    2  501    0  0.24109648993E+01  0.22448261235E+02 -0.44575465249E+02  0.49967082028E+02  0.00000000000E+00 0. -1.
          2    1    1    2  502    0 -0.24109648993E+01 -0.22448261235E+02  0.37159269165E+03  0.37227794143E+03  0.00000000000E+00 0.  1.
</event>
<event>
 4    1  0.6225520E+003  0.5972744E+02  0.7546771E-02  0.1260761E+00
          2   -1    0    0  501    0  0.00000000000E+00  0.00000000000E+00  0.80303761179E+03  0.80303761179E+03  0.00000000000E+00 0. -1.
          2   -1    0    0  502    0 -0.00000000000E+00 -0.00000000000E+00 -0.22400564412E+03  0.22400564412E+03  0.00000000000E+00 0.  1.
          2    1    1    2  501    0 -0.59693880655E+02 -0.20020458734E+01 -0.21888822352E+03  0.22689077102E+03  0.00000000000E+00 0.  1.
          2    1    1    2  502    0  0.59693880655E+02  0.20020458734E+01  0.79792019119E+03  0.80015248489E+03  0.00000000000E+00 0. -1.
</event>
<event>
 4    1  0.6225520E+003  0.3345373E+02  0.7546771E-02  0.1391772E+00
          2   -1    0    0  501    0  0.00000000000E+00  0.00000000000E+00  0.22840503093E+04  0.22840503093E+04  0.00000000000E+00 0. -1.
          2   -1    0    0  502    0 -0.00000000000E+00 -0.00000000000E+00 -0.18284453193E+02  0.18284453193E+02  0.00000000000E+00 0.  1.
          2    1    1    2  501    0 -0.90585131121E+01  0.32203963805E+02 -0.27552518172E+01  0.33566998036E+02  0.00000000000E+00 0.  1.
          2    1    1    2  502    0  0.90585131121E+01 -0.32203963805E+02  0.22685211079E+04  0.22687677645E+04  0.00000000000E+00 0. -1.
</event>
<event>
 4    1  0.6225520E+003  0.2888583E+02  0.7546771E-02  0.1429532E+00
          2   -1    0    0  501    0  0.00000000000E+00  0.00000000000E+00  0.81435267046E+03  0.81435267046E+03  0.00000000000E+00 0. -1.
          2   -1    0    0  502    0 -0.00000000000E+00 -0.00000000000E+00 -0.85465517480E+02  0.85465517480E+02  0.00000000000E+00 0.  1.
          2    1    1    2  501    0 -0.20446189641E+02 -0.20404516264E+02 -0.82760510178E+02  0.87656676870E+02  0.00000000000E+00 0.  1.
          2    1    1    2  502    0  0.20446189641E+02  0.20404516264E+02  0.81164766316E+03  0.81216151108E+03  0.00000000000E+00 0. -1.
</event>
<event>
 4    1  0.6225520E+003  0.2297797E+02  0.7546771E-02  0.1492775E+00
          2   -1    0    0  502    0  0.00000000000E+00  0.00000000000E+00  0.41451572690E+00  0.41451572690E+00  0.00000000000E+00 0.  1.
          2   -1    0    0  501    0 -0.00000000000E+00 -0.00000000000E+00 -0.17718026714E+04  0.17718026714E+04  0.00000000000E+00 0.  1.
          2    1    1    2  501    0  0.14067648787E+02 -0.18168340016E+02 -0.41588748917E+03  0.41652177731E+03  0.00000000000E+00 0.  1.
          2    1    1    2  502    0 -0.14067648787E+02  0.18168340016E+02 -0.13555006665E+04  0.13556954099E+04  0.00000000000E+00 0.  1.
</event>
<event>
 4    1  0.6225520E+003  0.2832377E+02  0.7546771E-02  0.1434745E+00
          2   -1    0    0  502    0  0.00000000000E+00  0.00000000000E+00  0.13170393946E+03  0.13170393946E+03  0.00000000000E+00 0.  1.
          2   -1    0    0  501    0 -0.00000000000E+00 -0.00000000000E+00 -0.80528493010E+03  0.80528493010E+03  0.00000000000E+00 0.  1.
          2    1    1    2  501    0 -0.83885259023E+01 -0.27053072273E+02  0.12992872064E+03  0.13298010579E+03  0.00000000000E+00 0.  1.
          2    1    1    2  502    0  0.83885259023E+01  0.27053072273E+02 -0.80350971129E+03  0.80400876377E+03  0.00000000000E+00 0.  1.
</event>
<event>
 4    1  0.6225520E+003  0.7564135E+02  0.7546771E-02  0.1214345E+00
          2   -1    0    0  501    0  0.00000000000E+00  0.00000000000E+00  0.37298295271E+02  0.37298295271E+02  0.00000000000E+00 0.  1.
          2   -1    0    0  502    0 -0.00000000000E+00 -0.00000000000E+00 -0.10240104847E+04  0.10240104847E+04  0.00000000000E+00 0.  1.
          2    1    1    2  501    0 -0.59929720396E+02 -0.46152384515E+02 -0.98265149730E+03  0.98555851126E+03  0.00000000000E+00 0.  1.
          2    1    1    2  502    0  0.59929720396E+02  0.46152384515E+02 -0.40606920946E+01  0.75750268670E+02  0.00000000000E+00 0.  1.
</event>
<event>
 4    1  0.6225520E+003  0.3710119E+02  0.7546771E-02  0.1366364E+00
          2   -1    0    0  501    0  0.00000000000E+00  0.00000000000E+00  0.15592042258E+02  0.15592042258E+02  0.00000000000E+00 0. -1.
          2   -1    0    0  502    0 -0.00000000000E+00 -0.00000000000E+00 -0.13033279756E+04  0.13033279756E+04  0.00000000000E+00 0.  1.
          2    1    1    2  501    0 -0.17146280318E+01 -0.37061551953E+02 -0.12806018179E+04  0.12811391472E+04  0.00000000000E+00 0.  1.
          2    1    1    2  502    0  0.17146280318E+01  0.37061551953E+02 -0.71341154574E+01  0.37780870633E+02  0.00000000000E+00 0. -1.
</event>
<event>
 4    1  0.6225520E+003  0.3343985E+02  0.7546771E-02  0.1391876E+00
          2   -1    0    0  501    0  0.00000000000E+00  0.00000000000E+00  0.62014857979E+01  0.62014857979E+01  0.00000000000E+00 0. -1.
          2   -1    0    0  502    0 -0.00000000000E+00 -0.00000000000E+00 -0.69656743085E+03  0.69656743085E+03  0.00000000000E+00 0. -1.
          2    1    1    2  501    0 -0.15580164825E+02 -0.29588549207E+02 -0.64768746370E+03  0.64855013253E+03  0.00000000000E+00 0. -1.
          2    1    1    2  502    0  0.15580164825E+02  0.29588549207E+02 -0.42678481361E+02  0.54218784119E+02  0.00000000000E+00 0. -1.
</event>
<event>
 4    1  0.6225520E+003  0.2429206E+02  0.7546771E-02  0.1476881E+00
          2   -1    0    0  501    0  0.00000000000E+00  0.00000000000E+00  0.18679470498E+03  0.18679470498E+03  0.00000000000E+00 0. -1.
          2   -1    0    0  502    0 -0.00000000000E+00 -0.00000000000E+00 -0.10593940854E+02  0.10593940854E+02  0.00000000000E+00 0.  1.
          2    1    1    2  501    0 -0.11098983668E+02  0.21608258964E+02  0.54206501319E+01  0.24889510678E+02  0.00000000000E+00 0.  1.
          2    1    1    2  502    0  0.11098983668E+02 -0.21608258964E+02  0.17078011399E+03  0.17249913515E+03  0.00000000000E+00 0. -1.
</event>
<event>
 4    1  0.6225520E+003  0.2063056E+02  0.7546771E-02  0.1524605E+00
          2   -1    0    0  501    0  0.00000000000E+00  0.00000000000E+00  0.32900761883E+02  0.32900761883E+02  0.00000000000E+00 0. -1.
          2   -1    0    0  502    0 -0.00000000000E+00 -0.00000000000E+00 -0.45024277053E+02  0.45024277053E+02  0.00000000000E+00 0.  1.
          2    1    1    2  501    0  0.13229341817E+02  0.15830493608E+02 -0.38954010165E+02  0.44079869790E+02  0.00000000000E+00 0.  1.
          2    1    1    2  502    0 -0.13229341817E+02 -0.15830493608E+02  0.26830494995E+02  0.33845169145E+02  0.00000000000E+00 0. -1.
</event>
<event>
 4    1  0.6225520E+003  0.2716661E+02  0.7546771E-02  0.1445942E+00
          2   -1    0    0  501    0  0.00000000000E+00  0.00000000000E+00  0.31156446426E+02  0.31156446426E+02  0.00000000000E+00 0. -1.
          2   -1    0    0  502    0 -0.00000000000E+00 -0.00000000000E+00 -0.26834426536E+02  0.26834426536E+02  0.00000000000E+00 0. -1.
          2    1    1    2  501    0 -0.24533287995E+02  0.11668009382E+02 -0.77681557043E+01  0.28255422592E+02  0.00000000000E+00 0. -1.
          2    1    1    2  502    0  0.24533287995E+02 -0.11668009382E+02  0.12090175594E+02  0.29735450370E+02  0.00000000000E+00 0. -1.
</event>
<event>
 4    1  0.6225520E+003  0.9018400E+02  0.7546771E-02  0.1181998E+00
          2   -1    0    0  502    0  0.00000000000E+00  0.00000000000E+00  0.21761759634E+03  0.21761759634E+03  0.00000000000E+00 0. -1.
          2   -1    0    0  501    0 -0.00000000000E+00 -0.00000000000E+00 -0.11860531410E+04  0.11860531410E+04  0.00000000000E+00 0.  1.
          2    1    1    2  501    0 -0.11610061840E+02  0.89433552966E+02  0.20647135370E+03  0.22530773141E+03  0.00000000000E+00 0. -1.
          2    1    1    2  502    0  0.11610061840E+02 -0.89433552966E+02 -0.11749068984E+04  0.11783630059E+04  0.00000000000E+00 0.  1.
</event>
<event>
 4    1  0.6225520E+003  0.3237226E+02  0.7546771E-02  0.1400042E+00
          2   -1    0    0  502    0  0.00000000000E+00  0.00000000000E+00  0.23275014500E+01  0.23275014500E+01  0.00000000000E+00 0.  1.
          2   -1    0    0  501    0 -0.00000000000E+00 -0.00000000000E+00 -0.46594997735E+03  0.46594997735E+03  0.00000000000E+00 0. -1.
          2    1    1    2  501    0  0.16319209582E+02 -0.27957942733E+02 -0.18883586533E+03  0.19159057179E+03  0.00000000000E+00 0.  1.
          2    1    1    2  502    0 -0.16319209582E+02  0.27957942733E+02 -0.27478661057E+03  0.27668690701E+03  0.00000000000E+00 0. -1.
</event>
<event>
 4    1  0.6225520E+003  0.2057571E+02  0.7546771E-02  0.1525410E+00
          2   -1    0    0  501    0  0.00000000000E+00  0.00000000000E+00  0.76613757325E+02  0.76613757325E+02  0.00000000000E+00 0. -1.
          2   -1    0    0  502    0 -0.00000000000E+00 -0.00000000000E+00 -0.99741786526E+02  0.99741786526E+02  0.00000000000E+00 0.  1.
          2    1    1    2  501    0 -0.20702951844E+01 -0.20471290252E+02 -0.97264369896E+02  0.99416887388E+02  0.00000000000E+00 0.  1.
          2    1    1    2  502    0  0.20702951844E+01  0.20471290252E+02  0.74136340694E+02  0.76938656463E+02  0.00000000000E+00 0. -1.
</event>
<event>
 4    1  0.6225520E+003  0.2182146E+02  0.7546771E-02  0.1507852E+00
          2   -1    0    0  501    0  0.00000000000E+00  0.00000000000E+00  0.41696702010E+02  0.41696702010E+02  0.00000000000E+00 0. -1.
          2   -1    0    0  502    0 -0.00000000000E+00 -0.00000000000E+00 -0.23679351844E+02  0.23679351844E+02  0.00000000000E+00 0.  1.
          2    1    1    2  501    0  0.10526656786E+02 -0.19114544581E+02 -0.14511338310E+02  0.26206015667E+02  0.00000000000E+00 0.  1.
          2    1    1    2  502    0 -0.10526656786E+02  0.19114544581E+02  0.32528688475E+02  0.39170038187E+02  0.00000000000E+00 0. -1.
</event>
<event>
 4    1  0.6225520E+003  0.2016563E+02  0.7546771E-02  0.1531519E+00
          2   -1    0    0  501    0  0.00000000000E+00  0.00000000000E+00  0.65018842266E+02  0.65018842266E+02  0.00000000000E+00 0. -1.
          2   -1    0    0  502    0 -0.00000000000E+00 -0.00000000000E+00 -0.15587582822E+02  0.15587582822E+02  0.00000000000E+00 0. -1.
          2    1    1    2  501    0  0.19888008729E+02 -0.33346524328E+01 -0.64707914493E+01  0.21178383792E+02  0.00000000000E+00 0. -1.
          2    1    1    2  502    0 -0.19888008729E+02  0.33346524328E+01  0.55902050893E+02  0.59428041295E+02  0.00000000000E+00 0. -1.
</event>
<event>
 4    1  0.6225520E+003  0.5072620E+02  0.7546771E-02  0.1295054E+00
          2   -1    0    0  502    0  0.00000000000E+00  0.00000000000E+00  0.24312816989E+02  0.24312816989E+02  0.00000000000E+00 0.  1.
          2   -1    0    0  501    0 -0.00000000000E+00 -0.00000000000E+00 -0.32887759024E+03  0.32887759024E+03  0.00000000000E+00 0.  1.
          2    1    1    2  501    0  0.35409645894E+02  0.36322228900E+02 -0.68518357933E+01  0.51186863435E+02  0.00000000000E+00 0.  1.
          2    1    1    2  502    0 -0.35409645894E+02 -0.36322228900E+02 -0.29771293746E+03  0.30200354379E+03  0.00000000000E+00 0.  1.
</event>
<event>
 4    1  0.6225520E+003  0.2154379E+02  0.7546771E-02  0.1511641E+00
          2   -1    0    0  501    0  0.00000000000E+00  0.00000000000E+00  0.60105227498E+02  0.60105227498E+02  0.00000000000E+00 0. -1.
          2   -1    0    0  502    0 -0.00000000000E+00 -0.00000000000E+00 -0.84394331846E+01  0.84394331846E+01  0.00000000000E+00 0.  1.
          2    1    1    2  501    0 -0.17807314245E+02  0.12125768555E+02  0.15840562635E+02  0.26740570829E+02  0.00000000000E+00 0.  1.
          2    1    1    2  502    0  0.17807314245E+02 -0.12125768555E+02  0.35825231679E+02  0.41804089854E+02  0.00000000000E+00 0. -1.
</event>
<event>
 4    1  0.6225520E+003  0.2199368E+02  0.7546771E-02  0.1505537E+00
          2   -1    0    0  501    0  0.00000000000E+00  0.00000000000E+00  0.33404388719E+03  0.33404388719E+03  0.00000000000E+00 0.  1.
          2   -1    0    0  502    0 -0.00000000000E+00 -0.00000000000E+00 -0.18369325036E+01  0.18369325036E+01  0.00000000000E+00 0.  1.
          2    1    1    2  501    0 -0.17058900333E+02  0.13882209241E+02  0.88835094140E+02  0.91517188357E+02  0.00000000000E+00 0.  1.
          2    1    1    2  502    0  0.17058900333E+02 -0.13882209241E+02  0.24337186055E+03  0.24436363134E+03  0.00000000000E+00 0.  1.
</event>
<event>
 4    1  0.6225520E+003  0.2437176E+02  0.7546771E-02  0.1475956E+00
          2   -1    0    0  502    0  0.00000000000E+00  0.00000000000E+00  0.16020028156E+02  0.16020028156E+02  0.00000000000E+00 0.  1.
          2   -1    0    0  501    0 -0.00000000000E+00 -0.00000000000E+00 -0.10437987656E+03  0.10437987656E+03  0.00000000000E+00 0.  1.
          2    1    1    2  501    0 -0.35922296706E+01  0.24105576354E+02  0.41596578828E+01  0.24724192182E+02  0.00000000000E+00 0.  1.
          2    1    1    2  502    0  0.35922296706E+01 -0.24105576354E+02 -0.92519506287E+02  0.95675712534E+02  0.00000000000E+00 0.  1.
</event>
<event>
 4    1  0.6225520E+003  0.2224936E+02  0.7546771E-02  0.1502145E+00
          2   -1    0    0  501    0  0.00000000000E+00  0.00000000000E+00  0.72311788332E+03  0.72311788332E+03  0.00000000000E+00 0. -1.
          2   -1    0    0  502    0 -0.00000000000E+00 -0.00000000000E+00 -0.82764457325E+02  0.82764457325E+02  0.00000000000E+00 0. -1.
          2    1    1    2  501    0 -0.63645779219E+00  0.22240250957E+02 -0.81094542105E+02  0.84091370546E+02  0.00000000000E+00 0. -1.
          2    1    1    2  502    0  0.63645779219E+00 -0.22240250957E+02  0.72144796810E+03  0.72179097010E+03  0.00000000000E+00 0. -1.
</event>
<event>
 4    1  0.6225520E+003  0.3989274E+02  0.7546771E-02  0.1349116E+00
          2   -1    0    0  502    0  0.00000000000E+00  0.00000000000E+00  0.10184567913E+02  0.10184567913E+02  0.00000000000E+00 0. -1.
          2   -1    0    0  501    0 -0.00000000000E+00 -0.00000000000E+00 -0.41094919975E+03  0.41094919975E+03  0.00000000000E+00 0.  1.
          2    1    1    2  501    0  0.51770282578E+01 -0.39555389022E+02 -0.34613774763E+02  0.52816132248E+02  0.00000000000E+00 0. -1.
          2    1    1    2  502    0 -0.51770282578E+01  0.39555389022E+02 -0.36615085707E+03  0.36831763542E+03  0.00000000000E+00 0.  1.
</event>
<event>
 4    1  0.6225520E+003  0.2354575E+02  0.7546771E-02  0.1485757E+00
          2   -1    0    0  502    0  0.00000000000E+00  0.00000000000E+00  0.14010852967E+04  0.14010852967E+04  0.00000000000E+00 0. -1.
          2   -1    0    0  501    0 -0.00000000000E+00 -0.00000000000E+00 -0.30184614313E+02  0.30184614313E+02  0.00000000000E+00 0. -1.
          2    1    1    2  501    0 -0.23461929482E+02  0.19849804903E+01  0.13963791364E+04  0.13965776365E+04  0.00000000000E+00 0. -1.
          2    1    1    2  502    0  0.23461929482E+02 -0.19849804903E+01 -0.25478454074E+02  0.34692274422E+02  0.00000000000E+00 0. -1.
</event>
<event>
 4    1  0.6225520E+003  0.2173772E+02  0.7546771E-02  0.1508988E+00
          2   -1    0    0  501    0  0.00000000000E+00  0.00000000000E+00  0.31224133406E+03  0.31224133406E+03  0.00000000000E+00 0.  1.
          2   -1    0    0  502    0 -0.00000000000E+00 -0.00000000000E+00 -0.63661325666E+02  0.63661325666E+02  0.00000000000E+00 0. -1.
          2    1    1    2  501    0 -0.18940265517E+02  0.10667456873E+02 -0.61413920065E+02  0.65147508561E+02  0.00000000000E+00 0. -1.
          2    1    1    2  502    0  0.18940265517E+02 -0.10667456873E+02  0.30999392846E+03  0.31075515116E+03  0.00000000000E+00 0.  1.
</event>
<event>
 4    1  0.6225520E+003  0.2272381E+02  0.7546771E-02  0.1495996E+00
          2   -1    0    0  502    0  0.00000000000E+00  0.00000000000E+00  0.95937532687E+00  0.95937532687E+00  0.00000000000E+00 0. -1.
          2   -1    0    0  501    0 -0.00000000000E+00 -0.00000000000E+00 -0.87018484893E+03  0.87018484893E+03  0.00000000000E+00 0.  1.
          2    1    1    2  501    0 -0.79395131094E+00 -0.22709932323E+02 -0.16558988184E+03  0.16714179715E+03  0.00000000000E+00 0. -1.
          2    1    1    2  502    0  0.79395131094E+00  0.22709932323E+02 -0.70363559176E+03  0.70400242711E+03  0.00000000000E+00 0.  1.
</event>
<event>
 4    1  0.6225520E+003  0.3102147E+02  0.7546771E-02  0.1410923E+00
          2   -1    0    0  501    0  0.00000000000E+00  0.00000000000E+00  0.12422914107E+03  0.12422914107E+03  0.00000000000E+00 0.  1.
          2   -1    0    0  502    0 -0.00000000000E+00 -0.00000000000E+00 -0.80100889057E+03  0.80100889057E+03  0.00000000000E+00 0. -1.
          2    1    1    2  501    0  0.30971537423E+02 -0.17594018883E+01 -0.79876650004E+03  0.79936865914E+03  0.00000000000E+00 0. -1.
          2    1    1    2  502    0 -0.30971537423E+02  0.17594018883E+01  0.12198675054E+03  0.12586937250E+03  0.00000000000E+00 0.  1.
</event>
<event>
 4    1  0.6225520E+003  0.2007022E+02  0.7546771E-02  0.1532965E+00
          2   -1    0    0  501    0  0.00000000000E+00  0.00000000000E+00  0.11390307749E+04  0.11390307749E+04  0.00000000000E+00 0.  1.
          2   -1    0    0  502    0 -0.00000000000E+00 -0.00000000000E+00 -0.74913120518E+00  0.74913120518E+00  0.00000000000E+00 0.  1.
          2    1    1    2  501    0 -0.48510735475E+01  0.19475128688E+02  0.15506751206E+03  0.15636095052E+03  0.00000000000E+00 0.  1.
          2    1    1    2  502    0  0.48510735475E+01 -0.19475128688E+02  0.98321413161E+03  0.98341895555E+03  0.00000000000E+00 0.  1.
</event>
<event>
 4    1  0.6225520E+003  0.2529573E+02  0.7546771E-02  0.1465522E+00
          2   -1    0    0  502    0  0.00000000000E+00  0.00000000000E+00  0.57621993898E+00  0.57621993898E+00  0.00000000000E+00 0.  1.
          2   -1    0    0  501    0 -0.00000000000E+00 -0.00000000000E+00 -0.13898434054E+04  0.13898434054E+04  0.00000000000E+00 0. -1.
          2    1    1    2  501    0  0.23488357967E+02 -0.93899476541E+01 -0.38294086178E+03  0.38377542612E+03  0.00000000000E+00 0.  1.
          2    1    1    2  502    0 -0.23488357967E+02  0.93899476541E+01 -0.10063263236E+04  0.10066441992E+04  0.00000000000E+00 0. -1.
</event>
<event>
 4    1  0.6225520E+003  0.5197127E+02  0.7546771E-02  0.1289845E+00
          2   -1    0    0  502    0  0.00000000000E+00  0.00000000000E+00  0.24865905398E+04  0.24865905398E+04  0.00000000000E+00 0. -1.
          2   -1    0    0  501    0 -0.00000000000E+00 -0.00000000000E+00 -0.11683283499E+01  0.11683283499E+01  0.00000000000E+00 0.  1.
          2    1    1    2  501    0 -0.49084373417E+02  0.17080308042E+02  0.91298036885E+03  0.91445840066E+03  0.00000000000E+00 0.  1.
          2    1    1    2  502    0  0.49084373417E+02 -0.17080308042E+02  0.15724418426E+04  0.15733004675E+04  0.00000000000E+00 0. -1.
</event>
<event>
 4    1  0.6225520E+003  0.2094713E+02  0.7546771E-02  0.1520021E+00
          2   -1    0    0  501    0  0.00000000000E+00  0.00000000000E+00  0.18986198008E+03  0.18986198008E+03  0.00000000000E+00 0.  1.
          2   -1    0    0  502    0 -0.00000000000E+00 -0.00000000000E+00 -0.26513276483E+02  0.26513276483E+02  0.00000000000E+00 0. -1.
          2    1    1    2  501    0 -0.20084655321E+02 -0.59488680401E+01 -0.21690639231E+02  0.30154041861E+02  0.00000000000E+00 0. -1.
          2    1    1    2  502    0  0.20084655321E+02  0.59488680401E+01  0.18503934283E+03  0.18622121470E+03  0.00000000000E+00 0.  1.
</event>
<event>
 4    1  0.6225520E+003  0.2780721E+02  0.7546771E-02  0.1439664E+00
          2   -1    0    0  501    0  0.00000000000E+00  0.00000000000E+00  0.73671170958E+01  0.73671170958E+01  0.00000000000E+00 0. -1.
          2   -1    0    0  502    0 -0.00000000000E+00 -0.00000000000E+00 -0.18318433403E+04  0.18318433403E+04  0.00000000000E+00 0. -1.
          2    1    1    2  501    0  0.12095759315E+02  0.25038636706E+02 -0.18051096301E+04  0.18053237985E+04  0.00000000000E+00 0. -1.
          2    1    1    2  502    0 -0.12095759315E+02 -0.25038636706E+02 -0.19366593046E+02  0.33886658846E+02  0.00000000000E+00 0. -1.
</event>
<event>
 4    1  0.6225520E+003  0.2060358E+02  0.7546771E-02  0.1525001E+00
          2   -1    0    0  501    0  0.00000000000E+00  0.00000000000E+00  0.91944104762E+03  0.91944104762E+03  0.00000000000E+00 0. -1.
          2   -1    0    0  502    0 -0.00000000000E+00 -0.00000000000E+00 -0.90371770430E+01  0.90371770430E+01  0.00000000000E+00 0. -1.
          2    1    1    2  501    0 -0.20307260413E+02 -0.34817894514E+01  0.29770804602E+01  0.20817557285E+02  0.00000000000E+00 0. -1.
          2    1    1    2  502    0  0.20307260413E+02  0.34817894514E+01  0.90742679012E+03  0.90766066738E+03  0.00000000000E+00 0. -1.
</event>
<event>
 4    1  0.6225520E+003  0.2508478E+02  0.7546771E-02  0.1467857E+00
          2   -1    0    0  502    0  0.00000000000E+00  0.00000000000E+00  0.44362069068E+02  0.44362069068E+02  0.00000000000E+00 0. -1.
          2   -1    0    0  501    0 -0.00000000000E+00 -0.00000000000E+00 -0.21869742331E+03  0.21869742331E+03  0.00000000000E+00 0.  1.
          2    1    1    2  501    0 -0.23770570437E+02 -0.80128606232E+01  0.40025177461E+02  0.47236223230E+02  0.00000000000E+00 0. -1.
          2    1    1    2  502    0  0.23770570437E+02  0.80128606232E+01 -0.21436053171E+03  0.21582326915E+03  0.00000000000E+00 0.  1.
</event>
<event>
 4    1  0.6225520E+003  0.3098395E+02  0.7546771E-02  0.1411234E+00
          2   -1    0    0  502    0  0.00000000000E+00  0.00000000000E+00  0.82110141603E+02  0.82110141603E+02  0.00000000000E+00 0.  1.
          2   -1    0    0  501    0 -0.00000000000E+00 -0.00000000000E+00 -0.11922762357E+02  0.11922762357E+02  0.00000000000E+00 0.  1.
          2    1    1    2  501    0  0.16182636543E+02 -0.26422098009E+02  0.28548071585E+02  0.42130717771E+02  0.00000000000E+00 0.  1.
          2    1    1    2  502    0 -0.16182636543E+02  0.26422098009E+02  0.41639307661E+02  0.51902186189E+02  0.00000000000E+00 0.  1.
</event>
<event>
 4    1  0.6225520E+003  0.2354149E+02  0.7546771E-02  0.1485808E+00
          2   -1    0    0  502    0  0.00000000000E+00  0.00000000000E+00  0.12868724665E+01  0.12868724665E+01  0.00000000000E+00 0. -1.
          2   -1    0    0  501    0 -0.00000000000E+00 -0.00000000000E+00 -0.72055211223E+03  0.72055211223E+03  0.00000000000E+00 0.  1.
          2    1    1    2  501    0  0.21616952236E+02 -0.93225088342E+01 -0.13070541177E+03  0.13280853309E+03  0.00000000000E+00 0. -1.
          2    1    1    2  502    0 -0.21616952236E+02  0.93225088342E+01 -0.58855982799E+03  0.58903045161E+03  0.00000000000E+00 0.  1.
</event>
<event>
 4    1  0.6225520E+003  0.2177934E+02  0.7546771E-02  0.1508422E+00
          2   -1    0    0  502    0  0.00000000000E+00  0.00000000000E+00  0.13092682332E+03  0.13092682332E+03  0.00000000000E+00 0.  1.
          2   -1    0    0  501    0 -0.00000000000E+00 -0.00000000000E+00 -0.31768902112E+02  0.31768902112E+02  0.00000000000E+00 0.  1.
          2    1    1    2  501    0 -0.21713503256E+02  0.16921638710E+01  0.12614798538E+03  0.12801427209E+03  0.00000000000E+00 0.  1.
          2    1    1    2  502    0  0.21713503256E+02 -0.16921638710E+01 -0.26990064171E+02  0.34681453346E+02  0.00000000000E+00 0.  1.
</event>
<event>
 4    1  0.6225520E+003  0.2052150E+02  0.7546771E-02  0.1526208E+00
          2   -1    0    0  502    0  0.00000000000E+00  0.00000000000E+00  0.46298713804E+01  0.46298713804E+01  0.00000000000E+00 0. -1.
          2   -1    0    0  501    0 -0.00000000000E+00 -0.00000000000E+00 -0.27338791705E+03  0.27338791705E+03  0.00000000000E+00 0.  1.
          2    1    1    2  501    0 -0.19851892746E+02  0.51994364481E+01 -0.20825942806E+02  0.29237846684E+02  0.00000000000E+00 0. -1.
          2    1    1    2  502    0  0.19851892746E+02 -0.51994364481E+01 -0.24793210287E+03  0.24877994175E+03  0.00000000000E+00 0.  1.
</event>
<event>
 4    1  0.6225520E+003  0.2035506E+02  0.7546771E-02  0.1528675E+00
          2   -1    0    0  502    0  0.00000000000E+00  0.00000000000E+00  0.14327835506E+01  0.14327835506E+01  0.00000000000E+00 0.  1.
          2   -1    0    0  501    0 -0.00000000000E+00 -0.00000000000E+00 -0.28918404257E+03  0.28918404257E+03  0.00000000000E+00 0. -1.
          2    1    1    2  501    0 -0.58650974259E+01 -0.19491766198E+02 -0.14316815323E+03  0.14460791270E+03  0.00000000000E+00 0.  1.
          2    1    1    2  502    0  0.58650974259E+01  0.19491766198E+02 -0.14458310579E+03  0.14600891342E+03  0.00000000000E+00 0. -1.
</event>
<event>
 4    1  0.6225520E+003  0.2129994E+02  0.7546771E-02  0.1515025E+00
          2   -1    0    0  501    0  0.00000000000E+00  0.00000000000E+00  0.53223977963E+02  0.53223977963E+02  0.00000000000E+00 0. -1.
          2   -1    0    0  502    0 -0.00000000000E+00 -0.00000000000E+00 -0.31943944438E+02  0.31943944438E+02  0.00000000000E+00 0. -1.
          2    1    1    2  501    0 -0.72897146605E+01  0.20013686784E+02 -0.25822244623E+02  0.33473510660E+02  0.00000000000E+00 0. -1.
          2    1    1    2  502    0  0.72897146605E+01 -0.20013686784E+02  0.47102278147E+02  0.51694411741E+02  0.00000000000E+00 0. -1.
</event>
<event>
 4    1  0.6225520E+003  0.2249259E+02  0.7546771E-02  0.1498970E+00
          2   -1    0    0  501    0  0.00000000000E+00  0.00000000000E+00  0.34301485465E+03  0.34301485465E+03  0.00000000000E+00 0. -1.
          2   -1    0    0  502    0 -0.00000000000E+00 -0.00000000000E+00 -0.19077540426E+01  0.19077540426E+01  0.00000000000E+00 0. -1.
          2    1    1    2  501    0 -0.18301258185E+02  0.13075945944E+02  0.88405804590E+02  0.91222270848E+02  0.00000000000E+00 0. -1.
          2    1    1    2  502    0  0.18301258185E+02 -0.13075945944E+02  0.25270129602E+03  0.25370033785E+03  0.00000000000E+00 0. -1.
</event>
<event>
 4    1  0.6225520E+003  0.2305817E+02  0.7546771E-02  0.1491769E+00
          2   -1    0    0  501    0  0.00000000000E+00  0.00000000000E+00  0.16438493173E+04  0.16438493173E+04  0.00000000000E+00 0.  1.
          2   -1    0    0  502    0 -0.00000000000E+00 -0.00000000000E+00 -0.13541326741E+01  0.13541326741E+01  0.00000000000E+00 0.  1.
          2    1    1    2  501    0  0.24665702140E+01 -0.22925864710E+02  0.10357799616E+03  0.10611352661E+03  0.00000000000E+00 0.  1.
          2    1    1    2  502    0 -0.24665702140E+01  0.22925864710E+02  0.15389171885E+04  0.15390899234E+04  0.00000000000E+00 0.  1.
</event>
