<event>
 4    1  0.5722454E+002  0.2733107E+02  0.7546771E-02  0.1444311E+00
          2   -1    0    0  502    0  0.00000000000E+00  0.00000000000E+00  0.66512084166E+03  0.66512084166E+03  0.00000000000E+00 0. -1.
         -2   -1    0    0    0  501 -0.00000000000E+00 -0.00000000000E+00 -0.13761919232E+01  0.13761919232E+01  0.00000000000E+00 0.  1.
         21    1    1    2  502  503  0.26877365477E+02  0.49592750671E+01  0.47478831013E+03  0.47557431241E+03  0.00000000000E+00 0. -1.
         21    1    1    2  503  501 -0.26877365477E+02 -0.49592750671E+01  0.18895633961E+03  0.19092272118E+03  0.00000000000E+00 0.  1.
</event>
<event>
 4    1  0.5722454E+002  0.3775861E+02  0.7546771E-02  0.1362146E+00
          2   -1    0    0  502    0  0.00000000000E+00  0.00000000000E+00  0.49301277071E+03  0.49301277071E+03  0.00000000000E+00 0. -1.
         -2   -1    0    0    0  501 -0.00000000000E+00 -0.00000000000E+00 -0.17788427573E+02  0.17788427573E+02  0.00000000000E+00 0.  1.
         21    1    1    2  502  503 -0.22928586437E+01  0.37688930047E+02  0.47133254432E+03  0.47284255306E+03  0.00000000000E+00 0. -1.
         21    1    1    2  503  501  0.22928586437E+01 -0.37688930047E+02  0.38917988130E+01  0.37958645219E+02  0.00000000000E+00 0.  1.
</event>
<event>
 4    1  0.5722454E+002  0.2464929E+02  0.7546771E-02  0.1472765E+00
          2   -1    0    0  502    0  0.00000000000E+00  0.00000000000E+00  0.12217850492E+02  0.12217850492E+02  0.00000000000E+00 0.  1.
         -2   -1    0    0    0  501 -0.00000000000E+00 -0.00000000000E+00 -0.83466711548E+02  0.83466711548E+02  0.00000000000E+00 0. -1.
         21    1    1    2  502  503 -0.22424806862E+02  0.10233067473E+02 -0.52078912918E+01  0.25193446854E+02  0.00000000000E+00 0.  1.
         21    1    1    2  503  501  0.22424806862E+02 -0.10233067473E+02 -0.66040969764E+02  0.70491115186E+02  0.00000000000E+00 0. -1.
</event>
<event>
 4    1  0.5722454E+002  0.2254232E+02  0.7546771E-02  0.1498327E+00
          2   -1    0    0  502    0  0.00000000000E+00  0.00000000000E+00  0.10013907978E+02  0.10013907978E+02  0.00000000000E+00 0. -1.
         -2   -1    0    0    0  501 -0.00000000000E+00 -0.00000000000E+00 -0.87240963322E+02  0.87240963322E+02  0.00000000000E+00 0.  1.
         21    1    1    2  502  503  0.21117989821E+02  0.78858507507E+01 -0.71618849203E+01  0.23652668597E+02  0.00000000000E+00 0. -1.
         21    1    1    2  503  501 -0.21117989821E+02 -0.78858507507E+01 -0.70065170424E+02  0.73602202703E+02  0.00000000000E+00 0.  1.
</event>
<event>
 4    1  0.5722454E+002  0.3103725E+02  0.7546771E-02  0.1410792E+00
          2   -1    0    0  502    0  0.00000000000E+00  0.00000000000E+00  0.25187742776E+02  0.25187742776E+02  0.00000000000E+00 0.  1.
         -2   -1    0    0    0  501 -0.00000000000E+00 -0.00000000000E+00 -0.49534089874E+02  0.49534089874E+02  0.00000000000E+00 0. -1.
         21    1    1    2  502  503 -0.30765728226E+02 -0.40964522844E+01  0.56625410047E+01  0.31549569335E+02  0.00000000000E+00 0.  1.
         21    1    1    2  503  501  0.30765728226E+02  0.40964522844E+01 -0.30008888102E+02  0.43172263315E+02  0.00000000000E+00 0. -1.
</event>
<event>
 4    1  0.5722454E+002  0.3446735E+02  0.7546771E-02  0.1384347E+00
          2   -1    0    0  502    0  0.00000000000E+00  0.00000000000E+00  0.28837055960E+04  0.28837055960E+04  0.00000000000E+00 0.  1.
         -2   -1    0    0    0  501 -0.00000000000E+00 -0.00000000000E+00 -0.42601104813E+00  0.42601104813E+00  0.00000000000E+00 0. -1.
         21    1    1    2  502  503 -0.30680674058E+02 -0.15706507795E+02  0.17034492837E+04  0.17037979517E+04  0.00000000000E+00 0.  1.
         21    1    1    2  503  501  0.30680674058E+02  0.15706507795E+02  0.11798303012E+04  0.11803336553E+04  0.00000000000E+00 0. -1.
</event>
<event>
 4    1  0.5722454E+002  0.2345052E+02  0.7546771E-02  0.1486917E+00
          2   -1    0    0  502    0  0.00000000000E+00  0.00000000000E+00  0.47133526585E+03  0.47133526585E+03  0.00000000000E+00 0.  1.
         -2   -1    0    0    0  501 -0.00000000000E+00 -0.00000000000E+00 -0.12069634883E+01  0.12069634883E+01  0.00000000000E+00 0. -1.
         21    1    1    2  502  503  0.15790714132E+02 -0.17337256507E+02  0.27819493029E+03  0.27918156521E+03  0.00000000000E+00 0.  1.
         21    1    1    2  503  501 -0.15790714132E+02  0.17337256507E+02  0.19193337208E+03  0.19336066413E+03  0.00000000000E+00 0. -1.
</event>
<event>
 4    1  0.5722454E+002  0.3041225E+02  0.7546771E-02  0.1416047E+00
          2   -1    0    0  503    0  0.00000000000E+00  0.00000000000E+00  0.30172159435E+03  0.30172159435E+03  0.00000000000E+00 0. -1.
         -2   -1    0    0    0  501 -0.00000000000E+00 -0.00000000000E+00 -0.14159175388E+02  0.14159175388E+02  0.00000000000E+00 0.  1.
         21    1    1    2  502  501  0.28896389424E+02  0.94817419517E+01  0.39791989910E+01  0.30671465188E+02  0.00000000000E+00 0.  1.
         21    1    1    2  503  502 -0.28896389424E+02 -0.94817419517E+01  0.28358321997E+03  0.28520930455E+03  0.00000000000E+00 0. -1.
</event>
<event>
 4    1  0.5722454E+002  0.2035392E+02  0.7546771E-02  0.1528692E+00
          2   -1    0    0  502    0  0.00000000000E+00  0.00000000000E+00  0.21561473806E+04  0.21561473806E+04  0.00000000000E+00 0. -1.
         -2   -1    0    0    0  501 -0.00000000000E+00 -0.00000000000E+00 -0.19633253734E+00  0.19633253734E+00  0.00000000000E+00 0.  1.
         21    1    1    2  502  503  0.16111180837E+02 -0.12438326412E+02  0.92042080265E+03  0.92064582553E+03  0.00000000000E+00 0.  1.
         21    1    1    2  503  501 -0.16111180837E+02  0.12438326412E+02  0.12355302454E+04  0.12356978876E+04  0.00000000000E+00 0. -1.
</event>
<event>
 4    1  0.5722454E+002  0.1016541E+03  0.7546771E-02  0.1160972E+00
          2   -1    0    0  502    0  0.00000000000E+00  0.00000000000E+00  0.56403329659E+03  0.56403329659E+03  0.00000000000E+00 0. -1.
         -2   -1    0    0    0  501 -0.00000000000E+00 -0.00000000000E+00 -0.17036517743E+03  0.17036517743E+03  0.00000000000E+00 0.  1.
         21    1    1    2  502  503  0.56065405134E+02 -0.84795199733E+02  0.54372783036E+03  0.55314872237E+03  0.00000000000E+00 0. -1.
         21    1    1    2  503  501 -0.56065405134E+02  0.84795199733E+02 -0.15005971120E+03  0.18124975165E+03  0.00000000000E+00 0.  1.
</event>
<event>
 4    1  0.5722454E+002  0.3009470E+02  0.7546771E-02  0.1418775E+00
          2   -1    0    0  503    0  0.00000000000E+00  0.00000000000E+00  0.18461451382E+04  0.18461451382E+04  0.00000000000E+00 0.  1.
         -2   -1    0    0    0  501 -0.00000000000E+00 -0.00000000000E+00 -0.81490752736E+00  0.81490752736E+00  0.00000000000E+00 0. -1.
         21    1    1    2  502  501 -0.12601177562E+02 -0.27329500319E+02  0.34007670150E+03  0.34140570318E+03  0.00000000000E+00 0. -1.
         21    1    1    2  503  502  0.12601177562E+02  0.27329500319E+02  0.15052535292E+04  0.15055543426E+04  0.00000000000E+00 0.  1.
</event>
<event>
 4    1  0.5722454E+002  0.7904820E+02  0.7546771E-02  0.1206075E+00
          2   -1    0    0  502    0  0.00000000000E+00  0.00000000000E+00  0.23855680817E+03  0.23855680817E+03  0.00000000000E+00 0.  1.
         -2   -1    0    0    0  501 -0.00000000000E+00 -0.00000000000E+00 -0.41590703274E+02  0.41590703274E+02  0.00000000000E+00 0. -1.
         21    1    1    2  502  503  0.23584609614E+02 -0.75447890304E+02  0.18371074550E+03  0.19999563988E+03  0.00000000000E+00 0.  1.
         21    1    1    2  503  501 -0.23584609614E+02  0.75447890304E+02  0.13255359403E+02  0.80151871562E+02  0.00000000000E+00 0. -1.
</event>
<event>
 4    1  0.5722454E+002  0.2039528E+02  0.7546771E-02  0.1528076E+00
          2   -1    0    0  503    0  0.00000000000E+00  0.00000000000E+00  0.93861535339E+00  0.93861535339E+00  0.00000000000E+00 0.  1.
         -2   -1    0    0    0  501 -0.00000000000E+00 -0.00000000000E+00 -0.45739582071E+03  0.45739582071E+03  0.00000000000E+00 0. -1.
         21    1    1    2  502  501 -0.31712287882E+01 -0.20147225625E+02 -0.18781522785E+03  0.18891936694E+03  0.00000000000E+00 0.  1.
         21    1    1    2  503  502  0.31712287882E+01  0.20147225625E+02 -0.26864197750E+03  0.26941506912E+03  0.00000000000E+00 0. -1.
</event>
<event>
 4    1  0.5722454E+002  0.2150493E+02  0.7546771E-02  0.1512176E+00
          2   -1    0    0  502    0  0.00000000000E+00  0.00000000000E+00  0.46800384711E+02  0.46800384711E+02  0.00000000000E+00 0.  1.
         -2   -1    0    0    0  501 -0.00000000000E+00 -0.00000000000E+00 -0.99849016652E+01  0.99849016652E+01  0.00000000000E+00 0. -1.
         21    1    1    2  502  503  0.20736283653E+02 -0.56981066427E+01  0.21295917373E+02  0.30265128048E+02  0.00000000000E+00 0.  1.
         21    1    1    2  503  501 -0.20736283653E+02  0.56981066427E+01  0.15519565673E+02  0.26520158328E+02  0.00000000000E+00 0. -1.
</event>
<event>
 4    1  0.5722454E+002  0.2198703E+02  0.7546771E-02  0.1505625E+00
          2   -1    0    0  503    0  0.00000000000E+00  0.00000000000E+00  0.33849989618E+03  0.33849989618E+03  0.00000000000E+00 0. -1.
         -2   -1    0    0    0  501 -0.00000000000E+00 -0.00000000000E+00 -0.58320082142E+01  0.58320082142E+01  0.00000000000E+00 0.  1.
         21    1    1    2  502  501 -0.20914826293E+02  0.67822938718E+01  0.16725968272E+02  0.27625848108E+02  0.00000000000E+00 0.  1.
         21    1    1    2  503  502  0.20914826293E+02 -0.67822938718E+01  0.31594191970E+03  0.31670605629E+03  0.00000000000E+00 0. -1.
</event>
<event>
 4    1  0.5722454E+002  0.2600145E+02  0.7546771E-02  0.1457905E+00
          2   -1    0    0  502    0  0.00000000000E+00  0.00000000000E+00  0.45515349256E+03  0.45515349256E+03  0.00000000000E+00 0. -1.
         -2   -1    0    0    0  501 -0.00000000000E+00 -0.00000000000E+00 -0.53080526125E+01  0.53080526125E+01  0.00000000000E+00 0.  1.
         21    1    1    2  502  503  0.18761485320E+02 -0.18002282256E+02  0.42030238627E+03  0.42110589096E+03  0.00000000000E+00 0. -1.
         21    1    1    2  503  501 -0.18761485320E+02  0.18002282256E+02  0.29543053677E+02  0.39355654212E+02  0.00000000000E+00 0.  1.
</event>
<event>
 4    1  0.5722454E+002  0.2510996E+02  0.7546771E-02  0.1467577E+00
          2   -1    0    0  502    0  0.00000000000E+00  0.00000000000E+00  0.29402693231E+03  0.29402693231E+03  0.00000000000E+00 0.  1.
         -2   -1    0    0    0  501 -0.00000000000E+00 -0.00000000000E+00 -0.28654655023E+01  0.28654655023E+01  0.00000000000E+00 0. -1.
         21    1    1    2  502  503  0.15397791945E+02  0.19834765842E+02  0.22004712397E+03  0.22147516046E+03  0.00000000000E+00 0.  1.
         21    1    1    2  503  501 -0.15397791945E+02 -0.19834765842E+02  0.71114342836E+02  0.75417237352E+02  0.00000000000E+00 0. -1.
</event>
<event>
 4    1  0.5722454E+002  0.2225683E+02  0.7546771E-02  0.1502047E+00
          2   -1    0    0  503    0  0.00000000000E+00  0.00000000000E+00  0.70874761305E+03  0.70874761305E+03  0.00000000000E+00 0. -1.
         -2   -1    0    0    0  501 -0.00000000000E+00 -0.00000000000E+00 -0.70651717342E+00  0.70651717342E+00  0.00000000000E+00 0.  1.
         21    1    1    2  502  501 -0.20802081800E+02  0.79145326642E+01  0.31726577116E+03  0.31804549358E+03  0.00000000000E+00 0. -1.
         21    1    1    2  503  502  0.20802081800E+02 -0.79145326642E+01  0.39077532471E+03  0.39140863664E+03  0.00000000000E+00 0.  1.
</event>
<event>
 4    1  0.5722454E+002  0.3977744E+02  0.7546771E-02  0.1349795E+00
          2   -1    0    0  503    0  0.00000000000E+00  0.00000000000E+00  0.17276093756E+02  0.17276093756E+02  0.00000000000E+00 0.  1.
         -2   -1    0    0    0  501 -0.00000000000E+00 -0.00000000000E+00 -0.10995937848E+03  0.10995937848E+03  0.00000000000E+00 0. -1.
         21    1    1    2  502  501  0.15822283100E+02 -0.36495208977E+02 -0.72346765237E+02  0.82560882754E+02  0.00000000000E+00 0. -1.
         21    1    1    2  503  502 -0.15822283100E+02  0.36495208977E+02 -0.20336519489E+02  0.44674589486E+02  0.00000000000E+00 0.  1.
</event>
<event>
 4    1  0.5722454E+002  0.2196618E+02  0.7546771E-02  0.1505905E+00
          2   -1    0    0  502    0  0.00000000000E+00  0.00000000000E+00  0.82969876296E+01  0.82969876296E+01  0.00000000000E+00 0.  1.
         -2   -1    0    0    0  501 -0.00000000000E+00 -0.00000000000E+00 -0.59541604558E+02  0.59541604558E+02  0.00000000000E+00 0. -1.
         21    1    1    2  502  503  0.74885349716E+01  0.20650299456E+02 -0.20446470945E+02  0.30009518453E+02  0.00000000000E+00 0.  1.
         21    1    1    2  503  501 -0.74885349716E+01 -0.20650299456E+02 -0.30798145983E+02  0.37829073735E+02  0.00000000000E+00 0. -1.
</event>
<event>
 4    1  0.5722454E+002  0.2152620E+02  0.7546771E-02  0.1511883E+00
          2   -1    0    0  503    0  0.00000000000E+00  0.00000000000E+00  0.15168637488E+04  0.15168637488E+04  0.00000000000E+00 0.  1.
         -2   -1    0    0    0  501 -0.00000000000E+00 -0.00000000000E+00 -0.38405123912E+00  0.38405123912E+00  0.00000000000E+00 0. -1.
         21    1    1    2  502  501 -0.15741680983E+02 -0.14682529690E+02  0.41511400999E+03  0.41567176773E+03  0.00000000000E+00 0. -1.
         21    1    1    2  503  502  0.15741680983E+02  0.14682529690E+02  0.11013656876E+04  0.11015760323E+04  0.00000000000E+00 0.  1.
</event>
<event>
 4    1  0.5722454E+002  0.4519762E+02  0.7546771E-02  0.1320454E+00
          2   -1    0    0  503    0  0.00000000000E+00  0.00000000000E+00  0.10684113752E+04  0.10684113752E+04  0.00000000000E+00 0. -1.
         -2   -1    0    0    0  501 -0.00000000000E+00 -0.00000000000E+00 -0.23324840077E+01  0.23324840077E+01  0.00000000000E+00 0.  1.
         21    1    1    2  502  501 -0.39164436791E+02  0.22560403832E+02  0.76034507039E+03  0.76168723962E+03  0.00000000000E+00 0. -1.
         21    1    1    2  503  502  0.39164436791E+02 -0.22560403832E+02  0.30573382085E+03  0.30905661964E+03  0.00000000000E+00 0.  1.
</event>
<event>
 4    1  0.5722454E+002  0.3712348E+02  0.7546771E-02  0.1366220E+00
          2   -1    0    0  503    0  0.00000000000E+00  0.00000000000E+00  0.10371122809E+04  0.10371122809E+04  0.00000000000E+00 0. -1.
         -2   -1    0    0    0  501 -0.00000000000E+00 -0.00000000000E+00 -0.55625071018E+01  0.55625071018E+01  0.00000000000E+00 0.  1.
         21    1    1    2  502  501  0.14464849943E+02 -0.34189484202E+02  0.60952202629E+02  0.71367525663E+02  0.00000000000E+00 0.  1.
         21    1    1    2  503  502 -0.14464849943E+02  0.34189484202E+02  0.97059757118E+03  0.97130726235E+03  0.00000000000E+00 0. -1.
</event>
<event>
 4    1  0.5722454E+002  0.4482253E+02  0.7546771E-02  0.1322329E+00
          2   -1    0    0  503    0  0.00000000000E+00  0.00000000000E+00  0.64348670464E+01  0.64348670464E+01  0.00000000000E+00 0.  1.
         -2   -1    0    0    0  501 -0.00000000000E+00 -0.00000000000E+00 -0.36113502776E+03  0.36113502776E+03  0.00000000000E+00 0. -1.
         21    1    1    2  502  501  0.17067147790E+02  0.41446009430E+02 -0.24499269692E+03  0.24905919131E+03  0.00000000000E+00 0. -1.
         21    1    1    2  503  502 -0.17067147790E+02 -0.41446009430E+02 -0.10970746379E+03  0.11851070349E+03  0.00000000000E+00 0.  1.
</event>
<event>
 4    1  0.5722454E+002  0.2041222E+02  0.7546771E-02  0.1527825E+00
          2   -1    0    0  502    0  0.00000000000E+00  0.00000000000E+00  0.42402720790E+00  0.42402720790E+00  0.00000000000E+00 0. -1.
         -2   -1    0    0    0  501 -0.00000000000E+00 -0.00000000000E+00 -0.10705920723E+04  0.10705920723E+04  0.00000000000E+00 0.  1.
         21    1    1    2  502  503  0.26324865683E+01  0.20241759644E+02 -0.38158012941E+03  0.38212570442E+03  0.00000000000E+00 0.  1.
         21    1    1    2  503  501 -0.26324865683E+01 -0.20241759644E+02 -0.68858791566E+03  0.68889039507E+03  0.00000000000E+00 0. -1.
</event>
<event>
 4    1  0.5722454E+002  0.2072515E+02  0.7546771E-02  0.1523225E+00
          2   -1    0    0  502    0  0.00000000000E+00  0.00000000000E+00  0.19290454900E+02  0.19290454900E+02  0.00000000000E+00 0.  1.
         -2   -1    0    0    0  501 -0.00000000000E+00 -0.00000000000E+00 -0.53013955984E+02  0.53013955984E+02  0.00000000000E+00 0. -1.
         21    1    1    2  502  503  0.18341595180E+02  0.96497618481E+01  0.10670637379E+02  0.23310824085E+02  0.00000000000E+00 0.  1.
         21    1    1    2  503  501 -0.18341595180E+02 -0.96497618481E+01 -0.44394138463E+02  0.48993586798E+02  0.00000000000E+00 0. -1.
</event>
<event>
 4    1  0.5722454E+002  0.2144205E+02  0.7546771E-02  0.1513046E+00
          2   -1    0    0  503    0  0.00000000000E+00  0.00000000000E+00  0.43255070169E+03  0.43255070169E+03  0.00000000000E+00 0.  1.
         -2   -1    0    0    0  501 -0.00000000000E+00 -0.00000000000E+00 -0.25065647804E+01  0.25065647804E+01  0.00000000000E+00 0. -1.
         21    1    1    2  502  501 -0.13857551664E+02 -0.16362453016E+02  0.49936564408E+02  0.54345396049E+02  0.00000000000E+00 0. -1.
         21    1    1    2  503  502  0.13857551664E+02  0.16362453016E+02  0.38010757250E+03  0.38071187042E+03  0.00000000000E+00 0.  1.
</event>
<event>
 4    1  0.5722454E+002  0.2265297E+02  0.7546771E-02  0.1496902E+00
          2   -1    0    0  502    0  0.00000000000E+00  0.00000000000E+00  0.19261265579E+02  0.19261265579E+02  0.00000000000E+00 0. -1.
         -2   -1    0    0    0  501 -0.00000000000E+00 -0.00000000000E+00 -0.26800301384E+02  0.26800301384E+02  0.00000000000E+00 0.  1.
         21    1    1    2  502  503 -0.22639813548E+02 -0.77190456965E+00 -0.19990085008E+01  0.22740998860E+02  0.00000000000E+00 0. -1.
         21    1    1    2  503  501  0.22639813548E+02  0.77190456965E+00 -0.55400273043E+01  0.23320568104E+02  0.00000000000E+00 0.  1.
</event>
<event>
 4    1  0.5722454E+002  0.3018544E+02  0.7546771E-02  0.1417992E+00
          2   -1    0    0  503    0  0.00000000000E+00  0.00000000000E+00  0.14226305473E+03  0.14226305473E+03  0.00000000000E+00 0. -1.
         -2   -1    0    0    0  501 -0.00000000000E+00 -0.00000000000E+00 -0.78803060804E+01  0.78803060804E+01  0.00000000000E+00 0.  1.
         21    1    1    2  502  501  0.28634058059E+02  0.95525605086E+01  0.34706513335E+02  0.45996769029E+02  0.00000000000E+00 0.  1.
         21    1    1    2  503  502 -0.28634058059E+02 -0.95525605086E+01  0.99676235310E+02  0.10414659178E+03  0.00000000000E+00 0. -1.
</event>
<event>
 4    1  0.5722454E+002  0.2033962E+02  0.7546771E-02  0.1528906E+00
          2   -1    0    0  503    0  0.00000000000E+00  0.00000000000E+00  0.17578444578E+04  0.17578444578E+04  0.00000000000E+00 0.  1.
         -2   -1    0    0    0  501 -0.00000000000E+00 -0.00000000000E+00 -0.43948216370E+00  0.43948216370E+00  0.00000000000E+00 0. -1.
         21    1    1    2  502  501 -0.18325213963E+02 -0.88253475236E+01  0.27953363338E+03  0.28027263943E+03  0.00000000000E+00 0. -1.
         21    1    1    2  503  502  0.18325213963E+02  0.88253475236E+01  0.14778713422E+04  0.14780113005E+04  0.00000000000E+00 0.  1.
</event>
<event>
 4    1  0.5722454E+002  0.2802373E+02  0.7546771E-02  0.1437587E+00
          2   -1    0    0  502    0  0.00000000000E+00  0.00000000000E+00  0.60230430069E+01  0.60230430069E+01  0.00000000000E+00 0. -1.
         -2   -1    0    0    0  501 -0.00000000000E+00 -0.00000000000E+00 -0.28532115456E+03  0.28532115456E+03  0.00000000000E+00 0.  1.
         21    1    1    2  502  503  0.18871175571E+01 -0.27960116527E+02 -0.32303932748E+02  0.42765329413E+02  0.00000000000E+00 0. -1.
         21    1    1    2  503  501 -0.18871175571E+01  0.27960116527E+02 -0.24699417881E+03  0.24857886816E+03  0.00000000000E+00 0.  1.
</event>
<event>
 4    1  0.5722454E+002  0.2565215E+02  0.7546771E-02  0.1461638E+00
          2   -1    0    0  503    0  0.00000000000E+00  0.00000000000E+00  0.27222768954E+03  0.27222768954E+03  0.00000000000E+00 0.  1.
         -2   -1    0    0    0  501 -0.00000000000E+00 -0.00000000000E+00 -0.25367471800E+01  0.25367471800E+01  0.00000000000E+00 0. -1.
         21    1    1    2  502  501 -0.22287123911E+02  0.12701055957E+02  0.10502357284E+03  0.10811097801E+03  0.00000000000E+00 0.  1.
         21    1    1    2  503  502  0.22287123911E+02 -0.12701055957E+02  0.16466736952E+03  0.16665345871E+03  0.00000000000E+00 0. -1.
</event>
<event>
 4    1  0.5722454E+002  0.4329804E+02  0.7546771E-02  0.1330173E+00
          2   -1    0    0  503    0  0.00000000000E+00  0.00000000000E+00  0.11168159842E+04  0.11168159842E+04  0.00000000000E+00 0. -1.
         -2   -1    0    0    0  501 -0.00000000000E+00 -0.00000000000E+00 -0.71754063708E+01  0.71754063708E+01  0.00000000000E+00 0.  1.
         21    1    1    2  502  501 -0.39609611450E+02  0.17487098121E+02  0.62935033970E+02  0.76390695904E+02  0.00000000000E+00 0.  1.
         21    1    1    2  503  502  0.39609611450E+02 -0.17487098121E+02  0.10467055438E+04  0.10476006947E+04  0.00000000000E+00 0. -1.
</event>
<event>
 4    1  0.5722454E+002  0.3642375E+02  0.7546771E-02  0.1370821E+00
          2   -1    0    0  502    0  0.00000000000E+00  0.00000000000E+00  0.11640877210E+03  0.11640877210E+03  0.00000000000E+00 0. -1.
         -2   -1    0    0    0  501 -0.00000000000E+00 -0.00000000000E+00 -0.11635355466E+02  0.11635355466E+02  0.00000000000E+00 0.  1.
         21    1    1    2  502  503  0.11507814294E+02  0.34558062506E+02  0.61553535487E+02  0.71522913846E+02  0.00000000000E+00 0. -1.
         21    1    1    2  503  501 -0.11507814294E+02 -0.34558062506E+02  0.43219881147E+02  0.56521213720E+02  0.00000000000E+00 0.  1.
</event>
<event>
 4    1  0.5722454E+002  0.3066939E+02  0.7546771E-02  0.1413867E+00
          2   -1    0    0  503    0  0.00000000000E+00  0.00000000000E+00  0.60698062868E+03  0.60698062868E+03  0.00000000000E+00 0.  1.
         -2   -1    0    0    0  501 -0.00000000000E+00 -0.00000000000E+00 -0.18002338659E+01  0.18002338659E+01  0.00000000000E+00 0. -1.
         21    1    1    2  502  501  0.22603564374E+02 -0.20728978228E+02  0.18902711051E+03  0.19149898216E+03  0.00000000000E+00 0.  1.
         21    1    1    2  503  502 -0.22603564374E+02  0.20728978228E+02  0.41615328430E+03  0.41728188038E+03  0.00000000000E+00 0. -1.
</event>
<event>
 4    1  0.5722454E+002  0.2184361E+02  0.7546771E-02  0.1507553E+00
          2   -1    0    0  503    0  0.00000000000E+00  0.00000000000E+00  0.14366243816E+03  0.14366243816E+03  0.00000000000E+00 0.  1.
         -2   -1    0    0    0  501 -0.00000000000E+00 -0.00000000000E+00 -0.58823017902E+01  0.58823017902E+01  0.00000000000E+00 0. -1.
         21    1    1    2  502  501  0.96579142028E+01  0.19592549351E+02  0.19552917498E+02  0.29316546173E+02  0.00000000000E+00 0. -1.
         21    1    1    2  503  502 -0.96579142028E+01 -0.19592549351E+02  0.11822721888E+03  0.12022819378E+03  0.00000000000E+00 0.  1.
</event>
<event>
 4    1  0.5722454E+002  0.3249332E+02  0.7546771E-02  0.1399098E+00
          2   -1    0    0  503    0  0.00000000000E+00  0.00000000000E+00  0.32267081245E+03  0.32267081245E+03  0.00000000000E+00 0. -1.
         -2   -1    0    0    0  501 -0.00000000000E+00 -0.00000000000E+00 -0.88247806667E+01  0.88247806667E+01  0.00000000000E+00 0.  1.
         21    1    1    2  502  501 -0.10962069426E+02 -0.30588374665E+02  0.25446976939E+02  0.41271833810E+02  0.00000000000E+00 0.  1.
         21    1    1    2  503  502  0.10962069426E+02  0.30588374665E+02  0.28839905484E+03  0.29022375930E+03  0.00000000000E+00 0. -1.
</event>
<event>
 4    1  0.5722454E+002  0.3561594E+02  0.7546771E-02  0.1376284E+00
          2   -1    0    0  502    0  0.00000000000E+00  0.00000000000E+00  0.15810850413E+02  0.15810850413E+02  0.00000000000E+00 0. -1.
         -2   -1    0    0    0  501 -0.00000000000E+00 -0.00000000000E+00 -0.15058018211E+03  0.15058018211E+03  0.00000000000E+00 0.  1.
         21    1    1    2  502  503 -0.35401606130E+02 -0.39014837260E+01 -0.10518960779E+02  0.37136825762E+02  0.00000000000E+00 0. -1.
         21    1    1    2  503  501  0.35401606130E+02  0.39014837260E+01 -0.12425037092E+03  0.12925420676E+03  0.00000000000E+00 0.  1.
</event>
<event>
 4    1  0.5722454E+002  0.2110278E+02  0.7546771E-02  0.1517802E+00
          2   -1    0    0  503    0  0.00000000000E+00  0.00000000000E+00  0.15010462516E+02  0.15010462516E+02  0.00000000000E+00 0.  1.
         -2   -1    0    0    0  501 -0.00000000000E+00 -0.00000000000E+00 -0.10683820675E+03  0.10683820675E+03  0.00000000000E+00 0. -1.
         21    1    1    2  502  501 -0.12327514503E+01 -0.21066745975E+02 -0.97692779617E+02  0.99946018688E+02  0.00000000000E+00 0. -1.
         21    1    1    2  503  502  0.12327514503E+01  0.21066745975E+02  0.58650353864E+01  0.21902650575E+02  0.00000000000E+00 0.  1.
</event>
<event>
 4    1  0.5722454E+002  0.2276829E+02  0.7546771E-02  0.1495428E+00
          2   -1    0    0  502    0  0.00000000000E+00  0.00000000000E+00  0.13338101103E+01  0.13338101103E+01  0.00000000000E+00 0.  1.
         -2   -1    0    0    0  501 -0.00000000000E+00 -0.00000000000E+00 -0.54286536698E+03  0.54286536698E+03  0.00000000000E+00 0. -1.
         21    1    1    2  502  503 -0.39040726079E+01  0.22431078564E+02 -0.12574329778E+03  0.12778799632E+03  0.00000000000E+00 0.  1.
         21    1    1    2  503  501  0.39040726079E+01 -0.22431078564E+02 -0.41578825910E+03  0.41641118077E+03  0.00000000000E+00 0. -1.
</event>
<event>
 4    1  0.5722454E+002  0.2479060E+02  0.7546771E-02  0.1471160E+00
          2   -1    0    0  503    0  0.00000000000E+00  0.00000000000E+00  0.63537736852E+02  0.63537736852E+02  0.00000000000E+00 0.  1.
         -2   -1    0    0    0  501 -0.00000000000E+00 -0.00000000000E+00 -0.30874624230E+02  0.30874624230E+02  0.00000000000E+00 0. -1.
         21    1    1    2  502  501  0.94824636699E+01 -0.22905389289E+02 -0.22787364873E+02  0.33672510652E+02  0.00000000000E+00 0. -1.
         21    1    1    2  503  502 -0.94824636699E+01  0.22905389289E+02  0.55450477496E+02  0.60739850430E+02  0.00000000000E+00 0.  1.
</event>
<event>
 4    1  0.5722454E+002  0.2022762E+02  0.7546771E-02  0.1530584E+00
          2   -1    0    0  502    0  0.00000000000E+00  0.00000000000E+00  0.11548380017E+03  0.11548380017E+03  0.00000000000E+00 0.  1.
         -2   -1    0    0    0  501 -0.00000000000E+00 -0.00000000000E+00 -0.11072014842E+02  0.11072014842E+02  0.00000000000E+00 0. -1.
         21    1    1    2  502  503  0.17037468187E+02 -0.10903272759E+02  0.10438641978E+03  0.10632817742E+03  0.00000000000E+00 0.  1.
         21    1    1    2  503  501 -0.17037468187E+02  0.10903272759E+02  0.25365546118E-01  0.20227637590E+02  0.00000000000E+00 0. -1.
</event>
<event>
 4    1  0.5722454E+002  0.3210447E+02  0.7546771E-02  0.1402149E+00
          2   -1    0    0  502    0  0.00000000000E+00  0.00000000000E+00  0.26675111903E+04  0.26675111903E+04  0.00000000000E+00 0. -1.
         -2   -1    0    0    0  501 -0.00000000000E+00 -0.00000000000E+00 -0.71999741974E+00  0.71999741974E+00  0.00000000000E+00 0.  1.
         21    1    1    2  502  503  0.89381356302E+01  0.30835157658E+02  0.42526891744E+03  0.42647901397E+03  0.00000000000E+00 0.  1.
         21    1    1    2  503  501 -0.89381356302E+01 -0.30835157658E+02  0.22415222754E+04  0.22417521737E+04  0.00000000000E+00 0. -1.
</event>
<event>
 4    1  0.5722454E+002  0.2838451E+02  0.7546771E-02  0.1434175E+00
          2   -1    0    0  502    0  0.00000000000E+00  0.00000000000E+00  0.11846723882E+04  0.11846723882E+04  0.00000000000E+00 0. -1.
         -2   -1    0    0    0  501 -0.00000000000E+00 -0.00000000000E+00 -0.96545518471E+00  0.96545518471E+00  0.00000000000E+00 0.  1.
         21    1    1    2  502  503 -0.12961919307E+02  0.25252107887E+02  0.91415232289E+03  0.91459288744E+03  0.00000000000E+00 0. -1.
         21    1    1    2  503  501  0.12961919307E+02 -0.25252107887E+02  0.26955461008E+03  0.27104495591E+03  0.00000000000E+00 0.  1.
</event>
<event>
 4    1  0.5722454E+002  0.2561979E+02  0.7546771E-02  0.1461988E+00
          2   -1    0    0  503    0  0.00000000000E+00  0.00000000000E+00  0.44183635216E+03  0.44183635216E+03  0.00000000000E+00 0.  1.
         -2   -1    0    0    0  501 -0.00000000000E+00 -0.00000000000E+00 -0.29489586142E+01  0.29489586142E+01  0.00000000000E+00 0. -1.
         21    1    1    2  502  501  0.22039633260E+02  0.13062465801E+02  0.62780225539E+02  0.67806564327E+02  0.00000000000E+00 0. -1.
         21    1    1    2  503  502 -0.22039633260E+02 -0.13062465801E+02  0.37610716801E+03  0.37697874645E+03  0.00000000000E+00 0.  1.
</event>
<event>
 4    1  0.5722454E+002  0.2434958E+02  0.7546771E-02  0.1476213E+00
          2   -1    0    0  503    0  0.00000000000E+00  0.00000000000E+00  0.45994970595E+01  0.45994970595E+01  0.00000000000E+00 0.  1.
         -2   -1    0    0    0  501 -0.00000000000E+00 -0.00000000000E+00 -0.40287731805E+03  0.40287731805E+03  0.00000000000E+00 0. -1.
         21    1    1    2  502  501 -0.61095199165E+01  0.23570658630E+02 -0.36715046466E+03  0.36795701635E+03  0.00000000000E+00 0. -1.
         21    1    1    2  503  502  0.61095199165E+01 -0.23570658630E+02 -0.31127356334E+02  0.39519798762E+02  0.00000000000E+00 0.  1.
</event>
<event>
 4    1  0.5722454E+002  0.2391004E+02  0.7546771E-02  0.1481376E+00
          2   -1    0    0  502    0  0.00000000000E+00  0.00000000000E+00  0.27654118757E+03  0.27654118757E+03  0.00000000000E+00 0.  1.
         -2   -1    0    0    0  501 -0.00000000000E+00 -0.00000000000E+00 -0.21507984165E+01  0.21507984165E+01  0.00000000000E+00 0. -1.
         21    1    1    2  502  503  0.23895338695E+02 -0.83843705586E+00  0.16465299898E+03  0.16637998756E+03  0.00000000000E+00 0.  1.
         21    1    1    2  503  501 -0.23895338695E+02  0.83843705586E+00  0.10973739018E+03  0.11231199843E+03  0.00000000000E+00 0. -1.
</event>
<event>
 4    1  0.5722454E+002  0.5230814E+02  0.7546771E-02  0.1288464E+00
          2   -1    0    0  503    0  0.00000000000E+00  0.00000000000E+00  0.17592664593E+04  0.17592664593E+04  0.00000000000E+00 0.  1.
         -2   -1    0    0    0  501 -0.00000000000E+00 -0.00000000000E+00 -0.24775476400E+01  0.24775476400E+01  0.00000000000E+00 0. -1.
         21    1    1    2  502  501 -0.35179989499E+02 -0.38710592075E+02  0.34095237365E+03  0.34494153519E+03  0.00000000000E+00 0. -1.
         21    1    1    2  503  502  0.35179989499E+02  0.38710592075E+02  0.14158365380E+04  0.14168024717E+04  0.00000000000E+00 0.  1.
</event>
<event>
 4    1  0.5722454E+002  0.2609345E+02  0.7546771E-02  0.1456933E+00
          2   -1    0    0  502    0  0.00000000000E+00  0.00000000000E+00  0.33336316996E+02  0.33336316996E+02  0.00000000000E+00 0. -1.
         -2   -1    0    0    0  501 -0.00000000000E+00 -0.00000000000E+00 -0.23088586740E+02  0.23088586740E+02  0.00000000000E+00 0.  1.
         21    1    1    2  502  503  0.19238210867E+02  0.17628363757E+02  0.14707712888E+02  0.29953042993E+02  0.00000000000E+00 0. -1.
         21    1    1    2  503  501 -0.19238210867E+02 -0.17628363757E+02 -0.44599826330E+01  0.26471860743E+02  0.00000000000E+00 0.  1.
</event>
<event>
 4    1  0.5722454E+002  0.2442704E+02  0.7546771E-02  0.1475316E+00
          2   -1    0    0  502    0  0.00000000000E+00  0.00000000000E+00  0.43199048250E+01  0.43199048250E+01  0.00000000000E+00 0.  1.
         -2   -1    0    0    0  501 -0.00000000000E+00 -0.00000000000E+00 -0.25156001599E+03  0.25156001599E+03  0.00000000000E+00 0. -1.
         21    1    1    2  502  503 -0.13787633812E+02 -0.20163870059E+02 -0.20953363001E+03  0.21095265490E+03  0.00000000000E+00 0. -1.
         21    1    1    2  503  501  0.13787633812E+02  0.20163870059E+02 -0.37706481147E+02  0.44927265913E+02  0.00000000000E+00 0.  1.
</event>
<event>
 4    1  0.5722454E+002  0.2134737E+02  0.7546771E-02  0.1514363E+00
          2   -1    0    0  503    0  0.00000000000E+00  0.00000000000E+00  0.35933511453E+02  0.35933511453E+02  0.00000000000E+00 0.  1.
         -2   -1    0    0    0  501 -0.00000000000E+00 -0.00000000000E+00 -0.13513092657E+02  0.13513092657E+02  0.00000000000E+00 0. -1.
         21    1    1    2  502  501 -0.20169642037E+02  0.69925577601E+01  0.17341369861E+02  0.27503334936E+02  0.00000000000E+00 0. -1.
         21    1    1    2  503  502  0.20169642037E+02 -0.69925577601E+01  0.50790489354E+01  0.21943269174E+02  0.00000000000E+00 0.  1.
</event>
<event>
 4    1  0.5722454E+002  0.4643489E+02  0.7546771E-02  0.1314416E+00
          2   -1    0    0  503    0  0.00000000000E+00  0.00000000000E+00  0.51295166302E+02  0.51295166302E+02  0.00000000000E+00 0.  1.
         -2   -1    0    0    0  501 -0.00000000000E+00 -0.00000000000E+00 -0.56498230105E+02  0.56498230105E+02  0.00000000000E+00 0. -1.
         21    1    1    2  502  501 -0.64148255066E+01  0.45989666702E+02  0.24667850649E+02  0.52580436336E+02  0.00000000000E+00 0. -1.
         21    1    1    2  503  502  0.64148255066E+01 -0.45989666702E+02 -0.29870914451E+02  0.55212960071E+02  0.00000000000E+00 0.  1.
</event>
<event>
 4    1  0.5722454E+002  0.3750194E+02  0.7546771E-02  0.1363781E+00
          2   -1    0    0  502    0  0.00000000000E+00  0.00000000000E+00  0.16669169692E+03  0.16669169692E+03  0.00000000000E+00 0.  1.
         -2   -1    0    0    0  501 -0.00000000000E+00 -0.00000000000E+00 -0.10430497540E+02  0.10430497540E+02  0.00000000000E+00 0. -1.
         21    1    1    2  502  503 -0.32754216927E+02  0.18263530675E+02  0.11684628369E+03  0.12271694785E+03  0.00000000000E+00 0.  1.
         21    1    1    2  503  501  0.32754216927E+02 -0.18263530675E+02  0.39414915696E+02  0.54405246608E+02  0.00000000000E+00 0. -1.
</event>
<event>
 4    1  0.5722454E+002  0.2270557E+02  0.7546771E-02  0.1496229E+00
          2   -1    0    0  502    0  0.00000000000E+00  0.00000000000E+00  0.68434995103E+03  0.68434995103E+03  0.00000000000E+00 0.  1.
         -2   -1    0    0    0  501 -0.00000000000E+00 -0.00000000000E+00 -0.80194261305E+00  0.80194261305E+00  0.00000000000E+00 0. -1.
         21    1    1    2  502  503  0.19615985545E+02 -0.11434851544E+02  0.42611733758E+03  0.42672183926E+03  0.00000000000E+00 0.  1.
         21    1    1    2  503  501 -0.19615985545E+02  0.11434851544E+02  0.25743067083E+03  0.25843005437E+03  0.00000000000E+00 0. -1.
</event>
<event>
 4    1  0.5722454E+002  0.2638784E+02  0.7546771E-02  0.1453856E+00
          2   -1    0    0  503    0  0.00000000000E+00  0.00000000000E+00  0.34662192472E+01  0.34662192472E+01  0.00000000000E+00 0.  1.
         -2   -1    0    0    0  501 -0.00000000000E+00 -0.00000000000E+00 -0.20174147058E+03  0.20174147058E+03  0.00000000000E+00 0. -1.
         21    1    1    2  502  501  0.10264836666E+02 -0.24309485603E+02 -0.10581561430E+03  0.10905623408E+03  0.00000000000E+00 0. -1.
         21    1    1    2  503  502 -0.10264836666E+02  0.24309485603E+02 -0.92459637034E+02  0.96151455748E+02  0.00000000000E+00 0.  1.
</event>
<event>
 4    1  0.5722454E+002  0.3183716E+02  0.7546771E-02  0.1404276E+00
          2   -1    0    0  503    0  0.00000000000E+00  0.00000000000E+00  0.92486614173E+02  0.92486614173E+02  0.00000000000E+00 0.  1.
         -2   -1    0    0    0  501 -0.00000000000E+00 -0.00000000000E+00 -0.22692108983E+02  0.22692108983E+02  0.00000000000E+00 0. -1.
         21    1    1    2  502  501 -0.28427305717E+02  0.14335021206E+02 -0.65124997788E+01  0.32496418213E+02  0.00000000000E+00 0. -1.
         21    1    1    2  503  502  0.28427305717E+02 -0.14335021206E+02  0.76307004969E+02  0.82682304943E+02  0.00000000000E+00 0.  1.
</event>
<event>
 4    1  0.5722454E+002  0.2094656E+02  0.7546771E-02  0.1520029E+00
          2   -1    0    0  503    0  0.00000000000E+00  0.00000000000E+00  0.12508519808E+04  0.12508519808E+04  0.00000000000E+00 0.  1.
         -2   -1    0    0    0  501 -0.00000000000E+00 -0.00000000000E+00 -0.35123290204E+00  0.35123290204E+00  0.00000000000E+00 0. -1.
         21    1    1    2  502  501 -0.18235704595E+02  0.10306186716E+02  0.60248128991E+03  0.60284530611E+03  0.00000000000E+00 0. -1.
         21    1    1    2  503  502  0.18235704595E+02 -0.10306186716E+02  0.64801945802E+03  0.64835790762E+03  0.00000000000E+00 0.  1.
</event>
<event>
 4    1  0.5722454E+002  0.5160331E+02  0.7546771E-02  0.1291367E+00
          2   -1    0    0  503    0  0.00000000000E+00  0.00000000000E+00  0.84402732440E+03  0.84402732440E+03  0.00000000000E+00 0. -1.
         -2   -1    0    0    0  501 -0.00000000000E+00 -0.00000000000E+00 -0.62963941384E+01  0.62963941384E+01  0.00000000000E+00 0.  1.
         21    1    1    2  502  501 -0.72378836864E+01 -0.51093195174E+02  0.11855536389E+03  0.12929917193E+03  0.00000000000E+00 0.  1.
         21    1    1    2  503  502  0.72378836864E+01  0.51093195174E+02  0.71917556637E+03  0.72102454662E+03  0.00000000000E+00 0. -1.
</event>
<event>
 4    1  0.5722454E+002  0.5012758E+02  0.7546771E-02  0.1297620E+00
          2   -1    0    0  502    0  0.00000000000E+00  0.00000000000E+00  0.77598824403E+01  0.77598824403E+01  0.00000000000E+00 0. -1.
         -2   -1    0    0    0  501 -0.00000000000E+00 -0.00000000000E+00 -0.35136892865E+03  0.35136892865E+03  0.00000000000E+00 0.  1.
         21    1    1    2  502  503  0.33900729524E+02 -0.36925797956E+02 -0.22208767991E+03  0.22767457387E+03  0.00000000000E+00 0.  1.
         21    1    1    2  503  501 -0.33900729524E+02  0.36925797956E+02 -0.12152136629E+03  0.13145423722E+03  0.00000000000E+00 0. -1.
</event>
<event>
 4    1  0.5722454E+002  0.2405299E+02  0.7546771E-02  0.1479683E+00
          2   -1    0    0  503    0  0.00000000000E+00  0.00000000000E+00  0.38849258871E+02  0.38849258871E+02  0.00000000000E+00 0. -1.
         -2   -1    0    0    0  501 -0.00000000000E+00 -0.00000000000E+00 -0.16461049898E+02  0.16461049898E+02  0.00000000000E+00 0.  1.
         21    1    1    2  502  501 -0.20395292869E+02 -0.12750624155E+02  0.26561425900E+01  0.24199204140E+02  0.00000000000E+00 0.  1.
         21    1    1    2  503  502  0.20395292869E+02  0.12750624155E+02  0.19732066383E+02  0.31111104630E+02  0.00000000000E+00 0. -1.
</event>
<event>
 4    1  0.5722454E+002  0.2483675E+02  0.7546771E-02  0.1470638E+00
          2   -1    0    0  502    0  0.00000000000E+00  0.00000000000E+00  0.56569422457E+03  0.56569422457E+03  0.00000000000E+00 0. -1.
         -2   -1    0    0    0  501 -0.00000000000E+00 -0.00000000000E+00 -0.19987642792E+01  0.19987642792E+01  0.00000000000E+00 0.  1.
         21    1    1    2  502  503  0.12377880000E+02  0.21532585704E+02  0.47319382066E+03  0.47384518154E+03  0.00000000000E+00 0. -1.
         21    1    1    2  503  501 -0.12377880000E+02 -0.21532585704E+02  0.90501639636E+02  0.93847807312E+02  0.00000000000E+00 0.  1.
</event>
<event>
 4    1  0.5722454E+002  0.3617621E+02  0.7546771E-02  0.1372477E+00
          2   -1    0    0  503    0  0.00000000000E+00  0.00000000000E+00  0.51259350997E+03  0.51259350997E+03  0.00000000000E+00 0.  1.
         -2   -1    0    0    0  501 -0.00000000000E+00 -0.00000000000E+00 -0.77607982925E+01  0.77607982925E+01  0.00000000000E+00 0. -1.
         21    1    1    2  502  501 -0.36173537698E+02 -0.43942689983E+00  0.39289777239E+02  0.53407906915E+02  0.00000000000E+00 0. -1.
         21    1    1    2  503  502  0.36173537698E+02  0.43942689983E+00  0.46554293443E+03  0.46694640134E+03  0.00000000000E+00 0.  1.
</event>
<event>
 4    1  0.5722454E+002  0.2378891E+02  0.7546771E-02  0.1482822E+00
          2   -1    0    0  502    0  0.00000000000E+00  0.00000000000E+00  0.31209336266E+02  0.31209336266E+02  0.00000000000E+00 0.  1.
         -2   -1    0    0    0  501 -0.00000000000E+00 -0.00000000000E+00 -0.87565919947E+02  0.87565919947E+02  0.00000000000E+00 0. -1.
         21    1    1    2  502  503  0.83774060648E+01 -0.22265021669E+02  0.24704188468E+02  0.34295904277E+02  0.00000000000E+00 0.  1.
         21    1    1    2  503  501 -0.83774060648E+01  0.22265021669E+02 -0.81060772148E+02  0.84479351936E+02  0.00000000000E+00 0. -1.
</event>
<event>
 4    1  0.5722454E+002  0.2291402E+02  0.7546771E-02  0.1493581E+00
          2   -1    0    0  502    0  0.00000000000E+00  0.00000000000E+00  0.11616856581E+03  0.11616856581E+03  0.00000000000E+00 0. -1.
         -2   -1    0    0    0  501 -0.00000000000E+00 -0.00000000000E+00 -0.13345776704E+02  0.13345776704E+02  0.00000000000E+00 0.  1.
         21    1    1    2  502  503  0.58829084974E+01  0.22145958821E+02  0.10407356134E+03  0.10656621545E+03  0.00000000000E+00 0. -1.
         21    1    1    2  503  501 -0.58829084974E+01 -0.22145958821E+02 -0.12507722399E+01  0.22948127063E+02  0.00000000000E+00 0.  1.
</event>
<event>
 4    1  0.5722454E+002  0.2102610E+02  0.7546771E-02  0.1518892E+00
          2   -1    0    0  502    0  0.00000000000E+00  0.00000000000E+00  0.78835751146E+01  0.78835751146E+01  0.00000000000E+00 0. -1.
         -2   -1    0    0    0  501 -0.00000000000E+00 -0.00000000000E+00 -0.10647604295E+03  0.10647604295E+03  0.00000000000E+00 0.  1.
         21    1    1    2  502  503  0.17586391950E+02 -0.11524573909E+02 -0.99573016098E+01  0.23264669371E+02  0.00000000000E+00 0. -1.
         21    1    1    2  503  501 -0.17586391950E+02  0.11524573909E+02 -0.88635166221E+02  0.91094948689E+02  0.00000000000E+00 0.  1.
</event>
<event>
 4    1  0.5722454E+002  0.3305651E+02  0.7546771E-02  0.1394767E+00
          2   -1    0    0  502    0  0.00000000000E+00  0.00000000000E+00  0.66143051204E+02  0.66143051204E+02  0.00000000000E+00 0. -1.
         -2   -1    0    0    0  501 -0.00000000000E+00 -0.00000000000E+00 -0.39069370197E+03  0.39069370197E+03  0.00000000000E+00 0.  1.
         21    1    1    2  502  503 -0.95257331686E+01 -0.31654279582E+02  0.61261474217E+02  0.69611071185E+02  0.00000000000E+00 0. -1.
         21    1    1    2  503  501  0.95257331686E+01  0.31654279582E+02 -0.38581212498E+03  0.38722568199E+03  0.00000000000E+00 0.  1.
</event>
<event>
 4    1  0.5722454E+002  0.3221555E+02  0.7546771E-02  0.1401272E+00
          2   -1    0    0  502    0  0.00000000000E+00  0.00000000000E+00  0.92930009312E+03  0.92930009312E+03  0.00000000000E+00 0.  1.
         -2   -1    0    0    0  501 -0.00000000000E+00 -0.00000000000E+00 -0.11704787967E+01  0.11704787967E+01  0.00000000000E+00 0. -1.
         21    1    1    2  502  503  0.24224091318E+01 -0.32124342879E+02  0.56369616647E+03  0.56461598415E+03  0.00000000000E+00 0.  1.
         21    1    1    2  503  501 -0.24224091318E+01  0.32124342879E+02  0.36443344786E+03  0.36585458776E+03  0.00000000000E+00 0. -1.
</event>
<event>
 4    1  0.5722454E+002  0.2123844E+02  0.7546771E-02  0.1515888E+00
          2   -1    0    0  502    0  0.00000000000E+00  0.00000000000E+00  0.13188666220E+01  0.13188666220E+01  0.00000000000E+00 0.  1.
         -2   -1    0    0    0  501 -0.00000000000E+00 -0.00000000000E+00 -0.34612477984E+03  0.34612477984E+03  0.00000000000E+00 0. -1.
         21    1    1    2  502  503  0.11742768136E+02  0.17696856143E+02 -0.15347162175E+03  0.15493421186E+03  0.00000000000E+00 0. -1.
         21    1    1    2  503  501 -0.11742768136E+02 -0.17696856143E+02 -0.19133429147E+03  0.19250943460E+03  0.00000000000E+00 0.  1.
</event>
<event>
 4    1  0.5722454E+002  0.4364190E+02  0.7546771E-02  0.1328372E+00
          2   -1    0    0  502    0  0.00000000000E+00  0.00000000000E+00  0.57068155057E+03  0.57068155057E+03  0.00000000000E+00 0. -1.
         -2   -1    0    0    0  501 -0.00000000000E+00 -0.00000000000E+00 -0.39249220547E+01  0.39249220547E+01  0.00000000000E+00 0.  1.
         21    1    1    2  502  503 -0.43342182406E+02  0.51059630276E+01  0.39453156615E+03  0.39693799557E+03  0.00000000000E+00 0. -1.
         21    1    1    2  503  501  0.43342182406E+02 -0.51059630276E+01  0.17222506236E+03  0.17766847706E+03  0.00000000000E+00 0.  1.
</event>
<event>
 4    1  0.5722454E+002  0.2826577E+02  0.7546771E-02  0.1435291E+00
          2   -1    0    0  503    0  0.00000000000E+00  0.00000000000E+00  0.59437323403E+03  0.59437323403E+03  0.00000000000E+00 0. -1.
         -2   -1    0    0    0  501 -0.00000000000E+00 -0.00000000000E+00 -0.82187765034E+01  0.82187765034E+01  0.00000000000E+00 0.  1.
         21    1    1    2  502  501  0.26197451086E+02 -0.10613532012E+02  0.17519293354E+02  0.33254761235E+02  0.00000000000E+00 0.  1.
         21    1    1    2  503  502 -0.26197451086E+02  0.10613532012E+02  0.56863516417E+03  0.56933724930E+03  0.00000000000E+00 0. -1.
</event>
<event>
 4    1  0.5722454E+002  0.2105566E+02  0.7546771E-02  0.1518472E+00
          2   -1    0    0  503    0  0.00000000000E+00  0.00000000000E+00  0.24337190445E+02  0.24337190445E+02  0.00000000000E+00 0. -1.
         -2   -1    0    0    0  501 -0.00000000000E+00 -0.00000000000E+00 -0.64416251863E+02  0.64416251863E+02  0.00000000000E+00 0.  1.
         21    1    1    2  502  501  0.43422400189E+00  0.21051177382E+02 -0.57621270690E+02  0.61347790960E+02  0.00000000000E+00 0.  1.
         21    1    1    2  503  502 -0.43422400189E+00 -0.21051177382E+02  0.17542209273E+02  0.27405651348E+02  0.00000000000E+00 0. -1.
</event>
<event>
 4    1  0.5722454E+002  0.2396232E+02  0.7546771E-02  0.1480755E+00
          2   -1    0    0  503    0  0.00000000000E+00  0.00000000000E+00  0.17716743156E+03  0.17716743156E+03  0.00000000000E+00 0.  1.
         -2   -1    0    0    0  501 -0.00000000000E+00 -0.00000000000E+00 -0.34074548812E+01  0.34074548812E+01  0.00000000000E+00 0. -1.
         21    1    1    2  502  501 -0.16622061758E+02  0.17259779660E+02  0.10683766592E+03  0.10949191655E+03  0.00000000000E+00 0.  1.
         21    1    1    2  503  502  0.16622061758E+02 -0.17259779660E+02  0.66922310758E+02  0.71082969889E+02  0.00000000000E+00 0. -1.
</event>
<event>
 4    1  0.5722454E+002  0.2338768E+02  0.7546771E-02  0.1487687E+00
          2   -1    0    0  503    0  0.00000000000E+00  0.00000000000E+00  0.25376598494E+03  0.25376598494E+03  0.00000000000E+00 0. -1.
         -2   -1    0    0    0  501 -0.00000000000E+00 -0.00000000000E+00 -0.33783369361E+01  0.33783369361E+01  0.00000000000E+00 0.  1.
         21    1    1    2  502  501 -0.40476320483E+01 -0.23034758752E+02  0.47839225631E+02  0.53250116854E+02  0.00000000000E+00 0.  1.
         21    1    1    2  503  502  0.40476320483E+01  0.23034758752E+02  0.20254842237E+03  0.20389420502E+03  0.00000000000E+00 0. -1.
</event>
<event>
 4    1  0.5722454E+002  0.2477182E+02  0.7546771E-02  0.1471372E+00
          2   -1    0    0  503    0  0.00000000000E+00  0.00000000000E+00  0.69619979996E+03  0.69619979996E+03  0.00000000000E+00 0. -1.
         -2   -1    0    0    0  501 -0.00000000000E+00 -0.00000000000E+00 -0.14040239458E+01  0.14040239458E+01  0.00000000000E+00 0.  1.
         21    1    1    2  502  501 -0.44811994753E+01 -0.24363124311E+02  0.56020140865E+03  0.56074883970E+03  0.00000000000E+00 0. -1.
         21    1    1    2  503  502  0.44811994753E+01  0.24363124311E+02  0.13459436736E+03  0.13685498420E+03  0.00000000000E+00 0.  1.
</event>
<event>
 4    1  0.5722454E+002  0.2122527E+02  0.7546771E-02  0.1516073E+00
          2   -1    0    0  502    0  0.00000000000E+00  0.00000000000E+00  0.11993558729E+04  0.11993558729E+04  0.00000000000E+00 0. -1.
         -2   -1    0    0    0  501 -0.00000000000E+00 -0.00000000000E+00 -0.37599269929E+00  0.37599269929E+00  0.00000000000E+00 0.  1.
         21    1    1    2  502  503 -0.63925822626E+01 -0.20239736041E+02  0.58081558430E+03  0.58120328198E+03  0.00000000000E+00 0. -1.
         21    1    1    2  503  501  0.63925822626E+01  0.20239736041E+02  0.61816429592E+03  0.61852858363E+03  0.00000000000E+00 0.  1.
</event>
<event>
 4    1  0.5722454E+002  0.2283027E+02  0.7546771E-02  0.1494641E+00
          2   -1    0    0  503    0  0.00000000000E+00  0.00000000000E+00  0.10574087945E+04  0.10574087945E+04  0.00000000000E+00 0.  1.
         -2   -1    0    0    0  501 -0.00000000000E+00 -0.00000000000E+00 -0.66156801958E+00  0.66156801958E+00  0.00000000000E+00 0. -1.
         21    1    1    2  502  501  0.14521361099E+02  0.17616791493E+02  0.26126747211E+03  0.26226306117E+03  0.00000000000E+00 0. -1.
         21    1    1    2  503  502 -0.14521361099E+02 -0.17616791493E+02  0.79547975436E+03  0.79580730134E+03  0.00000000000E+00 0.  1.
</event>
<event>
 4    1  0.5722454E+002  0.2560145E+02  0.7546771E-02  0.1462186E+00
          2   -1    0    0  503    0  0.00000000000E+00  0.00000000000E+00  0.23557398558E+03  0.23557398558E+03  0.00000000000E+00 0. -1.
         -2   -1    0    0    0  501 -0.00000000000E+00 -0.00000000000E+00 -0.16129189448E+02  0.16129189448E+02  0.00000000000E+00 0.  1.
         21    1    1    2  502  501 -0.11435060565E+02  0.22905752726E+02 -0.47610475312E+01  0.26040385781E+02  0.00000000000E+00 0.  1.
         21    1    1    2  503  502  0.11435060565E+02 -0.22905752726E+02  0.22420584366E+03  0.22566278925E+03  0.00000000000E+00 0. -1.
</event>
<event>
 4    1  0.5722454E+002  0.2098680E+02  0.7546771E-02  0.1519453E+00
          2   -1    0    0  502    0  0.00000000000E+00  0.00000000000E+00  0.93366320381E+02  0.93366320381E+02  0.00000000000E+00 0.  1.
         -2   -1    0    0    0  501 -0.00000000000E+00 -0.00000000000E+00 -0.63299739046E+01  0.63299739046E+01  0.00000000000E+00 0. -1.
         21    1    1    2  502  503  0.20972058265E+02 -0.78650217759E+00  0.68678052148E+02  0.71813095326E+02  0.00000000000E+00 0.  1.
         21    1    1    2  503  501 -0.20972058265E+02  0.78650217759E+00  0.18358294329E+02  0.27883198959E+02  0.00000000000E+00 0. -1.
</event>
<event>
 4    1  0.5722454E+002  0.2304967E+02  0.7546771E-02  0.1491875E+00
          2   -1    0    0  503    0  0.00000000000E+00  0.00000000000E+00  0.48184979078E+01  0.48184979078E+01  0.00000000000E+00 0. -1.
         -2   -1    0    0    0  501 -0.00000000000E+00 -0.00000000000E+00 -0.47431057477E+03  0.47431057477E+03  0.00000000000E+00 0.  1.
         21    1    1    2  502  501  0.10861249271E+02 -0.20330290946E+02 -0.44462649443E+03  0.44522354724E+03  0.00000000000E+00 0.  1.
         21    1    1    2  503  502 -0.10861249271E+02  0.20330290946E+02 -0.24865582432E+02  0.33905525440E+02  0.00000000000E+00 0. -1.
</event>
<event>
 4    1  0.5722454E+002  0.2587417E+02  0.7546771E-02  0.1459257E+00
          2   -1    0    0  503    0  0.00000000000E+00  0.00000000000E+00  0.72403688251E+03  0.72403688251E+03  0.00000000000E+00 0.  1.
         -2   -1    0    0    0  501 -0.00000000000E+00 -0.00000000000E+00 -0.22904750687E+01  0.22904750687E+01  0.00000000000E+00 0. -1.
         21    1    1    2  502  501  0.13005474866E+02  0.22368069298E+02  0.80433903035E+02  0.84493110122E+02  0.00000000000E+00 0. -1.
         21    1    1    2  503  502 -0.13005474866E+02 -0.22368069298E+02  0.64131250441E+03  0.64183424746E+03  0.00000000000E+00 0.  1.
</event>
<event>
 4    1  0.5722454E+002  0.5381532E+02  0.7546771E-02  0.1282427E+00
          2   -1    0    0  502    0  0.00000000000E+00  0.00000000000E+00  0.76083213703E+02  0.76083213703E+02  0.00000000000E+00 0.  1.
         -2   -1    0    0    0  501 -0.00000000000E+00 -0.00000000000E+00 -0.43446124773E+02  0.43446124773E+02  0.00000000000E+00 0. -1.
         21    1    1    2  502  503 -0.19727451183E+02 -0.50069111059E+02  0.37352249250E+02  0.65507852479E+02  0.00000000000E+00 0.  1.
         21    1    1    2  503  501  0.19727451183E+02  0.50069111059E+02 -0.47151603202E+01  0.54021485997E+02  0.00000000000E+00 0. -1.
</event>
<event>
 4    1  0.5722454E+002  0.3180641E+02  0.7546771E-02  0.1404522E+00
          2   -1    0    0  502    0  0.00000000000E+00  0.00000000000E+00  0.11205314162E+03  0.11205314162E+03  0.00000000000E+00 0. -1.
         -2   -1    0    0    0  501 -0.00000000000E+00 -0.00000000000E+00 -0.10712391554E+02  0.10712391554E+02  0.00000000000E+00 0.  1.
         21    1    1    2  502  503 -0.30164390506E+02  0.10087480598E+02  0.75008549350E+02  0.81473493819E+02  0.00000000000E+00 0. -1.
         21    1    1    2  503  501  0.30164390506E+02 -0.10087480598E+02  0.26332200711E+02  0.41292039350E+02  0.00000000000E+00 0.  1.
</event>
<event>
 4    1  0.5722454E+002  0.5622072E+02  0.7546771E-02  0.1273244E+00
          2   -1    0    0  503    0  0.00000000000E+00  0.00000000000E+00  0.35380894748E+03  0.35380894748E+03  0.00000000000E+00 0. -1.
         -2   -1    0    0    0  501 -0.00000000000E+00 -0.00000000000E+00 -0.50127659279E+02  0.50127659279E+02  0.00000000000E+00 0.  1.
         21    1    1    2  502  501 -0.46379190916E+02 -0.31776404252E+02 -0.31248280296E+02  0.64321258062E+02  0.00000000000E+00 0.  1.
         21    1    1    2  503  502  0.46379190916E+02  0.31776404252E+02  0.33492956850E+03  0.33961534870E+03  0.00000000000E+00 0. -1.
</event>
<event>
 4    1  0.5722454E+002  0.2025669E+02  0.7546771E-02  0.1530147E+00
          2   -1    0    0  502    0  0.00000000000E+00  0.00000000000E+00  0.14098003505E+04  0.14098003505E+04  0.00000000000E+00 0. -1.
         -2   -1    0    0    0  501 -0.00000000000E+00 -0.00000000000E+00 -0.33140114301E+00  0.33140114301E+00  0.00000000000E+00 0.  1.
         21    1    1    2  502  503  0.19676384693E+02  0.48138628716E+01  0.95073646972E+03  0.95095224288E+03  0.00000000000E+00 0. -1.
         21    1    1    2  503  501 -0.19676384693E+02 -0.48138628716E+01  0.45873247966E+03  0.45917950878E+03  0.00000000000E+00 0.  1.
</event>
<event>
 4    1  0.5722454E+002  0.2891952E+02  0.7546771E-02  0.1429224E+00
          2   -1    0    0  502    0  0.00000000000E+00  0.00000000000E+00  0.24854199657E+03  0.24854199657E+03  0.00000000000E+00 0. -1.
         -2   -1    0    0    0  501 -0.00000000000E+00 -0.00000000000E+00 -0.45095007738E+01  0.45095007738E+01  0.00000000000E+00 0.  1.
         21    1    1    2  502  503 -0.10600701839E+02  0.26906571769E+02  0.18575841147E+03  0.18799607952E+03  0.00000000000E+00 0. -1.
         21    1    1    2  503  501  0.10600701839E+02 -0.26906571769E+02  0.58274084321E+02  0.65055417816E+02  0.00000000000E+00 0.  1.
</event>
<event>
 4    1  0.5722454E+002  0.2210194E+02  0.7546771E-02  0.1504094E+00
          2   -1    0    0  503    0  0.00000000000E+00  0.00000000000E+00  0.92939548171E+01  0.92939548171E+01  0.00000000000E+00 0. -1.
         -2   -1    0    0    0  501 -0.00000000000E+00 -0.00000000000E+00 -0.11814293832E+03  0.11814293832E+03  0.00000000000E+00 0.  1.
         21    1    1    2  502  501 -0.19666066175E+02 -0.10086702867E+02 -0.10189837774E+03  0.10426780481E+03  0.00000000000E+00 0.  1.
         21    1    1    2  503  502  0.19666066175E+02  0.10086702867E+02 -0.69506057631E+01  0.23169088329E+02  0.00000000000E+00 0. -1.
</event>
<event>
 4    1  0.5722454E+002  0.3287612E+02  0.7546771E-02  0.1396143E+00
          2   -1    0    0  502    0  0.00000000000E+00  0.00000000000E+00  0.13924704569E+03  0.13924704569E+03  0.00000000000E+00 0.  1.
         -2   -1    0    0    0  501 -0.00000000000E+00 -0.00000000000E+00 -0.12887985024E+02  0.12887985024E+02  0.00000000000E+00 0. -1.
         21    1    1    2  502  503 -0.21398997957E+02  0.24958412941E+02  0.11115223374E+03  0.11591228820E+03  0.00000000000E+00 0.  1.
         21    1    1    2  503  501  0.21398997957E+02 -0.24958412941E+02  0.15206826926E+02  0.36222742514E+02  0.00000000000E+00 0. -1.
</event>
<event>
 4    1  0.5722454E+002  0.2160754E+02  0.7546771E-02  0.1510765E+00
          2   -1    0    0  503    0  0.00000000000E+00  0.00000000000E+00  0.28602750569E+03  0.28602750569E+03  0.00000000000E+00 0. -1.
         -2   -1    0    0    0  501 -0.00000000000E+00 -0.00000000000E+00 -0.21345278594E+01  0.21345278594E+01  0.00000000000E+00 0.  1.
         21    1    1    2  502  501 -0.19221041847E+02 -0.98710286418E+01  0.72058623092E+02  0.75228523966E+02  0.00000000000E+00 0.  1.
         21    1    1    2  503  502  0.19221041847E+02  0.98710286418E+01  0.21183435474E+03  0.21293350959E+03  0.00000000000E+00 0. -1.
</event>
<event>
 4    1  0.5722454E+002  0.2088350E+02  0.7546771E-02  0.1520935E+00
          2   -1    0    0  503    0  0.00000000000E+00  0.00000000000E+00  0.11386845326E+02  0.11386845326E+02  0.00000000000E+00 0. -1.
         -2   -1    0    0    0  501 -0.00000000000E+00 -0.00000000000E+00 -0.42107849932E+02  0.42107849932E+02  0.00000000000E+00 0.  1.
         21    1    1    2  502  501 -0.13117475265E+02  0.16249684279E+02 -0.73175042484E+01  0.22128404030E+02  0.00000000000E+00 0.  1.
         21    1    1    2  503  502  0.13117475265E+02 -0.16249684279E+02 -0.23403500357E+02  0.31366291228E+02  0.00000000000E+00 0. -1.
</event>
<event>
 4    1  0.5722454E+002  0.2124422E+02  0.7546771E-02  0.1515806E+00
          2   -1    0    0  503    0  0.00000000000E+00  0.00000000000E+00  0.16748161127E+03  0.16748161127E+03  0.00000000000E+00 0.  1.
         -2   -1    0    0    0  501 -0.00000000000E+00 -0.00000000000E+00 -0.40902480950E+01  0.40902480950E+01  0.00000000000E+00 0. -1.
         21    1    1    2  502  501  0.14954320885E+01 -0.21191517080E+02  0.31587353745E+02  0.38066752290E+02  0.00000000000E+00 0. -1.
         21    1    1    2  503  502 -0.14954320885E+01  0.21191517080E+02  0.13180400943E+03  0.13350510707E+03  0.00000000000E+00 0.  1.
</event>
<event>
 4    1  0.5722454E+002  0.3064146E+02  0.7546771E-02  0.1414102E+00
          2   -1    0    0  502    0  0.00000000000E+00  0.00000000000E+00  0.46484202346E+02  0.46484202346E+02  0.00000000000E+00 0.  1.
         -2   -1    0    0    0  501 -0.00000000000E+00 -0.00000000000E+00 -0.25090477196E+02  0.25090477196E+02  0.00000000000E+00 0. -1.
         21    1    1    2  502  503  0.11825721852E+02  0.28267498149E+02 -0.51057407343E+01  0.31063929844E+02  0.00000000000E+00 0. -1.
         21    1    1    2  503  501 -0.11825721852E+02 -0.28267498149E+02  0.26499465885E+02  0.40510749698E+02  0.00000000000E+00 0.  1.
</event>
<event>
 4    1  0.5722454E+002  0.2473447E+02  0.7546771E-02  0.1471796E+00
          2   -1    0    0  502    0  0.00000000000E+00  0.00000000000E+00  0.51035633017E+03  0.51035633017E+03  0.00000000000E+00 0.  1.
         -2   -1    0    0    0  501 -0.00000000000E+00 -0.00000000000E+00 -0.12025727406E+01  0.12025727406E+01  0.00000000000E+00 0. -1.
         21    1    1    2  502  503  0.24305082327E+02 -0.45888062878E+01  0.26898123296E+03  0.27011608219E+03  0.00000000000E+00 0. -1.
         21    1    1    2  503  501 -0.24305082327E+02  0.45888062878E+01  0.24017252446E+03  0.24144282072E+03  0.00000000000E+00 0.  1.
</event>
<event>
 4    1  0.5722454E+002  0.2125890E+02  0.7546771E-02  0.1515600E+00
          2   -1    0    0  502    0  0.00000000000E+00  0.00000000000E+00  0.73889025809E+03  0.73889025809E+03  0.00000000000E+00 0. -1.
         -2   -1    0    0    0  501 -0.00000000000E+00 -0.00000000000E+00 -0.76964907774E+00  0.76964907774E+00  0.00000000000E+00 0.  1.
         21    1    1    2  502  503  0.50078968444E+01 -0.20660639098E+02  0.20149457897E+03  0.20261294725E+03  0.00000000000E+00 0.  1.
         21    1    1    2  503  501 -0.50078968444E+01  0.20660639098E+02  0.53662603004E+03  0.53704695992E+03  0.00000000000E+00 0. -1.
</event>
<event>
 4    1  0.5722454E+002  0.2194490E+02  0.7546771E-02  0.1506190E+00
          2   -1    0    0  503    0  0.00000000000E+00  0.00000000000E+00  0.11720950632E+04  0.11720950632E+04  0.00000000000E+00 0.  1.
         -2   -1    0    0    0  501 -0.00000000000E+00 -0.00000000000E+00 -0.41466145140E+00  0.41466145140E+00  0.00000000000E+00 0. -1.
         21    1    1    2  502  501  0.24769870813E+01  0.21804662993E+02  0.64189822015E+03  0.64227323144E+03  0.00000000000E+00 0.  1.
         21    1    1    2  503  502 -0.24769870813E+01 -0.21804662993E+02  0.52978218157E+03  0.53023649318E+03  0.00000000000E+00 0. -1.
</event>
<event>
 4    1  0.5722454E+002  0.2542096E+02  0.7546771E-02  0.1464149E+00
          2   -1    0    0  502    0  0.00000000000E+00  0.00000000000E+00  0.67429123439E+01  0.67429123439E+01  0.00000000000E+00 0.  1.
         -2   -1    0    0    0  501 -0.00000000000E+00 -0.00000000000E+00 -0.21081185061E+03  0.21081185061E+03  0.00000000000E+00 0. -1.
         21    1    1    2  502  503  0.24691410823E+02 -0.60464479855E+01 -0.21701990145E+02  0.33424566982E+02  0.00000000000E+00 0.  1.
         21    1    1    2  503  501 -0.24691410823E+02  0.60464479855E+01 -0.18236694812E+03  0.18413019597E+03  0.00000000000E+00 0. -1.
</event>
<event>
 4    1  0.5722454E+002  0.2190086E+02  0.7546771E-02  0.1506781E+00
          2   -1    0    0  503    0  0.00000000000E+00  0.00000000000E+00  0.36229965999E+03  0.36229965999E+03  0.00000000000E+00 0. -1.
         -2   -1    0    0    0  501 -0.00000000000E+00 -0.00000000000E+00 -0.36459203442E+01  0.36459203442E+01  0.00000000000E+00 0.  1.
         21    1    1    2  502  501 -0.10442343993E+02  0.19251103830E+02  0.33305578709E+02  0.39861122913E+02  0.00000000000E+00 0.  1.
         21    1    1    2  503  502  0.10442343993E+02 -0.19251103830E+02  0.32534816093E+03  0.32608445742E+03  0.00000000000E+00 0. -1.
</event>
<event>
 4    1  0.5722454E+002  0.2449020E+02  0.7546771E-02  0.1474588E+00
          2   -1    0    0  502    0  0.00000000000E+00  0.00000000000E+00  0.78669049247E+01  0.78669049247E+01  0.00000000000E+00 0.  1.
         -2   -1    0    0    0  501 -0.00000000000E+00 -0.00000000000E+00 -0.16537655461E+03  0.16537655461E+03  0.00000000000E+00 0. -1.
         21    1    1    2  502  503  0.50228653645E+00  0.24485050215E+02 -0.15160452097E+02  0.28802938801E+02  0.00000000000E+00 0.  1.
         21    1    1    2  503  501 -0.50228653645E+00 -0.24485050215E+02 -0.14234919758E+03  0.14444052073E+03  0.00000000000E+00 0. -1.
</event>
<event>
 4    1  0.5722454E+002  0.2024656E+02  0.7546771E-02  0.1530299E+00
          2   -1    0    0  502    0  0.00000000000E+00  0.00000000000E+00  0.94709813242E+03  0.94709813242E+03  0.00000000000E+00 0.  1.
         -2   -1    0    0    0  501 -0.00000000000E+00 -0.00000000000E+00 -0.56381336579E+00  0.56381336579E+00  0.00000000000E+00 0. -1.
         21    1    1    2  502  503  0.40793172242E+01  0.19831344943E+02  0.70165885687E+03  0.70195090604E+03  0.00000000000E+00 0.  1.
         21    1    1    2  503  501 -0.40793172242E+01 -0.19831344943E+02  0.24487546219E+03  0.24571103974E+03  0.00000000000E+00 0. -1.
</event>
<event>
 4    1  0.5722454E+002  0.2017930E+02  0.7546771E-02  0.1531312E+00
          2   -1    0    0  502    0  0.00000000000E+00  0.00000000000E+00  0.17103686941E+03  0.17103686941E+03  0.00000000000E+00 0.  1.
         -2   -1    0    0    0  501 -0.00000000000E+00 -0.00000000000E+00 -0.17385068738E+02  0.17385068738E+02  0.00000000000E+00 0. -1.
         21    1    1    2  502  503  0.14906420800E+02 -0.13601571700E+02  0.16434860293E+03  0.16558281136E+03  0.00000000000E+00 0.  1.
         21    1    1    2  503  501 -0.14906420800E+02  0.13601571700E+02 -0.10696802258E+02  0.22839126786E+02  0.00000000000E+00 0. -1.
</event>
<event>
 4    1  0.5722454E+002  0.4387907E+02  0.7546771E-02  0.1327140E+00
          2   -1    0    0  503    0  0.00000000000E+00  0.00000000000E+00  0.12914079281E+03  0.12914079281E+03  0.00000000000E+00 0. -1.
         -2   -1    0    0    0  501 -0.00000000000E+00 -0.00000000000E+00 -0.28125152481E+02  0.28125152481E+02  0.00000000000E+00 0.  1.
         21    1    1    2  502  501  0.17625661497E+02 -0.40183438758E+02 -0.33945878033E+01  0.44010179731E+02  0.00000000000E+00 0.  1.
         21    1    1    2  503  502 -0.17625661497E+02  0.40183438758E+02  0.10441022813E+03  0.11325576556E+03  0.00000000000E+00 0. -1.
</event>
<event>
 4    1  0.5722454E+002  0.2398443E+02  0.7546771E-02  0.1480493E+00
          2   -1    0    0  502    0  0.00000000000E+00  0.00000000000E+00  0.12013068562E+04  0.12013068562E+04  0.00000000000E+00 0.  1.
         -2   -1    0    0    0  501 -0.00000000000E+00 -0.00000000000E+00 -0.12738863426E+01  0.12738863426E+01  0.00000000000E+00 0. -1.
         21    1    1    2  502  503  0.22348692826E+02  0.87056694128E+01  0.10750353047E+04  0.10753028220E+04  0.00000000000E+00 0.  1.
         21    1    1    2  503  501 -0.22348692826E+02 -0.87056694128E+01  0.12499766518E+03  0.12727792051E+03  0.00000000000E+00 0. -1.
</event>
<event>
 4    1  0.5722454E+002  0.2550807E+02  0.7546771E-02  0.1463199E+00
          2   -1    0    0  503    0  0.00000000000E+00  0.00000000000E+00  0.46799982986E+02  0.46799982986E+02  0.00000000000E+00 0.  1.
         -2   -1    0    0    0  501 -0.00000000000E+00 -0.00000000000E+00 -0.94330205288E+02  0.94330205288E+02  0.00000000000E+00 0. -1.
         21    1    1    2  502  501 -0.25261910613E+02 -0.35351544781E+01 -0.88922841867E+02  0.92509098205E+02  0.00000000000E+00 0. -1.
         21    1    1    2  503  502  0.25261910613E+02  0.35351544781E+01  0.41392619565E+02  0.48621090069E+02  0.00000000000E+00 0.  1.
</event>
<event>
 4    1  0.5722454E+002  0.2143846E+02  0.7546771E-02  0.1513096E+00
          2   -1    0    0  503    0  0.00000000000E+00  0.00000000000E+00  0.29616029760E+03  0.29616029760E+03  0.00000000000E+00 0.  1.
         -2   -1    0    0    0  501 -0.00000000000E+00 -0.00000000000E+00 -0.66984533583E+01  0.66984533583E+01  0.00000000000E+00 0. -1.
         21    1    1    2  502  501 -0.13144743443E+02 -0.16935855255E+02  0.11997091414E+02  0.24567003802E+02  0.00000000000E+00 0. -1.
         21    1    1    2  503  502  0.13144743443E+02  0.16935855255E+02  0.27746475283E+03  0.27829174716E+03  0.00000000000E+00 0.  1.
</event>
<event>
 4    1  0.5722454E+002  0.2526551E+02  0.7546771E-02  0.1465855E+00
          2   -1    0    0  503    0  0.00000000000E+00  0.00000000000E+00  0.91709046538E+03  0.91709046538E+03  0.00000000000E+00 0.  1.
         -2   -1    0    0    0  501 -0.00000000000E+00 -0.00000000000E+00 -0.69639099793E+00  0.69639099793E+00  0.00000000000E+00 0. -1.
         21    1    1    2  502  501  0.13922480711E+02  0.21083415495E+02  0.44812495813E+03  0.44883663395E+03  0.00000000000E+00 0. -1.
         21    1    1    2  503  502 -0.13922480711E+02 -0.21083415495E+02  0.46826911626E+03  0.46895022243E+03  0.00000000000E+00 0.  1.
</event>
<event>
 4    1  0.5722454E+002  0.2039492E+02  0.7546771E-02  0.1528082E+00
          2   -1    0    0  503    0  0.00000000000E+00  0.00000000000E+00  0.14104004915E+04  0.14104004915E+04  0.00000000000E+00 0. -1.
         -2   -1    0    0    0  501 -0.00000000000E+00 -0.00000000000E+00 -0.47804795497E+00  0.47804795497E+00  0.00000000000E+00 0.  1.
         21    1    1    2  502  501 -0.20319128855E+02 -0.17565938325E+01  0.26834136087E+03  0.26911528863E+03  0.00000000000E+00 0.  1.
         21    1    1    2  503  502  0.20319128855E+02  0.17565938325E+01  0.11415810826E+04  0.11417632508E+04  0.00000000000E+00 0. -1.
</event>
<event>
 4    1  0.5722454E+002  0.3849473E+02  0.7546771E-02  0.1357540E+00
          2   -1    0    0  502    0  0.00000000000E+00  0.00000000000E+00  0.12475356324E+04  0.12475356324E+04  0.00000000000E+00 0. -1.
         -2   -1    0    0    0  501 -0.00000000000E+00 -0.00000000000E+00 -0.25005961173E+01  0.25005961173E+01  0.00000000000E+00 0.  1.
         21    1    1    2  502  503  0.34182821367E+02  0.17702518725E+02  0.10753802718E+04  0.10760690375E+04  0.00000000000E+00 0. -1.
         21    1    1    2  503  501 -0.34182821367E+02 -0.17702518725E+02  0.16965476449E+03  0.17396719104E+03  0.00000000000E+00 0.  1.
</event>
<event>
 4    1  0.5722454E+002  0.2326994E+02  0.7546771E-02  0.1489136E+00
          2   -1    0    0  503    0  0.00000000000E+00  0.00000000000E+00  0.81108346425E+03  0.81108346425E+03  0.00000000000E+00 0. -1.
         -2   -1    0    0    0  501 -0.00000000000E+00 -0.00000000000E+00 -0.15582338026E+01  0.15582338026E+01  0.00000000000E+00 0.  1.
         21    1    1    2  502  501  0.85348655560E+00  0.23254283750E+02  0.97578235717E+02  0.10031451658E+03  0.00000000000E+00 0.  1.
         21    1    1    2  503  502 -0.85348655560E+00 -0.23254283750E+02  0.71194699474E+03  0.71232718147E+03  0.00000000000E+00 0. -1.
</event>
<event>
 4    1  0.5722454E+002  0.2571281E+02  0.7546771E-02  0.1460985E+00
          2   -1    0    0  503    0  0.00000000000E+00  0.00000000000E+00  0.14079478429E+04  0.14079478429E+04  0.00000000000E+00 0.  1.
         -2   -1    0    0    0  501 -0.00000000000E+00 -0.00000000000E+00 -0.55908399920E+00  0.55908399920E+00  0.00000000000E+00 0. -1.
         21    1    1    2  502  501 -0.25077280939E+02 -0.56814121714E+01  0.42191822100E+03  0.42270099796E+03  0.00000000000E+00 0. -1.
         21    1    1    2  503  502  0.25077280939E+02  0.56814121714E+01  0.98547053794E+03  0.98580592898E+03  0.00000000000E+00 0.  1.
</event>
<event>
 4    1  0.5722454E+002  0.2054630E+02  0.7546771E-02  0.1525842E+00
          2   -1    0    0  502    0  0.00000000000E+00  0.00000000000E+00  0.37734728834E+02  0.37734728834E+02  0.00000000000E+00 0.  1.
         -2   -1    0    0    0  501 -0.00000000000E+00 -0.00000000000E+00 -0.16082693662E+02  0.16082693662E+02  0.00000000000E+00 0. -1.
         21    1    1    2  502  503  0.10880434485E+02 -0.17428897362E+02  0.25671920814E+02  0.32881572897E+02  0.00000000000E+00 0.  1.
         21    1    1    2  503  501 -0.10880434485E+02  0.17428897362E+02 -0.40198856421E+01  0.20935849599E+02  0.00000000000E+00 0. -1.
</event>
<event>
 4    1  0.5722454E+002  0.2524754E+02  0.7546771E-02  0.1466053E+00
          2   -1    0    0  503    0  0.00000000000E+00  0.00000000000E+00  0.86035157677E+02  0.86035157677E+02  0.00000000000E+00 0.  1.
         -2   -1    0    0    0  501 -0.00000000000E+00 -0.00000000000E+00 -0.11669878158E+02  0.11669878158E+02  0.00000000000E+00 0. -1.
         21    1    1    2  502  501  0.15897855557E+02 -0.19613679197E+02  0.76636741978E+01  0.26385036008E+02  0.00000000000E+00 0. -1.
         21    1    1    2  503  502 -0.15897855557E+02  0.19613679197E+02  0.66701605321E+02  0.71319999827E+02  0.00000000000E+00 0.  1.
</event>
<event>
 4    1  0.5722454E+002  0.2426588E+02  0.7546771E-02  0.1477186E+00
          2   -1    0    0  503    0  0.00000000000E+00  0.00000000000E+00  0.89130230077E+03  0.89130230077E+03  0.00000000000E+00 0.  1.
         -2   -1    0    0    0  501 -0.00000000000E+00 -0.00000000000E+00 -0.14110551627E+01  0.14110551627E+01  0.00000000000E+00 0. -1.
         21    1    1    2  502  501  0.19965958093E+02 -0.13791061443E+02  0.11943894888E+03  0.12187901939E+03  0.00000000000E+00 0. -1.
         21    1    1    2  503  502 -0.19965958093E+02  0.13791061443E+02  0.77045229673E+03  0.77083433655E+03  0.00000000000E+00 0.  1.
</event>
<event>
 4    1  0.5722454E+002  0.2033722E+02  0.7546771E-02  0.1528942E+00
          2   -1    0    0  503    0  0.00000000000E+00  0.00000000000E+00  0.26800774712E+01  0.26800774712E+01  0.00000000000E+00 0.  1.
         -2   -1    0    0    0  501 -0.00000000000E+00 -0.00000000000E+00 -0.22495175557E+03  0.22495175557E+03  0.00000000000E+00 0. -1.
         21    1    1    2  502  501  0.20245719705E+02 -0.19270402690E+01 -0.17490978433E+03  0.17608814640E+03  0.00000000000E+00 0. -1.
         21    1    1    2  503  502 -0.20245719705E+02  0.19270402690E+01 -0.47361893776E+02  0.51543686642E+02  0.00000000000E+00 0.  1.
</event>
<event>
 4    1  0.5722454E+002  0.2373940E+02  0.7546771E-02  0.1483416E+00
          2   -1    0    0  503    0  0.00000000000E+00  0.00000000000E+00  0.67460736704E+02  0.67460736704E+02  0.00000000000E+00 0. -1.
         -2   -1    0    0    0  501 -0.00000000000E+00 -0.00000000000E+00 -0.85743423271E+01  0.85743423271E+01  0.00000000000E+00 0.  1.
         21    1    1    2  502  501 -0.23060585599E+02 -0.56363453545E+01  0.23347135410E+02  0.33296362099E+02  0.00000000000E+00 0.  1.
         21    1    1    2  503  502  0.23060585599E+02  0.56363453545E+01  0.35539258967E+02  0.42738716933E+02  0.00000000000E+00 0. -1.
</event>
<event>
 4    1  0.5722454E+002  0.3676352E+02  0.7546771E-02  0.1368572E+00
          2   -1    0    0  502    0  0.00000000000E+00  0.00000000000E+00  0.27329519609E+03  0.27329519609E+03  0.00000000000E+00 0.  1.
         -2   -1    0    0    0  501 -0.00000000000E+00 -0.00000000000E+00 -0.74269344618E+01  0.74269344618E+01  0.00000000000E+00 0. -1.
         21    1    1    2  502  503 -0.35446990141E+02 -0.97502273107E+01  0.21406784939E+03  0.21720174996E+03  0.00000000000E+00 0.  1.
         21    1    1    2  503  501  0.35446990141E+02  0.97502273107E+01  0.51800412241E+02  0.63520380596E+02  0.00000000000E+00 0. -1.
</event>
<event>
 4    1  0.5722454E+002  0.2127806E+02  0.7546771E-02  0.1515332E+00
          2   -1    0    0  503    0  0.00000000000E+00  0.00000000000E+00  0.10872021144E+02  0.10872021144E+02  0.00000000000E+00 0.  1.
         -2   -1    0    0    0  501 -0.00000000000E+00 -0.00000000000E+00 -0.52180047937E+03  0.52180047937E+03  0.00000000000E+00 0. -1.
         21    1    1    2  502  501  0.15603948849E+02  0.14466263328E+02 -0.51095156443E+03  0.51139442428E+03  0.00000000000E+00 0. -1.
         21    1    1    2  503  502 -0.15603948849E+02 -0.14466263328E+02  0.23106200314E-01  0.21278076235E+02  0.00000000000E+00 0.  1.
</event>
<event>
 4    1  0.5722454E+002  0.2264494E+02  0.7546771E-02  0.1497005E+00
          2   -1    0    0  503    0  0.00000000000E+00  0.00000000000E+00  0.95475137756E+02  0.95475137756E+02  0.00000000000E+00 0.  1.
         -2   -1    0    0    0  501 -0.00000000000E+00 -0.00000000000E+00 -0.58281142596E+01  0.58281142596E+01  0.00000000000E+00 0. -1.
         21    1    1    2  502  501 -0.39561390562E+01  0.22296684577E+02  0.59009532198E+02  0.63205364247E+02  0.00000000000E+00 0.  1.
         21    1    1    2  503  502  0.39561390562E+01 -0.22296684577E+02  0.30637491298E+02  0.38097887768E+02  0.00000000000E+00 0. -1.
</event>
<event>
 4    1  0.5722454E+002  0.2122202E+02  0.7546771E-02  0.1516119E+00
          2   -1    0    0  503    0  0.00000000000E+00  0.00000000000E+00  0.10389907721E+03  0.10389907721E+03  0.00000000000E+00 0.  1.
         -2   -1    0    0    0  501 -0.00000000000E+00 -0.00000000000E+00 -0.50465328544E+01  0.50465328544E+01  0.00000000000E+00 0. -1.
         21    1    1    2  502  501 -0.20424254495E+02  0.57640074605E+01  0.69884334534E+02  0.73035567821E+02  0.00000000000E+00 0.  1.
         21    1    1    2  503  502  0.20424254495E+02 -0.57640074605E+01  0.28968209826E+02  0.35910042247E+02  0.00000000000E+00 0. -1.
</event>
<event>
 4    1  0.5722454E+002  0.3914117E+02  0.7546771E-02  0.1353593E+00
          2   -1    0    0  503    0  0.00000000000E+00  0.00000000000E+00  0.25649487084E+04  0.25649487084E+04  0.00000000000E+00 0.  1.
         -2   -1    0    0    0  501 -0.00000000000E+00 -0.00000000000E+00 -0.60755298751E+00  0.60755298751E+00  0.00000000000E+00 0. -1.
         21    1    1    2  502  501 -0.35766522924E+02  0.15899267313E+02  0.11154873124E+04  0.11161738104E+04  0.00000000000E+00 0. -1.
         21    1    1    2  503  502  0.35766522924E+02 -0.15899267313E+02  0.14488538430E+04  0.14493824510E+04  0.00000000000E+00 0.  1.
</event>
<event>
 4    1  0.5722454E+002  0.2377058E+02  0.7546771E-02  0.1483042E+00
          2   -1    0    0  502    0  0.00000000000E+00  0.00000000000E+00  0.44405190207E+02  0.44405190207E+02  0.00000000000E+00 0.  1.
         -2   -1    0    0    0  501 -0.00000000000E+00 -0.00000000000E+00 -0.15510961737E+02  0.15510961737E+02  0.00000000000E+00 0. -1.
         21    1    1    2  502  503 -0.11363887323E+01  0.23743396161E+02  0.27144370013E+02  0.36081256408E+02  0.00000000000E+00 0.  1.
         21    1    1    2  503  501  0.11363887323E+01 -0.23743396161E+02  0.17498584569E+01  0.23834895536E+02  0.00000000000E+00 0. -1.
</event>
<event>
 4    1  0.5722454E+002  0.2026032E+02  0.7546771E-02  0.1530093E+00
          2   -1    0    0  502    0  0.00000000000E+00  0.00000000000E+00  0.48944343424E+02  0.48944343424E+02  0.00000000000E+00 0.  1.
         -2   -1    0    0    0  501 -0.00000000000E+00 -0.00000000000E+00 -0.13049889049E+02  0.13049889049E+02  0.00000000000E+00 0. -1.
         21    1    1    2  502  503 -0.16557933303E+02  0.11675427750E+02  0.36476574136E+02  0.41725546481E+02  0.00000000000E+00 0. -1.
         21    1    1    2  503  501  0.16557933303E+02 -0.11675427750E+02 -0.58211976115E+00  0.20268685992E+02  0.00000000000E+00 0.  1.
</event>
<event>
 4    1  0.5722454E+002  0.4946558E+02  0.7546771E-02  0.1300506E+00
          2   -1    0    0  503    0  0.00000000000E+00  0.00000000000E+00  0.33915875847E+03  0.33915875847E+03  0.00000000000E+00 0. -1.
         -2   -1    0    0    0  501 -0.00000000000E+00 -0.00000000000E+00 -0.11199058561E+02  0.11199058561E+02  0.00000000000E+00 0.  1.
         21    1    1    2  502  501  0.42870592072E+02  0.24677037693E+02  0.59487643864E+02  0.77366812177E+02  0.00000000000E+00 0.  1.
         21    1    1    2  503  502 -0.42870592072E+02 -0.24677037693E+02  0.26847205604E+03  0.27299100485E+03  0.00000000000E+00 0. -1.
</event>
<event>
 4    1  0.5722454E+002  0.2157402E+02  0.7546771E-02  0.1511225E+00
          2   -1    0    0  502    0  0.00000000000E+00  0.00000000000E+00  0.10512091797E+04  0.10512091797E+04  0.00000000000E+00 0. -1.
         -2   -1    0    0    0  501 -0.00000000000E+00 -0.00000000000E+00 -0.75524765969E+00  0.75524765969E+00  0.00000000000E+00 0.  1.
         21    1    1    2  502  503  0.19973882971E+02 -0.81536747223E+01  0.86355615769E+03  0.86382560503E+03  0.00000000000E+00 0. -1.
         21    1    1    2  503  501 -0.19973882971E+02  0.81536747223E+01  0.18689777435E+03  0.18813882233E+03  0.00000000000E+00 0.  1.
</event>
<event>
 4    1  0.5722454E+002  0.4176768E+02  0.7546771E-02  0.1338427E+00
          2   -1    0    0  502    0  0.00000000000E+00  0.00000000000E+00  0.22634724827E+03  0.22634724827E+03  0.00000000000E+00 0. -1.
         -2   -1    0    0    0  501 -0.00000000000E+00 -0.00000000000E+00 -0.12252140458E+02  0.12252140458E+02  0.00000000000E+00 0.  1.
         21    1    1    2  502  503  0.41749889803E+02  0.12190168237E+01  0.17970663350E+03  0.18449664882E+03  0.00000000000E+00 0.  1.
         21    1    1    2  503  501 -0.41749889803E+02 -0.12190168237E+01  0.34388474318E+02  0.54102739917E+02  0.00000000000E+00 0. -1.
</event>
<event>
 4    1  0.5722454E+002  0.4228588E+02  0.7546771E-02  0.1335587E+00
          2   -1    0    0  503    0  0.00000000000E+00  0.00000000000E+00  0.13101499429E+03  0.13101499429E+03  0.00000000000E+00 0.  1.
         -2   -1    0    0    0  501 -0.00000000000E+00 -0.00000000000E+00 -0.23862550075E+02  0.23862550075E+02  0.00000000000E+00 0. -1.
         21    1    1    2  502  501 -0.26163625837E+02  0.33219878003E+02  0.10424135326E+03  0.11249157898E+03  0.00000000000E+00 0.  1.
         21    1    1    2  503  502  0.26163625837E+02 -0.33219878003E+02  0.29110909590E+01  0.42385965390E+02  0.00000000000E+00 0. -1.
</event>
<event>
 4    1  0.5722454E+002  0.3477101E+02  0.7546771E-02  0.1382180E+00
          2   -1    0    0  502    0  0.00000000000E+00  0.00000000000E+00  0.41709704147E+01  0.41709704147E+01  0.00000000000E+00 0. -1.
         -2   -1    0    0    0  501 -0.00000000000E+00 -0.00000000000E+00 -0.46138165500E+03  0.46138165500E+03  0.00000000000E+00 0.  1.
         21    1    1    2  502  503  0.31267710776E+02 -0.15210301708E+02 -0.86679868404E+02  0.93393910946E+02  0.00000000000E+00 0. -1.
         21    1    1    2  503  501 -0.31267710776E+02  0.15210301708E+02 -0.37053081618E+03  0.37215871447E+03  0.00000000000E+00 0.  1.
</event>
<event>
 4    1  0.5722454E+002  0.3539343E+02  0.7546771E-02  0.1377818E+00
          2   -1    0    0  503    0  0.00000000000E+00  0.00000000000E+00  0.13415726453E+03  0.13415726453E+03  0.00000000000E+00 0.  1.
         -2   -1    0    0    0  501 -0.00000000000E+00 -0.00000000000E+00 -0.28760923287E+02  0.28760923287E+02  0.00000000000E+00 0. -1.
         21    1    1    2  502  501  0.32459479853E+02 -0.14109465167E+02 -0.14244176479E+02  0.38152213608E+02  0.00000000000E+00 0. -1.
         21    1    1    2  503  502 -0.32459479853E+02  0.14109465167E+02  0.11964051773E+03  0.12476597421E+03  0.00000000000E+00 0.  1.
</event>
<event>
 4    1  0.5722454E+002  0.2027569E+02  0.7546771E-02  0.1529862E+00
          2   -1    0    0  502    0  0.00000000000E+00  0.00000000000E+00  0.21062586842E+04  0.21062586842E+04  0.00000000000E+00 0.  1.
         -2   -1    0    0    0  501 -0.00000000000E+00 -0.00000000000E+00 -0.20554338701E+00  0.20554338701E+00  0.00000000000E+00 0. -1.
         21    1    1    2  502  503 -0.18498984053E+02 -0.83000706936E+01  0.12895004933E+04  0.12896598876E+04  0.00000000000E+00 0. -1.
         21    1    1    2  503  501  0.18498984053E+02  0.83000706936E+01  0.81655264755E+03  0.81680433998E+03  0.00000000000E+00 0.  1.
</event>
<event>
 4    1  0.5722454E+002  0.2802046E+02  0.7546771E-02  0.1437618E+00
          2   -1    0    0  502    0  0.00000000000E+00  0.00000000000E+00  0.13966506851E+03  0.13966506851E+03  0.00000000000E+00 0. -1.
         -2   -1    0    0    0  501 -0.00000000000E+00 -0.00000000000E+00 -0.16838077303E+02  0.16838077303E+02  0.00000000000E+00 0.  1.
         21    1    1    2  502  503 -0.16985336409E+02 -0.22285527485E+02  0.12528017566E+03  0.12837549923E+03  0.00000000000E+00 0. -1.
         21    1    1    2  503  501  0.16985336409E+02  0.22285527485E+02 -0.24531844581E+01  0.28127646581E+02  0.00000000000E+00 0.  1.
</event>
<event>
 4    1  0.5722454E+002  0.2019228E+02  0.7546771E-02  0.1531116E+00
          2   -1    0    0  503    0  0.00000000000E+00  0.00000000000E+00  0.36715492768E+01  0.36715492768E+01  0.00000000000E+00 0. -1.
         -2   -1    0    0    0  501 -0.00000000000E+00 -0.00000000000E+00 -0.17202435092E+03  0.17202435092E+03  0.00000000000E+00 0.  1.
         21    1    1    2  502  501  0.86060800771E+01 -0.18266464428E+02 -0.13647710724E+03  0.13796278171E+03  0.00000000000E+00 0.  1.
         21    1    1    2  503  502 -0.86060800771E+01  0.18266464428E+02 -0.31875694409E+02  0.37733118491E+02  0.00000000000E+00 0. -1.
</event>
<event>
 4    1  0.5722454E+002  0.2781617E+02  0.7546771E-02  0.1439577E+00
          2   -1    0    0  503    0  0.00000000000E+00  0.00000000000E+00  0.23059932378E+02  0.23059932378E+02  0.00000000000E+00 0. -1.
         -2   -1    0    0    0  501 -0.00000000000E+00 -0.00000000000E+00 -0.35236963741E+02  0.35236963741E+02  0.00000000000E+00 0.  1.
         21    1    1    2  502  501 -0.18779835952E+02 -0.20519669188E+02  0.28283321233E+00  0.27817603358E+02  0.00000000000E+00 0. -1.
         21    1    1    2  503  502  0.18779835952E+02  0.20519669188E+02 -0.12459864576E+02  0.30479292761E+02  0.00000000000E+00 0.  1.
</event>
<event>
 4    1  0.5722454E+002  0.2092450E+02  0.7546771E-02  0.1520346E+00
          2   -1    0    0  503    0  0.00000000000E+00  0.00000000000E+00  0.47817909880E+03  0.47817909880E+03  0.00000000000E+00 0. -1.
         -2   -1    0    0    0  501 -0.00000000000E+00 -0.00000000000E+00 -0.17786835438E+02  0.17786835438E+02  0.00000000000E+00 0.  1.
         21    1    1    2  502  501  0.18707274814E+01  0.20840704126E+02 -0.11319686568E+02  0.23790121349E+02  0.00000000000E+00 0.  1.
         21    1    1    2  503  502 -0.18707274814E+01 -0.20840704126E+02  0.47171194993E+03  0.47217581289E+03  0.00000000000E+00 0. -1.
</event>
<event>
 4    1  0.5722454E+002  0.2049542E+02  0.7546771E-02  0.1526592E+00
          2   -1    0    0  503    0  0.00000000000E+00  0.00000000000E+00  0.12581621236E+02  0.12581621236E+02  0.00000000000E+00 0. -1.
         -2   -1    0    0    0  501 -0.00000000000E+00 -0.00000000000E+00 -0.42998510543E+02  0.42998510543E+02  0.00000000000E+00 0.  1.
         21    1    1    2  502  501 -0.11789518190E+02  0.16765131325E+02 -0.28347347160E+02  0.34980486825E+02  0.00000000000E+00 0.  1.
         21    1    1    2  503  502  0.11789518190E+02 -0.16765131325E+02 -0.20695421470E+01  0.20599644953E+02  0.00000000000E+00 0. -1.
</event>
<event>
 4    1  0.5722454E+002  0.2738783E+02  0.7546771E-02  0.1443751E+00
          2   -1    0    0  503    0  0.00000000000E+00  0.00000000000E+00  0.14387244177E+03  0.14387244177E+03  0.00000000000E+00 0.  1.
         -2   -1    0    0    0  501 -0.00000000000E+00 -0.00000000000E+00 -0.57258198287E+01  0.57258198287E+01  0.00000000000E+00 0. -1.
         21    1    1    2  502  501  0.14834136971E+02  0.23022637616E+02  0.46701269770E+02  0.54139653311E+02  0.00000000000E+00 0. -1.
         21    1    1    2  503  502 -0.14834136971E+02 -0.23022637616E+02  0.91445352170E+02  0.95458608287E+02  0.00000000000E+00 0.  1.
</event>
<event>
 4    1  0.5722454E+002  0.2068932E+02  0.7546771E-02  0.1523747E+00
          2   -1    0    0  503    0  0.00000000000E+00  0.00000000000E+00  0.11410398381E+04  0.11410398381E+04  0.00000000000E+00 0. -1.
         -2   -1    0    0    0  501 -0.00000000000E+00 -0.00000000000E+00 -0.33960016639E+01  0.33960016639E+01  0.00000000000E+00 0.  1.
         21    1    1    2  502  501 -0.75614800556E+01 -0.19258035531E+02  0.29133575209E+02  0.35732521848E+02  0.00000000000E+00 0.  1.
         21    1    1    2  503  502  0.75614800556E+01  0.19258035531E+02  0.11085102612E+04  0.11087033179E+04  0.00000000000E+00 0. -1.
</event>
<event>
 4    1  0.5722454E+002  0.1353754E+03  0.7546771E-02  0.1113628E+00
          2   -1    0    0  503    0  0.00000000000E+00  0.00000000000E+00  0.72661858088E+03  0.72661858088E+03  0.00000000000E+00 0.  1.
         -2   -1    0    0    0  501 -0.00000000000E+00 -0.00000000000E+00 -0.36251857758E+02  0.36251857758E+02  0.00000000000E+00 0. -1.
         21    1    1    2  502  501  0.77143954921E+02 -0.11124442507E+03  0.13478240485E+03  0.19103090993E+03  0.00000000000E+00 0. -1.
         21    1    1    2  503  502 -0.77143954921E+02  0.11124442507E+03  0.55558431827E+03  0.57183952871E+03  0.00000000000E+00 0.  1.
</event>
<event>
 4    1  0.5722454E+002  0.2094112E+02  0.7546771E-02  0.1520107E+00
          2   -1    0    0  502    0  0.00000000000E+00  0.00000000000E+00  0.60168977632E+03  0.60168977632E+03  0.00000000000E+00 0.  1.
         -2   -1    0    0    0  501 -0.00000000000E+00 -0.00000000000E+00 -0.92692655976E+00  0.92692655976E+00  0.00000000000E+00 0. -1.
         21    1    1    2  502  503  0.25354380383E+01  0.20787067702E+02  0.16108979397E+03  0.16244522878E+03  0.00000000000E+00 0. -1.
         21    1    1    2  503  501 -0.25354380383E+01 -0.20787067702E+02  0.43967305578E+03  0.44017147410E+03  0.00000000000E+00 0.  1.
</event>
<event>
 4    1  0.5722454E+002  0.2702625E+02  0.7546771E-02  0.1447345E+00
          2   -1    0    0  502    0  0.00000000000E+00  0.00000000000E+00  0.79300865189E+01  0.79300865189E+01  0.00000000000E+00 0. -1.
         -2   -1    0    0    0  501 -0.00000000000E+00 -0.00000000000E+00 -0.30529466783E+03  0.30529466783E+03  0.00000000000E+00 0.  1.
         21    1    1    2  502  503  0.19733477838E+02 -0.18466398447E+02 -0.17810117631E+02  0.32366932342E+02  0.00000000000E+00 0. -1.
         21    1    1    2  503  501 -0.19733477838E+02  0.18466398447E+02 -0.27955446368E+03  0.28085782201E+03  0.00000000000E+00 0.  1.
</event>
<event>
 4    1  0.5722454E+002  0.2142453E+02  0.7546771E-02  0.1513289E+00
          2   -1    0    0  503    0  0.00000000000E+00  0.00000000000E+00  0.19420678593E+04  0.19420678593E+04  0.00000000000E+00 0. -1.
         -2   -1    0    0    0  501 -0.00000000000E+00 -0.00000000000E+00 -0.24257695011E+00  0.24257695011E+00  0.00000000000E+00 0.  1.
         21    1    1    2  502  501  0.21320042791E+02 -0.21133671453E+01  0.81533357118E+03  0.81561500896E+03  0.00000000000E+00 0.  1.
         21    1    1    2  503  502 -0.21320042791E+02  0.21133671453E+01  0.11264917112E+04  0.11266954273E+04  0.00000000000E+00 0. -1.
</event>
<event>
 4    1  0.5722454E+002  0.2179522E+02  0.7546771E-02  0.1508207E+00
          2   -1    0    0  502    0  0.00000000000E+00  0.00000000000E+00  0.56225782261E+03  0.56225782261E+03  0.00000000000E+00 0. -1.
         -2   -1    0    0    0  501 -0.00000000000E+00 -0.00000000000E+00 -0.28603780459E+01  0.28603780459E+01  0.00000000000E+00 0.  1.
         21    1    1    2  502  503 -0.11396576789E+02  0.18578198548E+02  0.51688550799E+03  0.51734481712E+03  0.00000000000E+00 0. -1.
         21    1    1    2  503  501  0.11396576789E+02 -0.18578198548E+02  0.42511936570E+02  0.47773383539E+02  0.00000000000E+00 0.  1.
</event>
<event>
 4    1  0.5722454E+002  0.2246590E+02  0.7546771E-02  0.1499316E+00
          2   -1    0    0  502    0  0.00000000000E+00  0.00000000000E+00  0.44624427503E+03  0.44624427503E+03  0.00000000000E+00 0.  1.
         -2   -1    0    0    0  501 -0.00000000000E+00 -0.00000000000E+00 -0.21825549123E+01  0.21825549123E+01  0.00000000000E+00 0. -1.
         21    1    1    2  502  503  0.11700368153E+02  0.19178586129E+02  0.37765905108E+03  0.37832667847E+03  0.00000000000E+00 0.  1.
         21    1    1    2  503  501 -0.11700368153E+02 -0.19178586129E+02  0.66402669035E+02  0.70100151468E+02  0.00000000000E+00 0. -1.
</event>
<event>
 4    1  0.5722454E+002  0.2804691E+02  0.7546771E-02  0.1437366E+00
          2   -1    0    0  503    0  0.00000000000E+00  0.00000000000E+00  0.19881650162E+04  0.19881650162E+04  0.00000000000E+00 0.  1.
         -2   -1    0    0    0  501 -0.00000000000E+00 -0.00000000000E+00 -0.85764489155E+00  0.85764489155E+00  0.00000000000E+00 0. -1.
         21    1    1    2  502  501  0.10869839665E+02  0.25854899562E+02  0.26373952356E+03  0.26522663051E+03  0.00000000000E+00 0. -1.
         21    1    1    2  503  502 -0.10869839665E+02 -0.25854899562E+02  0.17235678478E+04  0.17237960306E+04  0.00000000000E+00 0.  1.
</event>
<event>
 4    1  0.5722454E+002  0.2252839E+02  0.7546771E-02  0.1498507E+00
          2   -1    0    0  503    0  0.00000000000E+00  0.00000000000E+00  0.19560085146E+03  0.19560085146E+03  0.00000000000E+00 0. -1.
         -2   -1    0    0    0  501 -0.00000000000E+00 -0.00000000000E+00 -0.25990747803E+01  0.25990747803E+01  0.00000000000E+00 0.  1.
         21    1    1    2  502  501  0.11767961261E+02  0.19210505784E+02  0.10055972086E+03  0.10305234546E+03  0.00000000000E+00 0.  1.
         21    1    1    2  503  502 -0.11767961261E+02 -0.19210505784E+02  0.92442055814E+02  0.95147580778E+02  0.00000000000E+00 0. -1.
</event>
<event>
 4    1  0.5722454E+002  0.2565617E+02  0.7546771E-02  0.1461595E+00
          2   -1    0    0  502    0  0.00000000000E+00  0.00000000000E+00  0.55390846902E+01  0.55390846902E+01  0.00000000000E+00 0. -1.
         -2   -1    0    0    0  501 -0.00000000000E+00 -0.00000000000E+00 -0.52702669543E+03  0.52702669543E+03  0.00000000000E+00 0.  1.
         21    1    1    2  502  503  0.12789198938E+02  0.22241299111E+02 -0.26397096897E+02  0.36810945658E+02  0.00000000000E+00 0. -1.
         21    1    1    2  503  501 -0.12789198938E+02 -0.22241299111E+02 -0.49509051384E+03  0.49575483446E+03  0.00000000000E+00 0.  1.
</event>
<event>
 4    1  0.5722454E+002  0.6134253E+02  0.7546771E-02  0.1255338E+00
          2   -1    0    0  503    0  0.00000000000E+00  0.00000000000E+00  0.18747882783E+03  0.18747882783E+03  0.00000000000E+00 0.  1.
         -2   -1    0    0    0  501 -0.00000000000E+00 -0.00000000000E+00 -0.31787792394E+02  0.31787792394E+02  0.00000000000E+00 0. -1.
         21    1    1    2  502  501  0.38066029853E+02 -0.48102842022E+02  0.11285277172E+02  0.62371977042E+02  0.00000000000E+00 0. -1.
         21    1    1    2  503  502 -0.38066029853E+02  0.48102842022E+02  0.14440575826E+03  0.15689464318E+03  0.00000000000E+00 0.  1.
</event>
<event>
 4    1  0.5722454E+002  0.2674600E+02  0.7546771E-02  0.1450176E+00
          2   -1    0    0  502    0  0.00000000000E+00  0.00000000000E+00  0.81933409012E+02  0.81933409012E+02  0.00000000000E+00 0. -1.
         -2   -1    0    0    0  501 -0.00000000000E+00 -0.00000000000E+00 -0.18392341515E+02  0.18392341515E+02  0.00000000000E+00 0.  1.
         21    1    1    2  502  503 -0.26237457275E+02 -0.51908159545E+01  0.68127352972E+02  0.73189377355E+02  0.00000000000E+00 0. -1.
         21    1    1    2  503  501  0.26237457275E+02  0.51908159545E+01 -0.45862854752E+01  0.27136373173E+02  0.00000000000E+00 0.  1.
</event>
<event>
 4    1  0.5722454E+002  0.3055847E+02  0.7546771E-02  0.1414804E+00
          2   -1    0    0  503    0  0.00000000000E+00  0.00000000000E+00  0.38896555518E+02  0.38896555518E+02  0.00000000000E+00 0. -1.
         -2   -1    0    0    0  501 -0.00000000000E+00 -0.00000000000E+00 -0.54737746147E+02  0.54737746147E+02  0.00000000000E+00 0.  1.
         21    1    1    2  502  501 -0.29619194351E+02  0.75182004098E+01 -0.42999219685E+02  0.52751804755E+02  0.00000000000E+00 0.  1.
         21    1    1    2  503  502  0.29619194351E+02 -0.75182004098E+01  0.27158029055E+02  0.40882496910E+02  0.00000000000E+00 0. -1.
</event>
<event>
 4    1  0.5722454E+002  0.2017412E+02  0.7546771E-02  0.1531391E+00
          2   -1    0    0  502    0  0.00000000000E+00  0.00000000000E+00  0.13448040311E+04  0.13448040311E+04  0.00000000000E+00 0. -1.
         -2   -1    0    0    0  501 -0.00000000000E+00 -0.00000000000E+00 -0.35138632844E+00  0.35138632844E+00  0.00000000000E+00 0.  1.
         21    1    1    2  502  503 -0.42409819882E+01  0.19723312126E+02  0.42172531594E+03  0.42220757582E+03  0.00000000000E+00 0.  1.
         21    1    1    2  503  501  0.42409819882E+01 -0.19723312126E+02  0.92272732885E+03  0.92294784163E+03  0.00000000000E+00 0. -1.
</event>
<event>
 4    1  0.5722454E+002  0.3522626E+02  0.7546771E-02  0.1378980E+00
          2   -1    0    0  502    0  0.00000000000E+00  0.00000000000E+00  0.17106895712E+04  0.17106895712E+04  0.00000000000E+00 0. -1.
         -2   -1    0    0    0  501 -0.00000000000E+00 -0.00000000000E+00 -0.16721268212E+01  0.16721268212E+01  0.00000000000E+00 0.  1.
         21    1    1    2  502  503 -0.29563414966E+02 -0.19154465832E+02  0.14987511115E+04  0.14991650287E+04  0.00000000000E+00 0. -1.
         21    1    1    2  503  501  0.29563414966E+02  0.19154465832E+02  0.21026633288E+03  0.21319666932E+03  0.00000000000E+00 0.  1.
</event>
<event>
 4    1  0.5722454E+002  0.2493401E+02  0.7546771E-02  0.1469543E+00
          2   -1    0    0  502    0  0.00000000000E+00  0.00000000000E+00  0.12059644406E+03  0.12059644406E+03  0.00000000000E+00 0. -1.
         -2   -1    0    0    0  501 -0.00000000000E+00 -0.00000000000E+00 -0.77241658937E+01  0.77241658937E+01  0.00000000000E+00 0.  1.
         21    1    1    2  502  503 -0.12532811563E+02  0.21555356420E+02  0.93437322102E+02  0.96706969333E+02  0.00000000000E+00 0. -1.
         21    1    1    2  503  501  0.12532811563E+02 -0.21555356420E+02  0.19434956066E+02  0.31613640622E+02  0.00000000000E+00 0.  1.
</event>
<event>
 4    1  0.5722454E+002  0.2285866E+02  0.7546771E-02  0.1494281E+00
          2   -1    0    0  503    0  0.00000000000E+00  0.00000000000E+00  0.10473955385E+04  0.10473955385E+04  0.00000000000E+00 0.  1.
         -2   -1    0    0    0  501 -0.00000000000E+00 -0.00000000000E+00 -0.52433243776E+00  0.52433243776E+00  0.00000000000E+00 0. -1.
         21    1    1    2  502  501 -0.22756078205E+02  0.21631711321E+01  0.40798118156E+03  0.40862105050E+03  0.00000000000E+00 0. -1.
         21    1    1    2  503  502  0.22756078205E+02 -0.21631711321E+01  0.63889002453E+03  0.63929882047E+03  0.00000000000E+00 0.  1.
</event>
<event>
 4    1  0.5722454E+002  0.1271163E+03  0.7546771E-02  0.1123689E+00
          2   -1    0    0  502    0  0.00000000000E+00  0.00000000000E+00  0.26860566583E+03  0.26860566583E+03  0.00000000000E+00 0.  1.
         -2   -1    0    0    0  501 -0.00000000000E+00 -0.00000000000E+00 -0.91133039314E+02  0.91133039314E+02  0.00000000000E+00 0. -1.
         21    1    1    2  502  503  0.76661515954E+02 -0.10139801823E+03  0.19360148486E+03  0.23160328381E+03  0.00000000000E+00 0.  1.
         21    1    1    2  503  501 -0.76661515954E+02  0.10139801823E+03 -0.16128858344E+02  0.12813542134E+03  0.00000000000E+00 0. -1.
</event>
<event>
 4    1  0.5722454E+002  0.2227961E+02  0.7546771E-02  0.1501748E+00
          2   -1    0    0  502    0  0.00000000000E+00  0.00000000000E+00  0.43249204677E+03  0.43249204677E+03  0.00000000000E+00 0.  1.
         -2   -1    0    0    0  501 -0.00000000000E+00 -0.00000000000E+00 -0.25809066391E+01  0.25809066391E+01  0.00000000000E+00 0. -1.
         21    1    1    2  502  503 -0.15134964119E+02 -0.16349733159E+02  0.37706075965E+03  0.37771841017E+03  0.00000000000E+00 0.  1.
         21    1    1    2  503  501  0.15134964119E+02  0.16349733159E+02  0.52850380481E+02  0.57354543240E+02  0.00000000000E+00 0. -1.
</event>
<event>
 4    1  0.5722454E+002  0.3007647E+02  0.7546771E-02  0.1418933E+00
          2   -1    0    0  502    0  0.00000000000E+00  0.00000000000E+00  0.19981640831E+02  0.19981640831E+02  0.00000000000E+00 0.  1.
         -2   -1    0    0    0  501 -0.00000000000E+00 -0.00000000000E+00 -0.45740750419E+02  0.45740750419E+02  0.00000000000E+00 0. -1.
         21    1    1    2  502  503 -0.16735661785E+01  0.30029870346E+02 -0.16208816038E+02  0.34166059973E+02  0.00000000000E+00 0. -1.
         21    1    1    2  503  501  0.16735661785E+01 -0.30029870346E+02 -0.95502935506E+01  0.31556331276E+02  0.00000000000E+00 0.  1.
</event>
<event>
 4    1  0.5722454E+002  0.2420892E+02  0.7546771E-02  0.1477851E+00
          2   -1    0    0  503    0  0.00000000000E+00  0.00000000000E+00  0.20953500522E+04  0.20953500522E+04  0.00000000000E+00 0. -1.
         -2   -1    0    0    0  501 -0.00000000000E+00 -0.00000000000E+00 -0.54417921755E+00  0.54417921755E+00  0.00000000000E+00 0.  1.
         21    1    1    2  502  501  0.20751886417E+02  0.12467206675E+02  0.31683074227E+03  0.31775429388E+03  0.00000000000E+00 0.  1.
         21    1    1    2  503  502 -0.20751886417E+02 -0.12467206675E+02  0.17779751307E+04  0.17781399375E+04  0.00000000000E+00 0. -1.
</event>
<event>
 4    1  0.5722454E+002  0.2070790E+02  0.7546771E-02  0.1523476E+00
          2   -1    0    0  503    0  0.00000000000E+00  0.00000000000E+00  0.50846146070E+03  0.50846146070E+03  0.00000000000E+00 0. -1.
         -2   -1    0    0    0  501 -0.00000000000E+00 -0.00000000000E+00 -0.11840586030E+01  0.11840586030E+01  0.00000000000E+00 0.  1.
         21    1    1    2  502  501  0.19518469762E+02  0.69171085257E+01  0.11694907815E+03  0.11876827831E+03  0.00000000000E+00 0.  1.
         21    1    1    2  503  502 -0.19518469762E+02 -0.69171085257E+01  0.39032832395E+03  0.39087724100E+03  0.00000000000E+00 0. -1.
</event>
<event>
 4    1  0.5722454E+002  0.2127891E+02  0.7546771E-02  0.1515320E+00
          2   -1    0    0  503    0  0.00000000000E+00  0.00000000000E+00  0.18977987274E+02  0.18977987274E+02  0.00000000000E+00 0. -1.
         -2   -1    0    0    0  501 -0.00000000000E+00 -0.00000000000E+00 -0.61517202184E+02  0.61517202184E+02  0.00000000000E+00 0.  1.
         21    1    1    2  502  501  0.16307052204E+02  0.13670107949E+02 -0.52759606604E+02  0.56889084119E+02  0.00000000000E+00 0.  1.
         21    1    1    2  503  502 -0.16307052204E+02 -0.13670107949E+02  0.10220391693E+02  0.23606105339E+02  0.00000000000E+00 0. -1.
</event>
<event>
 4    1  0.5722454E+002  0.2168119E+02  0.7546771E-02  0.1509757E+00
          2   -1    0    0  503    0  0.00000000000E+00  0.00000000000E+00  0.13010039536E+04  0.13010039536E+04  0.00000000000E+00 0. -1.
         -2   -1    0    0    0  501 -0.00000000000E+00 -0.00000000000E+00 -0.15291746559E+01  0.15291746559E+01  0.00000000000E+00 0.  1.
         21    1    1    2  502  501  0.18780485029E+02 -0.10833614952E+02  0.80589227755E+02  0.83454762962E+02  0.00000000000E+00 0.  1.
         21    1    1    2  503  502 -0.18780485029E+02  0.10833614952E+02  0.12188855512E+04  0.12190783653E+04  0.00000000000E+00 0. -1.
</event>
<event>
 4    1  0.5722454E+002  0.2308375E+02  0.7546771E-02  0.1491449E+00
          2   -1    0    0  503    0  0.00000000000E+00  0.00000000000E+00  0.16780743938E+04  0.16780743938E+04  0.00000000000E+00 0.  1.
         -2   -1    0    0    0  501 -0.00000000000E+00 -0.00000000000E+00 -0.36138725689E+00  0.36138725689E+00  0.00000000000E+00 0. -1.
         21    1    1    2  502  501  0.76764321446E+01  0.21769980126E+02  0.54654358118E+03  0.54703084536E+03  0.00000000000E+00 0. -1.
         21    1    1    2  503  502 -0.76764321446E+01 -0.21769980126E+02  0.11311694253E+04  0.11314049357E+04  0.00000000000E+00 0.  1.
</event>
<event>
 4    1  0.5722454E+002  0.2226088E+02  0.7546771E-02  0.1501994E+00
          2   -1    0    0  502    0  0.00000000000E+00  0.00000000000E+00  0.12897383881E+04  0.12897383881E+04  0.00000000000E+00 0.  1.
         -2   -1    0    0    0  501 -0.00000000000E+00 -0.00000000000E+00 -0.26438447942E+01  0.26438447942E+01  0.00000000000E+00 0. -1.
         21    1    1    2  502  503  0.22242860984E+02 -0.89561075784E+00  0.12409413248E+04  0.12411409745E+04  0.00000000000E+00 0.  1.
         21    1    1    2  503  501 -0.22242860984E+02  0.89561075784E+00  0.46153218491E+02  0.51241258381E+02  0.00000000000E+00 0. -1.
</event>
<event>
 4    1  0.5722454E+002  0.2959516E+02  0.7546771E-02  0.1423148E+00
          2   -1    0    0  502    0  0.00000000000E+00  0.00000000000E+00  0.17100043522E+04  0.17100043522E+04  0.00000000000E+00 0.  1.
         -2   -1    0    0    0  501 -0.00000000000E+00 -0.00000000000E+00 -0.67867214460E+00  0.67867214460E+00  0.00000000000E+00 0. -1.
         21    1    1    2  502  503 -0.25362024772E+02 -0.15252585961E+02  0.12782795828E+04  0.12786221356E+04  0.00000000000E+00 0.  1.
         21    1    1    2  503  501  0.25362024772E+02  0.15252585961E+02  0.43104609724E+03  0.43206088879E+03  0.00000000000E+00 0. -1.
</event>
<event>
 4    1  0.5722454E+002  0.4672602E+02  0.7546771E-02  0.1313027E+00
          2   -1    0    0  503    0  0.00000000000E+00  0.00000000000E+00  0.29246957160E+03  0.29246957160E+03  0.00000000000E+00 0.  1.
         -2   -1    0    0    0  501 -0.00000000000E+00 -0.00000000000E+00 -0.68968554990E+02  0.68968554990E+02  0.00000000000E+00 0. -1.
         21    1    1    2  502  501 -0.60171362477E+01  0.46336976506E+02 -0.58908052528E+02  0.75189626765E+02  0.00000000000E+00 0. -1.
         21    1    1    2  503  502  0.60171362477E+01 -0.46336976506E+02  0.28240906914E+03  0.28624849982E+03  0.00000000000E+00 0.  1.
</event>
<event>
 4    1  0.5722454E+002  0.3967226E+02  0.7546771E-02  0.1350417E+00
          2   -1    0    0  502    0  0.00000000000E+00  0.00000000000E+00  0.15194568471E+03  0.15194568471E+03  0.00000000000E+00 0. -1.
         -2   -1    0    0    0  501 -0.00000000000E+00 -0.00000000000E+00 -0.25495930215E+02  0.25495930215E+02  0.00000000000E+00 0.  1.
         21    1    1    2  502  503  0.35004570703E+02  0.18669992605E+02  0.13158769924E+03  0.13743802671E+03  0.00000000000E+00 0. -1.
         21    1    1    2  503  501 -0.35004570703E+02 -0.18669992605E+02 -0.51379447469E+01  0.40003588216E+02  0.00000000000E+00 0.  1.
</event>
<event>
 4    1  0.5722454E+002  0.2314209E+02  0.7546771E-02  0.1490722E+00
          2   -1    0    0  502    0  0.00000000000E+00  0.00000000000E+00  0.21584219036E+02  0.21584219036E+02  0.00000000000E+00 0.  1.
         -2   -1    0    0    0  501 -0.00000000000E+00 -0.00000000000E+00 -0.25291664717E+02  0.25291664717E+02  0.00000000000E+00 0. -1.
         21    1    1    2  502  503 -0.22584665428E+02  0.50486682285E+01  0.13726969068E+01  0.23182762134E+02  0.00000000000E+00 0. -1.
         21    1    1    2  503  501  0.22584665428E+02 -0.50486682285E+01 -0.50801425872E+01  0.23693121619E+02  0.00000000000E+00 0.  1.
</event>
<event>
 4    1  0.5722454E+002  0.5583640E+02  0.7546771E-02  0.1274675E+00
          2   -1    0    0  502    0  0.00000000000E+00  0.00000000000E+00  0.21724114239E+04  0.21724114239E+04  0.00000000000E+00 0. -1.
         -2   -1    0    0    0  501 -0.00000000000E+00 -0.00000000000E+00 -0.14389613853E+01  0.14389613853E+01  0.00000000000E+00 0.  1.
         21    1    1    2  502  503 -0.55098567511E+02  0.90471817125E+01  0.11415355345E+04  0.11429002932E+04  0.00000000000E+00 0. -1.
         21    1    1    2  503  501  0.55098567511E+02 -0.90471817125E+01  0.10294369280E+04  0.10309500921E+04  0.00000000000E+00 0.  1.
</event>
<event>
 4    1  0.5722454E+002  0.2779259E+02  0.7546771E-02  0.1439805E+00
          2   -1    0    0  502    0  0.00000000000E+00  0.00000000000E+00  0.81351945471E+03  0.81351945471E+03  0.00000000000E+00 0. -1.
         -2   -1    0    0    0  501 -0.00000000000E+00 -0.00000000000E+00 -0.14444935236E+01  0.14444935236E+01  0.00000000000E+00 0.  1.
         21    1    1    2  502  503 -0.14740557540E+01 -0.27753469955E+02  0.64457412132E+03  0.64517302006E+03  0.00000000000E+00 0.  1.
         21    1    1    2  503  501  0.14740557540E+01  0.27753469955E+02  0.16750083987E+03  0.16979092818E+03  0.00000000000E+00 0. -1.
</event>
<event>
 4    1  0.5722454E+002  0.2303445E+02  0.7546771E-02  0.1492066E+00
          2   -1    0    0  502    0  0.00000000000E+00  0.00000000000E+00  0.60180901509E+03  0.60180901509E+03  0.00000000000E+00 0. -1.
         -2   -1    0    0    0  501 -0.00000000000E+00 -0.00000000000E+00 -0.17137950443E+01  0.17137950443E+01  0.00000000000E+00 0.  1.
         21    1    1    2  502  503  0.60645788535E+01 -0.22221758282E+02  0.51032057896E+03  0.51084016969E+03  0.00000000000E+00 0. -1.
         21    1    1    2  503  501 -0.60645788535E+01  0.22221758282E+02  0.89774641080E+02  0.92682640439E+02  0.00000000000E+00 0.  1.
</event>
<event>
 4    1  0.5722454E+002  0.2079406E+02  0.7546771E-02  0.1522226E+00
          2   -1    0    0  502    0  0.00000000000E+00  0.00000000000E+00  0.37742241035E+03  0.37742241035E+03  0.00000000000E+00 0.  1.
         -2   -1    0    0    0  501 -0.00000000000E+00 -0.00000000000E+00 -0.12803158506E+01  0.12803158506E+01  0.00000000000E+00 0. -1.
         21    1    1    2  502  503  0.15273746846E+02  0.14110480584E+02  0.24948157059E+03  0.25034665380E+03  0.00000000000E+00 0.  1.
         21    1    1    2  503  501 -0.15273746846E+02 -0.14110480584E+02  0.12666052391E+03  0.12835607240E+03  0.00000000000E+00 0. -1.
</event>
<event>
 4    1  0.5722454E+002  0.2995654E+02  0.7546771E-02  0.1419975E+00
          2   -1    0    0  503    0  0.00000000000E+00  0.00000000000E+00  0.52386218716E+02  0.52386218716E+02  0.00000000000E+00 0.  1.
         -2   -1    0    0    0  501 -0.00000000000E+00 -0.00000000000E+00 -0.17522609225E+02  0.17522609225E+02  0.00000000000E+00 0. -1.
         21    1    1    2  502  501  0.19161124962E+02 -0.23027056738E+02  0.12201928174E+02  0.32346268764E+02  0.00000000000E+00 0. -1.
         21    1    1    2  503  502 -0.19161124962E+02  0.23027056738E+02  0.22661681316E+02  0.37562559177E+02  0.00000000000E+00 0.  1.
</event>
<event>
 4    1  0.5722454E+002  0.3383862E+02  0.7546771E-02  0.1388917E+00
          2   -1    0    0  502    0  0.00000000000E+00  0.00000000000E+00  0.89736196773E+03  0.89736196773E+03  0.00000000000E+00 0.  1.
         -2   -1    0    0    0  501 -0.00000000000E+00 -0.00000000000E+00 -0.78208872692E+01  0.78208872692E+01  0.00000000000E+00 0. -1.
         21    1    1    2  502  503 -0.56904370188E+01 -0.33356728105E+02  0.85879758583E+03  0.85946398750E+03  0.00000000000E+00 0.  1.
         21    1    1    2  503  501  0.56904370188E+01  0.33356728105E+02  0.30743494634E+02  0.45718867502E+02  0.00000000000E+00 0. -1.
</event>
<event>
 4    1  0.5722454E+002  0.2050329E+02  0.7546771E-02  0.1526476E+00
          2   -1    0    0  502    0  0.00000000000E+00  0.00000000000E+00  0.36181506275E+03  0.36181506275E+03  0.00000000000E+00 0.  1.
         -2   -1    0    0    0  501 -0.00000000000E+00 -0.00000000000E+00 -0.60983085146E+01  0.60983085146E+01  0.00000000000E+00 0. -1.
         21    1    1    2  502  503 -0.20363950845E+02 -0.23863157403E+01  0.34336576720E+03  0.34397737583E+03  0.00000000000E+00 0.  1.
         21    1    1    2  503  501  0.20363950845E+02  0.23863157403E+01  0.12350987037E+02  0.23935995438E+02  0.00000000000E+00 0. -1.
</event>
<event>
 4    1  0.5722454E+002  0.2114773E+02  0.7546771E-02  0.1517166E+00
          2   -1    0    0  503    0  0.00000000000E+00  0.00000000000E+00  0.29349792488E+01  0.29349792488E+01  0.00000000000E+00 0. -1.
         -2   -1    0    0    0  501 -0.00000000000E+00 -0.00000000000E+00 -0.20623916902E+03  0.20623916902E+03  0.00000000000E+00 0.  1.
         21    1    1    2  502  501  0.36829757598E+01 -0.20824560974E+02 -0.15509989088E+03  0.15653498906E+03  0.00000000000E+00 0.  1.
         21    1    1    2  503  502 -0.36829757598E+01  0.20824560974E+02 -0.48204298894E+02  0.52639159208E+02  0.00000000000E+00 0. -1.
</event>
<event>
 4    1  0.5722454E+002  0.2647212E+02  0.7546771E-02  0.1452984E+00
          2   -1    0    0  503    0  0.00000000000E+00  0.00000000000E+00  0.57895208889E+03  0.57895208889E+03  0.00000000000E+00 0. -1.
         -2   -1    0    0    0  501 -0.00000000000E+00 -0.00000000000E+00 -0.29065272114E+01  0.29065272114E+01  0.00000000000E+00 0.  1.
         21    1    1    2  502  501  0.62145265493E+01  0.25732333768E+02  0.65780167147E+02  0.70907007631E+02  0.00000000000E+00 0.  1.
         21    1    1    2  503  502 -0.62145265493E+01 -0.25732333768E+02  0.51026539453E+03  0.51095160847E+03  0.00000000000E+00 0. -1.
</event>
<event>
 4    1  0.5722454E+002  0.3028379E+02  0.7546771E-02  0.1417146E+00
          2   -1    0    0  502    0  0.00000000000E+00  0.00000000000E+00  0.16767244387E+03  0.16767244387E+03  0.00000000000E+00 0. -1.
         -2   -1    0    0    0  501 -0.00000000000E+00 -0.00000000000E+00 -0.12154173572E+02  0.12154173572E+02  0.00000000000E+00 0.  1.
         21    1    1    2  502  503 -0.28879957109E+02 -0.91134913467E+01  0.11078939258E+02  0.32246713666E+02  0.00000000000E+00 0.  1.
         21    1    1    2  503  501  0.28879957109E+02  0.91134913467E+01  0.14443933104E+03  0.14757990377E+03  0.00000000000E+00 0. -1.
</event>
<event>
 4    1  0.5722454E+002  0.4178672E+02  0.7546771E-02  0.1338322E+00
          2   -1    0    0  502    0  0.00000000000E+00  0.00000000000E+00  0.14026260512E+04  0.14026260512E+04  0.00000000000E+00 0.  1.
         -2   -1    0    0    0  501 -0.00000000000E+00 -0.00000000000E+00 -0.62131080574E+02  0.62131080574E+02  0.00000000000E+00 0. -1.
         21    1    1    2  502  503  0.30912804917E+02  0.28116335022E+02  0.13952517082E+04  0.13958773080E+04  0.00000000000E+00 0.  1.
         21    1    1    2  503  501 -0.30912804917E+02 -0.28116335022E+02 -0.54756737606E+02  0.68879823724E+02  0.00000000000E+00 0. -1.
</event>
<event>
 4    1  0.5722454E+002  0.2283197E+02  0.7546771E-02  0.1494619E+00
          2   -1    0    0  502    0  0.00000000000E+00  0.00000000000E+00  0.65710001808E+03  0.65710001808E+03  0.00000000000E+00 0.  1.
         -2   -1    0    0    0  501 -0.00000000000E+00 -0.00000000000E+00 -0.12316839603E+01  0.12316839603E+01  0.00000000000E+00 0. -1.
         21    1    1    2  502  503  0.22829813067E+02  0.31353552749E+00  0.52430476296E+03  0.52480166076E+03  0.00000000000E+00 0.  1.
         21    1    1    2  503  501 -0.22829813067E+02 -0.31353552749E+00  0.13156357116E+03  0.13353004128E+03  0.00000000000E+00 0. -1.
</event>
<event>
 4    1  0.5722454E+002  0.2223442E+02  0.7546771E-02  0.1502342E+00
          2   -1    0    0  502    0  0.00000000000E+00  0.00000000000E+00  0.20737514984E+01  0.20737514984E+01  0.00000000000E+00 0.  1.
         -2   -1    0    0    0  501 -0.00000000000E+00 -0.00000000000E+00 -0.31037895173E+03  0.31037895173E+03  0.00000000000E+00 0. -1.
         21    1    1    2  502  503 -0.14902371372E+02 -0.16501171085E+02 -0.78915874881E+02  0.81988320070E+02  0.00000000000E+00 0.  1.
         21    1    1    2  503  501  0.14902371372E+02  0.16501171085E+02 -0.22938932535E+03  0.23046438316E+03  0.00000000000E+00 0. -1.
</event>
<event>
 4    1  0.5722454E+002  0.2373870E+02  0.7546771E-02  0.1483425E+00
          2   -1    0    0  502    0  0.00000000000E+00  0.00000000000E+00  0.25777104983E+03  0.25777104983E+03  0.00000000000E+00 0. -1.
         -2   -1    0    0    0  501 -0.00000000000E+00 -0.00000000000E+00 -0.95620301725E+01  0.95620301725E+01  0.00000000000E+00 0.  1.
         21    1    1    2  502  503 -0.22113587047E+02 -0.86322079985E+01  0.24150086873E+03  0.24266477978E+03  0.00000000000E+00 0. -1.
         21    1    1    2  503  501  0.22113587047E+02  0.86322079985E+01  0.67081509245E+01  0.24668300222E+02  0.00000000000E+00 0.  1.
</event>
<event>
 4    1  0.5722454E+002  0.2023908E+02  0.7546771E-02  0.1530412E+00
          2   -1    0    0  503    0  0.00000000000E+00  0.00000000000E+00  0.32631730474E+02  0.32631730474E+02  0.00000000000E+00 0.  1.
         -2   -1    0    0    0  501 -0.00000000000E+00 -0.00000000000E+00 -0.15068222543E+02  0.15068222543E+02  0.00000000000E+00 0. -1.
         21    1    1    2  502  501  0.15766776001E+02 -0.12689732294E+02 -0.96275405740E+00  0.20261969957E+02  0.00000000000E+00 0. -1.
         21    1    1    2  503  502 -0.15766776001E+02  0.12689732294E+02  0.18526261989E+02  0.27437983060E+02  0.00000000000E+00 0.  1.
</event>
<event>
 4    1  0.5722454E+002  0.2858705E+02  0.7546771E-02  0.1432286E+00
          2   -1    0    0  503    0  0.00000000000E+00  0.00000000000E+00  0.77001245173E+02  0.77001245173E+02  0.00000000000E+00 0. -1.
         -2   -1    0    0    0  501 -0.00000000000E+00 -0.00000000000E+00 -0.13700854421E+02  0.13700854421E+02  0.00000000000E+00 0.  1.
         21    1    1    2  502  501 -0.14577860626E+02  0.24590753397E+02  0.10120524084E+02  0.30325635703E+02  0.00000000000E+00 0. -1.
         21    1    1    2  503  502  0.14577860626E+02 -0.24590753397E+02  0.53179866668E+02  0.60376463890E+02  0.00000000000E+00 0.  1.
</event>
<event>
 4    1  0.5722454E+002  0.3748489E+02  0.7546771E-02  0.1363890E+00
          2   -1    0    0  502    0  0.00000000000E+00  0.00000000000E+00  0.58099606014E+03  0.58099606014E+03  0.00000000000E+00 0. -1.
         -2   -1    0    0    0  501 -0.00000000000E+00 -0.00000000000E+00 -0.24188947194E+01  0.24188947194E+01  0.00000000000E+00 0.  1.
         21    1    1    2  502  503 -0.37303067362E+02  0.36875932243E+01  0.29318796750E+03  0.29557452776E+03  0.00000000000E+00 0. -1.
         21    1    1    2  503  501  0.37303067362E+02 -0.36875932243E+01  0.28538919792E+03  0.28784042710E+03  0.00000000000E+00 0.  1.
</event>
<event>
 4    1  0.5722454E+002  0.2596345E+02  0.7546771E-02  0.1458308E+00
          2   -1    0    0  503    0  0.00000000000E+00  0.00000000000E+00  0.20613955151E+02  0.20613955151E+02  0.00000000000E+00 0. -1.
         -2   -1    0    0    0  501 -0.00000000000E+00 -0.00000000000E+00 -0.40238501411E+02  0.40238501411E+02  0.00000000000E+00 0.  1.
         21    1    1    2  502  501  0.12360649226E+02 -0.22832325101E+02 -0.22980753262E+02  0.34672982844E+02  0.00000000000E+00 0.  1.
         21    1    1    2  503  502 -0.12360649226E+02  0.22832325101E+02  0.33562070021E+01  0.26179473719E+02  0.00000000000E+00 0. -1.
</event>
<event>
 4    1  0.5722454E+002  0.4745901E+02  0.7546771E-02  0.1309582E+00
          2   -1    0    0  503    0  0.00000000000E+00  0.00000000000E+00  0.80555668882E+03  0.80555668882E+03  0.00000000000E+00 0. -1.
         -2   -1    0    0    0  501 -0.00000000000E+00 -0.00000000000E+00 -0.43149488816E+01  0.43149488816E+01  0.00000000000E+00 0.  1.
         21    1    1    2  502  501  0.23727025772E+02  0.41102138965E+02  0.16036931602E+03  0.16724435745E+03  0.00000000000E+00 0.  1.
         21    1    1    2  503  502 -0.23727025772E+02 -0.41102138965E+02  0.64087242392E+03  0.64262728025E+03  0.00000000000E+00 0. -1.
</event>
<event>
 4    1  0.5722454E+002  0.4216226E+02  0.7546771E-02  0.1336261E+00
          2   -1    0    0  502    0  0.00000000000E+00  0.00000000000E+00  0.52474117985E+03  0.52474117985E+03  0.00000000000E+00 0.  1.
         -2   -1    0    0    0  501 -0.00000000000E+00 -0.00000000000E+00 -0.15471547099E+02  0.15471547099E+02  0.00000000000E+00 0. -1.
         21    1    1    2  502  503 -0.41932062752E+02  0.43997880362E+01  0.49334496654E+03  0.49514332474E+03  0.00000000000E+00 0.  1.
         21    1    1    2  503  501  0.41932062752E+02 -0.43997880362E+01  0.15924666203E+02  0.45069402205E+02  0.00000000000E+00 0. -1.
</event>
<event>
 4    1  0.5722454E+002  0.2018122E+02  0.7546771E-02  0.1531283E+00
          2   -1    0    0  503    0  0.00000000000E+00  0.00000000000E+00  0.45314278440E+02  0.45314278440E+02  0.00000000000E+00 0. -1.
         -2   -1    0    0    0  501 -0.00000000000E+00 -0.00000000000E+00 -0.14067797382E+02  0.14067797382E+02  0.00000000000E+00 0.  1.
         21    1    1    2  502  501  0.15127729604E+02 -0.13357891115E+02 -0.22185572676E+01  0.20302794250E+02  0.00000000000E+00 0.  1.
         21    1    1    2  503  502 -0.15127729604E+02  0.13357891115E+02  0.33465038326E+02  0.39079281572E+02  0.00000000000E+00 0. -1.
</event>
<event>
 4    1  0.5722454E+002  0.2691535E+02  0.7546771E-02  0.1448460E+00
          2   -1    0    0  502    0  0.00000000000E+00  0.00000000000E+00  0.95313682769E+01  0.95313682769E+01  0.00000000000E+00 0.  1.
         -2   -1    0    0    0  501 -0.00000000000E+00 -0.00000000000E+00 -0.20145153143E+03  0.20145153143E+03  0.00000000000E+00 0. -1.
         21    1    1    2  502  503 -0.20658944642E+02  0.17252366947E+02 -0.12714635698E+02  0.29767400288E+02  0.00000000000E+00 0.  1.
         21    1    1    2  503  501  0.20658944642E+02 -0.17252366947E+02 -0.17920552746E+03  0.18121549942E+03  0.00000000000E+00 0. -1.
</event>
<event>
 4    1  0.5722454E+002  0.2137143E+02  0.7546771E-02  0.1514027E+00
          2   -1    0    0  503    0  0.00000000000E+00  0.00000000000E+00  0.42723263266E+02  0.42723263266E+02  0.00000000000E+00 0.  1.
         -2   -1    0    0    0  501 -0.00000000000E+00 -0.00000000000E+00 -0.27563380723E+02  0.27563380723E+02  0.00000000000E+00 0. -1.
         21    1    1    2  502  501  0.10684521596E+02  0.18508888704E+02 -0.19916070612E+02  0.29212802526E+02  0.00000000000E+00 0. -1.
         21    1    1    2  503  502 -0.10684521596E+02 -0.18508888704E+02  0.35075953155E+02  0.41073841463E+02  0.00000000000E+00 0.  1.
</event>
<event>
 4    1  0.5722454E+002  0.3556978E+02  0.7546771E-02  0.1376601E+00
          2   -1    0    0  503    0  0.00000000000E+00  0.00000000000E+00  0.64061781291E+03  0.64061781291E+03  0.00000000000E+00 0.  1.
         -2   -1    0    0    0  501 -0.00000000000E+00 -0.00000000000E+00 -0.66725599111E+01  0.66725599111E+01  0.00000000000E+00 0. -1.
         21    1    1    2  502  501  0.34593501001E+02  0.82764118541E+01  0.45416340839E+02  0.57687549089E+02  0.00000000000E+00 0. -1.
         21    1    1    2  503  502 -0.34593501001E+02 -0.82764118541E+01  0.58852891216E+03  0.58960282373E+03  0.00000000000E+00 0.  1.
</event>
<event>
 4    1  0.5722454E+002  0.2960039E+02  0.7546771E-02  0.1423101E+00
          2   -1    0    0  503    0  0.00000000000E+00  0.00000000000E+00  0.10921179577E+04  0.10921179577E+04  0.00000000000E+00 0.  1.
         -2   -1    0    0    0  501 -0.00000000000E+00 -0.00000000000E+00 -0.99770981054E+00  0.99770981054E+00  0.00000000000E+00 0. -1.
         21    1    1    2  502  501  0.25487840014E+02  0.15051676195E+02  0.30366290076E+03  0.30510218000E+03  0.00000000000E+00 0.  1.
         21    1    1    2  503  502 -0.25487840014E+02 -0.15051676195E+02  0.78745734713E+03  0.78801348751E+03  0.00000000000E+00 0. -1.
</event>
<event>
 4    1  0.5722454E+002  0.3490016E+02  0.7546771E-02  0.1381266E+00
          2   -1    0    0  503    0  0.00000000000E+00  0.00000000000E+00  0.21293148277E+03  0.21293148277E+03  0.00000000000E+00 0. -1.
         -2   -1    0    0    0  501 -0.00000000000E+00 -0.00000000000E+00 -0.66990631218E+01  0.66990631218E+01  0.00000000000E+00 0.  1.
         21    1    1    2  502  501  0.26593326389E+02 -0.22601238462E+02  0.14509268247E+03  0.14923105406E+03  0.00000000000E+00 0. -1.
         21    1    1    2  503  502 -0.26593326389E+02  0.22601238462E+02  0.61139737177E+02  0.70399491834E+02  0.00000000000E+00 0.  1.
</event>
<event>
 4    1  0.5722454E+002  0.2283164E+02  0.7546771E-02  0.1494623E+00
          2   -1    0    0  503    0  0.00000000000E+00  0.00000000000E+00  0.15793969414E+04  0.15793969414E+04  0.00000000000E+00 0.  1.
         -2   -1    0    0    0  501 -0.00000000000E+00 -0.00000000000E+00 -0.70404084571E+00  0.70404084571E+00  0.00000000000E+00 0. -1.
         21    1    1    2  502  501 -0.21939672702E+02 -0.63193815606E+01  0.21352878276E+03  0.21474595430E+03  0.00000000000E+00 0. -1.
         21    1    1    2  503  502  0.21939672702E+02  0.63193815606E+01  0.13651641178E+04  0.13653550280E+04  0.00000000000E+00 0.  1.
</event>
<event>
 4    1  0.5722454E+002  0.2250050E+02  0.7546771E-02  0.1498867E+00
          2   -1    0    0  502    0  0.00000000000E+00  0.00000000000E+00  0.92805519058E+03  0.92805519058E+03  0.00000000000E+00 0. -1.
         -2   -1    0    0    0  501 -0.00000000000E+00 -0.00000000000E+00 -0.82142719251E+00  0.82142719251E+00  0.00000000000E+00 0.  1.
         21    1    1    2  502  503  0.55942613641E+01  0.21793965298E+02  0.73278585294E+03  0.73313121537E+03  0.00000000000E+00 0. -1.
         21    1    1    2  503  501 -0.55942613641E+01 -0.21793965298E+02  0.19444791045E+03  0.19574540240E+03  0.00000000000E+00 0.  1.
</event>
<event>
 4    1  0.5722454E+002  0.2760948E+02  0.7546771E-02  0.1441580E+00
          2   -1    0    0  502    0  0.00000000000E+00  0.00000000000E+00  0.47370625903E+02  0.47370625903E+02  0.00000000000E+00 0. -1.
         -2   -1    0    0    0  501 -0.00000000000E+00 -0.00000000000E+00 -0.16489615383E+02  0.16489615383E+02  0.00000000000E+00 0.  1.
         21    1    1    2  502  503 -0.21573288726E+02 -0.17230104613E+02  0.10481638331E+02  0.29532152538E+02  0.00000000000E+00 0. -1.
         21    1    1    2  503  501  0.21573288726E+02  0.17230104613E+02  0.20399372188E+02  0.34328088748E+02  0.00000000000E+00 0.  1.
</event>
<event>
 4    1  0.5722454E+002  0.6779528E+02  0.7546771E-02  0.1235424E+00
          2   -1    0    0  502    0  0.00000000000E+00  0.00000000000E+00  0.86567668314E+03  0.86567668314E+03  0.00000000000E+00 0. -1.
         -2   -1    0    0    0  501 -0.00000000000E+00 -0.00000000000E+00 -0.98808267181E+01  0.98808267181E+01  0.00000000000E+00 0.  1.
         21    1    1    2  502  503 -0.57672270186E+02 -0.35638585386E+02  0.72567088461E+03  0.72883086672E+03  0.00000000000E+00 0. -1.
         21    1    1    2  503  501  0.57672270186E+02  0.35638585386E+02  0.13012497181E+03  0.14672664313E+03  0.00000000000E+00 0.  1.
</event>
<event>
 4    1  0.5722454E+002  0.2061797E+02  0.7546771E-02  0.1524790E+00
          2   -1    0    0  502    0  0.00000000000E+00  0.00000000000E+00  0.78594659665E+03  0.78594659665E+03  0.00000000000E+00 0. -1.
         -2   -1    0    0    0  501 -0.00000000000E+00 -0.00000000000E+00 -0.19107637929E+01  0.19107637929E+01  0.00000000000E+00 0.  1.
         21    1    1    2  502  503  0.19358790918E+02 -0.70949169635E+01  0.72556442530E+03  0.72585731097E+03  0.00000000000E+00 0. -1.
         21    1    1    2  503  501 -0.19358790918E+02  0.70949169635E+01  0.58471407559E+02  0.62000049471E+02  0.00000000000E+00 0.  1.
</event>
<event>
 4    1  0.5722454E+002  0.2827227E+02  0.7546771E-02  0.1435230E+00
          2   -1    0    0  502    0  0.00000000000E+00  0.00000000000E+00  0.69936537513E+03  0.69936537513E+03  0.00000000000E+00 0.  1.
         -2   -1    0    0    0  501 -0.00000000000E+00 -0.00000000000E+00 -0.12685134090E+01  0.12685134090E+01  0.00000000000E+00 0. -1.
         21    1    1    2  502  503  0.55008615621E+00 -0.28266913232E+02  0.45927628211E+03  0.46014565551E+03  0.00000000000E+00 0.  1.
         21    1    1    2  503  501 -0.55008615621E+00  0.28266913232E+02  0.23882057962E+03  0.24048823303E+03  0.00000000000E+00 0. -1.
</event>
<event>
 4    1  0.5722454E+002  0.2262169E+02  0.7546771E-02  0.1497304E+00
          2   -1    0    0  502    0  0.00000000000E+00  0.00000000000E+00  0.38844010956E+03  0.38844010956E+03  0.00000000000E+00 0.  1.
         -2   -1    0    0    0  501 -0.00000000000E+00 -0.00000000000E+00 -0.19691078330E+01  0.19691078330E+01  0.00000000000E+00 0. -1.
         21    1    1    2  502  503  0.12276045462E+02 -0.19001037918E+02  0.30553386706E+03  0.30637017586E+03  0.00000000000E+00 0.  1.
         21    1    1    2  503  501 -0.12276045462E+02  0.19001037918E+02  0.80937134670E+02  0.84039041538E+02  0.00000000000E+00 0. -1.
</event>
<event>
 4    1  0.5722454E+002  0.2706517E+02  0.7546771E-02  0.1446955E+00
          2   -1    0    0  502    0  0.00000000000E+00  0.00000000000E+00  0.25035232956E+03  0.25035232956E+03  0.00000000000E+00 0.  1.
         -2   -1    0    0    0  501 -0.00000000000E+00 -0.00000000000E+00 -0.41042772944E+01  0.41042772944E+01  0.00000000000E+00 0. -1.
         21    1    1    2  502  503 -0.20460768957E+02  0.17716672202E+02  0.19129422682E+03  0.19319939119E+03  0.00000000000E+00 0.  1.
         21    1    1    2  503  501  0.20460768957E+02 -0.17716672202E+02  0.54953825443E+02  0.61257215665E+02  0.00000000000E+00 0. -1.
</event>
<event>
 4    1  0.5722454E+002  0.2099182E+02  0.7546771E-02  0.1519382E+00
          2   -1    0    0  502    0  0.00000000000E+00  0.00000000000E+00  0.43805195480E+02  0.43805195480E+02  0.00000000000E+00 0. -1.
         -2   -1    0    0    0  501 -0.00000000000E+00 -0.00000000000E+00 -0.13487647339E+02  0.13487647339E+02  0.00000000000E+00 0.  1.
         21    1    1    2  502  503 -0.20784683192E+02 -0.29416931275E+01  0.29601013668E+02  0.36288794745E+02  0.00000000000E+00 0. -1.
         21    1    1    2  503  501  0.20784683192E+02  0.29416931275E+01  0.71653447278E+00  0.21004048074E+02  0.00000000000E+00 0.  1.
</event>
<event>
 4    1  0.5722454E+002  0.2451292E+02  0.7546771E-02  0.1474327E+00
          2   -1    0    0  503    0  0.00000000000E+00  0.00000000000E+00  0.59403599237E+03  0.59403599237E+03  0.00000000000E+00 0. -1.
         -2   -1    0    0    0  501 -0.00000000000E+00 -0.00000000000E+00 -0.39530024046E+01  0.39530024046E+01  0.00000000000E+00 0.  1.
         21    1    1    2  502  501  0.32519954558E+01 -0.24296253641E+02  0.37123127706E+02  0.44486065527E+02  0.00000000000E+00 0.  1.
         21    1    1    2  503  502 -0.32519954558E+01  0.24296253641E+02  0.55295986226E+03  0.55350292925E+03  0.00000000000E+00 0. -1.
</event>
<event>
 4    1  0.5722454E+002  0.2014152E+02  0.7546771E-02  0.1531883E+00
          2   -1    0    0  502    0  0.00000000000E+00  0.00000000000E+00  0.60910928359E+01  0.60910928359E+01  0.00000000000E+00 0.  1.
         -2   -1    0    0    0  501 -0.00000000000E+00 -0.00000000000E+00 -0.90617410295E+02  0.90617410295E+02  0.00000000000E+00 0. -1.
         21    1    1    2  502  503  0.97426995188E+01 -0.17628402827E+02 -0.17370507555E+02  0.26597280178E+02  0.00000000000E+00 0.  1.
         21    1    1    2  503  501 -0.97426995188E+01  0.17628402827E+02 -0.67155809904E+02  0.70111222953E+02  0.00000000000E+00 0. -1.
</event>
<event>
 4    1  0.5722454E+002  0.1531636E+03  0.7546771E-02  0.1094418E+00
          2   -1    0    0  502    0  0.00000000000E+00  0.00000000000E+00  0.16983634540E+04  0.16983634540E+04  0.00000000000E+00 0. -1.
         -2   -1    0    0    0  501 -0.00000000000E+00 -0.00000000000E+00 -0.16788168254E+02  0.16788168254E+02  0.00000000000E+00 0.  1.
         21    1    1    2  502  503 -0.15313767599E+03  0.28193776550E+01  0.12018180007E+04  0.12115385275E+04  0.00000000000E+00 0.  1.
         21    1    1    2  503  501  0.15313767599E+03 -0.28193776550E+01  0.47975728501E+03  0.50361309476E+03  0.00000000000E+00 0. -1.
</event>
<event>
 4    1  0.5722454E+002  0.2000069E+02  0.7546771E-02  0.1534025E+00
          2   -1    0    0  503    0  0.00000000000E+00  0.00000000000E+00  0.13023093870E+04  0.13023093870E+04  0.00000000000E+00 0.  1.
         -2   -1    0    0    0  501 -0.00000000000E+00 -0.00000000000E+00 -0.21884000173E+02  0.21884000173E+02  0.00000000000E+00 0. -1.
         21    1    1    2  502  501 -0.17534645157E+01 -0.19923679859E+02 -0.17220922972E+02  0.26392950668E+02  0.00000000000E+00 0. -1.
         21    1    1    2  503  502  0.17534645157E+01  0.19923679859E+02  0.12976463098E+04  0.12978004365E+04  0.00000000000E+00 0.  1.
</event>
<event>
 4    1  0.5722454E+002  0.5515625E+02  0.7546771E-02  0.1277242E+00
          2   -1    0    0  502    0  0.00000000000E+00  0.00000000000E+00  0.19975173053E+03  0.19975173053E+03  0.00000000000E+00 0.  1.
         -2   -1    0    0    0  501 -0.00000000000E+00 -0.00000000000E+00 -0.20586828741E+02  0.20586828741E+02  0.00000000000E+00 0. -1.
         21    1    1    2  502  503 -0.54928037104E+02 -0.50122496320E+01  0.14578047874E+03  0.15586583939E+03  0.00000000000E+00 0.  1.
         21    1    1    2  503  501  0.54928037104E+02  0.50122496320E+01  0.33384423043E+02  0.64472719877E+02  0.00000000000E+00 0. -1.
</event>
<event>
 4    1  0.5722454E+002  0.2759305E+02  0.7546771E-02  0.1441740E+00
          2   -1    0    0  502    0  0.00000000000E+00  0.00000000000E+00  0.10231750005E+03  0.10231750005E+03  0.00000000000E+00 0.  1.
         -2   -1    0    0    0  501 -0.00000000000E+00 -0.00000000000E+00 -0.15909612520E+02  0.15909612520E+02  0.00000000000E+00 0. -1.
         21    1    1    2  502  503  0.16439529837E+02  0.22161188878E+02  0.86331556467E+02  0.90633956527E+02  0.00000000000E+00 0.  1.
         21    1    1    2  503  501 -0.16439529837E+02 -0.22161188878E+02  0.76331058041E-01  0.27593156039E+02  0.00000000000E+00 0. -1.
</event>
<event>
 4    1  0.5722454E+002  0.2753051E+02  0.7546771E-02  0.1442351E+00
          2   -1    0    0  502    0  0.00000000000E+00  0.00000000000E+00  0.45496610343E+03  0.45496610343E+03  0.00000000000E+00 0.  1.
         -2   -1    0    0    0  501 -0.00000000000E+00 -0.00000000000E+00 -0.50923493305E+01  0.50923493305E+01  0.00000000000E+00 0. -1.
         21    1    1    2  502  503 -0.74816957068E+01 -0.26494396921E+02  0.41362561047E+03  0.41454079953E+03  0.00000000000E+00 0.  1.
         21    1    1    2  503  501  0.74816957068E+01  0.26494396921E+02  0.36248143624E+02  0.45517653225E+02  0.00000000000E+00 0. -1.
</event>
<event>
 4    1  0.5722454E+002  0.4009901E+02  0.7546771E-02  0.1347907E+00
          2   -1    0    0  502    0  0.00000000000E+00  0.00000000000E+00  0.18261496226E+04  0.18261496226E+04  0.00000000000E+00 0.  1.
         -2   -1    0    0    0  501 -0.00000000000E+00 -0.00000000000E+00 -0.30762197690E+01  0.30762197690E+01  0.00000000000E+00 0. -1.
         21    1    1    2  502  503 -0.16795915312E+02  0.36411920075E+02  0.16842471537E+04  0.16847244301E+04  0.00000000000E+00 0. -1.
         21    1    1    2  503  501  0.16795915312E+02 -0.36411920075E+02  0.13882624917E+03  0.14450141228E+03  0.00000000000E+00 0.  1.
</event>
<event>
 4    1  0.5722454E+002  0.2593531E+02  0.7546771E-02  0.1458607E+00
          2   -1    0    0  502    0  0.00000000000E+00  0.00000000000E+00  0.85244854602E+01  0.85244854602E+01  0.00000000000E+00 0.  1.
         -2   -1    0    0    0  501 -0.00000000000E+00 -0.00000000000E+00 -0.86166101825E+02  0.86166101825E+02  0.00000000000E+00 0. -1.
         21    1    1    2  502  503  0.15070645609E+02 -0.21107247521E+02 -0.52562957340E+02  0.58613178904E+02  0.00000000000E+00 0. -1.
         21    1    1    2  503  501 -0.15070645609E+02  0.21107247521E+02 -0.25078659026E+02  0.36077408381E+02  0.00000000000E+00 0.  1.
</event>
<event>
 4    1  0.5722454E+002  0.2571681E+02  0.7546771E-02  0.1460942E+00
          2   -1    0    0  503    0  0.00000000000E+00  0.00000000000E+00  0.15253644744E+04  0.15253644744E+04  0.00000000000E+00 0.  1.
         -2   -1    0    0    0  501 -0.00000000000E+00 -0.00000000000E+00 -0.44990073351E+00  0.44990073351E+00  0.00000000000E+00 0. -1.
         21    1    1    2  502  501 -0.21003103583E+02 -0.14839941956E+02  0.61711262140E+03  0.61764823462E+03  0.00000000000E+00 0. -1.
         21    1    1    2  503  502  0.21003103583E+02  0.14839941956E+02  0.90780195230E+03  0.90816614054E+03  0.00000000000E+00 0.  1.
</event>
<event>
 4    1  0.5722454E+002  0.2055359E+02  0.7546771E-02  0.1525735E+00
          2   -1    0    0  502    0  0.00000000000E+00  0.00000000000E+00  0.73835217188E+03  0.73835217188E+03  0.00000000000E+00 0. -1.
         -2   -1    0    0    0  501 -0.00000000000E+00 -0.00000000000E+00 -0.57355611664E+00  0.57355611664E+00  0.00000000000E+00 0.  1.
         21    1    1    2  502  503  0.81176815581E+01 -0.18882617766E+02  0.38716669444E+03  0.38771187665E+03  0.00000000000E+00 0.  1.
         21    1    1    2  503  501 -0.81176815581E+01  0.18882617766E+02  0.35061192132E+03  0.35121385135E+03  0.00000000000E+00 0. -1.
</event>
<event>
 4    1  0.5722454E+002  0.2354174E+02  0.7546771E-02  0.1485805E+00
          2   -1    0    0  503    0  0.00000000000E+00  0.00000000000E+00  0.15845463531E+01  0.15845463531E+01  0.00000000000E+00 0. -1.
         -2   -1    0    0    0  501 -0.00000000000E+00 -0.00000000000E+00 -0.38930773092E+03  0.38930773092E+03  0.00000000000E+00 0.  1.
         21    1    1    2  502  501 -0.61218281345E+01 -0.22731840895E+02 -0.25615368460E+03  0.25723320840E+03  0.00000000000E+00 0.  1.
         21    1    1    2  503  502  0.61218281345E+01  0.22731840895E+02 -0.13156949996E+03  0.13365906887E+03  0.00000000000E+00 0. -1.
</event>
<event>
 4    1  0.5722454E+002  0.2012554E+02  0.7546771E-02  0.1532125E+00
          2   -1    0    0  502    0  0.00000000000E+00  0.00000000000E+00  0.33515984721E+03  0.33515984721E+03  0.00000000000E+00 0. -1.
         -2   -1    0    0    0  501 -0.00000000000E+00 -0.00000000000E+00 -0.42761944489E+01  0.42761944489E+01  0.00000000000E+00 0.  1.
         21    1    1    2  502  503  0.78213140654E+01 -0.18543585565E+02  0.30919119726E+03  0.30984550018E+03  0.00000000000E+00 0. -1.
         21    1    1    2  503  501 -0.78213140654E+01  0.18543585565E+02  0.21692455502E+02  0.29590541479E+02  0.00000000000E+00 0.  1.
</event>
<event>
 4    1  0.5722454E+002  0.3508737E+02  0.7546771E-02  0.1379950E+00
          2   -1    0    0  503    0  0.00000000000E+00  0.00000000000E+00  0.63828311663E+03  0.63828311663E+03  0.00000000000E+00 0.  1.
         -2   -1    0    0    0  501 -0.00000000000E+00 -0.00000000000E+00 -0.26751259775E+01  0.26751259775E+01  0.00000000000E+00 0. -1.
         21    1    1    2  502  501 -0.20839442288E+02 -0.28228373250E+02  0.14852987608E+03  0.15261797896E+03  0.00000000000E+00 0. -1.
         21    1    1    2  503  502  0.20839442288E+02  0.28228373250E+02  0.48707811457E+03  0.48834026365E+03  0.00000000000E+00 0.  1.
</event>
<event>
 4    1  0.5722454E+002  0.4238044E+02  0.7546771E-02  0.1335074E+00
          2   -1    0    0  503    0  0.00000000000E+00  0.00000000000E+00  0.22041333643E+04  0.22041333643E+04  0.00000000000E+00 0.  1.
         -2   -1    0    0    0  501 -0.00000000000E+00 -0.00000000000E+00 -0.81501225126E+00  0.81501225126E+00  0.00000000000E+00 0. -1.
         21    1    1    2  502  501 -0.39292142878E+02  0.15881726462E+02  0.11157623691E+04  0.11165669555E+04  0.00000000000E+00 0.  1.
         21    1    1    2  503  502  0.39292142878E+02 -0.15881726462E+02  0.10875559829E+04  0.10883814211E+04  0.00000000000E+00 0. -1.
</event>
<event>
 4    1  0.5722454E+002  0.3281691E+02  0.7546771E-02  0.1396597E+00
          2   -1    0    0  502    0  0.00000000000E+00  0.00000000000E+00  0.26252995352E+03  0.26252995352E+03  0.00000000000E+00 0. -1.
         -2   -1    0    0    0  501 -0.00000000000E+00 -0.00000000000E+00 -0.24016548342E+02  0.24016548342E+02  0.00000000000E+00 0.  1.
         21    1    1    2  502  503 -0.10032203468E+02  0.31245874318E+02  0.24972136503E+03  0.25186843772E+03  0.00000000000E+00 0. -1.
         21    1    1    2  503  501  0.10032203468E+02 -0.31245874318E+02 -0.11207959853E+02  0.34678064138E+02  0.00000000000E+00 0.  1.
</event>
<event>
 4    1  0.5722454E+002  0.2804844E+02  0.7546771E-02  0.1437351E+00
          2   -1    0    0  503    0  0.00000000000E+00  0.00000000000E+00  0.13358010195E+04  0.13358010195E+04  0.00000000000E+00 0.  1.
         -2   -1    0    0    0  501 -0.00000000000E+00 -0.00000000000E+00 -0.70641337728E+00  0.70641337728E+00  0.00000000000E+00 0. -1.
         21    1    1    2  502  501 -0.91826219987E+01 -0.26502720365E+02  0.39504481637E+03  0.39603929310E+03  0.00000000000E+00 0. -1.
         21    1    1    2  503  502  0.91826219987E+01  0.26502720365E+02  0.94004978980E+03  0.94046813983E+03  0.00000000000E+00 0.  1.
</event>
<event>
 4    1  0.5722454E+002  0.7017548E+02  0.7546771E-02  0.1228699E+00
          2   -1    0    0  502    0  0.00000000000E+00  0.00000000000E+00  0.11988373642E+03  0.11988373642E+03  0.00000000000E+00 0.  1.
         -2   -1    0    0    0  501 -0.00000000000E+00 -0.00000000000E+00 -0.50656847942E+02  0.50656847942E+02  0.00000000000E+00 0. -1.
         21    1    1    2  502  503  0.68965200925E+02  0.12976863789E+02  0.71692844261E+02  0.10032179150E+03  0.00000000000E+00 0.  1.
         21    1    1    2  503  501 -0.68965200925E+02 -0.12976863789E+02 -0.24659557832E+01  0.70218792858E+02  0.00000000000E+00 0. -1.
</event>
<event>
 4    1  0.5722454E+002  0.2965121E+02  0.7546771E-02  0.1422652E+00
          2   -1    0    0  503    0  0.00000000000E+00  0.00000000000E+00  0.27920073290E+03  0.27920073290E+03  0.00000000000E+00 0.  1.
         -2   -1    0    0    0  501 -0.00000000000E+00 -0.00000000000E+00 -0.70510050714E+01  0.70510050714E+01  0.00000000000E+00 0. -1.
         21    1    1    2  502  501  0.51837271002E+01  0.29194575202E+02  0.29602154994E+02  0.41898470475E+02  0.00000000000E+00 0. -1.
         21    1    1    2  503  502 -0.51837271002E+01 -0.29194575202E+02  0.24254757284E+03  0.24435326750E+03  0.00000000000E+00 0.  1.
</event>
<event>
 4    1  0.5722454E+002  0.2981729E+02  0.7546771E-02  0.1421191E+00
          2   -1    0    0  502    0  0.00000000000E+00  0.00000000000E+00  0.38491819782E+03  0.38491819782E+03  0.00000000000E+00 0. -1.
         -2   -1    0    0    0  501 -0.00000000000E+00 -0.00000000000E+00 -0.32224540641E+01  0.32224540641E+01  0.00000000000E+00 0.  1.
         21    1    1    2  502  503  0.24398784444E+02  0.17139729736E+02  0.29413041457E+03  0.29563790656E+03  0.00000000000E+00 0.  1.
         21    1    1    2  503  501 -0.24398784444E+02 -0.17139729736E+02  0.87565329188E+02  0.92502745330E+02  0.00000000000E+00 0. -1.
</event>
<event>
 4    1  0.5722454E+002  0.2811673E+02  0.7546771E-02  0.1436702E+00
          2   -1    0    0  502    0  0.00000000000E+00  0.00000000000E+00  0.57400810173E+02  0.57400810173E+02  0.00000000000E+00 0. -1.
         -2   -1    0    0    0  501 -0.00000000000E+00 -0.00000000000E+00 -0.34720774973E+02  0.34720774973E+02  0.00000000000E+00 0.  1.
         21    1    1    2  502  503 -0.18533055308E+02  0.21144179309E+02  0.47117619878E+02  0.54869122106E+02  0.00000000000E+00 0. -1.
         21    1    1    2  503  501  0.18533055308E+02 -0.21144179309E+02 -0.24437584678E+02  0.37252463040E+02  0.00000000000E+00 0.  1.
</event>
<event>
 4    1  0.5722454E+002  0.2697346E+02  0.7546771E-02  0.1447875E+00
          2   -1    0    0  503    0  0.00000000000E+00  0.00000000000E+00  0.13635388227E+04  0.13635388227E+04  0.00000000000E+00 0.  1.
         -2   -1    0    0    0  501 -0.00000000000E+00 -0.00000000000E+00 -0.69683981871E+00  0.69683981871E+00  0.00000000000E+00 0. -1.
         21    1    1    2  502  501 -0.16633028740E+02  0.21234636238E+02  0.35126251163E+03  0.35229663566E+03  0.00000000000E+00 0. -1.
         21    1    1    2  503  502  0.16633028740E+02 -0.21234636238E+02  0.10115794713E+04  0.10119390269E+04  0.00000000000E+00 0.  1.
</event>
<event>
 4    1  0.5722454E+002  0.2623575E+02  0.7546771E-02  0.1455440E+00
          2   -1    0    0  502    0  0.00000000000E+00  0.00000000000E+00  0.34778020773E+02  0.34778020773E+02  0.00000000000E+00 0.  1.
         -2   -1    0    0    0  501 -0.00000000000E+00 -0.00000000000E+00 -0.29215918834E+02  0.29215918834E+02  0.00000000000E+00 0. -1.
         21    1    1    2  502  503  0.23901800760E+01  0.26126649605E+02  0.20953885312E+02  0.33576481204E+02  0.00000000000E+00 0.  1.
         21    1    1    2  503  501 -0.23901800760E+01 -0.26126649605E+02 -0.15391783372E+02  0.30417458404E+02  0.00000000000E+00 0. -1.
</event>
<event>
 4    1  0.5722454E+002  0.2330429E+02  0.7546771E-02  0.1488712E+00
          2   -1    0    0  503    0  0.00000000000E+00  0.00000000000E+00  0.43361186776E+03  0.43361186776E+03  0.00000000000E+00 0.  1.
         -2   -1    0    0    0  501 -0.00000000000E+00 -0.00000000000E+00 -0.27203597902E+01  0.27203597902E+01  0.00000000000E+00 0. -1.
         21    1    1    2  502  501  0.15268018602E+02 -0.17606178630E+02  0.55187848926E+02  0.59906498705E+02  0.00000000000E+00 0. -1.
         21    1    1    2  503  502 -0.15268018602E+02  0.17606178630E+02  0.37570365904E+03  0.37642572885E+03  0.00000000000E+00 0.  1.
</event>
<event>
 4    1  0.5722454E+002  0.2236287E+02  0.7546771E-02  0.1500657E+00
          2   -1    0    0  503    0  0.00000000000E+00  0.00000000000E+00  0.11638552286E+01  0.11638552286E+01  0.00000000000E+00 0. -1.
         -2   -1    0    0    0  501 -0.00000000000E+00 -0.00000000000E+00 -0.49938376511E+03  0.49938376511E+03  0.00000000000E+00 0.  1.
         21    1    1    2  502  501 -0.13318485779E+01 -0.22323179614E+02 -0.34260571255E+03  0.34333478187E+03  0.00000000000E+00 0.  1.
         21    1    1    2  503  502  0.13318485779E+01  0.22323179614E+02 -0.15561419733E+03  0.15721283847E+03  0.00000000000E+00 0. -1.
</event>
<event>
 4    1  0.5722454E+002  0.3178918E+02  0.7546771E-02  0.1404660E+00
          2   -1    0    0  502    0  0.00000000000E+00  0.00000000000E+00  0.22603021799E+04  0.22603021799E+04  0.00000000000E+00 0.  1.
         -2   -1    0    0    0  501 -0.00000000000E+00 -0.00000000000E+00 -0.14997457552E+01  0.14997457552E+01  0.00000000000E+00 0. -1.
         21    1    1    2  502  503  0.31414664375E+02 -0.48652621429E+01  0.20768582829E+04  0.20771015573E+04  0.00000000000E+00 0.  1.
         21    1    1    2  503  501 -0.31414664375E+02  0.48652621429E+01  0.18194415118E+03  0.18470036834E+03  0.00000000000E+00 0. -1.
</event>
<event>
 4    1  0.5722454E+002  0.8721999E+02  0.7546771E-02  0.1188010E+00
          2   -1    0    0  503    0  0.00000000000E+00  0.00000000000E+00  0.21611541423E+04  0.21611541423E+04  0.00000000000E+00 0.  1.
         -2   -1    0    0    0  501 -0.00000000000E+00 -0.00000000000E+00 -0.35637474952E+01  0.35637474952E+01  0.00000000000E+00 0. -1.
         21    1    1    2  502  501  0.10198962342E+02  0.86621638104E+02  0.95891529217E+03  0.96287375319E+03  0.00000000000E+00 0. -1.
         21    1    1    2  503  502 -0.10198962342E+02 -0.86621638104E+02  0.11986751026E+04  0.12018441366E+04  0.00000000000E+00 0.  1.
</event>
<event>
 4    1  0.5722454E+002  0.2546026E+02  0.7546771E-02  0.1463720E+00
          2   -1    0    0  503    0  0.00000000000E+00  0.00000000000E+00  0.15922501849E+04  0.15922501849E+04  0.00000000000E+00 0. -1.
         -2   -1    0    0    0  501 -0.00000000000E+00 -0.00000000000E+00 -0.41328733042E+01  0.41328733042E+01  0.00000000000E+00 0.  1.
         21    1    1    2  502  501  0.12325213288E+01 -0.25430407356E+02  0.36199395633E+02  0.44256309960E+02  0.00000000000E+00 0.  1.
         21    1    1    2  503  502 -0.12325213288E+01  0.25430407356E+02  0.15519179160E+04  0.15521267483E+04  0.00000000000E+00 0. -1.
</event>
<event>
 4    1  0.5722454E+002  0.2369037E+02  0.7546771E-02  0.1484006E+00
          2   -1    0    0  502    0  0.00000000000E+00  0.00000000000E+00  0.10223558840E+03  0.10223558840E+03  0.00000000000E+00 0.  1.
         -2   -1    0    0    0  501 -0.00000000000E+00 -0.00000000000E+00 -0.11294805878E+02  0.11294805878E+02  0.00000000000E+00 0. -1.
         21    1    1    2  502  503 -0.77747810266E+01 -0.22378258363E+02  0.47744454975E+01  0.24166691896E+02  0.00000000000E+00 0. -1.
         21    1    1    2  503  501  0.77747810266E+01  0.22378258363E+02  0.86166337021E+02  0.89363702380E+02  0.00000000000E+00 0.  1.
</event>
<event>
 4    1  0.5722454E+002  0.2161056E+02  0.7546771E-02  0.1510723E+00
          2   -1    0    0  502    0  0.00000000000E+00  0.00000000000E+00  0.15853808333E+03  0.15853808333E+03  0.00000000000E+00 0. -1.
         -2   -1    0    0    0  501 -0.00000000000E+00 -0.00000000000E+00 -0.35007377936E+01  0.35007377936E+01  0.00000000000E+00 0.  1.
         21    1    1    2  502  503 -0.17087338519E+02 -0.13230232917E+02  0.10977719612E+03  0.11188408729E+03  0.00000000000E+00 0.  1.
         21    1    1    2  503  501  0.17087338519E+02  0.13230232917E+02  0.45260149412E+02  0.50154733829E+02  0.00000000000E+00 0. -1.
</event>
<event>
 4    1  0.5722454E+002  0.2613544E+02  0.7546771E-02  0.1456491E+00
          2   -1    0    0  502    0  0.00000000000E+00  0.00000000000E+00  0.72493864282E+03  0.72493864282E+03  0.00000000000E+00 0. -1.
         -2   -1    0    0    0  501 -0.00000000000E+00 -0.00000000000E+00 -0.19809367803E+01  0.19809367803E+01  0.00000000000E+00 0.  1.
         21    1    1    2  502  503 -0.28383896755E+00  0.26133900561E+02  0.62466732252E+03  0.62521382354E+03  0.00000000000E+00 0. -1.
         21    1    1    2  503  501  0.28383896755E+00 -0.26133900561E+02  0.98290383523E+02  0.10170575606E+03  0.00000000000E+00 0.  1.
</event>
<event>
 4    1  0.5722454E+002  0.3362585E+02  0.7546771E-02  0.1390490E+00
          2   -1    0    0  502    0  0.00000000000E+00  0.00000000000E+00  0.17463574343E+04  0.17463574343E+04  0.00000000000E+00 0.  1.
         -2   -1    0    0    0  501 -0.00000000000E+00 -0.00000000000E+00 -0.48036010361E+01  0.48036010361E+01  0.00000000000E+00 0. -1.
         21    1    1    2  502  503  0.18458771484E+02 -0.28106434425E+02  0.16852143445E+04  0.16855497871E+04  0.00000000000E+00 0.  1.
         21    1    1    2  503  501 -0.18458771484E+02  0.28106434425E+02  0.56339488791E+02  0.65611248258E+02  0.00000000000E+00 0. -1.
</event>
<event>
 4    1  0.5722454E+002  0.2281206E+02  0.7546771E-02  0.1494872E+00
          2   -1    0    0  503    0  0.00000000000E+00  0.00000000000E+00  0.13669570938E+04  0.13669570938E+04  0.00000000000E+00 0.  1.
         -2   -1    0    0    0  501 -0.00000000000E+00 -0.00000000000E+00 -0.57853115321E+00  0.57853115321E+00  0.00000000000E+00 0. -1.
         21    1    1    2  502  501 -0.20604166948E+02  0.97907412258E+01  0.28333582472E+03  0.28425266908E+03  0.00000000000E+00 0. -1.
         21    1    1    2  503  502  0.20604166948E+02 -0.97907412258E+01  0.10830427380E+04  0.10832829559E+04  0.00000000000E+00 0.  1.
</event>
<event>
 4    1  0.5722454E+002  0.4683706E+02  0.7546771E-02  0.1312501E+00
          2   -1    0    0  503    0  0.00000000000E+00  0.00000000000E+00  0.86747168917E+03  0.86747168917E+03  0.00000000000E+00 0. -1.
         -2   -1    0    0    0  501 -0.00000000000E+00 -0.00000000000E+00 -0.28633136788E+01  0.28633136788E+01  0.00000000000E+00 0.  1.
         21    1    1    2  502  501  0.45528599913E+02 -0.10993488246E+02  0.58103233543E+03  0.58291704813E+03  0.00000000000E+00 0. -1.
         21    1    1    2  503  502 -0.45528599913E+02  0.10993488246E+02  0.28357604007E+03  0.28741795472E+03  0.00000000000E+00 0.  1.
</event>
<event>
 4    1  0.5722454E+002  0.2396336E+02  0.7546771E-02  0.1480743E+00
          2   -1    0    0  502    0  0.00000000000E+00  0.00000000000E+00  0.29993102300E+02  0.29993102300E+02  0.00000000000E+00 0.  1.
         -2   -1    0    0    0  501 -0.00000000000E+00 -0.00000000000E+00 -0.26278279220E+02  0.26278279220E+02  0.00000000000E+00 0. -1.
         21    1    1    2  502  503 -0.23460878133E+02 -0.48815669725E+01  0.16515549630E+02  0.29103365415E+02  0.00000000000E+00 0.  1.
         21    1    1    2  503  501  0.23460878133E+02  0.48815669725E+01 -0.12800726549E+02  0.27168016105E+02  0.00000000000E+00 0. -1.
</event>
<event>
 4    1  0.5722454E+002  0.2120900E+02  0.7546771E-02  0.1516302E+00
          2   -1    0    0  503    0  0.00000000000E+00  0.00000000000E+00  0.29037437406E+03  0.29037437406E+03  0.00000000000E+00 0.  1.
         -2   -1    0    0    0  501 -0.00000000000E+00 -0.00000000000E+00 -0.16028817182E+01  0.16028817182E+01  0.00000000000E+00 0. -1.
         21    1    1    2  502  501 -0.45534877590E+01  0.20714428644E+02  0.17112478715E+03  0.17243408765E+03  0.00000000000E+00 0.  1.
         21    1    1    2  503  502  0.45534877590E+01 -0.20714428644E+02  0.11764670519E+03  0.11954316813E+03  0.00000000000E+00 0. -1.
</event>
<event>
 4    1  0.5722454E+002  0.2075010E+02  0.7546771E-02  0.1522863E+00
          2   -1    0    0  503    0  0.00000000000E+00  0.00000000000E+00  0.27398887344E+03  0.27398887344E+03  0.00000000000E+00 0.  1.
         -2   -1    0    0    0  501 -0.00000000000E+00 -0.00000000000E+00 -0.35928311903E+01  0.35928311903E+01  0.00000000000E+00 0. -1.
         21    1    1    2  502  501  0.18564648499E+02  0.92693365507E+01  0.31094883713E+02  0.37382597116E+02  0.00000000000E+00 0. -1.
         21    1    1    2  503  502 -0.18564648499E+02 -0.92693365507E+01  0.23930115853E+03  0.24019910751E+03  0.00000000000E+00 0.  1.
</event>
<event>
 4    1  0.5722454E+002  0.2624400E+02  0.7546771E-02  0.1455354E+00
          2   -1    0    0  503    0  0.00000000000E+00  0.00000000000E+00  0.44008642053E+01  0.44008642053E+01  0.00000000000E+00 0.  1.
         -2   -1    0    0    0  501 -0.00000000000E+00 -0.00000000000E+00 -0.15768919265E+03  0.15768919265E+03  0.00000000000E+00 0. -1.
         21    1    1    2  502  501 -0.26242037704E+02  0.32076978650E+00 -0.83674000782E+02  0.87693134526E+02  0.00000000000E+00 0.  1.
         21    1    1    2  503  502  0.26242037704E+02 -0.32076978650E+00 -0.69614327660E+02  0.74396922327E+02  0.00000000000E+00 0. -1.
</event>
<event>
 4    1  0.5722454E+002  0.2185030E+02  0.7546771E-02  0.1507463E+00
          2   -1    0    0  503    0  0.00000000000E+00  0.00000000000E+00  0.10423427135E+04  0.10423427135E+04  0.00000000000E+00 0.  1.
         -2   -1    0    0    0  501 -0.00000000000E+00 -0.00000000000E+00 -0.13417248305E+01  0.13417248305E+01  0.00000000000E+00 0. -1.
         21    1    1    2  502  501 -0.14013916831E+02 -0.16764425172E+02  0.96998060659E+02  0.99428665826E+02  0.00000000000E+00 0. -1.
         21    1    1    2  503  502  0.14013916831E+02  0.16764425172E+02  0.94400292800E+03  0.94425577250E+03  0.00000000000E+00 0.  1.
</event>
<event>
 4    1  0.5722454E+002  0.4488897E+02  0.7546771E-02  0.1321996E+00
          2   -1    0    0  502    0  0.00000000000E+00  0.00000000000E+00  0.12574663989E+04  0.12574663989E+04  0.00000000000E+00 0.  1.
         -2   -1    0    0    0  501 -0.00000000000E+00 -0.00000000000E+00 -0.57514405734E+01  0.57514405734E+01  0.00000000000E+00 0. -1.
         21    1    1    2  502  503 -0.24061195524E+02 -0.37895631562E+02  0.11623101996E+04  0.11631766934E+04  0.00000000000E+00 0.  1.
         21    1    1    2  503  501  0.24061195524E+02  0.37895631562E+02  0.89404758767E+02  0.10004114609E+03  0.00000000000E+00 0. -1.
</event>
<event>
 4    1  0.5722454E+002  0.2166554E+02  0.7546771E-02  0.1509971E+00
          2   -1    0    0  503    0  0.00000000000E+00  0.00000000000E+00  0.19292833527E+04  0.19292833527E+04  0.00000000000E+00 0. -1.
         -2   -1    0    0    0  501 -0.00000000000E+00 -0.00000000000E+00 -0.27965853733E+00  0.27965853733E+00  0.00000000000E+00 0.  1.
         21    1    1    2  502  501 -0.19259077679E+02 -0.99238804844E+01  0.61663299914E+03  0.61701349345E+03  0.00000000000E+00 0.  1.
         21    1    1    2  503  502  0.19259077679E+02  0.99238804844E+01  0.13123706950E+04  0.13125495178E+04  0.00000000000E+00 0. -1.
</event>
<event>
 4    1  0.5722454E+002  0.2921945E+02  0.7546771E-02  0.1426503E+00
          2   -1    0    0  503    0  0.00000000000E+00  0.00000000000E+00  0.22662169230E+04  0.22662169230E+04  0.00000000000E+00 0. -1.
         -2   -1    0    0    0  501 -0.00000000000E+00 -0.00000000000E+00 -0.52554870215E+00  0.52554870215E+00  0.00000000000E+00 0.  1.
         21    1    1    2  502  501 -0.25857339163E+02  0.13607868484E+02  0.52976017615E+03  0.53056537797E+03  0.00000000000E+00 0. -1.
         21    1    1    2  503  502  0.25857339163E+02 -0.13607868484E+02  0.17359311981E+04  0.17361770937E+04  0.00000000000E+00 0.  1.
</event>
<event>
 4    1  0.5722454E+002  0.2683441E+02  0.7546771E-02  0.1449279E+00
          2   -1    0    0  502    0  0.00000000000E+00  0.00000000000E+00  0.22974643295E+04  0.22974643295E+04  0.00000000000E+00 0.  1.
         -2   -1    0    0    0  501 -0.00000000000E+00 -0.00000000000E+00 -0.58229975824E+00  0.58229975824E+00  0.00000000000E+00 0. -1.
         21    1    1    2  502  503 -0.26528613298E+02  0.40395509916E+01  0.19292227769E+04  0.19294093936E+04  0.00000000000E+00 0.  1.
         21    1    1    2  503  501  0.26528613298E+02 -0.40395509916E+01  0.36765925285E+03  0.36863723564E+03  0.00000000000E+00 0. -1.
</event>
<event>
 4    1  0.5722454E+002  0.2315328E+02  0.7546771E-02  0.1490582E+00
          2   -1    0    0  503    0  0.00000000000E+00  0.00000000000E+00  0.27162595635E+02  0.27162595635E+02  0.00000000000E+00 0.  1.
         -2   -1    0    0    0  501 -0.00000000000E+00 -0.00000000000E+00 -0.35434337254E+02  0.35434337254E+02  0.00000000000E+00 0. -1.
         21    1    1    2  502  501 -0.16706867049E+02 -0.16029821472E+02 -0.24968351615E+02  0.34051331331E+02  0.00000000000E+00 0.  1.
         21    1    1    2  503  502  0.16706867049E+02  0.16029821472E+02  0.16696609995E+02  0.28545601559E+02  0.00000000000E+00 0. -1.
</event>
<event>
 4    1  0.5722454E+002  0.2311647E+02  0.7546771E-02  0.1491041E+00
          2   -1    0    0  503    0  0.00000000000E+00  0.00000000000E+00  0.45774909029E+03  0.45774909029E+03  0.00000000000E+00 0. -1.
         -2   -1    0    0    0  501 -0.00000000000E+00 -0.00000000000E+00 -0.23386049328E+01  0.23386049328E+01  0.00000000000E+00 0.  1.
         21    1    1    2  502  501  0.57540182102E+00  0.23109310870E+02  0.39050383457E+03  0.39118744375E+03  0.00000000000E+00 0. -1.
         21    1    1    2  503  502 -0.57540182102E+00 -0.23109310870E+02  0.64906650784E+02  0.68900251466E+02  0.00000000000E+00 0.  1.
</event>
<event>
 4    1  0.5722454E+002  0.2094543E+02  0.7546771E-02  0.1520045E+00
          2   -1    0    0  503    0  0.00000000000E+00  0.00000000000E+00  0.99764503426E+02  0.99764503426E+02  0.00000000000E+00 0. -1.
         -2   -1    0    0    0  501 -0.00000000000E+00 -0.00000000000E+00 -0.54588878508E+01  0.54588878508E+01  0.00000000000E+00 0.  1.
         21    1    1    2  502  501  0.14695155411E+02 -0.14925262213E+02  0.70352069144E+02  0.73403846476E+02  0.00000000000E+00 0. -1.
         21    1    1    2  503  502 -0.14695155411E+02  0.14925262213E+02  0.23953546432E+02  0.31819544801E+02  0.00000000000E+00 0.  1.
</event>
<event>
 4    1  0.5722454E+002  0.2545249E+02  0.7546771E-02  0.1463805E+00
          2   -1    0    0  502    0  0.00000000000E+00  0.00000000000E+00  0.10644962163E+04  0.10644962163E+04  0.00000000000E+00 0. -1.
         -2   -1    0    0    0  501 -0.00000000000E+00 -0.00000000000E+00 -0.76391680731E+00  0.76391680731E+00  0.00000000000E+00 0.  1.
         21    1    1    2  502  503 -0.24510411879E+02 -0.68606761886E+01  0.77204921310E+03  0.77246865089E+03  0.00000000000E+00 0. -1.
         21    1    1    2  503  501  0.24510411879E+02  0.68606761886E+01  0.29168308643E+03  0.29279148225E+03  0.00000000000E+00 0.  1.
</event>
<event>
 4    1  0.5722454E+002  0.4088844E+02  0.7546771E-02  0.1343357E+00
          2   -1    0    0  503    0  0.00000000000E+00  0.00000000000E+00  0.84114965701E+03  0.84114965701E+03  0.00000000000E+00 0. -1.
         -2   -1    0    0    0  501 -0.00000000000E+00 -0.00000000000E+00 -0.37596041542E+01  0.37596041542E+01  0.00000000000E+00 0.  1.
         21    1    1    2  502  501 -0.23304102640E+02  0.33597371618E+02  0.12866561933E+03  0.13500631903E+03  0.00000000000E+00 0. -1.
         21    1    1    2  503  502  0.23304102640E+02 -0.33597371618E+02  0.70872443352E+03  0.70990294213E+03  0.00000000000E+00 0.  1.
</event>
<event>
 4    1  0.5722454E+002  0.2040656E+02  0.7546771E-02  0.1527909E+00
          2   -1    0    0  503    0  0.00000000000E+00  0.00000000000E+00  0.25617895644E+02  0.25617895644E+02  0.00000000000E+00 0. -1.
         -2   -1    0    0    0  501 -0.00000000000E+00 -0.00000000000E+00 -0.53716614587E+02  0.53716614587E+02  0.00000000000E+00 0.  1.
         21    1    1    2  502  501 -0.19498532810E+01 -0.20313193310E+02 -0.47175365307E+02  0.51399833094E+02  0.00000000000E+00 0.  1.
         21    1    1    2  503  502  0.19498532810E+01  0.20313193310E+02  0.19076646364E+02  0.27934677137E+02  0.00000000000E+00 0. -1.
</event>
<event>
 4    1  0.5722454E+002  0.2522346E+02  0.7546771E-02  0.1466319E+00
          2   -1    0    0  503    0  0.00000000000E+00  0.00000000000E+00  0.29876700781E+03  0.29876700781E+03  0.00000000000E+00 0.  1.
         -2   -1    0    0    0  501 -0.00000000000E+00 -0.00000000000E+00 -0.32595707525E+01  0.32595707525E+01  0.00000000000E+00 0. -1.
         21    1    1    2  502  501 -0.13732994771E+02 -0.21157211468E+02  0.58835898224E+02  0.64014730041E+02  0.00000000000E+00 0. -1.
         21    1    1    2  503  502  0.13732994771E+02  0.21157211468E+02  0.23667153884E+03  0.23801184852E+03  0.00000000000E+00 0.  1.
</event>
<event>
 4    1  0.5722454E+002  0.3636149E+02  0.7546771E-02  0.1371236E+00
          2   -1    0    0  503    0  0.00000000000E+00  0.00000000000E+00  0.47470582668E+02  0.47470582668E+02  0.00000000000E+00 0. -1.
         -2   -1    0    0    0  501 -0.00000000000E+00 -0.00000000000E+00 -0.28042982682E+02  0.28042982682E+02  0.00000000000E+00 0.  1.
         21    1    1    2  502  501 -0.33714775408E+02  0.13618799626E+02  0.65991491000E+01  0.36955467158E+02  0.00000000000E+00 0. -1.
         21    1    1    2  503  502  0.33714775408E+02 -0.13618799626E+02  0.12828450886E+02  0.38558098192E+02  0.00000000000E+00 0.  1.
</event>
<event>
 4    1  0.5722454E+002  0.2543032E+02  0.7546771E-02  0.1464047E+00
          2   -1    0    0  503    0  0.00000000000E+00  0.00000000000E+00  0.10525987787E+01  0.10525987787E+01  0.00000000000E+00 0.  1.
         -2   -1    0    0    0  501 -0.00000000000E+00 -0.00000000000E+00 -0.77436179362E+03  0.77436179362E+03  0.00000000000E+00 0. -1.
         21    1    1    2  502  501  0.24712684505E+02  0.59987044960E+01 -0.56287653474E+03  0.56345070290E+03  0.00000000000E+00 0. -1.
         21    1    1    2  503  502 -0.24712684505E+02 -0.59987044960E+01 -0.21043266010E+03  0.21196368951E+03  0.00000000000E+00 0.  1.
</event>
<event>
 4    1  0.5722454E+002  0.2609656E+02  0.7546771E-02  0.1456901E+00
          2   -1    0    0  502    0  0.00000000000E+00  0.00000000000E+00  0.14304331497E+04  0.14304331497E+04  0.00000000000E+00 0. -1.
         -2   -1    0    0    0  501 -0.00000000000E+00 -0.00000000000E+00 -0.19572009086E+01  0.19572009086E+01  0.00000000000E+00 0.  1.
         21    1    1    2  502  503 -0.25980346688E+02  0.24601275212E+01  0.13372635362E+04  0.13375181479E+04  0.00000000000E+00 0. -1.
         21    1    1    2  503  501  0.25980346688E+02 -0.24601275212E+01  0.91212412646E+02  0.94872202790E+02  0.00000000000E+00 0.  1.
</event>
<event>
 4    1  0.5722454E+002  0.2608561E+02  0.7546771E-02  0.1457016E+00
          2   -1    0    0  502    0  0.00000000000E+00  0.00000000000E+00  0.96728494746E+01  0.96728494746E+01  0.00000000000E+00 0. -1.
         -2   -1    0    0    0  501 -0.00000000000E+00 -0.00000000000E+00 -0.15453822621E+03  0.15453822621E+03  0.00000000000E+00 0.  1.
         21    1    1    2  502  503  0.18868395423E+01 -0.26017283650E+02 -0.11830677593E+02  0.28643047050E+02  0.00000000000E+00 0. -1.
         21    1    1    2  503  501 -0.18868395423E+01  0.26017283650E+02 -0.13303469914E+03  0.13556802863E+03  0.00000000000E+00 0.  1.
</event>
<event>
 4    1  0.5722454E+002  0.2113657E+02  0.7546771E-02  0.1517324E+00
          2   -1    0    0  502    0  0.00000000000E+00  0.00000000000E+00  0.51199636061E+03  0.51199636061E+03  0.00000000000E+00 0. -1.
         -2   -1    0    0    0  501 -0.00000000000E+00 -0.00000000000E+00 -0.39714487012E+01  0.39714487012E+01  0.00000000000E+00 0.  1.
         21    1    1    2  502  503  0.64685170838E+01 -0.20122452322E+02  0.48189975924E+03  0.48236307151E+03  0.00000000000E+00 0. -1.
         21    1    1    2  503  501 -0.64685170838E+01  0.20122452322E+02  0.26125152668E+02  0.33604737800E+02  0.00000000000E+00 0.  1.
</event>
<event>
 4    1  0.5722454E+002  0.2307346E+02  0.7546771E-02  0.1491578E+00
          2   -1    0    0  503    0  0.00000000000E+00  0.00000000000E+00  0.71672500783E+02  0.71672500783E+02  0.00000000000E+00 0.  1.
         -2   -1    0    0    0  501 -0.00000000000E+00 -0.00000000000E+00 -0.18192021786E+02  0.18192021786E+02  0.00000000000E+00 0. -1.
         21    1    1    2  502  501  0.14195153046E+02  0.18190163254E+02 -0.78222306757E+01  0.24363326989E+02  0.00000000000E+00 0. -1.
         21    1    1    2  503  502 -0.14195153046E+02 -0.18190163254E+02  0.61302709672E+02  0.65501195580E+02  0.00000000000E+00 0.  1.
</event>
<event>
 4    1  0.5722454E+002  0.2628462E+02  0.7546771E-02  0.1454930E+00
          2   -1    0    0  502    0  0.00000000000E+00  0.00000000000E+00  0.96811913761E+01  0.96811913761E+01  0.00000000000E+00 0. -1.
         -2   -1    0    0    0  501 -0.00000000000E+00 -0.00000000000E+00 -0.10612074335E+03  0.10612074335E+03  0.00000000000E+00 0.  1.
         21    1    1    2  502  503  0.26138861878E+02 -0.27642348638E+01 -0.15083017537E+02  0.30304760561E+02  0.00000000000E+00 0. -1.
         21    1    1    2  503  501 -0.26138861878E+02  0.27642348638E+01 -0.81356534441E+02  0.85497174169E+02  0.00000000000E+00 0.  1.
</event>
<event>
 4    1  0.5722454E+002  0.2206928E+02  0.7546771E-02  0.1504528E+00
          2   -1    0    0  503    0  0.00000000000E+00  0.00000000000E+00  0.11867806606E+04  0.11867806606E+04  0.00000000000E+00 0.  1.
         -2   -1    0    0    0  501 -0.00000000000E+00 -0.00000000000E+00 -0.74147496082E+00  0.74147496082E+00  0.00000000000E+00 0. -1.
         21    1    1    2  502  501  0.14353657749E+02 -0.16763819294E+02  0.19625989031E+03  0.19749682952E+03  0.00000000000E+00 0. -1.
         21    1    1    2  503  502 -0.14353657749E+02  0.16763819294E+02  0.98977929537E+03  0.99002530608E+03  0.00000000000E+00 0.  1.
</event>
<event>
 4    1  0.5722454E+002  0.3088847E+02  0.7546771E-02  0.1412029E+00
          2   -1    0    0  503    0  0.00000000000E+00  0.00000000000E+00  0.44690632997E+03  0.44690632997E+03  0.00000000000E+00 0. -1.
         -2   -1    0    0    0  501 -0.00000000000E+00 -0.00000000000E+00 -0.32250590130E+01  0.32250590130E+01  0.00000000000E+00 0.  1.
         21    1    1    2  502  501 -0.20825100130E+00 -0.30887769430E+02  0.90986763424E+02  0.96086881453E+02  0.00000000000E+00 0.  1.
         21    1    1    2  503  502  0.20825100130E+00  0.30887769430E+02  0.35269450754E+03  0.35404450753E+03  0.00000000000E+00 0. -1.
</event>
<event>
 4    1  0.5722454E+002  0.2619789E+02  0.7546771E-02  0.1455836E+00
          2   -1    0    0  502    0  0.00000000000E+00  0.00000000000E+00  0.47719488523E+00  0.47719488523E+00  0.00000000000E+00 0.  1.
         -2   -1    0    0    0  501 -0.00000000000E+00 -0.00000000000E+00 -0.14604275404E+04  0.14604275404E+04  0.00000000000E+00 0. -1.
         21    1    1    2  502  503  0.20185368063E+02 -0.16699711204E+02 -0.63997804265E+03  0.64051403147E+03  0.00000000000E+00 0. -1.
         21    1    1    2  503  501 -0.20185368063E+02  0.16699711204E+02 -0.81997230287E+03  0.82039070382E+03  0.00000000000E+00 0.  1.
</event>
<event>
 4    1  0.5722454E+002  0.2620216E+02  0.7546771E-02  0.1455791E+00
          2   -1    0    0  502    0  0.00000000000E+00  0.00000000000E+00  0.15073881797E+03  0.15073881797E+03  0.00000000000E+00 0.  1.
         -2   -1    0    0    0  501 -0.00000000000E+00 -0.00000000000E+00 -0.74841580751E+02  0.74841580751E+02  0.00000000000E+00 0. -1.
         21    1    1    2  502  503  0.21568143809E+02  0.14878449124E+02  0.14725295007E+03  0.14956598671E+03  0.00000000000E+00 0.  1.
         21    1    1    2  503  501 -0.21568143809E+02 -0.14878449124E+02 -0.71355712856E+02  0.76014412007E+02  0.00000000000E+00 0. -1.
</event>
<event>
 4    1  0.5722454E+002  0.2032329E+02  0.7546771E-02  0.1529150E+00
          2   -1    0    0  503    0  0.00000000000E+00  0.00000000000E+00  0.20592393371E+03  0.20592393371E+03  0.00000000000E+00 0.  1.
         -2   -1    0    0    0  501 -0.00000000000E+00 -0.00000000000E+00 -0.20315170261E+01  0.20315170261E+01  0.00000000000E+00 0. -1.
         21    1    1    2  502  501  0.14633798408E+02 -0.14102771976E+02  0.90240813979E+02  0.92501031025E+02  0.00000000000E+00 0.  1.
         21    1    1    2  503  502 -0.14633798408E+02  0.14102771976E+02  0.11365160271E+03  0.11545441972E+03  0.00000000000E+00 0. -1.
</event>
<event>
 4    1  0.5722454E+002  0.4041138E+02  0.7546771E-02  0.1346092E+00
          2   -1    0    0  503    0  0.00000000000E+00  0.00000000000E+00  0.12595310739E+04  0.12595310739E+04  0.00000000000E+00 0. -1.
         -2   -1    0    0    0  501 -0.00000000000E+00 -0.00000000000E+00 -0.19604087668E+01  0.19604087668E+01  0.00000000000E+00 0.  1.
         21    1    1    2  502  501 -0.37545176019E+02  0.14947886931E+02  0.99582236346E+03  0.99664199145E+03  0.00000000000E+00 0. -1.
         21    1    1    2  503  502  0.37545176019E+02 -0.14947886931E+02  0.26174830169E+03  0.26484949123E+03  0.00000000000E+00 0.  1.
</event>
<event>
 4    1  0.5722454E+002  0.2350818E+02  0.7546771E-02  0.1486214E+00
          2   -1    0    0  502    0  0.00000000000E+00  0.00000000000E+00  0.42755368826E+01  0.42755368826E+01  0.00000000000E+00 0.  1.
         -2   -1    0    0    0  501 -0.00000000000E+00 -0.00000000000E+00 -0.99635327430E+03  0.99635327430E+03  0.00000000000E+00 0. -1.
         21    1    1    2  502  503 -0.74097003587E+01  0.22309887916E+02 -0.29303751444E+02  0.37567866680E+02  0.00000000000E+00 0.  1.
         21    1    1    2  503  501  0.74097003587E+01 -0.22309887916E+02 -0.96277398597E+03  0.96306094450E+03  0.00000000000E+00 0. -1.
</event>
<event>
 4    1  0.5722454E+002  0.2632796E+02  0.7546771E-02  0.1454478E+00
          2   -1    0    0  503    0  0.00000000000E+00  0.00000000000E+00  0.32035150190E+03  0.32035150190E+03  0.00000000000E+00 0. -1.
         -2   -1    0    0    0  501 -0.00000000000E+00 -0.00000000000E+00 -0.32430438972E+01  0.32430438972E+01  0.00000000000E+00 0.  1.
         21    1    1    2  502  501  0.25446105488E+02 -0.67569914099E+01  0.65214994915E+02  0.70328918512E+02  0.00000000000E+00 0.  1.
         21    1    1    2  503  502 -0.25446105488E+02  0.67569914099E+01  0.25189346309E+03  0.25326562729E+03  0.00000000000E+00 0. -1.
</event>
<event>
 4    1  0.5722454E+002  0.2280058E+02  0.7546771E-02  0.1495018E+00
          2   -1    0    0  502    0  0.00000000000E+00  0.00000000000E+00  0.67949472627E+03  0.67949472627E+03  0.00000000000E+00 0. -1.
         -2   -1    0    0    0  501 -0.00000000000E+00 -0.00000000000E+00 -0.23716566481E+01  0.23716566481E+01  0.00000000000E+00 0.  1.
         21    1    1    2  502  503 -0.17737086718E+02 -0.14326976492E+02  0.61916586258E+03  0.61958553234E+03  0.00000000000E+00 0. -1.
         21    1    1    2  503  501  0.17737086718E+02  0.14326976492E+02  0.57957207042E+02  0.62280850578E+02  0.00000000000E+00 0.  1.
</event>
<event>
 4    1  0.5722454E+002  0.2714627E+02  0.7546771E-02  0.1446144E+00
          2   -1    0    0  503    0  0.00000000000E+00  0.00000000000E+00  0.53903762879E+03  0.53903762879E+03  0.00000000000E+00 0.  1.
         -2   -1    0    0    0  501 -0.00000000000E+00 -0.00000000000E+00 -0.29033200406E+01  0.29033200406E+01  0.00000000000E+00 0. -1.
         21    1    1    2  502  501  0.25321333968E+01 -0.27027916301E+02  0.70960718520E+02  0.75975940481E+02  0.00000000000E+00 0. -1.
         21    1    1    2  503  502 -0.25321333968E+01  0.27027916301E+02  0.46517359022E+03  0.46596500834E+03  0.00000000000E+00 0.  1.
</event>
<event>
 4    1  0.5722454E+002  0.3178808E+02  0.7546771E-02  0.1404669E+00
          2   -1    0    0  502    0  0.00000000000E+00  0.00000000000E+00  0.32066745880E+03  0.32066745880E+03  0.00000000000E+00 0.  1.
         -2   -1    0    0    0  501 -0.00000000000E+00 -0.00000000000E+00 -0.71513771275E+01  0.71513771275E+01  0.00000000000E+00 0. -1.
         21    1    1    2  502  503  0.14653469700E+02 -0.28209176843E+02  0.27934650488E+03  0.28114934042E+03  0.00000000000E+00 0.  1.
         21    1    1    2  503  501 -0.14653469700E+02  0.28209176843E+02  0.34169576796E+02  0.46669495507E+02  0.00000000000E+00 0. -1.
</event>
<event>
 4    1  0.5722454E+002  0.2665955E+02  0.7546771E-02  0.1451058E+00
          2   -1    0    0  503    0  0.00000000000E+00  0.00000000000E+00  0.21994042787E+02  0.21994042787E+02  0.00000000000E+00 0.  1.
         -2   -1    0    0    0  501 -0.00000000000E+00 -0.00000000000E+00 -0.42083936795E+02  0.42083936795E+02  0.00000000000E+00 0. -1.
         21    1    1    2  502  501  0.22454206818E+02  0.14371503133E+02 -0.25481500217E+02  0.36878697908E+02  0.00000000000E+00 0. -1.
         21    1    1    2  503  502 -0.22454206818E+02 -0.14371503133E+02  0.53916062088E+01  0.27199281675E+02  0.00000000000E+00 0.  1.
</event>
<event>
 4    1  0.5722454E+002  0.3166249E+02  0.7546771E-02  0.1405679E+00
          2   -1    0    0  503    0  0.00000000000E+00  0.00000000000E+00  0.18151708271E+04  0.18151708271E+04  0.00000000000E+00 0.  1.
         -2   -1    0    0    0  501 -0.00000000000E+00 -0.00000000000E+00 -0.69481111837E+00  0.69481111837E+00  0.00000000000E+00 0. -1.
         21    1    1    2  502  501 -0.96478580288E+01  0.30156794811E+02  0.49604165839E+03  0.49705114455E+03  0.00000000000E+00 0. -1.
         21    1    1    2  503  502  0.96478580288E+01 -0.30156794811E+02  0.13184343576E+04  0.13188144936E+04  0.00000000000E+00 0.  1.
</event>
<event>
 4    1  0.5722454E+002  0.2015192E+02  0.7546771E-02  0.1531726E+00
          2   -1    0    0  502    0  0.00000000000E+00  0.00000000000E+00  0.12319361734E+04  0.12319361734E+04  0.00000000000E+00 0.  1.
         -2   -1    0    0    0  501 -0.00000000000E+00 -0.00000000000E+00 -0.54096327406E+00  0.54096327406E+00  0.00000000000E+00 0. -1.
         21    1    1    2  502  503 -0.17892008479E+02 -0.92723270792E+01  0.10008519777E+04  0.10010548343E+04  0.00000000000E+00 0.  1.
         21    1    1    2  503  501  0.17892008479E+02  0.92723270792E+01  0.23054323237E+03  0.23142230232E+03  0.00000000000E+00 0. -1.
</event>
<event>
 4    1  0.5722454E+002  0.4415341E+02  0.7546771E-02  0.1325727E+00
          2   -1    0    0  503    0  0.00000000000E+00  0.00000000000E+00  0.17110183222E+04  0.17110183222E+04  0.00000000000E+00 0. -1.
         -2   -1    0    0    0  501 -0.00000000000E+00 -0.00000000000E+00 -0.13705016546E+01  0.13705016546E+01  0.00000000000E+00 0.  1.
         21    1    1    2  502  501  0.43870011680E+02  0.49945897984E+01  0.50323120265E+03  0.50516449516E+03  0.00000000000E+00 0.  1.
         21    1    1    2  503  502 -0.43870011680E+02 -0.49945897984E+01  0.12064166179E+04  0.12072243287E+04  0.00000000000E+00 0. -1.
</event>
<event>
 4    1  0.5722454E+002  0.2380615E+02  0.7546771E-02  0.1482616E+00
          2   -1    0    0  503    0  0.00000000000E+00  0.00000000000E+00  0.47707078845E+03  0.47707078845E+03  0.00000000000E+00 0.  1.
         -2   -1    0    0    0  501 -0.00000000000E+00 -0.00000000000E+00 -0.15556358533E+01  0.15556358533E+01  0.00000000000E+00 0. -1.
         21    1    1    2  502  501  0.22764523625E+02 -0.69648534159E+01  0.12141048586E+03  0.12372242640E+03  0.00000000000E+00 0. -1.
         21    1    1    2  503  502 -0.22764523625E+02  0.69648534159E+01  0.35410466674E+03  0.35490399790E+03  0.00000000000E+00 0.  1.
</event>
<event>
 4    1  0.5722454E+002  0.1226468E+03  0.7546771E-02  0.1129492E+00
          2   -1    0    0  502    0  0.00000000000E+00  0.00000000000E+00  0.98159473509E+03  0.98159473509E+03  0.00000000000E+00 0. -1.
         -2   -1    0    0    0  501 -0.00000000000E+00 -0.00000000000E+00 -0.22291228450E+02  0.22291228450E+02  0.00000000000E+00 0.  1.
         21    1    1    2  502  503  0.12070833231E+03 -0.21719507098E+02  0.76026521144E+03  0.77009442940E+03  0.00000000000E+00 0. -1.
         21    1    1    2  503  501 -0.12070833231E+03  0.21719507098E+02  0.19903829520E+03  0.23379153414E+03  0.00000000000E+00 0.  1.
</event>
<event>
 4    1  0.5722454E+002  0.2135923E+02  0.7546771E-02  0.1514197E+00
          2   -1    0    0  503    0  0.00000000000E+00  0.00000000000E+00  0.45124865158E+02  0.45124865158E+02  0.00000000000E+00 0. -1.
         -2   -1    0    0    0  501 -0.00000000000E+00 -0.00000000000E+00 -0.27121324823E+02  0.27121324823E+02  0.00000000000E+00 0.  1.
         21    1    1    2  502  501 -0.11704110994E+02 -0.17867023510E+02 -0.19606878172E+02  0.28993903065E+02  0.00000000000E+00 0.  1.
         21    1    1    2  503  502  0.11704110994E+02  0.17867023510E+02  0.37610418507E+02  0.43252286917E+02  0.00000000000E+00 0. -1.
</event>
<event>
 4    1  0.5722454E+002  0.2534239E+02  0.7546771E-02  0.1465009E+00
          2   -1    0    0  502    0  0.00000000000E+00  0.00000000000E+00  0.35622719172E+03  0.35622719172E+03  0.00000000000E+00 0. -1.
         -2   -1    0    0    0  501 -0.00000000000E+00 -0.00000000000E+00 -0.22029728116E+01  0.22029728116E+01  0.00000000000E+00 0.  1.
         21    1    1    2  502  503  0.22482679678E+02  0.11694683533E+02  0.25338652145E+03  0.25465067398E+03  0.00000000000E+00 0. -1.
         21    1    1    2  503  501 -0.22482679678E+02 -0.11694683533E+02  0.10063769746E+03  0.10377949055E+03  0.00000000000E+00 0.  1.
</event>
<event>
 4    1  0.5722454E+002  0.3236267E+02  0.7546771E-02  0.1400117E+00
          2   -1    0    0  503    0  0.00000000000E+00  0.00000000000E+00  0.55850028397E+02  0.55850028397E+02  0.00000000000E+00 0.  1.
         -2   -1    0    0    0  501 -0.00000000000E+00 -0.00000000000E+00 -0.22437393995E+02  0.22437393995E+02  0.00000000000E+00 0. -1.
         21    1    1    2  502  501 -0.18232833743E+02 -0.26737729979E+02  0.84377820885E+00  0.32373668195E+02  0.00000000000E+00 0. -1.
         21    1    1    2  503  502  0.18232833743E+02  0.26737729979E+02  0.32568856194E+02  0.45913754197E+02  0.00000000000E+00 0.  1.
</event>
<event>
 4    1  0.5722454E+002  0.2121727E+02  0.7546771E-02  0.1516185E+00
          2   -1    0    0  502    0  0.00000000000E+00  0.00000000000E+00  0.29015173514E+02  0.29015173514E+02  0.00000000000E+00 0.  1.
         -2   -1    0    0    0  501 -0.00000000000E+00 -0.00000000000E+00 -0.50560947240E+02  0.50560947240E+02  0.00000000000E+00 0. -1.
         21    1    1    2  502  503  0.10829664337E+02  0.18245296298E+02  0.22352703819E+02  0.30819082314E+02  0.00000000000E+00 0.  1.
         21    1    1    2  503  501 -0.10829664337E+02 -0.18245296298E+02 -0.43898477545E+02  0.48757038439E+02  0.00000000000E+00 0. -1.
</event>
<event>
 4    1  0.5722454E+002  0.3327094E+02  0.7546771E-02  0.1393144E+00
          2   -1    0    0  502    0  0.00000000000E+00  0.00000000000E+00  0.24687242526E+02  0.24687242526E+02  0.00000000000E+00 0. -1.
         -2   -1    0    0    0  501 -0.00000000000E+00 -0.00000000000E+00 -0.47057956493E+02  0.47057956493E+02  0.00000000000E+00 0.  1.
         21    1    1    2  502  503  0.26840429206E+02 -0.19660790834E+02 -0.33959466500E+01  0.33443800469E+02  0.00000000000E+00 0. -1.
         21    1    1    2  503  501 -0.26840429206E+02  0.19660790834E+02 -0.18974767316E+02  0.38301398550E+02  0.00000000000E+00 0.  1.
</event>
<event>
 4    1  0.5722454E+002  0.3983621E+02  0.7546771E-02  0.1349448E+00
          2   -1    0    0  502    0  0.00000000000E+00  0.00000000000E+00  0.15547575661E+02  0.15547575661E+02  0.00000000000E+00 0. -1.
         -2   -1    0    0    0  501 -0.00000000000E+00 -0.00000000000E+00 -0.11106562698E+03  0.11106562698E+03  0.00000000000E+00 0.  1.
         21    1    1    2  502  503 -0.17253227757E+01 -0.39798831408E+02 -0.65776826522E+02  0.76899379889E+02  0.00000000000E+00 0.  1.
         21    1    1    2  503  501  0.17253227757E+01  0.39798831408E+02 -0.29741224795E+02  0.49713822750E+02  0.00000000000E+00 0. -1.
</event>
<event>
 4    1  0.5722454E+002  0.2359902E+02  0.7546771E-02  0.1485110E+00
          2   -1    0    0  502    0  0.00000000000E+00  0.00000000000E+00  0.27774207675E+03  0.27774207675E+03  0.00000000000E+00 0.  1.
         -2   -1    0    0    0  501 -0.00000000000E+00 -0.00000000000E+00 -0.20051597058E+01  0.20051597058E+01  0.00000000000E+00 0. -1.
         21    1    1    2  502  503  0.30520486791E+01  0.23400828603E+02  0.13752080375E+03  0.13953094727E+03  0.00000000000E+00 0. -1.
         21    1    1    2  503  501 -0.30520486791E+01 -0.23400828603E+02  0.13821611330E+03  0.14021628919E+03  0.00000000000E+00 0.  1.
</event>
<event>
 4    1  0.5722454E+002  0.3274328E+02  0.7546771E-02  0.1397163E+00
          2   -1    0    0  502    0  0.00000000000E+00  0.00000000000E+00  0.55114311369E+03  0.55114311369E+03  0.00000000000E+00 0.  1.
         -2   -1    0    0    0  501 -0.00000000000E+00 -0.00000000000E+00 -0.30096907484E+01  0.30096907484E+01  0.00000000000E+00 0. -1.
         21    1    1    2  502  503 -0.66317763960E+01 -0.32064657281E+02  0.43884313378E+03  0.44006297137E+03  0.00000000000E+00 0.  1.
         21    1    1    2  503  501  0.66317763960E+01  0.32064657281E+02  0.10929028916E+03  0.11408983307E+03  0.00000000000E+00 0. -1.
</event>
<event>
 4    1  0.5722454E+002  0.3154397E+02  0.7546771E-02  0.1406638E+00
          2   -1    0    0  503    0  0.00000000000E+00  0.00000000000E+00  0.98841111437E+03  0.98841111437E+03  0.00000000000E+00 0. -1.
         -2   -1    0    0    0  501 -0.00000000000E+00 -0.00000000000E+00 -0.10360035858E+01  0.10360035858E+01  0.00000000000E+00 0.  1.
         21    1    1    2  502  501 -0.31391837763E+02 -0.30942674472E+01  0.57690771494E+03  0.57776944669E+03  0.00000000000E+00 0.  1.
         21    1    1    2  503  502  0.31391837763E+02  0.30942674472E+01  0.41046739584E+03  0.41167767127E+03  0.00000000000E+00 0. -1.
</event>
<event>
 4    1  0.5722454E+002  0.3066048E+02  0.7546771E-02  0.1413942E+00
          2   -1    0    0  503    0  0.00000000000E+00  0.00000000000E+00  0.16476475032E+03  0.16476475032E+03  0.00000000000E+00 0. -1.
         -2   -1    0    0    0  501 -0.00000000000E+00 -0.00000000000E+00 -0.57135756105E+01  0.57135756105E+01  0.00000000000E+00 0.  1.
         21    1    1    2  502  501 -0.30267917629E+02  0.48906303471E+01  0.82730397189E+02  0.88229154603E+02  0.00000000000E+00 0. -1.
         21    1    1    2  503  502  0.30267917629E+02 -0.48906303471E+01  0.76320777519E+02  0.82249171327E+02  0.00000000000E+00 0.  1.
</event>
<event>
 4    1  0.5722454E+002  0.2768725E+02  0.7546771E-02  0.1440824E+00
          2   -1    0    0  502    0  0.00000000000E+00  0.00000000000E+00  0.13431257014E+03  0.13431257014E+03  0.00000000000E+00 0.  1.
         -2   -1    0    0    0  501 -0.00000000000E+00 -0.00000000000E+00 -0.77249010554E+01  0.77249010554E+01  0.00000000000E+00 0. -1.
         21    1    1    2  502  503 -0.12430639387E+02  0.24739909704E+02  0.99587150974E+02  0.10336432928E+03  0.00000000000E+00 0.  1.
         21    1    1    2  503  501  0.12430639387E+02 -0.24739909704E+02  0.27000518114E+02  0.38673141922E+02  0.00000000000E+00 0. -1.
</event>
<event>
 4    1  0.5722454E+002  0.5781563E+02  0.7546771E-02  0.1267440E+00
          2   -1    0    0  502    0  0.00000000000E+00  0.00000000000E+00  0.29255360500E+02  0.29255360500E+02  0.00000000000E+00 0. -1.
         -2   -1    0    0    0  501 -0.00000000000E+00 -0.00000000000E+00 -0.21287498193E+03  0.21287498193E+03  0.00000000000E+00 0.  1.
         21    1    1    2  502  503 -0.16404976346E+02  0.55439374820E+02 -0.94085940824E+01  0.58576182634E+02  0.00000000000E+00 0. -1.
         21    1    1    2  503  501  0.16404976346E+02 -0.55439374820E+02 -0.17421102734E+03  0.18355415979E+03  0.00000000000E+00 0.  1.
</event>
<event>
 4    1  0.5722454E+002  0.2885970E+02  0.7546771E-02  0.1429771E+00
          2   -1    0    0  502    0  0.00000000000E+00  0.00000000000E+00  0.31888742172E+04  0.31888742172E+04  0.00000000000E+00 0. -1.
         -2   -1    0    0    0  501 -0.00000000000E+00 -0.00000000000E+00 -0.27085446372E+00  0.27085446372E+00  0.00000000000E+00 0.  1.
         21    1    1    2  502  503  0.28788608892E+02 -0.20244833111E+01  0.18956041359E+04  0.18958238110E+04  0.00000000000E+00 0.  1.
         21    1    1    2  503  501 -0.28788608892E+02  0.20244833111E+01  0.12929992269E+04  0.12933212606E+04  0.00000000000E+00 0. -1.
</event>
<event>
 4    1  0.5722454E+002  0.2059020E+02  0.7546771E-02  0.1525197E+00
          2   -1    0    0  503    0  0.00000000000E+00  0.00000000000E+00  0.15476024295E+02  0.15476024295E+02  0.00000000000E+00 0. -1.
         -2   -1    0    0    0  501 -0.00000000000E+00 -0.00000000000E+00 -0.38517235385E+02  0.38517235385E+02  0.00000000000E+00 0.  1.
         21    1    1    2  502  501 -0.16440403705E+02  0.12396347819E+02 -0.26028014786E+02  0.33187555905E+02  0.00000000000E+00 0.  1.
         21    1    1    2  503  502  0.16440403705E+02 -0.12396347819E+02  0.29868036969E+01  0.20805703775E+02  0.00000000000E+00 0. -1.
</event>
<event>
 4    1  0.5722454E+002  0.3607364E+02  0.7546771E-02  0.1373168E+00
          2   -1    0    0  502    0  0.00000000000E+00  0.00000000000E+00  0.12839297364E+04  0.12839297364E+04  0.00000000000E+00 0.  1.
         -2   -1    0    0    0  501 -0.00000000000E+00 -0.00000000000E+00 -0.24083903405E+02  0.24083903405E+02  0.00000000000E+00 0. -1.
         21    1    1    2  502  503 -0.18717822401E+02 -0.30837490216E+02  0.12700203767E+04  0.12705325911E+04  0.00000000000E+00 0.  1.
         21    1    1    2  503  501  0.18717822401E+02  0.30837490216E+02 -0.10174543686E+02  0.37481048778E+02  0.00000000000E+00 0. -1.
</event>
<event>
 4    1  0.5722454E+002  0.2621750E+02  0.7546771E-02  0.1455631E+00
          2   -1    0    0  502    0  0.00000000000E+00  0.00000000000E+00  0.13155237138E+04  0.13155237138E+04  0.00000000000E+00 0.  1.
         -2   -1    0    0    0  501 -0.00000000000E+00 -0.00000000000E+00 -0.72771878470E+01  0.72771878470E+01  0.00000000000E+00 0. -1.
         21    1    1    2  502  503 -0.24377928436E+02  0.96474690660E+01  0.12913374488E+04  0.12916035629E+04  0.00000000000E+00 0.  1.
         21    1    1    2  503  501  0.24377928436E+02 -0.96474690660E+01  0.16909077162E+02  0.31197338744E+02  0.00000000000E+00 0. -1.
</event>
<event>
 4    1  0.5722454E+002  0.2055546E+02  0.7546771E-02  0.1525707E+00
          2   -1    0    0  503    0  0.00000000000E+00  0.00000000000E+00  0.19908487274E+04  0.19908487274E+04  0.00000000000E+00 0.  1.
         -2   -1    0    0    0  501 -0.00000000000E+00 -0.00000000000E+00 -0.27361742918E+00  0.27361742918E+00  0.00000000000E+00 0. -1.
         21    1    1    2  502  501  0.20356629038E+02  0.28521222537E+01  0.14668286922E+04  0.14669727125E+04  0.00000000000E+00 0.  1.
         21    1    1    2  503  502 -0.20356629038E+02 -0.28521222537E+01  0.52374641782E+03  0.52414963238E+03  0.00000000000E+00 0. -1.
</event>
<event>
 4    1  0.5722454E+002  0.2429574E+02  0.7546771E-02  0.1476838E+00
          2   -1    0    0  503    0  0.00000000000E+00  0.00000000000E+00  0.23573800381E+02  0.23573800381E+02  0.00000000000E+00 0.  1.
         -2   -1    0    0    0  501 -0.00000000000E+00 -0.00000000000E+00 -0.33093915547E+02  0.33093915547E+02  0.00000000000E+00 0. -1.
         21    1    1    2  502  501  0.12138478759E+02  0.21046142674E+02 -0.18737930510E+02  0.30682125542E+02  0.00000000000E+00 0. -1.
         21    1    1    2  503  502 -0.12138478759E+02 -0.21046142674E+02  0.92178153439E+01  0.25985590386E+02  0.00000000000E+00 0.  1.
</event>
<event>
 4    1  0.5722454E+002  0.2072401E+02  0.7546771E-02  0.1523242E+00
          2   -1    0    0  503    0  0.00000000000E+00  0.00000000000E+00  0.13819443697E+04  0.13819443697E+04  0.00000000000E+00 0. -1.
         -2   -1    0    0    0  501 -0.00000000000E+00 -0.00000000000E+00 -0.32330439856E+00  0.32330439856E+00  0.00000000000E+00 0.  1.
         21    1    1    2  502  501 -0.20663861145E+02 -0.15777332970E+01  0.82682590834E+03  0.82708558632E+03  0.00000000000E+00 0. -1.
         21    1    1    2  503  502  0.20663861145E+02  0.15777332970E+01  0.55479515699E+03  0.55518208781E+03  0.00000000000E+00 0.  1.
</event>
<event>
 4    1  0.5722454E+002  0.2291770E+02  0.7546771E-02  0.1493534E+00
          2   -1    0    0  502    0  0.00000000000E+00  0.00000000000E+00  0.31615715791E+01  0.31615715791E+01  0.00000000000E+00 0. -1.
         -2   -1    0    0    0  501 -0.00000000000E+00 -0.00000000000E+00 -0.56304909821E+03  0.56304909821E+03  0.00000000000E+00 0.  1.
         21    1    1    2  502  503 -0.14817417339E+01 -0.22869750154E+02 -0.42244521631E+02  0.48060593406E+02  0.00000000000E+00 0. -1.
         21    1    1    2  503  501  0.14817417339E+01  0.22869750154E+02 -0.51764300500E+03  0.51815007638E+03  0.00000000000E+00 0.  1.
</event>
<event>
 4    1  0.5722454E+002  0.2037373E+02  0.7546771E-02  0.1528397E+00
          2   -1    0    0  502    0  0.00000000000E+00  0.00000000000E+00  0.70964244819E+03  0.70964244819E+03  0.00000000000E+00 0. -1.
         -2   -1    0    0    0  501 -0.00000000000E+00 -0.00000000000E+00 -0.11400821623E+01  0.11400821623E+01  0.00000000000E+00 0.  1.
         21    1    1    2  502  503 -0.20252736647E+02 -0.22170658242E+01  0.60224795842E+03  0.60259247601E+03  0.00000000000E+00 0. -1.
         21    1    1    2  503  501  0.20252736647E+02  0.22170658242E+01  0.10625440760E+03  0.10819005434E+03  0.00000000000E+00 0.  1.
</event>
<event>
 4    1  0.5722454E+002  0.4186069E+02  0.7546771E-02  0.1337914E+00
          2   -1    0    0  502    0  0.00000000000E+00  0.00000000000E+00  0.19834088040E+03  0.19834088040E+03  0.00000000000E+00 0.  1.
         -2   -1    0    0    0  501 -0.00000000000E+00 -0.00000000000E+00 -0.17096071045E+02  0.17096071045E+02  0.00000000000E+00 0. -1.
         21    1    1    2  502  503 -0.38982847356E+02  0.15253021286E+02  0.16550199941E+03  0.17071388009E+03  0.00000000000E+00 0.  1.
         21    1    1    2  503  501  0.38982847356E+02 -0.15253021286E+02  0.15742809942E+02  0.44723071353E+02  0.00000000000E+00 0. -1.
</event>
<event>
 4    1  0.5722454E+002  0.3756777E+02  0.7546771E-02  0.1363360E+00
          2   -1    0    0  503    0  0.00000000000E+00  0.00000000000E+00  0.94988899356E+03  0.94988899356E+03  0.00000000000E+00 0.  1.
         -2   -1    0    0    0  501 -0.00000000000E+00 -0.00000000000E+00 -0.23471932333E+01  0.23471932333E+01  0.00000000000E+00 0. -1.
         21    1    1    2  502  501  0.37557956128E+02 -0.85865087652E+00  0.18533916714E+03  0.18910828704E+03  0.00000000000E+00 0. -1.
         21    1    1    2  503  502 -0.37557956128E+02  0.85865087652E+00  0.76220263319E+03  0.76312789976E+03  0.00000000000E+00 0.  1.
</event>
<event>
 4    1  0.5722454E+002  0.3923182E+02  0.7546771E-02  0.1353047E+00
          2   -1    0    0  502    0  0.00000000000E+00  0.00000000000E+00  0.97329290714E+02  0.97329290714E+02  0.00000000000E+00 0. -1.
         -2   -1    0    0    0  501 -0.00000000000E+00 -0.00000000000E+00 -0.42353557743E+02  0.42353557743E+02  0.00000000000E+00 0.  1.
         21    1    1    2  502  503  0.16960779471E+02  0.35376088686E+02  0.82774160227E+02  0.91600749409E+02  0.00000000000E+00 0. -1.
         21    1    1    2  503  501 -0.16960779471E+02 -0.35376088686E+02 -0.27798427255E+02  0.48082099048E+02  0.00000000000E+00 0.  1.
</event>
<event>
 4    1  0.5722454E+002  0.2232940E+02  0.7546771E-02  0.1501095E+00
          2   -1    0    0  502    0  0.00000000000E+00  0.00000000000E+00  0.81722201193E+02  0.81722201193E+02  0.00000000000E+00 0. -1.
         -2   -1    0    0    0  501 -0.00000000000E+00 -0.00000000000E+00 -0.91223887545E+01  0.91223887545E+01  0.00000000000E+00 0.  1.
         21    1    1    2  502  503 -0.11009191814E+02 -0.19426782883E+02  0.62439862398E+02  0.66312431820E+02  0.00000000000E+00 0. -1.
         21    1    1    2  503  501  0.11009191814E+02  0.19426782883E+02  0.10159950040E+02  0.24532158128E+02  0.00000000000E+00 0.  1.
</event>
<event>
 4    1  0.5722454E+002  0.2219119E+02  0.7546771E-02  0.1502912E+00
          2   -1    0    0  502    0  0.00000000000E+00  0.00000000000E+00  0.62470657698E+01  0.62470657698E+01  0.00000000000E+00 0.  1.
         -2   -1    0    0    0  501 -0.00000000000E+00 -0.00000000000E+00 -0.98260122247E+02  0.98260122247E+02  0.00000000000E+00 0. -1.
         21    1    1    2  502  503 -0.11636950552E+02  0.18895243975E+02 -0.22769617018E+02  0.31794721608E+02  0.00000000000E+00 0.  1.
         21    1    1    2  503  501  0.11636950552E+02 -0.18895243975E+02 -0.69243439459E+02  0.72712466408E+02  0.00000000000E+00 0. -1.
</event>
<event>
 4    1  0.5722454E+002  0.3748972E+02  0.7546771E-02  0.1363859E+00
          2   -1    0    0  503    0  0.00000000000E+00  0.00000000000E+00  0.65934327945E+02  0.65934327945E+02  0.00000000000E+00 0.  1.
         -2   -1    0    0    0  501 -0.00000000000E+00 -0.00000000000E+00 -0.42131921597E+02  0.42131921597E+02  0.00000000000E+00 0. -1.
         21    1    1    2  502  501 -0.33610523805E+02  0.16607590202E+02 -0.26078240316E+02  0.45667865954E+02  0.00000000000E+00 0. -1.
         21    1    1    2  503  502  0.33610523805E+02 -0.16607590202E+02  0.49880646664E+02  0.62398383588E+02  0.00000000000E+00 0.  1.
</event>
<event>
 4    1  0.5722454E+002  0.2960508E+02  0.7546771E-02  0.1423060E+00
          2   -1    0    0  503    0  0.00000000000E+00  0.00000000000E+00  0.13716177961E+03  0.13716177961E+03  0.00000000000E+00 0.  1.
         -2   -1    0    0    0  501 -0.00000000000E+00 -0.00000000000E+00 -0.11837399444E+02  0.11837399444E+02  0.00000000000E+00 0. -1.
         21    1    1    2  502  501  0.37887531822E+01  0.29361645517E+02  0.12123825912E+02  0.31991374351E+02  0.00000000000E+00 0. -1.
         21    1    1    2  503  502 -0.37887531822E+01 -0.29361645517E+02  0.11320055426E+03  0.11700780471E+03  0.00000000000E+00 0.  1.
</event>
<event>
 4    1  0.5722454E+002  0.2446178E+02  0.7546771E-02  0.1474915E+00
          2   -1    0    0  502    0  0.00000000000E+00  0.00000000000E+00  0.17446190966E+03  0.17446190966E+03  0.00000000000E+00 0. -1.
         -2   -1    0    0    0  501 -0.00000000000E+00 -0.00000000000E+00 -0.84106385589E+01  0.84106385589E+01  0.00000000000E+00 0.  1.
         21    1    1    2  502  503  0.23814280926E+02  0.55909614585E+01  0.15339002564E+03  0.15532829360E+03  0.00000000000E+00 0. -1.
         21    1    1    2  503  501 -0.23814280926E+02 -0.55909614585E+01  0.12661245461E+02  0.27544254622E+02  0.00000000000E+00 0.  1.
</event>
<event>
 4    1  0.5722454E+002  0.2502244E+02  0.7546771E-02  0.1468552E+00
          2   -1    0    0  502    0  0.00000000000E+00  0.00000000000E+00  0.44427341605E+02  0.44427341605E+02  0.00000000000E+00 0. -1.
         -2   -1    0    0    0  501 -0.00000000000E+00 -0.00000000000E+00 -0.31897508528E+02  0.31897508528E+02  0.00000000000E+00 0.  1.
         21    1    1    2  502  503 -0.94634841707E+01 -0.23163877212E+02 -0.22246600332E+02  0.33481845327E+02  0.00000000000E+00 0.  1.
         21    1    1    2  503  501  0.94634841707E+01  0.23163877212E+02  0.34776433409E+02  0.42843004806E+02  0.00000000000E+00 0. -1.
</event>
<event>
 4    1  0.5722454E+002  0.3129875E+02  0.7546771E-02  0.1408636E+00
          2   -1    0    0  503    0  0.00000000000E+00  0.00000000000E+00  0.38394280351E+02  0.38394280351E+02  0.00000000000E+00 0.  1.
         -2   -1    0    0    0  501 -0.00000000000E+00 -0.00000000000E+00 -0.34339902861E+02  0.34339902861E+02  0.00000000000E+00 0. -1.
         21    1    1    2  502  501  0.55604365546E+01  0.30800861343E+02 -0.16409201552E+02  0.35339403076E+02  0.00000000000E+00 0. -1.
         21    1    1    2  503  502 -0.55604365546E+01 -0.30800861343E+02  0.20463579042E+02  0.37394780136E+02  0.00000000000E+00 0.  1.
</event>
<event>
 4    1  0.5722454E+002  0.2829534E+02  0.7546771E-02  0.1435013E+00
          2   -1    0    0  503    0  0.00000000000E+00  0.00000000000E+00  0.23627661455E+03  0.23627661455E+03  0.00000000000E+00 0.  1.
         -2   -1    0    0    0  501 -0.00000000000E+00 -0.00000000000E+00 -0.37932910384E+01  0.37932910384E+01  0.00000000000E+00 0. -1.
         21    1    1    2  502  501 -0.20465724116E+02  0.19539194715E+02  0.15545275864E+03  0.15800691808E+03  0.00000000000E+00 0.  1.
         21    1    1    2  503  502  0.20465724116E+02 -0.19539194715E+02  0.77030564876E+02  0.82062987508E+02  0.00000000000E+00 0. -1.
</event>
<event>
 4    1  0.5722454E+002  0.2046067E+02  0.7546771E-02  0.1527106E+00
          2   -1    0    0  502    0  0.00000000000E+00  0.00000000000E+00  0.22880060339E+03  0.22880060339E+03  0.00000000000E+00 0.  1.
         -2   -1    0    0    0  501 -0.00000000000E+00 -0.00000000000E+00 -0.22830155471E+01  0.22830155471E+01  0.00000000000E+00 0. -1.
         21    1    1    2  502  503  0.18651096384E+02  0.84128332071E+01  0.16474363720E+03  0.16600935261E+03  0.00000000000E+00 0.  1.
         21    1    1    2  503  501 -0.18651096384E+02 -0.84128332071E+01  0.61773950646E+02  0.65074266322E+02  0.00000000000E+00 0. -1.
</event>
<event>
 4    1  0.5722454E+002  0.3563923E+02  0.7546771E-02  0.1376124E+00
          2   -1    0    0  503    0  0.00000000000E+00  0.00000000000E+00  0.13392365996E+04  0.13392365996E+04  0.00000000000E+00 0.  1.
         -2   -1    0    0    0  501 -0.00000000000E+00 -0.00000000000E+00 -0.14248331410E+01  0.14248331410E+01  0.00000000000E+00 0. -1.
         21    1    1    2  502  501  0.41719852663E+01  0.35394193107E+02  0.28129096541E+03  0.28353970020E+03  0.00000000000E+00 0. -1.
         21    1    1    2  503  502 -0.41719852663E+01 -0.35394193107E+02  0.10565208011E+04  0.10571217326E+04  0.00000000000E+00 0.  1.
</event>
<event>
 4    1  0.5722454E+002  0.2119795E+02  0.7546771E-02  0.1516457E+00
          2   -1    0    0  502    0  0.00000000000E+00  0.00000000000E+00  0.25077511551E+01  0.25077511551E+01  0.00000000000E+00 0.  1.
         -2   -1    0    0    0  501 -0.00000000000E+00 -0.00000000000E+00 -0.24065608943E+03  0.24065608943E+03  0.00000000000E+00 0. -1.
         21    1    1    2  502  503 -0.10158973840E+02  0.18605056521E+02 -0.57626709743E+02  0.61401877443E+02  0.00000000000E+00 0.  1.
         21    1    1    2  503  501  0.10158973840E+02 -0.18605056521E+02 -0.18052162853E+03  0.18176196314E+03  0.00000000000E+00 0. -1.
</event>
<event>
 4    1  0.5722454E+002  0.2670723E+02  0.7546771E-02  0.1450571E+00
          2   -1    0    0  503    0  0.00000000000E+00  0.00000000000E+00  0.88025782782E+02  0.88025782782E+02  0.00000000000E+00 0.  1.
         -2   -1    0    0    0  501 -0.00000000000E+00 -0.00000000000E+00 -0.81485173234E+01  0.81485173234E+01  0.00000000000E+00 0. -1.
         21    1    1    2  502  501  0.22084420205E+02  0.15018472211E+02  0.43531195012E+02  0.51070941469E+02  0.00000000000E+00 0.  1.
         21    1    1    2  503  502 -0.22084420205E+02 -0.15018472211E+02  0.36346070446E+02  0.45103358636E+02  0.00000000000E+00 0. -1.
</event>
<event>
 4    1  0.5722454E+002  0.2066475E+02  0.7546771E-02  0.1524106E+00
          2   -1    0    0  502    0  0.00000000000E+00  0.00000000000E+00  0.13934629639E+02  0.13934629639E+02  0.00000000000E+00 0.  1.
         -2   -1    0    0    0  501 -0.00000000000E+00 -0.00000000000E+00 -0.30996705269E+02  0.30996705269E+02  0.00000000000E+00 0. -1.
         21    1    1    2  502  503 -0.15737824234E+01 -0.20604736010E+02 -0.61392648815E+01  0.21557423558E+02  0.00000000000E+00 0. -1.
         21    1    1    2  503  501  0.15737824234E+01  0.20604736010E+02 -0.10922810749E+02  0.23373911351E+02  0.00000000000E+00 0.  1.
</event>
<event>
 4    1  0.5722454E+002  0.2349826E+02  0.7546771E-02  0.1486335E+00
          2   -1    0    0  503    0  0.00000000000E+00  0.00000000000E+00  0.47426191977E+02  0.47426191977E+02  0.00000000000E+00 0. -1.
         -2   -1    0    0    0  501 -0.00000000000E+00 -0.00000000000E+00 -0.19871790928E+02  0.19871790928E+02  0.00000000000E+00 0.  1.
         21    1    1    2  502  501  0.15420896074E+02 -0.17730314242E+02 -0.78763914372E+01  0.24783172132E+02  0.00000000000E+00 0.  1.
         21    1    1    2  503  502 -0.15420896074E+02  0.17730314242E+02  0.35430792486E+02  0.42514810773E+02  0.00000000000E+00 0. -1.
</event>
<event>
 4    1  0.5722454E+002  0.2682441E+02  0.7546771E-02  0.1449380E+00
          2   -1    0    0  503    0  0.00000000000E+00  0.00000000000E+00  0.12062668232E+02  0.12062668232E+02  0.00000000000E+00 0.  1.
         -2   -1    0    0    0  501 -0.00000000000E+00 -0.00000000000E+00 -0.24280318098E+03  0.24280318098E+03  0.00000000000E+00 0. -1.
         21    1    1    2  502  501 -0.11161625531E+02 -0.24391952626E+02 -0.22604807945E+03  0.22763409995E+03  0.00000000000E+00 0. -1.
         21    1    1    2  503  502  0.11161625531E+02  0.24391952626E+02 -0.46924332943E+01  0.27231749258E+02  0.00000000000E+00 0.  1.
</event>
<event>
 4    1  0.5722454E+002  0.2101160E+02  0.7546771E-02  0.1519099E+00
          2   -1    0    0  502    0  0.00000000000E+00  0.00000000000E+00  0.13396274617E+04  0.13396274617E+04  0.00000000000E+00 0.  1.
         -2   -1    0    0    0  501 -0.00000000000E+00 -0.00000000000E+00 -0.74222064788E+00  0.74222064788E+00  0.00000000000E+00 0. -1.
         21    1    1    2  502  503 -0.72114063413E+01 -0.19735319427E+02  0.11691603685E+04  0.11693491585E+04  0.00000000000E+00 0.  1.
         21    1    1    2  503  501  0.72114063413E+01  0.19735319427E+02  0.16972487257E+03  0.17102052387E+03  0.00000000000E+00 0. -1.
</event>
<event>
 4    1  0.5722454E+002  0.2454802E+02  0.7546771E-02  0.1473924E+00
          2   -1    0    0  502    0  0.00000000000E+00  0.00000000000E+00  0.69259621437E+03  0.69259621437E+03  0.00000000000E+00 0.  1.
         -2   -1    0    0    0  501 -0.00000000000E+00 -0.00000000000E+00 -0.12020258665E+01  0.12020258665E+01  0.00000000000E+00 0. -1.
         21    1    1    2  502  503 -0.10949407842E+02 -0.21970795753E+02  0.52799771874E+03  0.52856806221E+03  0.00000000000E+00 0.  1.
         21    1    1    2  503  501  0.10949407842E+02  0.21970795753E+02  0.16339646976E+03  0.16523017802E+03  0.00000000000E+00 0. -1.
</event>
<event>
 4    1  0.5722454E+002  0.2315687E+02  0.7546771E-02  0.1490538E+00
          2   -1    0    0  503    0  0.00000000000E+00  0.00000000000E+00  0.19221606534E+04  0.19221606534E+04  0.00000000000E+00 0. -1.
         -2   -1    0    0    0  501 -0.00000000000E+00 -0.00000000000E+00 -0.29030323453E+00  0.29030323453E+00  0.00000000000E+00 0.  1.
         21    1    1    2  502  501  0.91965508105E+00  0.23138605315E+02  0.77108103175E+03  0.77142867353E+03  0.00000000000E+00 0.  1.
         21    1    1    2  503  502 -0.91965508105E+00 -0.23138605315E+02  0.11507893184E+04  0.11510222831E+04  0.00000000000E+00 0. -1.
</event>
<event>
 4    1  0.5722454E+002  0.2024031E+02  0.7546771E-02  0.1530393E+00
          2   -1    0    0  503    0  0.00000000000E+00  0.00000000000E+00  0.92110550551E+00  0.92110550551E+00  0.00000000000E+00 0.  1.
         -2   -1    0    0    0  501 -0.00000000000E+00 -0.00000000000E+00 -0.44476004480E+03  0.44476004480E+03  0.00000000000E+00 0. -1.
         21    1    1    2  502  501  0.17489430945E+02  0.10187739387E+02 -0.22221019936E+03  0.22313010314E+03  0.00000000000E+00 0. -1.
         21    1    1    2  503  502 -0.17489430945E+02 -0.10187739387E+02 -0.22162873993E+03  0.22255104716E+03  0.00000000000E+00 0.  1.
</event>
<event>
 4    1  0.5722454E+002  0.3322296E+02  0.7546771E-02  0.1393506E+00
          2   -1    0    0  502    0  0.00000000000E+00  0.00000000000E+00  0.78119474676E+01  0.78119474676E+01  0.00000000000E+00 0.  1.
         -2   -1    0    0    0  501 -0.00000000000E+00 -0.00000000000E+00 -0.14129652711E+03  0.14129652711E+03  0.00000000000E+00 0. -1.
         21    1    1    2  502  503 -0.24590686614E+02  0.22339724374E+02 -0.66317144683E+02  0.74173639739E+02  0.00000000000E+00 0. -1.
         21    1    1    2  503  501  0.24590686614E+02 -0.22339724374E+02 -0.67167434961E+02  0.74934834840E+02  0.00000000000E+00 0.  1.
</event>
<event>
 4    1  0.5722454E+002  0.2167797E+02  0.7546771E-02  0.1509801E+00
          2   -1    0    0  503    0  0.00000000000E+00  0.00000000000E+00  0.87449329314E+02  0.87449329314E+02  0.00000000000E+00 0. -1.
         -2   -1    0    0    0  501 -0.00000000000E+00 -0.00000000000E+00 -0.14349531627E+02  0.14349531627E+02  0.00000000000E+00 0.  1.
         21    1    1    2  502  501 -0.51570821812E-01  0.21677909336E+02 -0.37059704023E+01  0.21992467559E+02  0.00000000000E+00 0.  1.
         21    1    1    2  503  502  0.51570821812E-01 -0.21677909336E+02  0.76805768090E+02  0.79806393382E+02  0.00000000000E+00 0. -1.
</event>
<event>
 4    1  0.5722454E+002  0.2456180E+02  0.7546771E-02  0.1473766E+00
          2   -1    0    0  503    0  0.00000000000E+00  0.00000000000E+00  0.97381042720E+03  0.97381042720E+03  0.00000000000E+00 0. -1.
         -2   -1    0    0    0  501 -0.00000000000E+00 -0.00000000000E+00 -0.81044933309E+00  0.81044933309E+00  0.00000000000E+00 0.  1.
         21    1    1    2  502  501  0.23146309943E+02  0.82176726278E+01  0.72303452278E+03  0.72345158991E+03  0.00000000000E+00 0. -1.
         21    1    1    2  503  502 -0.23146309943E+02 -0.82176726278E+01  0.24996545508E+03  0.25116928662E+03  0.00000000000E+00 0.  1.
</event>
<event>
 4    1  0.5722454E+002  0.3077724E+02  0.7546771E-02  0.1412960E+00
          2   -1    0    0  503    0  0.00000000000E+00  0.00000000000E+00  0.46816903831E+03  0.46816903831E+03  0.00000000000E+00 0. -1.
         -2   -1    0    0    0  501 -0.00000000000E+00 -0.00000000000E+00 -0.27807642314E+01  0.27807642314E+01  0.00000000000E+00 0.  1.
         21    1    1    2  502  501 -0.30598154731E+02  0.33153644642E+01  0.10979514545E+03  0.11402724534E+03  0.00000000000E+00 0. -1.
         21    1    1    2  503  502  0.30598154731E+02 -0.33153644642E+01  0.35559312863E+03  0.35692255720E+03  0.00000000000E+00 0.  1.
</event>
<event>
 4    1  0.5722454E+002  0.4768739E+02  0.7546771E-02  0.1308523E+00
          2   -1    0    0  503    0  0.00000000000E+00  0.00000000000E+00  0.34267632825E+02  0.34267632825E+02  0.00000000000E+00 0. -1.
         -2   -1    0    0    0  501 -0.00000000000E+00 -0.00000000000E+00 -0.24332200708E+03  0.24332200708E+03  0.00000000000E+00 0.  1.
         21    1    1    2  502  501 -0.41740285371E+02  0.23061554110E+02 -0.22289114531E+03  0.22793540611E+03  0.00000000000E+00 0.  1.
         21    1    1    2  503  502  0.41740285371E+02 -0.23061554110E+02  0.13836771053E+02  0.49654233798E+02  0.00000000000E+00 0. -1.
</event>
<event>
 4    1  0.5722454E+002  0.2208072E+02  0.7546771E-02  0.1504376E+00
          2   -1    0    0  502    0  0.00000000000E+00  0.00000000000E+00  0.19717364978E+01  0.19717364978E+01  0.00000000000E+00 0.  1.
         -2   -1    0    0    0  501 -0.00000000000E+00 -0.00000000000E+00 -0.14626935137E+04  0.14626935137E+04  0.00000000000E+00 0. -1.
         21    1    1    2  502  503 -0.12064592438E+02 -0.18493341098E+02 -0.62793799634E+02  0.66562897534E+02  0.00000000000E+00 0.  1.
         21    1    1    2  503  501  0.12064592438E+02  0.18493341098E+02 -0.13979279776E+04  0.13981023527E+04  0.00000000000E+00 0. -1.
</event>
<event>
 4    1  0.5722454E+002  0.2646242E+02  0.7546771E-02  0.1453084E+00
          2   -1    0    0  503    0  0.00000000000E+00  0.00000000000E+00  0.13255781419E+04  0.13255781419E+04  0.00000000000E+00 0.  1.
         -2   -1    0    0    0  501 -0.00000000000E+00 -0.00000000000E+00 -0.17837603830E+01  0.17837603830E+01  0.00000000000E+00 0. -1.
         21    1    1    2  502  501  0.11071919070E+02  0.24034817578E+02  0.10509847652E+03  0.10837873230E+03  0.00000000000E+00 0. -1.
         21    1    1    2  503  502 -0.11071919070E+02 -0.24034817578E+02  0.12186959050E+04  0.12189831700E+04  0.00000000000E+00 0.  1.
</event>
<event>
 4    1  0.5722454E+002  0.2011493E+02  0.7546771E-02  0.1532286E+00
          2   -1    0    0  502    0  0.00000000000E+00  0.00000000000E+00  0.13557373638E+03  0.13557373638E+03  0.00000000000E+00 0.  1.
         -2   -1    0    0    0  501 -0.00000000000E+00 -0.00000000000E+00 -0.14889311656E+02  0.14889311656E+02  0.00000000000E+00 0. -1.
         21    1    1    2  502  503 -0.75044061706E+01  0.18662649361E+02  0.12761277419E+03  0.12918835369E+03  0.00000000000E+00 0.  1.
         21    1    1    2  503  501  0.75044061706E+01 -0.18662649361E+02 -0.69283494647E+01  0.21274694345E+02  0.00000000000E+00 0. -1.
</event>
<event>
 4    1  0.5722454E+002  0.2019479E+02  0.7546771E-02  0.1531079E+00
          2   -1    0    0  502    0  0.00000000000E+00  0.00000000000E+00  0.18783473137E+03  0.18783473137E+03  0.00000000000E+00 0.  1.
         -2   -1    0    0    0  501 -0.00000000000E+00 -0.00000000000E+00 -0.37655057149E+01  0.37655057149E+01  0.00000000000E+00 0. -1.
         21    1    1    2  502  503  0.88954941288E+01 -0.18130082084E+02  0.15437048963E+03  0.15568583032E+03  0.00000000000E+00 0.  1.
         21    1    1    2  503  501 -0.88954941288E+01  0.18130082084E+02  0.29698736024E+02  0.35914406769E+02  0.00000000000E+00 0. -1.
</event>
<event>
 4    1  0.5722454E+002  0.3021109E+02  0.7546771E-02  0.1417771E+00
          2   -1    0    0  502    0  0.00000000000E+00  0.00000000000E+00  0.26832474076E+01  0.26832474076E+01  0.00000000000E+00 0.  1.
         -2   -1    0    0    0  501 -0.00000000000E+00 -0.00000000000E+00 -0.34023809410E+03  0.34023809410E+03  0.00000000000E+00 0. -1.
         21    1    1    2  502  503  0.27263875572E+02 -0.13015021031E+02 -0.17151836867E+03  0.17415872208E+03  0.00000000000E+00 0. -1.
         21    1    1    2  503  501 -0.27263875572E+02  0.13015021031E+02 -0.16603647802E+03  0.16876261943E+03  0.00000000000E+00 0.  1.
</event>
<event>
 4    1  0.5722454E+002  0.2993412E+02  0.7546771E-02  0.1420170E+00
          2   -1    0    0  503    0  0.00000000000E+00  0.00000000000E+00  0.93724251094E+01  0.93724251094E+01  0.00000000000E+00 0. -1.
         -2   -1    0    0    0  501 -0.00000000000E+00 -0.00000000000E+00 -0.96229992497E+02  0.96229992497E+02  0.00000000000E+00 0.  1.
         21    1    1    2  502  501  0.29923025403E+02  0.81503998280E+00 -0.47683666491E+02  0.56300832938E+02  0.00000000000E+00 0.  1.
         21    1    1    2  503  502 -0.29923025403E+02 -0.81503998280E+00 -0.39173900896E+02  0.49301584669E+02  0.00000000000E+00 0. -1.
</event>
<event>
 4    1  0.5722454E+002  0.2497601E+02  0.7546771E-02  0.1469072E+00
          2   -1    0    0  502    0  0.00000000000E+00  0.00000000000E+00  0.38510797789E+03  0.38510797789E+03  0.00000000000E+00 0. -1.
         -2   -1    0    0    0  501 -0.00000000000E+00 -0.00000000000E+00 -0.42886538127E+01  0.42886538127E+01  0.00000000000E+00 0.  1.
         21    1    1    2  502  503 -0.19260686506E+02  0.15900538756E+02  0.34399982478E+03  0.34490532125E+03  0.00000000000E+00 0. -1.
         21    1    1    2  503  501  0.19260686506E+02 -0.15900538756E+02  0.36819499300E+02  0.44491310456E+02  0.00000000000E+00 0.  1.
</event>
<event>
 4    1  0.5722454E+002  0.2384022E+02  0.7546771E-02  0.1482209E+00
          2   -1    0    0  503    0  0.00000000000E+00  0.00000000000E+00  0.22203064716E+02  0.22203064716E+02  0.00000000000E+00 0. -1.
         -2   -1    0    0    0  501 -0.00000000000E+00 -0.00000000000E+00 -0.73774376374E+02  0.73774376374E+02  0.00000000000E+00 0.  1.
         21    1    1    2  502  501  0.33306413428E+01  0.23606419000E+02 -0.64565229373E+02  0.68826049093E+02  0.00000000000E+00 0.  1.
         21    1    1    2  503  502 -0.33306413428E+01 -0.23606419000E+02  0.12993917715E+02  0.27151391996E+02  0.00000000000E+00 0. -1.
</event>
<event>
 4    1  0.5722454E+002  0.2413458E+02  0.7546771E-02  0.1478722E+00
          2   -1    0    0  503    0  0.00000000000E+00  0.00000000000E+00  0.25181184502E+02  0.25181184502E+02  0.00000000000E+00 0. -1.
         -2   -1    0    0    0  501 -0.00000000000E+00 -0.00000000000E+00 -0.26223928921E+02  0.26223928921E+02  0.00000000000E+00 0.  1.
         21    1    1    2  502  501  0.21052051414E+02  0.11802086498E+02  0.83049256214E+01  0.25523516686E+02  0.00000000000E+00 0. -1.
         21    1    1    2  503  502 -0.21052051414E+02 -0.11802086498E+02 -0.93476700410E+01  0.25881596737E+02  0.00000000000E+00 0.  1.
</event>
<event>
 4    1  0.5722454E+002  0.4066125E+02  0.7546771E-02  0.1344654E+00
          2   -1    0    0  502    0  0.00000000000E+00  0.00000000000E+00  0.37310361607E+03  0.37310361607E+03  0.00000000000E+00 0. -1.
         -2   -1    0    0    0  501 -0.00000000000E+00 -0.00000000000E+00 -0.55543068786E+01  0.55543068786E+01  0.00000000000E+00 0.  1.
         21    1    1    2  502  503 -0.21865227272E+02  0.34281907228E+02  0.26890641794E+03  0.27196323085E+03  0.00000000000E+00 0. -1.
         21    1    1    2  503  501  0.21865227272E+02 -0.34281907228E+02  0.98642891254E+02  0.10669469210E+03  0.00000000000E+00 0.  1.
</event>
<event>
 4    1  0.5722454E+002  0.2636723E+02  0.7546771E-02  0.1454070E+00
          2   -1    0    0  502    0  0.00000000000E+00  0.00000000000E+00  0.50059769946E+02  0.50059769946E+02  0.00000000000E+00 0. -1.
         -2   -1    0    0    0  501 -0.00000000000E+00 -0.00000000000E+00 -0.17878525186E+02  0.17878525186E+02  0.00000000000E+00 0.  1.
         21    1    1    2  502  503 -0.26343436084E+02 -0.11198237509E+01  0.32139077758E+02  0.41571034977E+02  0.00000000000E+00 0. -1.
         21    1    1    2  503  501  0.26343436084E+02  0.11198237509E+01  0.42167002486E-01  0.26367260154E+02  0.00000000000E+00 0.  1.
</event>
<event>
 4    1  0.5722454E+002  0.8078630E+02  0.7546771E-02  0.1202034E+00
          2   -1    0    0  503    0  0.00000000000E+00  0.00000000000E+00  0.18425192545E+04  0.18425192545E+04  0.00000000000E+00 0.  1.
         -2   -1    0    0    0  501 -0.00000000000E+00 -0.00000000000E+00 -0.85172399858E+01  0.85172399858E+01  0.00000000000E+00 0. -1.
         21    1    1    2  502  501  0.75300093326E+02 -0.29262975830E+02  0.20964623596E+03  0.22467302923E+03  0.00000000000E+00 0. -1.
         21    1    1    2  503  502 -0.75300093326E+02  0.29262975830E+02  0.16243557786E+04  0.16263634653E+04  0.00000000000E+00 0.  1.
</event>
<event>
 4    1  0.5722454E+002  0.4047776E+02  0.7546771E-02  0.1345709E+00
          2   -1    0    0  503    0  0.00000000000E+00  0.00000000000E+00  0.10806643472E+03  0.10806643472E+03  0.00000000000E+00 0.  1.
         -2   -1    0    0    0  501 -0.00000000000E+00 -0.00000000000E+00 -0.46517628831E+02  0.46517628831E+02  0.00000000000E+00 0. -1.
         21    1    1    2  502  501  0.37846181959E+02 -0.14356727192E+02 -0.32683712230E+02  0.52025706623E+02  0.00000000000E+00 0. -1.
         21    1    1    2  503  502 -0.37846181959E+02  0.14356727192E+02  0.94232518117E+02  0.10255835692E+03  0.00000000000E+00 0.  1.
</event>
<event>
 4    1  0.5722454E+002  0.3212134E+02  0.7546771E-02  0.1402015E+00
          2   -1    0    0  503    0  0.00000000000E+00  0.00000000000E+00  0.75811364863E+01  0.75811364863E+01  0.00000000000E+00 0.  1.
         -2   -1    0    0    0  501 -0.00000000000E+00 -0.00000000000E+00 -0.18080116494E+03  0.18080116494E+03  0.00000000000E+00 0. -1.
         21    1    1    2  502  501  0.18743678194E+02 -0.26085531870E+02 -0.13344568537E+03  0.13725717245E+03  0.00000000000E+00 0. -1.
         21    1    1    2  503  502 -0.18743678194E+02  0.26085531870E+02 -0.39774343090E+02  0.51125128982E+02  0.00000000000E+00 0.  1.
</event>
<event>
 4    1  0.5722454E+002  0.2137055E+02  0.7546771E-02  0.1514040E+00
          2   -1    0    0  502    0  0.00000000000E+00  0.00000000000E+00  0.39729869149E+03  0.39729869149E+03  0.00000000000E+00 0. -1.
         -2   -1    0    0    0  501 -0.00000000000E+00 -0.00000000000E+00 -0.12440863671E+01  0.12440863671E+01  0.00000000000E+00 0.  1.
         21    1    1    2  502  503  0.21154596552E+02 -0.30304285684E+01  0.25296893442E+03  0.25387001050E+03  0.00000000000E+00 0. -1.
         21    1    1    2  503  501 -0.21154596552E+02  0.30304285684E+01  0.14308567070E+03  0.14467276735E+03  0.00000000000E+00 0.  1.
</event>
<event>
 4    1  0.5722454E+002  0.2811717E+02  0.7546771E-02  0.1436697E+00
          2   -1    0    0  502    0  0.00000000000E+00  0.00000000000E+00  0.24260967156E+03  0.24260967156E+03  0.00000000000E+00 0.  1.
         -2   -1    0    0    0  501 -0.00000000000E+00 -0.00000000000E+00 -0.40370275134E+01  0.40370275134E+01  0.00000000000E+00 0. -1.
         21    1    1    2  502  503  0.19055844876E+02  0.20674870662E+02  0.65134287438E+02  0.70943998343E+02  0.00000000000E+00 0. -1.
         21    1    1    2  503  501 -0.19055844876E+02 -0.20674870662E+02  0.17343835661E+03  0.17570270073E+03  0.00000000000E+00 0.  1.
</event>
<event>
 4    1  0.5722454E+002  0.4472608E+02  0.7546771E-02  0.1322815E+00
          2   -1    0    0  503    0  0.00000000000E+00  0.00000000000E+00  0.59426900719E+02  0.59426900719E+02  0.00000000000E+00 0.  1.
         -2   -1    0    0    0  501 -0.00000000000E+00 -0.00000000000E+00 -0.53193138090E+03  0.53193138090E+03  0.00000000000E+00 0. -1.
         21    1    1    2  502  501 -0.37904684326E+02  0.23741467288E+02 -0.52242284759E+03  0.52433391465E+03  0.00000000000E+00 0. -1.
         21    1    1    2  503  502  0.37904684326E+02 -0.23741467288E+02  0.49918367412E+02  0.67024366971E+02  0.00000000000E+00 0.  1.
</event>
<event>
 4    1  0.5722454E+002  0.2810867E+02  0.7546771E-02  0.1436778E+00
          2   -1    0    0  502    0  0.00000000000E+00  0.00000000000E+00  0.21075013395E+02  0.21075013395E+02  0.00000000000E+00 0.  1.
         -2   -1    0    0    0  501 -0.00000000000E+00 -0.00000000000E+00 -0.40971083552E+02  0.40971083552E+02  0.00000000000E+00 0. -1.
         21    1    1    2  502  503 -0.11166895791E+02 -0.25795307912E+02 -0.90493954727E+00  0.28123235721E+02  0.00000000000E+00 0. -1.
         21    1    1    2  503  501  0.11166895791E+02  0.25795307912E+02 -0.18991130609E+02  0.33922861225E+02  0.00000000000E+00 0.  1.
</event>
<event>
 4    1  0.5722454E+002  0.2999470E+02  0.7546771E-02  0.1419643E+00
          2   -1    0    0  502    0  0.00000000000E+00  0.00000000000E+00  0.24492107821E+04  0.24492107821E+04  0.00000000000E+00 0.  1.
         -2   -1    0    0    0  501 -0.00000000000E+00 -0.00000000000E+00 -0.49246891997E+00  0.49246891997E+00  0.00000000000E+00 0. -1.
         21    1    1    2  502  503 -0.29650722897E+02 -0.45295056614E+01  0.60693883019E+03  0.60767954169E+03  0.00000000000E+00 0. -1.
         21    1    1    2  503  501  0.29650722897E+02  0.45295056614E+01  0.18417794829E+04  0.18420237093E+04  0.00000000000E+00 0.  1.
</event>
<event>
 4    1  0.5722454E+002  0.2083815E+02  0.7546771E-02  0.1521588E+00
          2   -1    0    0  502    0  0.00000000000E+00  0.00000000000E+00  0.29999673171E+02  0.29999673171E+02  0.00000000000E+00 0. -1.
         -2   -1    0    0    0  501 -0.00000000000E+00 -0.00000000000E+00 -0.17168109770E+02  0.17168109770E+02  0.00000000000E+00 0.  1.
         21    1    1    2  502  503 -0.19099179345E+02  0.83336475490E+01  0.15757500047E+02  0.26125220398E+02  0.00000000000E+00 0. -1.
         21    1    1    2  503  501  0.19099179345E+02 -0.83336475490E+01 -0.29259366455E+01  0.21042562543E+02  0.00000000000E+00 0.  1.
</event>
<event>
 4    1  0.5722454E+002  0.1280229E+03  0.7546771E-02  0.1122544E+00
          2   -1    0    0  502    0  0.00000000000E+00  0.00000000000E+00  0.58047459788E+03  0.58047459788E+03  0.00000000000E+00 0.  1.
         -2   -1    0    0    0  501 -0.00000000000E+00 -0.00000000000E+00 -0.42351283993E+02  0.42351283993E+02  0.00000000000E+00 0. -1.
         21    1    1    2  502  503  0.19370431604E+02  0.12654897759E+03  0.44884911656E+03  0.46674981177E+03  0.00000000000E+00 0.  1.
         21    1    1    2  503  501 -0.19370431604E+02 -0.12654897759E+03  0.89274197323E+02  0.15607607010E+03  0.00000000000E+00 0. -1.
</event>
<event>
 4    1  0.5722454E+002  0.2155049E+02  0.7546771E-02  0.1511549E+00
          2   -1    0    0  503    0  0.00000000000E+00  0.00000000000E+00  0.21529934499E+03  0.21529934499E+03  0.00000000000E+00 0.  1.
         -2   -1    0    0    0  501 -0.00000000000E+00 -0.00000000000E+00 -0.47442284261E+01  0.47442284261E+01  0.00000000000E+00 0. -1.
         21    1    1    2  502  501  0.21542092486E+02  0.60139342343E+00  0.24031103094E+02  0.32278744378E+02  0.00000000000E+00 0. -1.
         21    1    1    2  503  502 -0.21542092486E+02 -0.60139342343E+00  0.18652401347E+03  0.18776482903E+03  0.00000000000E+00 0.  1.
</event>
<event>
 4    1  0.5722454E+002  0.2769943E+02  0.7546771E-02  0.1440706E+00
          2   -1    0    0  503    0  0.00000000000E+00  0.00000000000E+00  0.59234325434E+03  0.59234325434E+03  0.00000000000E+00 0. -1.
         -2   -1    0    0    0  501 -0.00000000000E+00 -0.00000000000E+00 -0.15978290974E+01  0.15978290974E+01  0.00000000000E+00 0.  1.
         21    1    1    2  502  501 -0.56907131345E+01  0.27108558372E+02  0.16615063803E+03  0.16844373740E+03  0.00000000000E+00 0. -1.
         21    1    1    2  503  502  0.56907131345E+01 -0.27108558372E+02  0.42459478722E+03  0.42549734604E+03  0.00000000000E+00 0.  1.
</event>
<event>
 4    1  0.5722454E+002  0.2909363E+02  0.7546771E-02  0.1427640E+00
          2   -1    0    0  502    0  0.00000000000E+00  0.00000000000E+00  0.17053067519E+04  0.17053067519E+04  0.00000000000E+00 0. -1.
         -2   -1    0    0    0  501 -0.00000000000E+00 -0.00000000000E+00 -0.87788103546E+00  0.87788103546E+00  0.00000000000E+00 0.  1.
         21    1    1    2  502  503  0.19197827501E+02 -0.21860523975E+02  0.14146072551E+04  0.14149064016E+04  0.00000000000E+00 0. -1.
         21    1    1    2  503  501 -0.19197827501E+02  0.21860523975E+02  0.28982161576E+03  0.29127823134E+03  0.00000000000E+00 0.  1.
</event>
<event>
 4    1  0.5722454E+002  0.3976197E+02  0.7546771E-02  0.1349886E+00
          2   -1    0    0  503    0  0.00000000000E+00  0.00000000000E+00  0.96982173363E+03  0.96982173363E+03  0.00000000000E+00 0.  1.
         -2   -1    0    0    0  501 -0.00000000000E+00 -0.00000000000E+00 -0.26986248117E+01  0.26986248117E+01  0.00000000000E+00 0. -1.
         21    1    1    2  502  501 -0.39663222811E+02 -0.28005212622E+01  0.17759977633E+03  0.18199641402E+03  0.00000000000E+00 0. -1.
         21    1    1    2  503  502  0.39663222811E+02  0.28005212622E+01  0.78952333249E+03  0.79052394443E+03  0.00000000000E+00 0.  1.
</event>
<event>
 4    1  0.5722454E+002  0.3698113E+02  0.7546771E-02  0.1367146E+00
          2   -1    0    0  503    0  0.00000000000E+00  0.00000000000E+00  0.24662317068E+04  0.24662317068E+04  0.00000000000E+00 0. -1.
         -2   -1    0    0    0  501 -0.00000000000E+00 -0.00000000000E+00 -0.56050057021E+00  0.56050057021E+00  0.00000000000E+00 0.  1.
         21    1    1    2  502  501 -0.36872773134E+02 -0.28288698193E+01  0.11055565196E+04  0.11061748605E+04  0.00000000000E+00 0. -1.
         21    1    1    2  503  502  0.36872773134E+02  0.28288698193E+01  0.13601146867E+04  0.13606173470E+04  0.00000000000E+00 0.  1.
</event>
<event>
 4    1  0.5722454E+002  0.2395354E+02  0.7546771E-02  0.1480859E+00
          2   -1    0    0  503    0  0.00000000000E+00  0.00000000000E+00  0.60831737175E+03  0.60831737175E+03  0.00000000000E+00 0.  1.
         -2   -1    0    0    0  501 -0.00000000000E+00 -0.00000000000E+00 -0.13312445779E+01  0.13312445779E+01  0.00000000000E+00 0. -1.
         21    1    1    2  502  501  0.13302949631E+02  0.19919926872E+02  0.13892141050E+03  0.14097138097E+03  0.00000000000E+00 0. -1.
         21    1    1    2  503  502 -0.13302949631E+02 -0.19919926872E+02  0.46806471667E+03  0.46867723536E+03  0.00000000000E+00 0.  1.
</event>
<event>
 4    1  0.5722454E+002  0.2627438E+02  0.7546771E-02  0.1455036E+00
          2   -1    0    0  502    0  0.00000000000E+00  0.00000000000E+00  0.95194748008E+03  0.95194748008E+03  0.00000000000E+00 0.  1.
         -2   -1    0    0    0  501 -0.00000000000E+00 -0.00000000000E+00 -0.67509913524E+01  0.67509913524E+01  0.00000000000E+00 0. -1.
         21    1    1    2  502  503 -0.41105029172E+01 -0.25950853451E+02  0.92547044212E+03  0.92584333571E+03  0.00000000000E+00 0.  1.
         21    1    1    2  503  501  0.41105029172E+01  0.25950853451E+02  0.19726046611E+02  0.32855135732E+02  0.00000000000E+00 0. -1.
</event>
<event>
 4    1  0.5722454E+002  0.2232940E+02  0.7546771E-02  0.1501095E+00
          2   -1    0    0  502    0  0.00000000000E+00  0.00000000000E+00  0.15559493251E+02  0.15559493251E+02  0.00000000000E+00 0. -1.
         -2   -1    0    0    0  501 -0.00000000000E+00 -0.00000000000E+00 -0.88928228851E+02  0.88928228851E+02  0.00000000000E+00 0.  1.
         21    1    1    2  502  503 -0.10836018155E+02  0.19523899024E+02  0.50994447610E+01  0.22904284740E+02  0.00000000000E+00 0. -1.
         21    1    1    2  503  501  0.10836018155E+02 -0.19523899024E+02 -0.78468180361E+02  0.81583437362E+02  0.00000000000E+00 0.  1.
</event>
<event>
 4    1  0.5722454E+002  0.2181606E+02  0.7546771E-02  0.1507925E+00
          2   -1    0    0  502    0  0.00000000000E+00  0.00000000000E+00  0.10238571370E+04  0.10238571370E+04  0.00000000000E+00 0.  1.
         -2   -1    0    0    0  501 -0.00000000000E+00 -0.00000000000E+00 -0.44755122999E+01  0.44755122999E+01  0.00000000000E+00 0. -1.
         21    1    1    2  502  503  0.13092323764E+02  0.17450829149E+02  0.99642323726E+03  0.99666203306E+03  0.00000000000E+00 0.  1.
         21    1    1    2  503  501 -0.13092323764E+02 -0.17450829149E+02  0.22958387439E+02  0.31670616245E+02  0.00000000000E+00 0. -1.
</event>
<event>
 4    1  0.5722454E+002  0.2298928E+02  0.7546771E-02  0.1492633E+00
          2   -1    0    0  503    0  0.00000000000E+00  0.00000000000E+00  0.10839493901E+02  0.10839493901E+02  0.00000000000E+00 0. -1.
         -2   -1    0    0    0  501 -0.00000000000E+00 -0.00000000000E+00 -0.48901465887E+02  0.48901465887E+02  0.00000000000E+00 0.  1.
         21    1    1    2  502  501 -0.11693004653E+01 -0.22959524543E+02 -0.17410465866E+02  0.28838019219E+02  0.00000000000E+00 0. -1.
         21    1    1    2  503  502  0.11693004653E+01  0.22959524543E+02 -0.20651506120E+02  0.30902940569E+02  0.00000000000E+00 0.  1.
</event>
<event>
 4    1  0.5722454E+002  0.2643412E+02  0.7546771E-02  0.1453377E+00
          2   -1    0    0  503    0  0.00000000000E+00  0.00000000000E+00  0.13862109987E+04  0.13862109987E+04  0.00000000000E+00 0.  1.
         -2   -1    0    0    0  501 -0.00000000000E+00 -0.00000000000E+00 -0.10328823726E+01  0.10328823726E+01  0.00000000000E+00 0. -1.
         21    1    1    2  502  501 -0.21882905925E+02 -0.14829069087E+02  0.19628982229E+03  0.19806175096E+03  0.00000000000E+00 0. -1.
         21    1    1    2  503  502  0.21882905925E+02  0.14829069087E+02  0.11888882941E+04  0.11891821301E+04  0.00000000000E+00 0.  1.
</event>
<event>
 4    1  0.5722454E+002  0.4536685E+02  0.7546771E-02  0.1319615E+00
          2   -1    0    0  503    0  0.00000000000E+00  0.00000000000E+00  0.28854756823E+03  0.28854756823E+03  0.00000000000E+00 0. -1.
         -2   -1    0    0    0  501 -0.00000000000E+00 -0.00000000000E+00 -0.71962256838E+01  0.71962256838E+01  0.00000000000E+00 0.  1.
         21    1    1    2  502  501 -0.41348293164E+02 -0.18667355843E+02  0.12679301301E+03  0.13466484199E+03  0.00000000000E+00 0.  1.
         21    1    1    2  503  502  0.41348293164E+02  0.18667355843E+02  0.15455832954E+03  0.16107895192E+03  0.00000000000E+00 0. -1.
</event>
<event>
 4    1  0.5722454E+002  0.2369730E+02  0.7546771E-02  0.1483923E+00
          2   -1    0    0  502    0  0.00000000000E+00  0.00000000000E+00  0.47839106787E+03  0.47839106787E+03  0.00000000000E+00 0.  1.
         -2   -1    0    0    0  501 -0.00000000000E+00 -0.00000000000E+00 -0.37016533688E+01  0.37016533688E+01  0.00000000000E+00 0. -1.
         21    1    1    2  502  503  0.17835744454E+02 -0.15602820980E+02  0.43653763246E+03  0.43718035907E+03  0.00000000000E+00 0.  1.
         21    1    1    2  503  501 -0.17835744454E+02  0.15602820980E+02  0.38151782050E+02  0.44912362177E+02  0.00000000000E+00 0. -1.
</event>
<event>
 4    1  0.5722454E+002  0.2139279E+02  0.7546771E-02  0.1513730E+00
          2   -1    0    0  502    0  0.00000000000E+00  0.00000000000E+00  0.10416444644E+04  0.10416444644E+04  0.00000000000E+00 0. -1.
         -2   -1    0    0    0  501 -0.00000000000E+00 -0.00000000000E+00 -0.99805330539E+01  0.99805330539E+01  0.00000000000E+00 0.  1.
         21    1    1    2  502  503 -0.76661356042E+01 -0.19972026887E+02  0.10299407700E+04  0.10301629198E+04  0.00000000000E+00 0. -1.
         21    1    1    2  503  501  0.76661356042E+01  0.19972026887E+02  0.17231612995E+01  0.21462077670E+02  0.00000000000E+00 0.  1.
</event>
<event>
 4    1  0.5722454E+002  0.3242031E+02  0.7546771E-02  0.1399667E+00
          2   -1    0    0  502    0  0.00000000000E+00  0.00000000000E+00  0.79121434567E+03  0.79121434567E+03  0.00000000000E+00 0. -1.
         -2   -1    0    0    0  501 -0.00000000000E+00 -0.00000000000E+00 -0.16965711166E+01  0.16965711166E+01  0.00000000000E+00 0.  1.
         21    1    1    2  502  503 -0.12099660818E+02  0.30077810393E+02  0.57943590313E+03  0.58034217692E+03  0.00000000000E+00 0. -1.
         21    1    1    2  503  501  0.12099660818E+02 -0.30077810393E+02  0.21008187142E+03  0.21256873987E+03  0.00000000000E+00 0.  1.
</event>
<event>
 4    1  0.5722454E+002  0.2245788E+02  0.7546771E-02  0.1499420E+00
          2   -1    0    0  502    0  0.00000000000E+00  0.00000000000E+00  0.12697665293E+01  0.12697665293E+01  0.00000000000E+00 0. -1.
         -2   -1    0    0    0  501 -0.00000000000E+00 -0.00000000000E+00 -0.56533307973E+03  0.56533307973E+03  0.00000000000E+00 0.  1.
         21    1    1    2  502  503 -0.19993203480E+02  0.10228783553E+02 -0.43652797099E+03  0.43710527983E+03  0.00000000000E+00 0.  1.
         21    1    1    2  503  501  0.19993203480E+02 -0.10228783553E+02 -0.12753534221E+03  0.12949756643E+03  0.00000000000E+00 0. -1.
</event>
<event>
 4    1  0.5722454E+002  0.3359664E+02  0.7546771E-02  0.1390707E+00
          2   -1    0    0  503    0  0.00000000000E+00  0.00000000000E+00  0.24029354330E+03  0.24029354330E+03  0.00000000000E+00 0.  1.
         -2   -1    0    0    0  501 -0.00000000000E+00 -0.00000000000E+00 -0.49734049475E+01  0.49734049475E+01  0.00000000000E+00 0. -1.
         21    1    1    2  502  501  0.31338412154E+02  0.12109417126E+02  0.88765997473E+02  0.94911202536E+02  0.00000000000E+00 0.  1.
         21    1    1    2  503  502 -0.31338412154E+02 -0.12109417126E+02  0.14655414088E+03  0.15035574572E+03  0.00000000000E+00 0. -1.
</event>
<event>
 4    1  0.5722454E+002  0.2429490E+02  0.7546771E-02  0.1476848E+00
          2   -1    0    0  503    0  0.00000000000E+00  0.00000000000E+00  0.42122452725E+01  0.42122452725E+01  0.00000000000E+00 0. -1.
         -2   -1    0    0    0  501 -0.00000000000E+00 -0.00000000000E+00 -0.31130762915E+03  0.31130762915E+03  0.00000000000E+00 0.  1.
         21    1    1    2  502  501 -0.12435227205E+02  0.20871207158E+02 -0.27053299350E+03  0.27162169048E+03  0.00000000000E+00 0.  1.
         21    1    1    2  503  502  0.12435227205E+02 -0.20871207158E+02 -0.36562390380E+02  0.43898183950E+02  0.00000000000E+00 0. -1.
</event>
<event>
 4    1  0.5722454E+002  0.2082776E+02  0.7546771E-02  0.1521738E+00
          2   -1    0    0  503    0  0.00000000000E+00  0.00000000000E+00  0.76618531080E+02  0.76618531080E+02  0.00000000000E+00 0. -1.
         -2   -1    0    0    0  501 -0.00000000000E+00 -0.00000000000E+00 -0.20802997753E+02  0.20802997753E+02  0.00000000000E+00 0.  1.
         21    1    1    2  502  501 -0.16549642837E+02 -0.12645345576E+02 -0.13649093603E+02  0.24901670606E+02  0.00000000000E+00 0.  1.
         21    1    1    2  503  502  0.16549642837E+02  0.12645345576E+02  0.69464626930E+02  0.72519858227E+02  0.00000000000E+00 0. -1.
</event>
<event>
 4    1  0.5722454E+002  0.2247918E+02  0.7546771E-02  0.1499144E+00
          2   -1    0    0  503    0  0.00000000000E+00  0.00000000000E+00  0.28507859069E+03  0.28507859069E+03  0.00000000000E+00 0.  1.
         -2   -1    0    0    0  501 -0.00000000000E+00 -0.00000000000E+00 -0.21946331606E+01  0.21946331606E+01  0.00000000000E+00 0. -1.
         21    1    1    2  502  501 -0.22089896612E+02  0.41653109051E+01  0.78449588940E+02  0.81606686933E+02  0.00000000000E+00 0. -1.
         21    1    1    2  503  502  0.22089896612E+02 -0.41653109051E+01  0.20443436859E+03  0.20566653692E+03  0.00000000000E+00 0.  1.
</event>
<event>
 4    1  0.5722454E+002  0.2605881E+02  0.7546771E-02  0.1457299E+00
          2   -1    0    0  503    0  0.00000000000E+00  0.00000000000E+00  0.24887016051E+03  0.24887016051E+03  0.00000000000E+00 0.  1.
         -2   -1    0    0    0  501 -0.00000000000E+00 -0.00000000000E+00 -0.37742477878E+01  0.37742477878E+01  0.00000000000E+00 0. -1.
         21    1    1    2  502  501 -0.23626724471E+02 -0.10992708321E+02  0.56057136737E+02  0.61817993534E+02  0.00000000000E+00 0. -1.
         21    1    1    2  503  502  0.23626724471E+02  0.10992708321E+02  0.18903877598E+03  0.19082641476E+03  0.00000000000E+00 0.  1.
</event>
<event>
 4    1  0.5722454E+002  0.2267883E+02  0.7546771E-02  0.1496571E+00
          2   -1    0    0  502    0  0.00000000000E+00  0.00000000000E+00  0.89987815762E+02  0.89987815762E+02  0.00000000000E+00 0.  1.
         -2   -1    0    0    0  501 -0.00000000000E+00 -0.00000000000E+00 -0.74797375558E+01  0.74797375558E+01  0.00000000000E+00 0. -1.
         21    1    1    2  502  503  0.22663463932E+02  0.83457985194E+00  0.64921969165E+02  0.68769115169E+02  0.00000000000E+00 0.  1.
         21    1    1    2  503  501 -0.22663463932E+02 -0.83457985194E+00  0.17586109041E+02  0.28698438148E+02  0.00000000000E+00 0. -1.
</event>
<event>
 4    1  0.5722454E+002  0.2413294E+02  0.7546771E-02  0.1478741E+00
          2   -1    0    0  502    0  0.00000000000E+00  0.00000000000E+00  0.94013698792E+03  0.94013698792E+03  0.00000000000E+00 0. -1.
         -2   -1    0    0    0  501 -0.00000000000E+00 -0.00000000000E+00 -0.41398294739E+01  0.41398294739E+01  0.00000000000E+00 0.  1.
         21    1    1    2  502  503 -0.14543014238E+02  0.19258757796E+02  0.90338091162E+03  0.90370319823E+03  0.00000000000E+00 0. -1.
         21    1    1    2  503  501  0.14543014238E+02 -0.19258757796E+02  0.32616246831E+02  0.40573619167E+02  0.00000000000E+00 0.  1.
</event>
<event>
 4    1  0.5722454E+002  0.2000194E+02  0.7546771E-02  0.1534006E+00
          2   -1    0    0  503    0  0.00000000000E+00  0.00000000000E+00  0.12918203203E+02  0.12918203203E+02  0.00000000000E+00 0. -1.
         -2   -1    0    0    0  501 -0.00000000000E+00 -0.00000000000E+00 -0.32310424088E+02  0.32310424088E+02  0.00000000000E+00 0.  1.
         21    1    1    2  502  501  0.33801837491E+01 -0.19714259145E+02 -0.14302088604E+02  0.24589172297E+02  0.00000000000E+00 0.  1.
         21    1    1    2  503  502 -0.33801837491E+01  0.19714259145E+02 -0.50901322823E+01  0.20639454994E+02  0.00000000000E+00 0. -1.
</event>
<event>
 4    1  0.5722454E+002  0.4824813E+02  0.7546771E-02  0.1305952E+00
          2   -1    0    0  503    0  0.00000000000E+00  0.00000000000E+00  0.38452360151E+03  0.38452360151E+03  0.00000000000E+00 0.  1.
         -2   -1    0    0    0  501 -0.00000000000E+00 -0.00000000000E+00 -0.18875189411E+02  0.18875189411E+02  0.00000000000E+00 0. -1.
         21    1    1    2  502  501 -0.43738544885E+02 -0.20367184588E+02  0.16588571846E+02  0.51020223761E+02  0.00000000000E+00 0. -1.
         21    1    1    2  503  502  0.43738544885E+02  0.20367184588E+02  0.34905984025E+03  0.35237856716E+03  0.00000000000E+00 0.  1.
</event>
<event>
 4    1  0.5722454E+002  0.3310115E+02  0.7546771E-02  0.1394428E+00
          2   -1    0    0  503    0  0.00000000000E+00  0.00000000000E+00  0.32582513627E+03  0.32582513627E+03  0.00000000000E+00 0.  1.
         -2   -1    0    0    0  501 -0.00000000000E+00 -0.00000000000E+00 -0.98612791874E+01  0.98612791874E+01  0.00000000000E+00 0. -1.
         21    1    1    2  502  501  0.32971506229E+02 -0.29267793878E+01  0.21729937655E+02  0.39596419675E+02  0.00000000000E+00 0. -1.
         21    1    1    2  503  502 -0.32971506229E+02  0.29267793878E+01  0.29423391943E+03  0.29608999579E+03  0.00000000000E+00 0.  1.
</event>
<event>
 4    1  0.5722454E+002  0.4189423E+02  0.7546771E-02  0.1337729E+00
          2   -1    0    0  503    0  0.00000000000E+00  0.00000000000E+00  0.40643275750E+03  0.40643275750E+03  0.00000000000E+00 0. -1.
         -2   -1    0    0    0  501 -0.00000000000E+00 -0.00000000000E+00 -0.14855901109E+02  0.14855901109E+02  0.00000000000E+00 0.  1.
         21    1    1    2  502  501  0.41726541876E+02 -0.37446680220E+01  0.18381851034E+02  0.45749527680E+02  0.00000000000E+00 0.  1.
         21    1    1    2  503  502 -0.41726541876E+02  0.37446680220E+01  0.37319500536E+03  0.37553913093E+03  0.00000000000E+00 0. -1.
</event>
<event>
 4    1  0.5722454E+002  0.2700912E+02  0.7546771E-02  0.1447517E+00
          2   -1    0    0  502    0  0.00000000000E+00  0.00000000000E+00  0.23242404791E+02  0.23242404791E+02  0.00000000000E+00 0. -1.
         -2   -1    0    0    0  501 -0.00000000000E+00 -0.00000000000E+00 -0.33650505928E+02  0.33650505928E+02  0.00000000000E+00 0.  1.
         21    1    1    2  502  503 -0.26609522526E+02 -0.46288201995E+01  0.21748569929E+01  0.27096543477E+02  0.00000000000E+00 0. -1.
         21    1    1    2  503  501  0.26609522526E+02  0.46288201995E+01 -0.12582958130E+02  0.29796367241E+02  0.00000000000E+00 0.  1.
</event>
<event>
 4    1  0.5722454E+002  0.2129992E+02  0.7546771E-02  0.1515026E+00
          2   -1    0    0  503    0  0.00000000000E+00  0.00000000000E+00  0.39537297127E+03  0.39537297127E+03  0.00000000000E+00 0. -1.
         -2   -1    0    0    0  501 -0.00000000000E+00 -0.00000000000E+00 -0.38921939228E+01  0.38921939228E+01  0.00000000000E+00 0.  1.
         21    1    1    2  502  501  0.58704898635E+01  0.20474958829E+02  0.28098737527E+02  0.35259404999E+02  0.00000000000E+00 0.  1.
         21    1    1    2  503  502 -0.58704898635E+01 -0.20474958829E+02  0.36338203982E+03  0.36400576019E+03  0.00000000000E+00 0. -1.
</event>
<event>
 4    1  0.5722454E+002  0.2603223E+02  0.7546771E-02  0.1457579E+00
          2   -1    0    0  502    0  0.00000000000E+00  0.00000000000E+00  0.15055675116E+03  0.15055675116E+03  0.00000000000E+00 0. -1.
         -2   -1    0    0    0  501 -0.00000000000E+00 -0.00000000000E+00 -0.10127172453E+02  0.10127172453E+02  0.00000000000E+00 0.  1.
         21    1    1    2  502  503  0.13070352438E+02  0.22513171798E+02  0.13009722347E+03  0.13267616429E+03  0.00000000000E+00 0. -1.
         21    1    1    2  503  501 -0.13070352438E+02 -0.22513171798E+02  0.10332355237E+02  0.28007759318E+02  0.00000000000E+00 0.  1.
</event>
<event>
 4    1  0.5722454E+002  0.2205846E+02  0.7546771E-02  0.1504672E+00
          2   -1    0    0  502    0  0.00000000000E+00  0.00000000000E+00  0.26584903172E+03  0.26584903172E+03  0.00000000000E+00 0. -1.
         -2   -1    0    0    0  501 -0.00000000000E+00 -0.00000000000E+00 -0.56883363986E+01  0.56883363986E+01  0.00000000000E+00 0.  1.
         21    1    1    2  502  503 -0.17736615617E+01  0.21987034537E+02  0.24189322144E+03  0.24289690434E+03  0.00000000000E+00 0. -1.
         21    1    1    2  503  501  0.17736615617E+01 -0.21987034537E+02  0.18267473885E+02  0.28640463775E+02  0.00000000000E+00 0.  1.
</event>
<event>
 4    1  0.5722454E+002  0.3672605E+02  0.7546771E-02  0.1368818E+00
          2   -1    0    0  503    0  0.00000000000E+00  0.00000000000E+00  0.10532835257E+04  0.10532835257E+04  0.00000000000E+00 0. -1.
         -2   -1    0    0    0  501 -0.00000000000E+00 -0.00000000000E+00 -0.12921134858E+01  0.12921134858E+01  0.00000000000E+00 0.  1.
         21    1    1    2  502  501 -0.34535849333E+02  0.12493099825E+02  0.47615535261E+03  0.47756959938E+03  0.00000000000E+00 0.  1.
         21    1    1    2  503  502  0.34535849333E+02 -0.12493099825E+02  0.57583605962E+03  0.57700603982E+03  0.00000000000E+00 0. -1.
</event>
<event>
 4    1  0.5722454E+002  0.3100724E+02  0.7546771E-02  0.1411041E+00
          2   -1    0    0  503    0  0.00000000000E+00  0.00000000000E+00  0.28660095526E+03  0.28660095526E+03  0.00000000000E+00 0. -1.
         -2   -1    0    0    0  501 -0.00000000000E+00 -0.00000000000E+00 -0.17482487176E+02  0.17482487176E+02  0.00000000000E+00 0.  1.
         21    1    1    2  502  501  0.20683565935E+02 -0.23100624591E+02 -0.21188415393E+01  0.31079547065E+02  0.00000000000E+00 0.  1.
         21    1    1    2  503  502 -0.20683565935E+02  0.23100624591E+02  0.27123730962E+03  0.27300389537E+03  0.00000000000E+00 0. -1.
</event>
<event>
 4    1  0.5722454E+002  0.2299878E+02  0.7546771E-02  0.1492513E+00
          2   -1    0    0  503    0  0.00000000000E+00  0.00000000000E+00  0.60277286986E+03  0.60277286986E+03  0.00000000000E+00 0.  1.
         -2   -1    0    0    0  501 -0.00000000000E+00 -0.00000000000E+00 -0.53610313710E+01  0.53610313710E+01  0.00000000000E+00 0. -1.
         21    1    1    2  502  501 -0.16773083733E+02  0.15735547333E+02  0.20635815048E+02  0.30899525085E+02  0.00000000000E+00 0. -1.
         21    1    1    2  503  502  0.16773083733E+02 -0.15735547333E+02  0.57677602344E+03  0.57723437614E+03  0.00000000000E+00 0.  1.
</event>
<event>
 4    1  0.5722454E+002  0.2240120E+02  0.7546771E-02  0.1500157E+00
          2   -1    0    0  503    0  0.00000000000E+00  0.00000000000E+00  0.16293149760E+04  0.16293149760E+04  0.00000000000E+00 0. -1.
         -2   -1    0    0    0  501 -0.00000000000E+00 -0.00000000000E+00 -0.42515581816E+00  0.42515581816E+00  0.00000000000E+00 0.  1.
         21    1    1    2  502  501 -0.17962183761E+02 -0.13385578568E+02  0.38667169951E+03  0.38732004462E+03  0.00000000000E+00 0.  1.
         21    1    1    2  503  502  0.17962183761E+02  0.13385578568E+02  0.12422181207E+04  0.12424200872E+04  0.00000000000E+00 0. -1.
</event>
<event>
 4    1  0.5722454E+002  0.2584791E+02  0.7546771E-02  0.1459537E+00
          2   -1    0    0  503    0  0.00000000000E+00  0.00000000000E+00  0.12096546663E+03  0.12096546663E+03  0.00000000000E+00 0. -1.
         -2   -1    0    0    0  501 -0.00000000000E+00 -0.00000000000E+00 -0.55477522617E+01  0.55477522617E+01  0.00000000000E+00 0.  1.
         21    1    1    2  502  501 -0.15368014317E+02 -0.20783127183E+02  0.61918602307E+02  0.67097150097E+02  0.00000000000E+00 0.  1.
         21    1    1    2  503  502  0.15368014317E+02  0.20783127183E+02  0.53499112057E+02  0.59416068789E+02  0.00000000000E+00 0. -1.
</event>
<event>
 4    1  0.5722454E+002  0.2477497E+02  0.7546771E-02  0.1471337E+00
          2   -1    0    0  503    0  0.00000000000E+00  0.00000000000E+00  0.42246203443E+03  0.42246203443E+03  0.00000000000E+00 0.  1.
         -2   -1    0    0    0  501 -0.00000000000E+00 -0.00000000000E+00 -0.94859064359E+01  0.94859064359E+01  0.00000000000E+00 0. -1.
         21    1    1    2  502  501  0.24759343119E+02 -0.87987146566E+00  0.77409707857E+01  0.25956152915E+02  0.00000000000E+00 0. -1.
         21    1    1    2  503  502 -0.24759343119E+02  0.87987146566E+00  0.40523515721E+03  0.40599178795E+03  0.00000000000E+00 0.  1.
</event>
<event>
 4    1  0.5722454E+002  0.2584548E+02  0.7546771E-02  0.1459563E+00
          2   -1    0    0  502    0  0.00000000000E+00  0.00000000000E+00  0.23154607444E+04  0.23154607444E+04  0.00000000000E+00 0. -1.
         -2   -1    0    0    0  501 -0.00000000000E+00 -0.00000000000E+00 -0.34399852855E+00  0.34399852855E+00  0.00000000000E+00 0.  1.
         21    1    1    2  502  503  0.84308011081E+01 -0.24431751954E+02  0.16226845012E+04  0.16228903164E+04  0.00000000000E+00 0. -1.
         21    1    1    2  503  501 -0.84308011081E+01  0.24431751954E+02  0.69243224472E+03  0.69291442649E+03  0.00000000000E+00 0.  1.
</event>
<event>
 4    1  0.5722454E+002  0.2333363E+02  0.7546771E-02  0.1488351E+00
          2   -1    0    0  503    0  0.00000000000E+00  0.00000000000E+00  0.12206855794E+02  0.12206855794E+02  0.00000000000E+00 0. -1.
         -2   -1    0    0    0  501 -0.00000000000E+00 -0.00000000000E+00 -0.84266342534E+02  0.84266342534E+02  0.00000000000E+00 0.  1.
         21    1    1    2  502  501 -0.23103071636E+02  0.32720709119E+01 -0.69123499937E+02  0.72955579708E+02  0.00000000000E+00 0.  1.
         21    1    1    2  503  502  0.23103071636E+02 -0.32720709119E+01 -0.29359868031E+01  0.23517618620E+02  0.00000000000E+00 0. -1.
</event>
<event>
 4    1  0.5722454E+002  0.2493392E+02  0.7546771E-02  0.1469544E+00
          2   -1    0    0  503    0  0.00000000000E+00  0.00000000000E+00  0.14031496789E+02  0.14031496789E+02  0.00000000000E+00 0. -1.
         -2   -1    0    0    0  501 -0.00000000000E+00 -0.00000000000E+00 -0.44380299632E+02  0.44380299632E+02  0.00000000000E+00 0.  1.
         21    1    1    2  502  501 -0.11386049512E+02 -0.22182387592E+02 -0.13991464569E+02  0.28591284049E+02  0.00000000000E+00 0. -1.
         21    1    1    2  503  502  0.11386049512E+02  0.22182387592E+02 -0.16357338273E+02  0.29820512372E+02  0.00000000000E+00 0.  1.
</event>
<event>
 4    1  0.5722454E+002  0.3076738E+02  0.7546771E-02  0.1413043E+00
          2   -1    0    0  503    0  0.00000000000E+00  0.00000000000E+00  0.96631351714E+03  0.96631351714E+03  0.00000000000E+00 0. -1.
         -2   -1    0    0    0  501 -0.00000000000E+00 -0.00000000000E+00 -0.74884926290E+01  0.74884926290E+01  0.00000000000E+00 0.  1.
         21    1    1    2  502  501  0.22364222604E+02  0.21129918039E+02  0.25475133809E+02  0.39945141527E+02  0.00000000000E+00 0.  1.
         21    1    1    2  503  502 -0.22364222604E+02 -0.21129918039E+02  0.93334989070E+03  0.93385686824E+03  0.00000000000E+00 0. -1.
</event>
<event>
 4    1  0.5722454E+002  0.2322681E+02  0.7546771E-02  0.1489670E+00
          2   -1    0    0  502    0  0.00000000000E+00  0.00000000000E+00  0.20311218877E+01  0.20311218877E+01  0.00000000000E+00 0.  1.
         -2   -1    0    0    0  501 -0.00000000000E+00 -0.00000000000E+00 -0.28827521275E+03  0.28827521275E+03  0.00000000000E+00 0. -1.
         21    1    1    2  502  503 -0.50883863606E+01 -0.22662592508E+02 -0.10242059490E+03  0.10502125040E+03  0.00000000000E+00 0.  1.
         21    1    1    2  503  501  0.50883863606E+01  0.22662592508E+02 -0.18382349596E+03  0.18528508424E+03  0.00000000000E+00 0. -1.
</event>
<event>
 4    1  0.5722454E+002  0.2613064E+02  0.7546771E-02  0.1456542E+00
          2   -1    0    0  503    0  0.00000000000E+00  0.00000000000E+00  0.26459083230E+03  0.26459083230E+03  0.00000000000E+00 0.  1.
         -2   -1    0    0    0  501 -0.00000000000E+00 -0.00000000000E+00 -0.10934700975E+02  0.10934700975E+02  0.00000000000E+00 0. -1.
         21    1    1    2  502  501  0.22700702016E+02 -0.12941736441E+02  0.64139107207E+01  0.26906294150E+02  0.00000000000E+00 0. -1.
         21    1    1    2  503  502 -0.22700702016E+02  0.12941736441E+02  0.24724222060E+03  0.24861923912E+03  0.00000000000E+00 0.  1.
</event>
<event>
 4    1  0.5722454E+002  0.2718933E+02  0.7546771E-02  0.1445715E+00
          2   -1    0    0  503    0  0.00000000000E+00  0.00000000000E+00  0.33963439548E+01  0.33963439548E+01  0.00000000000E+00 0. -1.
         -2   -1    0    0    0  501 -0.00000000000E+00 -0.00000000000E+00 -0.21956837443E+03  0.21956837443E+03  0.00000000000E+00 0.  1.
         21    1    1    2  502  501  0.20512191516E+02 -0.17846835460E+02 -0.11847023224E+03  0.12155021787E+03  0.00000000000E+00 0.  1.
         21    1    1    2  503  502 -0.20512191516E+02  0.17846835460E+02 -0.97701798239E+02  0.10141450052E+03  0.00000000000E+00 0. -1.
</event>
<event>
 4    1  0.5722454E+002  0.2279800E+02  0.7546771E-02  0.1495050E+00
          2   -1    0    0  503    0  0.00000000000E+00  0.00000000000E+00  0.33740190110E+02  0.33740190110E+02  0.00000000000E+00 0. -1.
         -2   -1    0    0    0  501 -0.00000000000E+00 -0.00000000000E+00 -0.17728229681E+02  0.17728229681E+02  0.00000000000E+00 0.  1.
         21    1    1    2  502  501  0.22236896451E+02 -0.50268548280E+01 -0.13110239373E+01  0.22835665460E+02  0.00000000000E+00 0.  1.
         21    1    1    2  503  502 -0.22236896451E+02  0.50268548280E+01  0.17322984366E+02  0.28632754331E+02  0.00000000000E+00 0. -1.
</event>
<event>
 4    1  0.5722454E+002  0.2320534E+02  0.7546771E-02  0.1489936E+00
          2   -1    0    0  503    0  0.00000000000E+00  0.00000000000E+00  0.93351879454E+03  0.93351879454E+03  0.00000000000E+00 0.  1.
         -2   -1    0    0    0  501 -0.00000000000E+00 -0.00000000000E+00 -0.82134350327E+00  0.82134350327E+00  0.00000000000E+00 0. -1.
         21    1    1    2  502  501  0.21119049433E+02 -0.96163290581E+01  0.21145570442E+03  0.21272518178E+03  0.00000000000E+00 0. -1.
         21    1    1    2  503  502 -0.21119049433E+02  0.96163290581E+01  0.72124174662E+03  0.72161495626E+03  0.00000000000E+00 0.  1.
</event>
<event>
 4    1  0.5722454E+002  0.2107947E+02  0.7546771E-02  0.1518133E+00
          2   -1    0    0  503    0  0.00000000000E+00  0.00000000000E+00  0.15555841099E+04  0.15555841099E+04  0.00000000000E+00 0. -1.
         -2   -1    0    0    0  501 -0.00000000000E+00 -0.00000000000E+00 -0.66173075300E+00  0.66173075300E+00  0.00000000000E+00 0.  1.
         21    1    1    2  502  501  0.13279930105E+02 -0.16370328049E+02  0.19084880592E+03  0.19200940317E+03  0.00000000000E+00 0.  1.
         21    1    1    2  503  502 -0.13279930105E+02  0.16370328049E+02  0.13640735732E+04  0.13642364375E+04  0.00000000000E+00 0. -1.
</event>
<event>
 4    1  0.5722454E+002  0.3011784E+02  0.7546771E-02  0.1418575E+00
          2   -1    0    0  503    0  0.00000000000E+00  0.00000000000E+00  0.62400455956E+03  0.62400455956E+03  0.00000000000E+00 0. -1.
         -2   -1    0    0    0  501 -0.00000000000E+00 -0.00000000000E+00 -0.61621808694E+01  0.61621808694E+01  0.00000000000E+00 0.  1.
         21    1    1    2  502  501  0.27097016607E+02  0.13146701726E+02  0.33497695121E+02  0.45046416658E+02  0.00000000000E+00 0.  1.
         21    1    1    2  503  502 -0.27097016607E+02 -0.13146701726E+02  0.58434468356E+03  0.58512032377E+03  0.00000000000E+00 0. -1.
</event>
<event>
 4    1  0.5722454E+002  0.3545556E+02  0.7546771E-02  0.1377388E+00
          2   -1    0    0  502    0  0.00000000000E+00  0.00000000000E+00  0.22714473192E+04  0.22714473192E+04  0.00000000000E+00 0. -1.
         -2   -1    0    0    0  501 -0.00000000000E+00 -0.00000000000E+00 -0.14302342430E+01  0.14302342430E+01  0.00000000000E+00 0.  1.
         21    1    1    2  502  503 -0.20839466053E+02  0.28684725220E+02  0.20248091953E+04  0.20251195951E+04  0.00000000000E+00 0. -1.
         21    1    1    2  503  501  0.20839466053E+02 -0.28684725220E+02  0.24520788961E+03  0.24775795837E+03  0.00000000000E+00 0.  1.
</event>
<event>
 4    1  0.5722454E+002  0.2283659E+02  0.7546771E-02  0.1494560E+00
          2   -1    0    0  502    0  0.00000000000E+00  0.00000000000E+00  0.16509363557E+03  0.16509363557E+03  0.00000000000E+00 0.  1.
         -2   -1    0    0    0  501 -0.00000000000E+00 -0.00000000000E+00 -0.79722687124E+01  0.79722687124E+01  0.00000000000E+00 0. -1.
         21    1    1    2  502  503 -0.22577106592E+02 -0.34328150106E+01  0.14579891817E+03  0.14757653777E+03  0.00000000000E+00 0.  1.
         21    1    1    2  503  501  0.22577106592E+02  0.34328150106E+01  0.11322448692E+02  0.25489366516E+02  0.00000000000E+00 0. -1.
</event>
<event>
 4    1  0.5722454E+002  0.2335869E+02  0.7546771E-02  0.1488042E+00
          2   -1    0    0  503    0  0.00000000000E+00  0.00000000000E+00  0.27103202968E+03  0.27103202968E+03  0.00000000000E+00 0.  1.
         -2   -1    0    0    0  501 -0.00000000000E+00 -0.00000000000E+00 -0.49547677042E+01  0.49547677042E+01  0.00000000000E+00 0. -1.
         21    1    1    2  502  501 -0.23354185627E+02  0.45882280206E+00  0.26712582122E+02  0.35485075007E+02  0.00000000000E+00 0. -1.
         21    1    1    2  503  502  0.23354185627E+02 -0.45882280206E+00  0.23936467985E+03  0.24050172238E+03  0.00000000000E+00 0.  1.
</event>
<event>
 4    1  0.5722454E+002  0.2323525E+02  0.7546771E-02  0.1489565E+00
          2   -1    0    0  503    0  0.00000000000E+00  0.00000000000E+00  0.14213841875E+03  0.14213841875E+03  0.00000000000E+00 0. -1.
         -2   -1    0    0    0  501 -0.00000000000E+00 -0.00000000000E+00 -0.38084662532E+01  0.38084662532E+01  0.00000000000E+00 0.  1.
         21    1    1    2  502  501  0.23043334358E+02  0.29801990375E+01  0.65384939133E+02  0.69390684606E+02  0.00000000000E+00 0. -1.
         21    1    1    2  503  502 -0.23043334358E+02 -0.29801990375E+01  0.72945013368E+02  0.76556200401E+02  0.00000000000E+00 0.  1.
</event>
<event>
 4    1  0.5722454E+002  0.2181985E+02  0.7546771E-02  0.1507874E+00
          2   -1    0    0  503    0  0.00000000000E+00  0.00000000000E+00  0.11188294617E+04  0.11188294617E+04  0.00000000000E+00 0. -1.
         -2   -1    0    0    0  501 -0.00000000000E+00 -0.00000000000E+00 -0.60159701842E+00  0.60159701842E+00  0.00000000000E+00 0.  1.
         21    1    1    2  502  501 -0.16563115270E+02  0.14204541748E+02  0.25632347952E+03  0.25725052371E+03  0.00000000000E+00 0.  1.
         21    1    1    2  503  502  0.16563115270E+02 -0.14204541748E+02  0.86190438515E+03  0.86218053500E+03  0.00000000000E+00 0. -1.
</event>
<event>
 4    1  0.5722454E+002  0.2200929E+02  0.7546771E-02  0.1505328E+00
          2   -1    0    0  502    0  0.00000000000E+00  0.00000000000E+00  0.36240220402E+02  0.36240220402E+02  0.00000000000E+00 0.  1.
         -2   -1    0    0    0  501 -0.00000000000E+00 -0.00000000000E+00 -0.61450208633E+02  0.61450208633E+02  0.00000000000E+00 0. -1.
         21    1    1    2  502  503 -0.66410760687E+01  0.20983447279E+02  0.30602473664E+02  0.37695097100E+02  0.00000000000E+00 0.  1.
         21    1    1    2  503  501  0.66410760687E+01 -0.20983447279E+02 -0.55812461896E+02  0.59995331934E+02  0.00000000000E+00 0. -1.
</event>
<event>
 4    1  0.5722454E+002  0.3020380E+02  0.7546771E-02  0.1417834E+00
          2   -1    0    0  502    0  0.00000000000E+00  0.00000000000E+00  0.73444991688E+03  0.73444991688E+03  0.00000000000E+00 0. -1.
         -2   -1    0    0    0  501 -0.00000000000E+00 -0.00000000000E+00 -0.29457541008E+01  0.29457541008E+01  0.00000000000E+00 0.  1.
         21    1    1    2  502  503 -0.30203743018E+02  0.56578511021E-01  0.64614141157E+03  0.64684696261E+03  0.00000000000E+00 0.  1.
         21    1    1    2  503  501  0.30203743018E+02 -0.56578511021E-01  0.85362751211E+02  0.90548708371E+02  0.00000000000E+00 0. -1.
</event>
<event>
 4    1  0.5722454E+002  0.4315871E+02  0.7546771E-02  0.1330908E+00
          2   -1    0    0  502    0  0.00000000000E+00  0.00000000000E+00  0.11641495325E+04  0.11641495325E+04  0.00000000000E+00 0. -1.
         -2   -1    0    0    0  501 -0.00000000000E+00 -0.00000000000E+00 -0.22337848853E+01  0.22337848853E+01  0.00000000000E+00 0.  1.
         21    1    1    2  502  503 -0.39559909541E+02 -0.17253630743E+02  0.89159351094E+03  0.89263747567E+03  0.00000000000E+00 0. -1.
         21    1    1    2  503  501  0.39559909541E+02  0.17253630743E+02  0.27032223667E+03  0.27374584172E+03  0.00000000000E+00 0.  1.
</event>
<event>
 4    1  0.5722454E+002  0.2536620E+02  0.7546771E-02  0.1464748E+00
          2   -1    0    0  503    0  0.00000000000E+00  0.00000000000E+00  0.19827045818E+04  0.19827045818E+04  0.00000000000E+00 0. -1.
         -2   -1    0    0    0  501 -0.00000000000E+00 -0.00000000000E+00 -0.36553941244E+00  0.36553941244E+00  0.00000000000E+00 0.  1.
         21    1    1    2  502  501  0.17848779294E+00  0.25365576038E+02  0.65905317242E+03  0.65954114988E+03  0.00000000000E+00 0.  1.
         21    1    1    2  503  502 -0.17848779294E+00 -0.25365576038E+02  0.13232858700E+04  0.13235289714E+04  0.00000000000E+00 0. -1.
</event>
<event>
 4    1  0.5722454E+002  0.2447904E+02  0.7546771E-02  0.1474717E+00
          2   -1    0    0  502    0  0.00000000000E+00  0.00000000000E+00  0.10410210301E+03  0.10410210301E+03  0.00000000000E+00 0. -1.
         -2   -1    0    0    0  501 -0.00000000000E+00 -0.00000000000E+00 -0.12805005613E+03  0.12805005613E+03  0.00000000000E+00 0.  1.
         21    1    1    2  502  503  0.20239765278E+02  0.13768628144E+02  0.10146317776E+03  0.10437432472E+03  0.00000000000E+00 0. -1.
         21    1    1    2  503  501 -0.20239765278E+02 -0.13768628144E+02 -0.12541113088E+03  0.12777783442E+03  0.00000000000E+00 0.  1.
</event>
<event>
 4    1  0.5722454E+002  0.2201135E+02  0.7546771E-02  0.1505300E+00
          2   -1    0    0  503    0  0.00000000000E+00  0.00000000000E+00  0.12497215499E+03  0.12497215499E+03  0.00000000000E+00 0.  1.
         -2   -1    0    0    0  501 -0.00000000000E+00 -0.00000000000E+00 -0.13651038824E+02  0.13651038824E+02  0.00000000000E+00 0. -1.
         21    1    1    2  502  501 -0.18561101060E+02 -0.11831528268E+02 -0.29887910561E+01  0.22213338464E+02  0.00000000000E+00 0. -1.
         21    1    1    2  503  502  0.18561101060E+02  0.11831528268E+02  0.11430990722E+03  0.11640985535E+03  0.00000000000E+00 0.  1.
</event>
<event>
 4    1  0.5722454E+002  0.4250388E+02  0.7546771E-02  0.1334406E+00
          2   -1    0    0  503    0  0.00000000000E+00  0.00000000000E+00  0.24431550735E+03  0.24431550735E+03  0.00000000000E+00 0.  1.
         -2   -1    0    0    0  501 -0.00000000000E+00 -0.00000000000E+00 -0.99996367737E+01  0.99996367737E+01  0.00000000000E+00 0. -1.
         21    1    1    2  502  501  0.95794868868E+01  0.41410305024E+02  0.18206159140E+03  0.18695722237E+03  0.00000000000E+00 0.  1.
         21    1    1    2  503  502 -0.95794868868E+01 -0.41410305024E+02  0.52254279168E+02  0.67357921751E+02  0.00000000000E+00 0. -1.
</event>
<event>
 4    1  0.5722454E+002  0.4673922E+02  0.7546771E-02  0.1312965E+00
          2   -1    0    0  503    0  0.00000000000E+00  0.00000000000E+00  0.30445588000E+03  0.30445588000E+03  0.00000000000E+00 0.  1.
         -2   -1    0    0    0  501 -0.00000000000E+00 -0.00000000000E+00 -0.11862400385E+02  0.11862400385E+02  0.00000000000E+00 0. -1.
         21    1    1    2  502  501 -0.23142588538E+02 -0.40607572893E+02  0.46879583850E+02  0.66198563145E+02  0.00000000000E+00 0. -1.
         21    1    1    2  503  502  0.23142588538E+02  0.40607572893E+02  0.24571389576E+03  0.25011971724E+03  0.00000000000E+00 0.  1.
</event>
<event>
 4    1  0.5722454E+002  0.2224978E+02  0.7546771E-02  0.1502140E+00
          2   -1    0    0  503    0  0.00000000000E+00  0.00000000000E+00  0.28190462221E+03  0.28190462221E+03  0.00000000000E+00 0. -1.
         -2   -1    0    0    0  501 -0.00000000000E+00 -0.00000000000E+00 -0.18012632533E+01  0.18012632533E+01  0.00000000000E+00 0.  1.
         21    1    1    2  502  501  0.95011891314E+01  0.20119145236E+02  0.11758989832E+03  0.11967638358E+03  0.00000000000E+00 0. -1.
         21    1    1    2  503  502 -0.95011891314E+01 -0.20119145236E+02  0.16251346064E+03  0.16402950188E+03  0.00000000000E+00 0.  1.
</event>
<event>
 4    1  0.5722454E+002  0.2066007E+02  0.7546771E-02  0.1524174E+00
          2   -1    0    0  502    0  0.00000000000E+00  0.00000000000E+00  0.62966208032E+03  0.62966208032E+03  0.00000000000E+00 0.  1.
         -2   -1    0    0    0  501 -0.00000000000E+00 -0.00000000000E+00 -0.38554771567E+01  0.38554771567E+01  0.00000000000E+00 0. -1.
         21    1    1    2  502  503 -0.20331509526E+02 -0.36699143539E+01  0.60047004707E+03  0.60082536230E+03  0.00000000000E+00 0.  1.
         21    1    1    2  503  501  0.20331509526E+02  0.36699143539E+01  0.25336556092E+02  0.32692195179E+02  0.00000000000E+00 0. -1.
</event>
<event>
 4    1  0.5722454E+002  0.2269414E+02  0.7546771E-02  0.1496375E+00
          2   -1    0    0  502    0  0.00000000000E+00  0.00000000000E+00  0.18144251097E+03  0.18144251097E+03  0.00000000000E+00 0. -1.
         -2   -1    0    0    0  501 -0.00000000000E+00 -0.00000000000E+00 -0.52800453443E+01  0.52800453443E+01  0.00000000000E+00 0.  1.
         21    1    1    2  502  503 -0.11945382133E+02 -0.19295896409E+02  0.15156763988E+03  0.15325721266E+03  0.00000000000E+00 0. -1.
         21    1    1    2  503  501  0.11945382133E+02  0.19295896409E+02  0.24594825738E+02  0.33465343650E+02  0.00000000000E+00 0.  1.
</event>
<event>
 4    1  0.5722454E+002  0.2391531E+02  0.7546771E-02  0.1481314E+00
          2   -1    0    0  503    0  0.00000000000E+00  0.00000000000E+00  0.59919166377E+03  0.59919166377E+03  0.00000000000E+00 0. -1.
         -2   -1    0    0    0  501 -0.00000000000E+00 -0.00000000000E+00 -0.13938289055E+01  0.13938289055E+01  0.00000000000E+00 0.  1.
         21    1    1    2  502  501 -0.28327018958E+01  0.23746957076E+02  0.13031207610E+03  0.13248841212E+03  0.00000000000E+00 0.  1.
         21    1    1    2  503  502  0.28327018958E+01 -0.23746957076E+02  0.46748575876E+03  0.46809708055E+03  0.00000000000E+00 0. -1.
</event>
<event>
 4    1  0.5722454E+002  0.3547646E+02  0.7546771E-02  0.1377244E+00
          2   -1    0    0  503    0  0.00000000000E+00  0.00000000000E+00  0.18503393230E+03  0.18503393230E+03  0.00000000000E+00 0. -1.
         -2   -1    0    0    0  501 -0.00000000000E+00 -0.00000000000E+00 -0.72045344637E+01  0.72045344637E+01  0.00000000000E+00 0.  1.
         21    1    1    2  502  501  0.25002595689E+02  0.25168425765E+02  0.11163798510E+03  0.11713931519E+03  0.00000000000E+00 0. -1.
         21    1    1    2  503  502 -0.25002595689E+02 -0.25168425765E+02  0.66191412741E+02  0.75099151575E+02  0.00000000000E+00 0.  1.
</event>
<event>
 4    1  0.5722454E+002  0.2192779E+02  0.7546771E-02  0.1506419E+00
          2   -1    0    0  502    0  0.00000000000E+00  0.00000000000E+00  0.93505692724E+01  0.93505692724E+01  0.00000000000E+00 0.  1.
         -2   -1    0    0    0  501 -0.00000000000E+00 -0.00000000000E+00 -0.66148099029E+02  0.66148099029E+02  0.00000000000E+00 0. -1.
         21    1    1    2  502  503  0.21847073976E+02 -0.18797097593E+01 -0.10587704524E+02  0.24350101380E+02  0.00000000000E+00 0.  1.
         21    1    1    2  503  501 -0.21847073976E+02  0.18797097593E+01 -0.46209825233E+02  0.51148566922E+02  0.00000000000E+00 0. -1.
</event>
<event>
 4    1  0.5722454E+002  0.2878191E+02  0.7546771E-02  0.1430485E+00
          2   -1    0    0  503    0  0.00000000000E+00  0.00000000000E+00  0.11101585728E+03  0.11101585728E+03  0.00000000000E+00 0.  1.
         -2   -1    0    0    0  501 -0.00000000000E+00 -0.00000000000E+00 -0.11259000817E+02  0.11259000817E+02  0.00000000000E+00 0. -1.
         21    1    1    2  502  501 -0.13166376517E+02 -0.25593838908E+02  0.14374307697E+02  0.32171707795E+02  0.00000000000E+00 0. -1.
         21    1    1    2  503  502  0.13166376517E+02  0.25593838908E+02  0.85382548762E+02  0.90103150298E+02  0.00000000000E+00 0.  1.
</event>
<event>
 4    1  0.5722454E+002  0.2565106E+02  0.7546771E-02  0.1461650E+00
          2   -1    0    0  503    0  0.00000000000E+00  0.00000000000E+00  0.27183353877E+04  0.27183353877E+04  0.00000000000E+00 0. -1.
         -2   -1    0    0    0  501 -0.00000000000E+00 -0.00000000000E+00 -0.25949970663E+00  0.25949970663E+00  0.00000000000E+00 0.  1.
         21    1    1    2  502  501 -0.25643974003E+02  0.60298334246E+00  0.10065678902E+04  0.10068946789E+04  0.00000000000E+00 0.  1.
         21    1    1    2  503  502  0.25643974003E+02 -0.60298334246E+00  0.17115079979E+04  0.17117002085E+04  0.00000000000E+00 0. -1.
</event>
<event>
 4    1  0.5722454E+002  0.4960052E+02  0.7546771E-02  0.1299914E+00
          2   -1    0    0  502    0  0.00000000000E+00  0.00000000000E+00  0.18705842268E+02  0.18705842268E+02  0.00000000000E+00 0.  1.
         -2   -1    0    0    0  501 -0.00000000000E+00 -0.00000000000E+00 -0.52863837367E+03  0.52863837367E+03  0.00000000000E+00 0. -1.
         21    1    1    2  502  503 -0.36672890146E+02 -0.33396261278E+02 -0.17768476500E+02  0.52687094209E+02  0.00000000000E+00 0.  1.
         21    1    1    2  503  501  0.36672890146E+02  0.33396261278E+02 -0.49216405490E+03  0.49465712173E+03  0.00000000000E+00 0. -1.
</event>
<event>
 4    1  0.5722454E+002  0.2826709E+02  0.7546771E-02  0.1435279E+00
          2   -1    0    0  503    0  0.00000000000E+00  0.00000000000E+00  0.62475220013E+03  0.62475220013E+03  0.00000000000E+00 0.  1.
         -2   -1    0    0    0  501 -0.00000000000E+00 -0.00000000000E+00 -0.28080188532E+01  0.28080188532E+01  0.00000000000E+00 0. -1.
         21    1    1    2  502  501  0.17911657085E+02  0.21867810268E+02  0.79425430185E+02  0.84305560585E+02  0.00000000000E+00 0. -1.
         21    1    1    2  503  502 -0.17911657085E+02 -0.21867810268E+02  0.54251875109E+03  0.54325465840E+03  0.00000000000E+00 0.  1.
</event>
<event>
 4    1  0.5722454E+002  0.2895515E+02  0.7546771E-02  0.1428899E+00
          2   -1    0    0  503    0  0.00000000000E+00  0.00000000000E+00  0.50901674913E+03  0.50901674913E+03  0.00000000000E+00 0.  1.
         -2   -1    0    0    0  501 -0.00000000000E+00 -0.00000000000E+00 -0.79497258910E+01  0.79497258910E+01  0.00000000000E+00 0. -1.
         21    1    1    2  502  501  0.16244843098E+02 -0.23968846582E+02  0.20380248562E+02  0.35408403878E+02  0.00000000000E+00 0. -1.
         21    1    1    2  503  502 -0.16244843098E+02  0.23968846582E+02  0.48068677468E+03  0.48155807114E+03  0.00000000000E+00 0.  1.
</event>
<event>
 4    1  0.5722454E+002  0.2195179E+02  0.7546771E-02  0.1506097E+00
          2   -1    0    0  503    0  0.00000000000E+00  0.00000000000E+00  0.59762584605E+01  0.59762584605E+01  0.00000000000E+00 0.  1.
         -2   -1    0    0    0  501 -0.00000000000E+00 -0.00000000000E+00 -0.80754460321E+02  0.80754460321E+02  0.00000000000E+00 0. -1.
         21    1    1    2  502  501 -0.67663104383E+00 -0.21941359959E+02 -0.39073853086E+02  0.44817932811E+02  0.00000000000E+00 0. -1.
         21    1    1    2  503  502  0.67663104383E+00  0.21941359959E+02 -0.35704348774E+02  0.41912785970E+02  0.00000000000E+00 0.  1.
</event>
<event>
 4    1  0.5722454E+002  0.2477604E+02  0.7546771E-02  0.1471325E+00
          2   -1    0    0  502    0  0.00000000000E+00  0.00000000000E+00  0.10361725824E+02  0.10361725824E+02  0.00000000000E+00 0.  1.
         -2   -1    0    0    0  501 -0.00000000000E+00 -0.00000000000E+00 -0.66335680555E+02  0.66335680555E+02  0.00000000000E+00 0. -1.
         21    1    1    2  502  503  0.98032009849E+01  0.22754102380E+02 -0.15446752381E+02  0.29196816330E+02  0.00000000000E+00 0.  1.
         21    1    1    2  503  501 -0.98032009849E+01 -0.22754102380E+02 -0.40527202351E+02  0.47500590050E+02  0.00000000000E+00 0. -1.
</event>
<event>
 4    1  0.5722454E+002  0.2740322E+02  0.7546771E-02  0.1443599E+00
          2   -1    0    0  502    0  0.00000000000E+00  0.00000000000E+00  0.12854343855E+03  0.12854343855E+03  0.00000000000E+00 0.  1.
         -2   -1    0    0    0  501 -0.00000000000E+00 -0.00000000000E+00 -0.19871699793E+02  0.19871699793E+02  0.00000000000E+00 0. -1.
         21    1    1    2  502  503  0.21501349243E+02  0.16989061251E+02  0.11668876654E+03  0.11986327402E+03  0.00000000000E+00 0.  1.
         21    1    1    2  503  501 -0.21501349243E+02 -0.16989061251E+02 -0.80170277903E+01  0.28551864319E+02  0.00000000000E+00 0. -1.
</event>
<event>
 4    1  0.5722454E+002  0.3005139E+02  0.7546771E-02  0.1419150E+00
          2   -1    0    0  502    0  0.00000000000E+00  0.00000000000E+00  0.13029106773E+01  0.13029106773E+01  0.00000000000E+00 0.  1.
         -2   -1    0    0    0  501 -0.00000000000E+00 -0.00000000000E+00 -0.79851990694E+03  0.79851990694E+03  0.00000000000E+00 0. -1.
         21    1    1    2  502  503 -0.24853684887E+02 -0.16893213030E+02 -0.25332351960E+03  0.25509976848E+03  0.00000000000E+00 0.  1.
         21    1    1    2  503  501  0.24853684887E+02  0.16893213030E+02 -0.54389347667E+03  0.54472304913E+03  0.00000000000E+00 0. -1.
</event>
<event>
 4    1  0.5722454E+002  0.2013615E+02  0.7546771E-02  0.1531964E+00
          2   -1    0    0  502    0  0.00000000000E+00  0.00000000000E+00  0.41065895207E+03  0.41065895207E+03  0.00000000000E+00 0. -1.
         -2   -1    0    0    0  501 -0.00000000000E+00 -0.00000000000E+00 -0.19408118017E+01  0.19408118017E+01  0.00000000000E+00 0.  1.
         21    1    1    2  502  503 -0.14063260001E+02 -0.14411434239E+02  0.34895583704E+03  0.34953632275E+03  0.00000000000E+00 0. -1.
         21    1    1    2  503  501  0.14063260001E+02  0.14411434239E+02  0.59762303229E+02  0.63063441120E+02  0.00000000000E+00 0.  1.
</event>
<event>
 4    1  0.5722454E+002  0.2565066E+02  0.7546771E-02  0.1461654E+00
          2   -1    0    0  503    0  0.00000000000E+00  0.00000000000E+00  0.19124977601E+03  0.19124977601E+03  0.00000000000E+00 0. -1.
         -2   -1    0    0    0  501 -0.00000000000E+00 -0.00000000000E+00 -0.36472335263E+01  0.36472335263E+01  0.00000000000E+00 0.  1.
         21    1    1    2  502  501 -0.25271856307E+02  0.43919847960E+01  0.70589367610E+02  0.75105359804E+02  0.00000000000E+00 0.  1.
         21    1    1    2  503  502  0.25271856307E+02 -0.43919847960E+01  0.11701317487E+03  0.11979164973E+03  0.00000000000E+00 0. -1.
</event>
<event>
 4    1  0.5722454E+002  0.4764565E+02  0.7546771E-02  0.1308716E+00
          2   -1    0    0  502    0  0.00000000000E+00  0.00000000000E+00  0.59328692462E+02  0.59328692462E+02  0.00000000000E+00 0. -1.
         -2   -1    0    0    0  501 -0.00000000000E+00 -0.00000000000E+00 -0.47450144092E+02  0.47450144092E+02  0.00000000000E+00 0.  1.
         21    1    1    2  502  503  0.20124379764E+02 -0.43187007293E+02  0.29431323739E+02  0.56002777403E+02  0.00000000000E+00 0. -1.
         21    1    1    2  503  501 -0.20124379764E+02  0.43187007293E+02 -0.17552775368E+02  0.50776059151E+02  0.00000000000E+00 0.  1.
</event>
<event>
 4    1  0.5722454E+002  0.3157720E+02  0.7546771E-02  0.1406368E+00
          2   -1    0    0  503    0  0.00000000000E+00  0.00000000000E+00  0.38796607589E+03  0.38796607589E+03  0.00000000000E+00 0. -1.
         -2   -1    0    0    0  501 -0.00000000000E+00 -0.00000000000E+00 -0.31060743740E+01  0.31060743740E+01  0.00000000000E+00 0.  1.
         21    1    1    2  502  501 -0.73312272524E+01  0.30714368594E+02  0.11120589854E+03  0.11560221105E+03  0.00000000000E+00 0.  1.
         21    1    1    2  503  502  0.73312272524E+01 -0.30714368594E+02  0.27365410298E+03  0.27546993921E+03  0.00000000000E+00 0. -1.
</event>
<event>
 4    1  0.5722454E+002  0.2188273E+02  0.7546771E-02  0.1507025E+00
          2   -1    0    0  502    0  0.00000000000E+00  0.00000000000E+00  0.32022011269E+02  0.32022011269E+02  0.00000000000E+00 0. -1.
         -2   -1    0    0    0  501 -0.00000000000E+00 -0.00000000000E+00 -0.14960944974E+02  0.14960944974E+02  0.00000000000E+00 0.  1.
         21    1    1    2  502  503  0.75900830462E+01  0.20524238986E+02  0.90405333746E+01  0.23676676082E+02  0.00000000000E+00 0.  1.
         21    1    1    2  503  501 -0.75900830462E+01 -0.20524238986E+02  0.80205329207E+01  0.23306280161E+02  0.00000000000E+00 0. -1.
</event>
<event>
 4    1  0.5722454E+002  0.2139295E+02  0.7546771E-02  0.1513728E+00
          2   -1    0    0  502    0  0.00000000000E+00  0.00000000000E+00  0.59485746597E+03  0.59485746597E+03  0.00000000000E+00 0. -1.
         -2   -1    0    0    0  501 -0.00000000000E+00 -0.00000000000E+00 -0.77041540372E+00  0.77041540372E+00  0.00000000000E+00 0.  1.
         21    1    1    2  502  503 -0.20758333640E+02  0.51720099790E+01  0.30807893376E+03  0.30882080165E+03  0.00000000000E+00 0. -1.
         21    1    1    2  503  501  0.20758333640E+02 -0.51720099790E+01  0.28600811681E+03  0.28680707973E+03  0.00000000000E+00 0.  1.
</event>
<event>
 4    1  0.5722454E+002  0.3138339E+02  0.7546771E-02  0.1407944E+00
          2   -1    0    0  502    0  0.00000000000E+00  0.00000000000E+00  0.62859368184E+03  0.62859368184E+03  0.00000000000E+00 0.  1.
         -2   -1    0    0    0  501 -0.00000000000E+00 -0.00000000000E+00 -0.40031888239E+01  0.40031888239E+01  0.00000000000E+00 0. -1.
         21    1    1    2  502  503 -0.25023261707E+02  0.18940793854E+02  0.55904805189E+03  0.55992824685E+03  0.00000000000E+00 0.  1.
         21    1    1    2  503  501  0.25023261707E+02 -0.18940793854E+02  0.65542441125E+02  0.72668623813E+02  0.00000000000E+00 0. -1.
</event>
<event>
 4    1  0.5722454E+002  0.2663141E+02  0.7546771E-02  0.1451346E+00
          2   -1    0    0  503    0  0.00000000000E+00  0.00000000000E+00  0.32871472135E+03  0.32871472135E+03  0.00000000000E+00 0.  1.
         -2   -1    0    0    0  501 -0.00000000000E+00 -0.00000000000E+00 -0.24603689826E+01  0.24603689826E+01  0.00000000000E+00 0. -1.
         21    1    1    2  502  501  0.20124802883E+02 -0.17442028710E+02  0.10503877769E+03  0.10836224839E+03  0.00000000000E+00 0. -1.
         21    1    1    2  503  502 -0.20124802883E+02  0.17442028710E+02  0.22121557468E+03  0.22281284195E+03  0.00000000000E+00 0.  1.
</event>
<event>
 4    1  0.5722454E+002  0.2318074E+02  0.7546771E-02  0.1490241E+00
          2   -1    0    0  503    0  0.00000000000E+00  0.00000000000E+00  0.19438143708E+02  0.19438143708E+02  0.00000000000E+00 0. -1.
         -2   -1    0    0    0  501 -0.00000000000E+00 -0.00000000000E+00 -0.98803075687E+02  0.98803075687E+02  0.00000000000E+00 0.  1.
         21    1    1    2  502  501  0.20160635239E+02  0.11440947407E+02 -0.89855349947E+02  0.92797254296E+02  0.00000000000E+00 0.  1.
         21    1    1    2  503  502 -0.20160635239E+02 -0.11440947407E+02  0.10490417968E+02  0.25443965099E+02  0.00000000000E+00 0. -1.
</event>
<event>
 4    1  0.5722454E+002  0.2318532E+02  0.7546771E-02  0.1490184E+00
          2   -1    0    0  502    0  0.00000000000E+00  0.00000000000E+00  0.80387405620E+03  0.80387405620E+03  0.00000000000E+00 0.  1.
         -2   -1    0    0    0  501 -0.00000000000E+00 -0.00000000000E+00 -0.11927440308E+01  0.11927440308E+01  0.00000000000E+00 0. -1.
         21    1    1    2  502  503 -0.15548119755E+02 -0.17199280091E+02  0.66815410064E+03  0.66855625153E+03  0.00000000000E+00 0.  1.
         21    1    1    2  503  501  0.15548119755E+02  0.17199280091E+02  0.13452721153E+03  0.13651054870E+03  0.00000000000E+00 0. -1.
</event>
<event>
 4    1  0.5722454E+002  0.2217419E+02  0.7546771E-02  0.1503137E+00
          2   -1    0    0  503    0  0.00000000000E+00  0.00000000000E+00  0.38045587516E+03  0.38045587516E+03  0.00000000000E+00 0. -1.
         -2   -1    0    0    0  501 -0.00000000000E+00 -0.00000000000E+00 -0.97186019690E+01  0.97186019690E+01  0.00000000000E+00 0.  1.
         21    1    1    2  502  501 -0.21131264651E+02  0.67204548558E+01  0.37153233645E+01  0.22483293507E+02  0.00000000000E+00 0.  1.
         21    1    1    2  503  502  0.21131264651E+02 -0.67204548558E+01  0.36702194983E+03  0.36769118363E+03  0.00000000000E+00 0. -1.
</event>
<event>
 4    1  0.5722454E+002  0.6149464E+02  0.7546771E-02  0.1254837E+00
          2   -1    0    0  502    0  0.00000000000E+00  0.00000000000E+00  0.19403090158E+03  0.19403090158E+03  0.00000000000E+00 0. -1.
         -2   -1    0    0    0  501 -0.00000000000E+00 -0.00000000000E+00 -0.19801497581E+02  0.19801497581E+02  0.00000000000E+00 0.  1.
         21    1    1    2  502  503  0.56664256173E+02 -0.23890440766E+02  0.10053238201E+03  0.11784884777E+03  0.00000000000E+00 0.  1.
         21    1    1    2  503  501 -0.56664256173E+02  0.23890440766E+02  0.73697021986E+02  0.95983551389E+02  0.00000000000E+00 0. -1.
</event>
<event>
 4    1  0.5722454E+002  0.2917661E+02  0.7546771E-02  0.1426889E+00
          2   -1    0    0  502    0  0.00000000000E+00  0.00000000000E+00  0.22062407681E+04  0.22062407681E+04  0.00000000000E+00 0. -1.
         -2   -1    0    0    0  501 -0.00000000000E+00 -0.00000000000E+00 -0.60284935968E+00  0.60284935968E+00  0.00000000000E+00 0.  1.
         21    1    1    2  502  503  0.20699824073E+02 -0.20561899629E+02  0.17648342273E+04  0.17650753877E+04  0.00000000000E+00 0. -1.
         21    1    1    2  503  501 -0.20699824073E+02  0.20561899629E+02  0.44080369142E+03  0.44176822973E+03  0.00000000000E+00 0.  1.
</event>
<event>
 4    1  0.5722454E+002  0.2135182E+02  0.7546771E-02  0.1514301E+00
          2   -1    0    0  503    0  0.00000000000E+00  0.00000000000E+00  0.35845714795E+03  0.35845714795E+03  0.00000000000E+00 0. -1.
         -2   -1    0    0    0  501 -0.00000000000E+00 -0.00000000000E+00 -0.20801111658E+01  0.20801111658E+01  0.00000000000E+00 0.  1.
         21    1    1    2  502  501  0.20733491175E+02 -0.51012282763E+01  0.65817221745E+02  0.69193979973E+02  0.00000000000E+00 0.  1.
         21    1    1    2  503  502 -0.20733491175E+02  0.51012282763E+01  0.29055981504E+03  0.29134327914E+03  0.00000000000E+00 0. -1.
</event>
<event>
 4    1  0.5722454E+002  0.2129598E+02  0.7546771E-02  0.1515081E+00
          2   -1    0    0  502    0  0.00000000000E+00  0.00000000000E+00  0.72795630897E+01  0.72795630897E+01  0.00000000000E+00 0. -1.
         -2   -1    0    0    0  501 -0.00000000000E+00 -0.00000000000E+00 -0.65850772740E+02  0.65850772740E+02  0.00000000000E+00 0.  1.
         21    1    1    2  502  503  0.20544732367E+02 -0.56064934712E+01 -0.20795136797E+02  0.29765021611E+02  0.00000000000E+00 0. -1.
         21    1    1    2  503  501 -0.20544732367E+02  0.56064934712E+01 -0.37776072853E+02  0.43365314219E+02  0.00000000000E+00 0.  1.
</event>
<event>
 4    1  0.5722454E+002  0.2286695E+02  0.7546771E-02  0.1494176E+00
          2   -1    0    0  502    0  0.00000000000E+00  0.00000000000E+00  0.25605164731E+01  0.25605164731E+01  0.00000000000E+00 0. -1.
         -2   -1    0    0    0  501 -0.00000000000E+00 -0.00000000000E+00 -0.20512749921E+03  0.20512749921E+03  0.00000000000E+00 0.  1.
         21    1    1    2  502  503  0.22782254228E+02  0.19663430008E+01 -0.94360020221E+02  0.97091251041E+02  0.00000000000E+00 0. -1.
         21    1    1    2  503  501 -0.22782254228E+02 -0.19663430008E+01 -0.10820696251E+03  0.11059676464E+03  0.00000000000E+00 0.  1.
</event>
<event>
 4    1  0.5722454E+002  0.2140290E+02  0.7546771E-02  0.1513590E+00
          2   -1    0    0  503    0  0.00000000000E+00  0.00000000000E+00  0.56866319734E+02  0.56866319734E+02  0.00000000000E+00 0. -1.
         -2   -1    0    0    0  501 -0.00000000000E+00 -0.00000000000E+00 -0.14641165588E+02  0.14641165588E+02  0.00000000000E+00 0.  1.
         21    1    1    2  502  501 -0.19516612482E+02  0.87855565745E+01 -0.28666374953E+01  0.21594021803E+02  0.00000000000E+00 0.  1.
         21    1    1    2  503  502  0.19516612482E+02 -0.87855565745E+01  0.45091791641E+02  0.49913463519E+02  0.00000000000E+00 0. -1.
</event>
<event>
 4    1  0.5722454E+002  0.2389654E+02  0.7546771E-02  0.1481537E+00
          2   -1    0    0  502    0  0.00000000000E+00  0.00000000000E+00  0.21657648274E+02  0.21657648274E+02  0.00000000000E+00 0.  1.
         -2   -1    0    0    0  501 -0.00000000000E+00 -0.00000000000E+00 -0.26485052482E+02  0.26485052482E+02  0.00000000000E+00 0. -1.
         21    1    1    2  502  503 -0.23216651199E+02  0.56596495362E+01 -0.80577770266E+00  0.23910119269E+02  0.00000000000E+00 0.  1.
         21    1    1    2  503  501  0.23216651199E+02 -0.56596495362E+01 -0.40216265047E+01  0.24232581487E+02  0.00000000000E+00 0. -1.
</event>
<event>
 4    1  0.5722454E+002  0.2396379E+02  0.7546771E-02  0.1480738E+00
          2   -1    0    0  503    0  0.00000000000E+00  0.00000000000E+00  0.28284737529E+01  0.28284737529E+01  0.00000000000E+00 0. -1.
         -2   -1    0    0    0  501 -0.00000000000E+00 -0.00000000000E+00 -0.21758146095E+03  0.21758146095E+03  0.00000000000E+00 0.  1.
         21    1    1    2  502  501  0.80396913996E+01 -0.22574909101E+02 -0.78875934694E+02  0.82435891652E+02  0.00000000000E+00 0. -1.
         21    1    1    2  503  502 -0.80396913996E+01  0.22574909101E+02 -0.13587705251E+03  0.13797404305E+03  0.00000000000E+00 0.  1.
</event>
<event>
 4    1  0.5722454E+002  0.2739898E+02  0.7546771E-02  0.1443641E+00
          2   -1    0    0  502    0  0.00000000000E+00  0.00000000000E+00  0.49761978373E+03  0.49761978373E+03  0.00000000000E+00 0.  1.
         -2   -1    0    0    0  501 -0.00000000000E+00 -0.00000000000E+00 -0.18791269907E+01  0.18791269907E+01  0.00000000000E+00 0. -1.
         21    1    1    2  502  503  0.27396078236E+02  0.39840922020E+00  0.35877318606E+03  0.35981787458E+03  0.00000000000E+00 0.  1.
         21    1    1    2  503  501 -0.27396078236E+02 -0.39840922020E+00  0.13696747068E+03  0.13968103614E+03  0.00000000000E+00 0. -1.
</event>
<event>
 4    1  0.5722454E+002  0.2200473E+02  0.7546771E-02  0.1505389E+00
          2   -1    0    0  502    0  0.00000000000E+00  0.00000000000E+00  0.11579643932E+04  0.11579643932E+04  0.00000000000E+00 0. -1.
         -2   -1    0    0    0  501 -0.00000000000E+00 -0.00000000000E+00 -0.79069932419E+00  0.79069932419E+00  0.00000000000E+00 0.  1.
         21    1    1    2  502  503  0.19750464362E+02 -0.97019247101E+01  0.97627729583E+03  0.97652525136E+03  0.00000000000E+00 0.  1.
         21    1    1    2  503  501 -0.19750464362E+02  0.97019247101E+01  0.18089639800E+03  0.18222984112E+03  0.00000000000E+00 0. -1.
</event>
<event>
 4    1  0.5722454E+002  0.2982144E+02  0.7546771E-02  0.1421155E+00
          2   -1    0    0  502    0  0.00000000000E+00  0.00000000000E+00  0.20842048823E+02  0.20842048823E+02  0.00000000000E+00 0.  1.
         -2   -1    0    0    0  501 -0.00000000000E+00 -0.00000000000E+00 -0.81021385095E+02  0.81021385095E+02  0.00000000000E+00 0. -1.
         21    1    1    2  502  503 -0.11437285725E+02  0.27541003907E+02  0.49517943606E+01  0.30229764610E+02  0.00000000000E+00 0.  1.
         21    1    1    2  503  501  0.11437285725E+02 -0.27541003907E+02 -0.65131130633E+02  0.71633669308E+02  0.00000000000E+00 0. -1.
</event>
<event>
 4    1  0.5722454E+002  0.4036360E+02  0.7546771E-02  0.1346368E+00
          2   -1    0    0  503    0  0.00000000000E+00  0.00000000000E+00  0.16115733218E+02  0.16115733218E+02  0.00000000000E+00 0.  1.
         -2   -1    0    0    0  501 -0.00000000000E+00 -0.00000000000E+00 -0.19975836430E+03  0.19975836430E+03  0.00000000000E+00 0. -1.
         21    1    1    2  502  501 -0.27142102851E+01  0.40272237673E+02 -0.16767837626E+03  0.17246813598E+03  0.00000000000E+00 0. -1.
         21    1    1    2  503  502  0.27142102851E+01 -0.40272237673E+02 -0.15964254823E+02  0.43405961534E+02  0.00000000000E+00 0.  1.
</event>
<event>
 4    1  0.5722454E+002  0.2671107E+02  0.7546771E-02  0.1450532E+00
          2   -1    0    0  503    0  0.00000000000E+00  0.00000000000E+00  0.15082936868E+02  0.15082936868E+02  0.00000000000E+00 0.  1.
         -2   -1    0    0    0  501 -0.00000000000E+00 -0.00000000000E+00 -0.71514192918E+02  0.71514192918E+02  0.00000000000E+00 0. -1.
         21    1    1    2  502  501  0.24455590005E+02  0.10742699475E+02 -0.53408493032E+02  0.59715564156E+02  0.00000000000E+00 0. -1.
         21    1    1    2  503  502 -0.24455590005E+02 -0.10742699475E+02 -0.30227630177E+01  0.26881565631E+02  0.00000000000E+00 0.  1.
</event>
<event>
 4    1  0.5722454E+002  0.2218874E+02  0.7546771E-02  0.1502944E+00
          2   -1    0    0  503    0  0.00000000000E+00  0.00000000000E+00  0.22162885624E+02  0.22162885624E+02  0.00000000000E+00 0. -1.
         -2   -1    0    0    0  501 -0.00000000000E+00 -0.00000000000E+00 -0.72318299899E+02  0.72318299899E+02  0.00000000000E+00 0.  1.
         21    1    1    2  502  501 -0.21862571176E+02  0.37905178697E+01 -0.64398842925E+02  0.68114249715E+02  0.00000000000E+00 0.  1.
         21    1    1    2  503  502  0.21862571176E+02 -0.37905178697E+01  0.14243428650E+02  0.26366935807E+02  0.00000000000E+00 0. -1.
</event>
<event>
 4    1  0.5722454E+002  0.2126626E+02  0.7546771E-02  0.1515497E+00
          2   -1    0    0  503    0  0.00000000000E+00  0.00000000000E+00  0.13367600123E+03  0.13367600123E+03  0.00000000000E+00 0. -1.
         -2   -1    0    0    0  501 -0.00000000000E+00 -0.00000000000E+00 -0.33841478759E+01  0.33841478759E+01  0.00000000000E+00 0.  1.
         21    1    1    2  502  501  0.55964268788E+01  0.20516674799E+02  0.64004867967E+02  0.67445363533E+02  0.00000000000E+00 0. -1.
         21    1    1    2  503  502 -0.55964268788E+01 -0.20516674799E+02  0.66286985384E+02  0.69614785570E+02  0.00000000000E+00 0.  1.
</event>
<event>
 4    1  0.5722454E+002  0.3187774E+02  0.7546771E-02  0.1403951E+00
          2   -1    0    0  503    0  0.00000000000E+00  0.00000000000E+00  0.19424239466E+02  0.19424239466E+02  0.00000000000E+00 0. -1.
         -2   -1    0    0    0  501 -0.00000000000E+00 -0.00000000000E+00 -0.11857348423E+03  0.11857348423E+03  0.00000000000E+00 0.  1.
         21    1    1    2  502  501 -0.17788750031E+02  0.26452804953E+02 -0.10115291432E+03  0.10605707234E+03  0.00000000000E+00 0.  1.
         21    1    1    2  503  502  0.17788750031E+02 -0.26452804953E+02  0.20036695541E+01  0.31940651359E+02  0.00000000000E+00 0. -1.
</event>
<event>
 4    1  0.5722454E+002  0.2595843E+02  0.7546771E-02  0.1458361E+00
          2   -1    0    0  503    0  0.00000000000E+00  0.00000000000E+00  0.19634230789E+02  0.19634230789E+02  0.00000000000E+00 0. -1.
         -2   -1    0    0    0  501 -0.00000000000E+00 -0.00000000000E+00 -0.35721459803E+02  0.35721459803E+02  0.00000000000E+00 0.  1.
         21    1    1    2  502  501  0.25824559417E+02  0.26329469063E+01 -0.13526503645E+02  0.29271258589E+02  0.00000000000E+00 0.  1.
         21    1    1    2  503  502 -0.25824559417E+02 -0.26329469063E+01 -0.25607253690E+01  0.26084432003E+02  0.00000000000E+00 0. -1.
</event>
<event>
 4    1  0.5722454E+002  0.2432517E+02  0.7546771E-02  0.1476496E+00
          2   -1    0    0  502    0  0.00000000000E+00  0.00000000000E+00  0.16897116467E+04  0.16897116467E+04  0.00000000000E+00 0.  1.
         -2   -1    0    0    0  501 -0.00000000000E+00 -0.00000000000E+00 -0.68729477654E+00  0.68729477654E+00  0.00000000000E+00 0. -1.
         21    1    1    2  502  503 -0.16736087530E+01  0.24267527560E+02  0.14364451521E+04  0.14366511020E+04  0.00000000000E+00 0.  1.
         21    1    1    2  503  501  0.16736087530E+01 -0.24267527560E+02  0.25257919981E+03  0.25374783947E+03  0.00000000000E+00 0. -1.
</event>
<event>
 4    1  0.5722454E+002  0.2996987E+02  0.7546771E-02  0.1419859E+00
          2   -1    0    0  503    0  0.00000000000E+00  0.00000000000E+00  0.37557566514E+03  0.37557566514E+03  0.00000000000E+00 0. -1.
         -2   -1    0    0    0  501 -0.00000000000E+00 -0.00000000000E+00 -0.24012133073E+01  0.24012133073E+01  0.00000000000E+00 0.  1.
         21    1    1    2  502  501 -0.22992667893E+02  0.19223165551E+02  0.17457329805E+03  0.17712715563E+03  0.00000000000E+00 0. -1.
         21    1    1    2  503  502  0.22992667893E+02 -0.19223165551E+02  0.19860115378E+03  0.20084972281E+03  0.00000000000E+00 0.  1.
</event>
<event>
 4    1  0.5722454E+002  0.2100399E+02  0.7546771E-02  0.1519208E+00
          2   -1    0    0  502    0  0.00000000000E+00  0.00000000000E+00  0.14907088709E+03  0.14907088709E+03  0.00000000000E+00 0.  1.
         -2   -1    0    0    0  501 -0.00000000000E+00 -0.00000000000E+00 -0.13685572857E+02  0.13685572857E+02  0.00000000000E+00 0. -1.
         21    1    1    2  502  503 -0.87038023796E+01 -0.19115741202E+02  0.13973671159E+03  0.14130646236E+03  0.00000000000E+00 0.  1.
         21    1    1    2  503  501  0.87038023796E+01  0.19115741202E+02 -0.43513973591E+01  0.21449997588E+02  0.00000000000E+00 0. -1.
</event>
<event>
 4    1  0.5722454E+002  0.3181888E+02  0.7546771E-02  0.1404422E+00
          2   -1    0    0  503    0  0.00000000000E+00  0.00000000000E+00  0.13416234638E+04  0.13416234638E+04  0.00000000000E+00 0.  1.
         -2   -1    0    0    0  501 -0.00000000000E+00 -0.00000000000E+00 -0.40344142804E+01  0.40344142804E+01  0.00000000000E+00 0. -1.
         21    1    1    2  502  501 -0.29351949282E+02  0.12284301315E+02  0.62146929388E+02  0.69818921631E+02  0.00000000000E+00 0. -1.
         21    1    1    2  503  502  0.29351949282E+02 -0.12284301315E+02  0.12754421201E+04  0.12758389564E+04  0.00000000000E+00 0.  1.
</event>
<event>
 4    1  0.5722454E+002  0.2085873E+02  0.7546771E-02  0.1521291E+00
          2   -1    0    0  503    0  0.00000000000E+00  0.00000000000E+00  0.21677340030E+04  0.21677340030E+04  0.00000000000E+00 0. -1.
         -2   -1    0    0    0  501 -0.00000000000E+00 -0.00000000000E+00 -0.20105647882E+00  0.20105647882E+00  0.00000000000E+00 0.  1.
         21    1    1    2  502  501 -0.87395385288E+01 -0.18939562877E+02  0.10387887193E+04  0.10389981183E+04  0.00000000000E+00 0.  1.
         21    1    1    2  503  502  0.87395385288E+01  0.18939562877E+02  0.11287442272E+04  0.11289369411E+04  0.00000000000E+00 0. -1.
</event>
<event>
 4    1  0.5722454E+002  0.2092692E+02  0.7546771E-02  0.1520311E+00
          2   -1    0    0  502    0  0.00000000000E+00  0.00000000000E+00  0.10911285547E+01  0.10911285547E+01  0.00000000000E+00 0.  1.
         -2   -1    0    0    0  501 -0.00000000000E+00 -0.00000000000E+00 -0.79333750402E+03  0.79333750402E+03  0.00000000000E+00 0. -1.
         21    1    1    2  502  503 -0.99341836902E+01 -0.18418683204E+02 -0.11691625505E+03  0.11877435157E+03  0.00000000000E+00 0.  1.
         21    1    1    2  503  501  0.99341836902E+01  0.18418683204E+02 -0.67533012042E+03  0.67565428100E+03  0.00000000000E+00 0. -1.
</event>
<event>
 4    1  0.5722454E+002  0.2493245E+02  0.7546771E-02  0.1469560E+00
          2   -1    0    0  503    0  0.00000000000E+00  0.00000000000E+00  0.42821230019E+02  0.42821230019E+02  0.00000000000E+00 0. -1.
         -2   -1    0    0    0  501 -0.00000000000E+00 -0.00000000000E+00 -0.37596836816E+02  0.37596836816E+02  0.00000000000E+00 0.  1.
         21    1    1    2  502  501  0.15540578117E+02  0.19496607769E+02 -0.28891840991E+02  0.38162360495E+02  0.00000000000E+00 0.  1.
         21    1    1    2  503  502 -0.15540578117E+02 -0.19496607769E+02  0.34116234193E+02  0.42255706340E+02  0.00000000000E+00 0. -1.
</event>
<event>
 4    1  0.5722454E+002  0.2632343E+02  0.7546771E-02  0.1454525E+00
          2   -1    0    0  502    0  0.00000000000E+00  0.00000000000E+00  0.77727462993E+03  0.77727462993E+03  0.00000000000E+00 0. -1.
         -2   -1    0    0    0  501 -0.00000000000E+00 -0.00000000000E+00 -0.18350810786E+01  0.18350810786E+01  0.00000000000E+00 0.  1.
         21    1    1    2  502  503 -0.24318786530E+02 -0.10075686471E+02  0.66706148301E+03  0.66758066550E+03  0.00000000000E+00 0. -1.
         21    1    1    2  503  501  0.24318786530E+02  0.10075686471E+02  0.10837806584E+03  0.11152904550E+03  0.00000000000E+00 0.  1.
</event>
<event>
 4    1  0.5722454E+002  0.2148859E+02  0.7546771E-02  0.1512402E+00
          2   -1    0    0  502    0  0.00000000000E+00  0.00000000000E+00  0.13519740077E+04  0.13519740077E+04  0.00000000000E+00 0.  1.
         -2   -1    0    0    0  501 -0.00000000000E+00 -0.00000000000E+00 -0.42836409322E+00  0.42836409322E+00  0.00000000000E+00 0. -1.
         21    1    1    2  502  503  0.19999723075E+02 -0.78594385756E+01  0.98019585624E+03  0.98043137255E+03  0.00000000000E+00 0.  1.
         21    1    1    2  503  501 -0.19999723075E+02  0.78594385756E+01  0.37134978738E+03  0.37197099925E+03  0.00000000000E+00 0. -1.
</event>
<event>
 4    1  0.5722454E+002  0.2373627E+02  0.7546771E-02  0.1483454E+00
          2   -1    0    0  503    0  0.00000000000E+00  0.00000000000E+00  0.28385357277E+03  0.28385357277E+03  0.00000000000E+00 0.  1.
         -2   -1    0    0    0  501 -0.00000000000E+00 -0.00000000000E+00 -0.57802594962E+01  0.57802594962E+01  0.00000000000E+00 0. -1.
         21    1    1    2  502  501  0.22557051567E+02  0.73885121756E+01  0.21689071683E+02  0.32153172752E+02  0.00000000000E+00 0. -1.
         21    1    1    2  503  502 -0.22557051567E+02 -0.73885121756E+01  0.25638424159E+03  0.25748065952E+03  0.00000000000E+00 0.  1.
</event>
<event>
 4    1  0.5722454E+002  0.2222002E+02  0.7546771E-02  0.1502532E+00
          2   -1    0    0  502    0  0.00000000000E+00  0.00000000000E+00  0.72146857328E+03  0.72146857328E+03  0.00000000000E+00 0.  1.
         -2   -1    0    0    0  501 -0.00000000000E+00 -0.00000000000E+00 -0.15628592332E+01  0.15628592332E+01  0.00000000000E+00 0. -1.
         21    1    1    2  502  503  0.82618298435E+01  0.20626959483E+02  0.63099889520E+03  0.63139000232E+03  0.00000000000E+00 0.  1.
         21    1    1    2  503  501 -0.82618298435E+01 -0.20626959483E+02  0.88906818851E+02  0.91641430194E+02  0.00000000000E+00 0. -1.
</event>
<event>
 4    1  0.5722454E+002  0.3882800E+02  0.7546771E-02  0.1355494E+00
          2   -1    0    0  503    0  0.00000000000E+00  0.00000000000E+00  0.52423145862E+01  0.52423145862E+01  0.00000000000E+00 0. -1.
         -2   -1    0    0    0  501 -0.00000000000E+00 -0.00000000000E+00 -0.42079075561E+03  0.42079075561E+03  0.00000000000E+00 0.  1.
         21    1    1    2  502  501  0.26151609548E+02 -0.28700300308E+02 -0.32762498840E+03  0.32991778816E+03  0.00000000000E+00 0. -1.
         21    1    1    2  503  502 -0.26151609548E+02  0.28700300308E+02 -0.87923452624E+02  0.96115282038E+02  0.00000000000E+00 0.  1.
</event>
<event>
 4    1  0.5722454E+002  0.2340298E+02  0.7546771E-02  0.1487499E+00
          2   -1    0    0  502    0  0.00000000000E+00  0.00000000000E+00  0.10179814214E+02  0.10179814214E+02  0.00000000000E+00 0.  1.
         -2   -1    0    0    0  501 -0.00000000000E+00 -0.00000000000E+00 -0.58170231818E+02  0.58170231818E+02  0.00000000000E+00 0. -1.
         21    1    1    2  502  503 -0.22591807504E+02 -0.61081700014E+01 -0.33359742201E+02  0.40750115420E+02  0.00000000000E+00 0. -1.
         21    1    1    2  503  501  0.22591807504E+02  0.61081700014E+01 -0.14630675404E+02  0.27599930612E+02  0.00000000000E+00 0.  1.
</event>
<event>
 4    1  0.5722454E+002  0.2983302E+02  0.7546771E-02  0.1421053E+00
          2   -1    0    0  503    0  0.00000000000E+00  0.00000000000E+00  0.41233334954E+03  0.41233334954E+03  0.00000000000E+00 0. -1.
         -2   -1    0    0    0  501 -0.00000000000E+00 -0.00000000000E+00 -0.32340056620E+01  0.32340056620E+01  0.00000000000E+00 0.  1.
         21    1    1    2  502  501 -0.26305515371E+02 -0.14072284154E+02  0.84723034547E+02  0.89822056885E+02  0.00000000000E+00 0. -1.
         21    1    1    2  503  502  0.26305515371E+02  0.14072284154E+02  0.32437630933E+03  0.32574529832E+03  0.00000000000E+00 0.  1.
</event>
<event>
 4    1  0.5722454E+002  0.2139208E+02  0.7546771E-02  0.1513740E+00
          2   -1    0    0  503    0  0.00000000000E+00  0.00000000000E+00  0.18095586222E+03  0.18095586222E+03  0.00000000000E+00 0.  1.
         -2   -1    0    0    0  501 -0.00000000000E+00 -0.00000000000E+00 -0.19730401858E+02  0.19730401858E+02  0.00000000000E+00 0. -1.
         21    1    1    2  502  501  0.21010379122E+02  0.40230901959E+01 -0.13079317486E+02  0.25073688031E+02  0.00000000000E+00 0. -1.
         21    1    1    2  503  502 -0.21010379122E+02 -0.40230901959E+01  0.17430477785E+03  0.17561257605E+03  0.00000000000E+00 0.  1.
</event>
<event>
 4    1  0.5722454E+002  0.2319880E+02  0.7546771E-02  0.1490017E+00
          2   -1    0    0  502    0  0.00000000000E+00  0.00000000000E+00  0.24181315156E+03  0.24181315156E+03  0.00000000000E+00 0. -1.
         -2   -1    0    0    0  501 -0.00000000000E+00 -0.00000000000E+00 -0.22821890681E+01  0.22821890681E+01  0.00000000000E+00 0.  1.
         21    1    1    2  502  503  0.86031794563E+01  0.21544598000E+02  0.10055050692E+03  0.10319199989E+03  0.00000000000E+00 0.  1.
         21    1    1    2  503  501 -0.86031794563E+01 -0.21544598000E+02  0.13898045557E+03  0.14090334074E+03  0.00000000000E+00 0. -1.
</event>
<event>
 4    1  0.5722454E+002  0.4070660E+02  0.7546771E-02  0.1344394E+00
          2   -1    0    0  503    0  0.00000000000E+00  0.00000000000E+00  0.45287917526E+03  0.45287917526E+03  0.00000000000E+00 0. -1.
         -2   -1    0    0    0  501 -0.00000000000E+00 -0.00000000000E+00 -0.38909922159E+01  0.38909922159E+01  0.00000000000E+00 0.  1.
         21    1    1    2  502  501  0.13356516054E+02 -0.38452969762E+02  0.16871222205E+03  0.17355356888E+03  0.00000000000E+00 0.  1.
         21    1    1    2  503  502 -0.13356516054E+02  0.38452969762E+02  0.28027596100E+03  0.28321659860E+03  0.00000000000E+00 0. -1.
</event>
<event>
 4    1  0.5722454E+002  0.2648331E+02  0.7546771E-02  0.1452868E+00
          2   -1    0    0  502    0  0.00000000000E+00  0.00000000000E+00  0.26565219372E+04  0.26565219372E+04  0.00000000000E+00 0. -1.
         -2   -1    0    0    0  501 -0.00000000000E+00 -0.00000000000E+00 -0.29696027242E+00  0.29696027242E+00  0.00000000000E+00 0.  1.
         21    1    1    2  502  503  0.25247975732E+02  0.79940981591E+01  0.17705671746E+04  0.17707652261E+04  0.00000000000E+00 0. -1.
         21    1    1    2  503  501 -0.25247975732E+02 -0.79940981591E+01  0.88565780231E+03  0.88605367144E+03  0.00000000000E+00 0.  1.
</event>
<event>
 4    1  0.5722454E+002  0.2574557E+02  0.7546771E-02  0.1460633E+00
          2   -1    0    0  502    0  0.00000000000E+00  0.00000000000E+00  0.44631597060E+03  0.44631597060E+03  0.00000000000E+00 0.  1.
         -2   -1    0    0    0  501 -0.00000000000E+00 -0.00000000000E+00 -0.14921091935E+01  0.14921091935E+01  0.00000000000E+00 0. -1.
         21    1    1    2  502  503 -0.24955273229E+02 -0.63300029380E+01  0.20709230732E+03  0.20868650735E+03  0.00000000000E+00 0. -1.
         21    1    1    2  503  501  0.24955273229E+02  0.63300029380E+01  0.23773155408E+03  0.23912157244E+03  0.00000000000E+00 0.  1.
</event>
<event>
 4    1  0.5722454E+002  0.2381502E+03  0.7546771E-02  0.1030955E+00
          2   -1    0    0  503    0  0.00000000000E+00  0.00000000000E+00  0.71639660140E+02  0.71639660140E+02  0.00000000000E+00 0. -1.
         -2   -1    0    0    0  501 -0.00000000000E+00 -0.00000000000E+00 -0.85246000251E+03  0.85246000251E+03  0.00000000000E+00 0.  1.
         21    1    1    2  502  501  0.61525557368E+01  0.23807075115E+03 -0.26703163024E+03  0.35780082175E+03  0.00000000000E+00 0. -1.
         21    1    1    2  503  502 -0.61525557368E+01 -0.23807075115E+03 -0.51378871213E+03  0.56629884090E+03  0.00000000000E+00 0.  1.
</event>
<event>
 4    1  0.5722454E+002  0.2708813E+02  0.7546771E-02  0.1446725E+00
          2   -1    0    0  503    0  0.00000000000E+00  0.00000000000E+00  0.12290107854E+04  0.12290107854E+04  0.00000000000E+00 0. -1.
         -2   -1    0    0    0  501 -0.00000000000E+00 -0.00000000000E+00 -0.17463474423E+01  0.17463474423E+01  0.00000000000E+00 0.  1.
         21    1    1    2  502  501  0.83569363993E+01  0.25766809018E+02  0.11440825941E+03  0.11757132582E+03  0.00000000000E+00 0.  1.
         21    1    1    2  503  502 -0.83569363993E+01 -0.25766809018E+02  0.11128561786E+04  0.11131858070E+04  0.00000000000E+00 0. -1.
</event>
<event>
 4    1  0.5722454E+002  0.2189010E+02  0.7546771E-02  0.1506926E+00
          2   -1    0    0  503    0  0.00000000000E+00  0.00000000000E+00  0.29345326381E+02  0.29345326381E+02  0.00000000000E+00 0. -1.
         -2   -1    0    0    0  501 -0.00000000000E+00 -0.00000000000E+00 -0.22956950619E+02  0.22956950619E+02  0.00000000000E+00 0.  1.
         21    1    1    2  502  501 -0.17596488000E+02 -0.13020754965E+02 -0.10857448782E+02  0.24434824408E+02  0.00000000000E+00 0.  1.
         21    1    1    2  503  502  0.17596488000E+02  0.13020754965E+02  0.17245824545E+02  0.27867452593E+02  0.00000000000E+00 0. -1.
</event>
<event>
 4    1  0.5722454E+002  0.5507137E+02  0.7546771E-02  0.1277565E+00
          2   -1    0    0  503    0  0.00000000000E+00  0.00000000000E+00  0.24969909132E+04  0.24969909132E+04  0.00000000000E+00 0. -1.
         -2   -1    0    0    0  501 -0.00000000000E+00 -0.00000000000E+00 -0.21432318968E+01  0.21432318968E+01  0.00000000000E+00 0.  1.
         21    1    1    2  502  501  0.50502502821E+02 -0.21962531246E+02  0.42490507640E+03  0.42845907567E+03  0.00000000000E+00 0.  1.
         21    1    1    2  503  502 -0.50502502821E+02  0.21962531246E+02  0.20699426049E+04  0.20706750694E+04  0.00000000000E+00 0. -1.
</event>
<event>
 4    1  0.5722454E+002  0.2714272E+02  0.7546771E-02  0.1446180E+00
          2   -1    0    0  503    0  0.00000000000E+00  0.00000000000E+00  0.16670364337E+03  0.16670364337E+03  0.00000000000E+00 0. -1.
         -2   -1    0    0    0  501 -0.00000000000E+00 -0.00000000000E+00 -0.10941893304E+02  0.10941893304E+02  0.00000000000E+00 0.  1.
         21    1    1    2  502  501 -0.25580864258E+02 -0.90744994327E+01  0.93027713150E+01  0.28692659519E+02  0.00000000000E+00 0.  1.
         21    1    1    2  503  502  0.25580864258E+02  0.90744994327E+01  0.14645897875E+03  0.14895287715E+03  0.00000000000E+00 0. -1.
</event>
<event>
 4    1  0.5722454E+002  0.2407413E+02  0.7546771E-02  0.1479433E+00
          2   -1    0    0  502    0  0.00000000000E+00  0.00000000000E+00  0.16943589661E+04  0.16943589661E+04  0.00000000000E+00 0. -1.
         -2   -1    0    0    0  501 -0.00000000000E+00 -0.00000000000E+00 -0.53670181771E+00  0.53670181771E+00  0.00000000000E+00 0.  1.
         21    1    1    2  502  503 -0.13980178809E+02  0.19598935736E+02  0.13572636664E+04  0.13574771540E+04  0.00000000000E+00 0. -1.
         21    1    1    2  503  501  0.13980178809E+02 -0.19598935736E+02  0.33655859792E+03  0.33741851389E+03  0.00000000000E+00 0.  1.
</event>
<event>
 4    1  0.5722454E+002  0.2799898E+02  0.7546771E-02  0.1437823E+00
          2   -1    0    0  503    0  0.00000000000E+00  0.00000000000E+00  0.66145044023E+03  0.66145044023E+03  0.00000000000E+00 0.  1.
         -2   -1    0    0    0  501 -0.00000000000E+00 -0.00000000000E+00 -0.23718815199E+01  0.23718815199E+01  0.00000000000E+00 0. -1.
         21    1    1    2  502  501  0.32655158198E+01 -0.27807898918E+02  0.94768130147E+02  0.98817717679E+02  0.00000000000E+00 0. -1.
         21    1    1    2  503  502 -0.32655158198E+01  0.27807898918E+02  0.56431042856E+03  0.56500460407E+03  0.00000000000E+00 0.  1.
</event>
<event>
 4    1  0.5722454E+002  0.3058083E+02  0.7546771E-02  0.1414615E+00
          2   -1    0    0  503    0  0.00000000000E+00  0.00000000000E+00  0.90524639702E+02  0.90524639702E+02  0.00000000000E+00 0. -1.
         -2   -1    0    0    0  501 -0.00000000000E+00 -0.00000000000E+00 -0.18181232751E+02  0.18181232751E+02  0.00000000000E+00 0.  1.
         21    1    1    2  502  501  0.34580800396E+01  0.30384678635E+02  0.45596340624E+00  0.30584226587E+02  0.00000000000E+00 0.  1.
         21    1    1    2  503  502 -0.34580800396E+01 -0.30384678635E+02  0.71887443545E+02  0.78121645865E+02  0.00000000000E+00 0. -1.
</event>
<event>
 4    1  0.5722454E+002  0.3088841E+02  0.7546771E-02  0.1412030E+00
          2   -1    0    0  503    0  0.00000000000E+00  0.00000000000E+00  0.12337029723E+03  0.12337029723E+03  0.00000000000E+00 0. -1.
         -2   -1    0    0    0  501 -0.00000000000E+00 -0.00000000000E+00 -0.96504258375E+01  0.96504258375E+01  0.00000000000E+00 0.  1.
         21    1    1    2  502  501  0.30828799508E+02 -0.19181349876E+01  0.86502079499E+02  0.91851531716E+02  0.00000000000E+00 0. -1.
         21    1    1    2  503  502 -0.30828799508E+02  0.19181349876E+01  0.27217791892E+02  0.41169191350E+02  0.00000000000E+00 0.  1.
</event>
<event>
 4    1  0.5722454E+002  0.2195089E+02  0.7546771E-02  0.1506109E+00
          2   -1    0    0  503    0  0.00000000000E+00  0.00000000000E+00  0.10246438928E+03  0.10246438928E+03  0.00000000000E+00 0. -1.
         -2   -1    0    0    0  501 -0.00000000000E+00 -0.00000000000E+00 -0.36969469220E+02  0.36969469220E+02  0.00000000000E+00 0.  1.
         21    1    1    2  502  501 -0.64969239127E+01  0.20967394729E+02 -0.32384708969E+02  0.39123024385E+02  0.00000000000E+00 0.  1.
         21    1    1    2  503  502  0.64969239127E+01 -0.20967394729E+02  0.97879629031E+02  0.10031083412E+03  0.00000000000E+00 0. -1.
</event>
<event>
 4    1  0.5722454E+002  0.2158838E+02  0.7546771E-02  0.1511028E+00
          2   -1    0    0  502    0  0.00000000000E+00  0.00000000000E+00  0.61561716373E+03  0.61561716373E+03  0.00000000000E+00 0.  1.
         -2   -1    0    0    0  501 -0.00000000000E+00 -0.00000000000E+00 -0.10197311875E+01  0.10197311875E+01  0.00000000000E+00 0. -1.
         21    1    1    2  502  503  0.15314112698E+02  0.15216316472E+02  0.46378055697E+03  0.46428274075E+03  0.00000000000E+00 0.  1.
         21    1    1    2  503  501 -0.15314112698E+02 -0.15216316472E+02  0.15081687558E+03  0.15235415417E+03  0.00000000000E+00 0. -1.
</event>
<event>
 4    1  0.5722454E+002  0.2220508E+02  0.7546771E-02  0.1502729E+00
          2   -1    0    0  502    0  0.00000000000E+00  0.00000000000E+00  0.81969921089E+01  0.81969921089E+01  0.00000000000E+00 0.  1.
         -2   -1    0    0    0  501 -0.00000000000E+00 -0.00000000000E+00 -0.60536765418E+02  0.60536765418E+02  0.00000000000E+00 0. -1.
         21    1    1    2  502  503 -0.49400475769E+01  0.21648589997E+02 -0.28909725931E+02  0.36453227187E+02  0.00000000000E+00 0.  1.
         21    1    1    2  503  501  0.49400475769E+01 -0.21648589997E+02 -0.23430047378E+02  0.32280530340E+02  0.00000000000E+00 0. -1.
</event>
<event>
 4    1  0.5722454E+002  0.2239145E+02  0.7546771E-02  0.1500284E+00
          2   -1    0    0  502    0  0.00000000000E+00  0.00000000000E+00  0.23621105498E+02  0.23621105498E+02  0.00000000000E+00 0. -1.
         -2   -1    0    0    0  501 -0.00000000000E+00 -0.00000000000E+00 -0.22600323451E+02  0.22600323451E+02  0.00000000000E+00 0.  1.
         21    1    1    2  502  503  0.18164858105E+02 -0.13092560743E+02 -0.51890169093E+01  0.22984845296E+02  0.00000000000E+00 0. -1.
         21    1    1    2  503  501 -0.18164858105E+02  0.13092560743E+02  0.62097989564E+01  0.23236583653E+02  0.00000000000E+00 0.  1.
</event>
<event>
 4    1  0.5722454E+002  0.2524664E+02  0.7546771E-02  0.1466063E+00
          2   -1    0    0  503    0  0.00000000000E+00  0.00000000000E+00  0.50882774382E+02  0.50882774382E+02  0.00000000000E+00 0. -1.
         -2   -1    0    0    0  501 -0.00000000000E+00 -0.00000000000E+00 -0.21587004304E+03  0.21587004304E+03  0.00000000000E+00 0.  1.
         21    1    1    2  502  501 -0.20998004240E+02 -0.14017009311E+02 -0.21194237234E+03  0.21344076912E+03  0.00000000000E+00 0.  1.
         21    1    1    2  503  502  0.20998004240E+02  0.14017009311E+02  0.46955103680E+02  0.53312048297E+02  0.00000000000E+00 0. -1.
</event>
<event>
 4    1  0.5722454E+002  0.2015564E+02  0.7546771E-02  0.1531670E+00
          2   -1    0    0  502    0  0.00000000000E+00  0.00000000000E+00  0.39541092200E+03  0.39541092200E+03  0.00000000000E+00 0.  1.
         -2   -1    0    0    0  501 -0.00000000000E+00 -0.00000000000E+00 -0.62528186796E+01  0.62528186796E+01  0.00000000000E+00 0. -1.
         21    1    1    2  502  503 -0.17627202643E+02  0.97740295113E+01  0.37817147880E+03  0.37870822186E+03  0.00000000000E+00 0.  1.
         21    1    1    2  503  501  0.17627202643E+02 -0.97740295113E+01  0.10986624518E+02  0.22955518818E+02  0.00000000000E+00 0. -1.
</event>
<event>
 4    1  0.5722454E+002  0.2380651E+02  0.7546771E-02  0.1482612E+00
          2   -1    0    0  503    0  0.00000000000E+00  0.00000000000E+00  0.84315430844E+03  0.84315430844E+03  0.00000000000E+00 0. -1.
         -2   -1    0    0    0  501 -0.00000000000E+00 -0.00000000000E+00 -0.22196043349E+01  0.22196043349E+01  0.00000000000E+00 0.  1.
         21    1    1    2  502  501 -0.15084707751E+02 -0.18417418852E+02  0.67539393145E+02  0.71612284921E+02  0.00000000000E+00 0.  1.
         21    1    1    2  503  502  0.15084707751E+02  0.18417418852E+02  0.77339531096E+03  0.77376162785E+03  0.00000000000E+00 0. -1.
</event>
<event>
 4    1  0.5722454E+002  0.2078929E+02  0.7546771E-02  0.1522295E+00
          2   -1    0    0  502    0  0.00000000000E+00  0.00000000000E+00  0.56515044824E+03  0.56515044824E+03  0.00000000000E+00 0. -1.
         -2   -1    0    0    0  501 -0.00000000000E+00 -0.00000000000E+00 -0.17926602494E+01  0.17926602494E+01  0.00000000000E+00 0.  1.
         21    1    1    2  502  503  0.20769243307E+02 -0.91270629849E+00  0.49633324604E+03  0.49676844266E+03  0.00000000000E+00 0. -1.
         21    1    1    2  503  501 -0.20769243307E+02  0.91270629849E+00  0.67024541957E+02  0.70174665834E+02  0.00000000000E+00 0.  1.
</event>
<event>
 4    1  0.5722454E+002  0.2002582E+02  0.7546771E-02  0.1533641E+00
          2   -1    0    0  502    0  0.00000000000E+00  0.00000000000E+00  0.52330498445E+03  0.52330498445E+03  0.00000000000E+00 0. -1.
         -2   -1    0    0    0  501 -0.00000000000E+00 -0.00000000000E+00 -0.14876817292E+01  0.14876817292E+01  0.00000000000E+00 0.  1.
         21    1    1    2  502  503  0.24780285566E+01  0.19871915311E+02  0.44362226863E+03  0.44407403760E+03  0.00000000000E+00 0. -1.
         21    1    1    2  503  501 -0.24780285566E+01 -0.19871915311E+02  0.78195034090E+02  0.80718628581E+02  0.00000000000E+00 0.  1.
</event>
<event>
 4    1  0.5722454E+002  0.2615095E+02  0.7546771E-02  0.1456328E+00
          2   -1    0    0  503    0  0.00000000000E+00  0.00000000000E+00  0.31926580625E+02  0.31926580625E+02  0.00000000000E+00 0. -1.
         -2   -1    0    0    0  501 -0.00000000000E+00 -0.00000000000E+00 -0.85083169682E+02  0.85083169682E+02  0.00000000000E+00 0.  1.
         21    1    1    2  502  501 -0.16772884761E+02  0.20063468694E+02 -0.77185669684E+02  0.81495398912E+02  0.00000000000E+00 0.  1.
         21    1    1    2  503  502  0.16772884761E+02 -0.20063468694E+02  0.24029080626E+02  0.35514351395E+02  0.00000000000E+00 0. -1.
</event>
<event>
 4    1  0.5722454E+002  0.2202492E+02  0.7546771E-02  0.1505119E+00
          2   -1    0    0  502    0  0.00000000000E+00  0.00000000000E+00  0.28002947303E+03  0.28002947303E+03  0.00000000000E+00 0. -1.
         -2   -1    0    0    0  501 -0.00000000000E+00 -0.00000000000E+00 -0.98068902337E+01  0.98068902337E+01  0.00000000000E+00 0.  1.
         21    1    1    2  502  503  0.19565838435E+02 -0.10113123379E+02  0.26660871674E+03  0.26751692496E+03  0.00000000000E+00 0. -1.
         21    1    1    2  503  501 -0.19565838435E+02  0.10113123379E+02  0.36138660514E+01  0.22319438299E+02  0.00000000000E+00 0.  1.
</event>
<event>
 4    1  0.5722454E+002  0.2317758E+02  0.7546771E-02  0.1490280E+00
          2   -1    0    0  503    0  0.00000000000E+00  0.00000000000E+00  0.28208079751E+03  0.28208079751E+03  0.00000000000E+00 0.  1.
         -2   -1    0    0    0  501 -0.00000000000E+00 -0.00000000000E+00 -0.14418408834E+02  0.14418408834E+02  0.00000000000E+00 0. -1.
         21    1    1    2  502  501 -0.30139137016E+01 -0.22980786961E+02 -0.42812327619E+01  0.23569666928E+02  0.00000000000E+00 0. -1.
         21    1    1    2  503  502  0.30139137016E+01  0.22980786961E+02  0.27194362144E+03  0.27292953942E+03  0.00000000000E+00 0.  1.
</event>
<event>
 4    1  0.5722454E+002  0.2198230E+02  0.7546771E-02  0.1505689E+00
          2   -1    0    0  503    0  0.00000000000E+00  0.00000000000E+00  0.17302983171E+03  0.17302983171E+03  0.00000000000E+00 0.  1.
         -2   -1    0    0    0  501 -0.00000000000E+00 -0.00000000000E+00 -0.46011080190E+01  0.46011080190E+01  0.00000000000E+00 0. -1.
         21    1    1    2  502  501  0.57501943334E+01  0.21216896738E+02  0.28533634509E+02  0.36019296778E+02  0.00000000000E+00 0. -1.
         21    1    1    2  503  502 -0.57501943334E+01 -0.21216896738E+02  0.13989508918E+03  0.14161164295E+03  0.00000000000E+00 0.  1.
</event>
<event>
 4    1  0.5722454E+002  0.7364287E+02  0.7546771E-02  0.1219428E+00
          2   -1    0    0  503    0  0.00000000000E+00  0.00000000000E+00  0.18091233138E+03  0.18091233138E+03  0.00000000000E+00 0.  1.
         -2   -1    0    0    0  501 -0.00000000000E+00 -0.00000000000E+00 -0.14509083028E+03  0.14509083028E+03  0.00000000000E+00 0. -1.
         21    1    1    2  502  501 -0.62360342089E+02 -0.39172193222E+02 -0.12727865199E+03  0.14704804738E+03  0.00000000000E+00 0. -1.
         21    1    1    2  503  502  0.62360342089E+02  0.39172193222E+02  0.16310015309E+03  0.17895511428E+03  0.00000000000E+00 0.  1.
</event>
<event>
 4    1  0.5722454E+002  0.2076595E+02  0.7546771E-02  0.1522633E+00
          2   -1    0    0  502    0  0.00000000000E+00  0.00000000000E+00  0.13263686504E+03  0.13263686504E+03  0.00000000000E+00 0.  1.
         -2   -1    0    0    0  501 -0.00000000000E+00 -0.00000000000E+00 -0.47882848293E+01  0.47882848293E+01  0.00000000000E+00 0. -1.
         21    1    1    2  502  503 -0.19403364067E+02 -0.73982594340E+01  0.10285565434E+03  0.10493097926E+03  0.00000000000E+00 0.  1.
         21    1    1    2  503  501  0.19403364067E+02  0.73982594340E+01  0.24992925876E+02  0.32494170610E+02  0.00000000000E+00 0. -1.
</event>
<event>
 4    1  0.5722454E+002  0.4999778E+02  0.7546771E-02  0.1298182E+00
          2   -1    0    0  503    0  0.00000000000E+00  0.00000000000E+00  0.16542765336E+04  0.16542765336E+04  0.00000000000E+00 0.  1.
         -2   -1    0    0    0  501 -0.00000000000E+00 -0.00000000000E+00 -0.29221898447E+01  0.29221898447E+01  0.00000000000E+00 0. -1.
         21    1    1    2  502  501 -0.46090238959E+02 -0.19376998430E+02  0.24988251840E+03  0.25483534134E+03  0.00000000000E+00 0. -1.
         21    1    1    2  503  502  0.46090238959E+02  0.19376998430E+02  0.14014718254E+04  0.14023633821E+04  0.00000000000E+00 0.  1.
</event>
<event>
 4    1  0.5722454E+002  0.2295932E+02  0.7546771E-02  0.1493010E+00
          2   -1    0    0  503    0  0.00000000000E+00  0.00000000000E+00  0.10756078169E+03  0.10756078169E+03  0.00000000000E+00 0. -1.
         -2   -1    0    0    0  501 -0.00000000000E+00 -0.00000000000E+00 -0.97458355547E+01  0.97458355547E+01  0.00000000000E+00 0.  1.
         21    1    1    2  502  501  0.12182107977E+02  0.19460899391E+02  0.75520063347E+01  0.24169467507E+02  0.00000000000E+00 0.  1.
         21    1    1    2  503  502 -0.12182107977E+02 -0.19460899391E+02  0.90262939803E+02  0.93137149740E+02  0.00000000000E+00 0. -1.
</event>
<event>
 4    1  0.5722454E+002  0.2046419E+02  0.7546771E-02  0.1527054E+00
          2   -1    0    0  503    0  0.00000000000E+00  0.00000000000E+00  0.80316587033E+02  0.80316587033E+02  0.00000000000E+00 0.  1.
         -2   -1    0    0    0  501 -0.00000000000E+00 -0.00000000000E+00 -0.76120691286E+01  0.76120691286E+01  0.00000000000E+00 0. -1.
         21    1    1    2  502  501 -0.17197944049E+02 -0.11091163297E+02  0.61027751841E+02  0.64367458219E+02  0.00000000000E+00 0.  1.
         21    1    1    2  503  502  0.17197944049E+02  0.11091163297E+02  0.11676766063E+02  0.23561197943E+02  0.00000000000E+00 0. -1.
</event>
<event>
 4    1  0.5722454E+002  0.2015390E+02  0.7546771E-02  0.1531696E+00
          2   -1    0    0  503    0  0.00000000000E+00  0.00000000000E+00  0.20543619583E+03  0.20543619583E+03  0.00000000000E+00 0. -1.
         -2   -1    0    0    0  501 -0.00000000000E+00 -0.00000000000E+00 -0.34223713292E+01  0.34223713292E+01  0.00000000000E+00 0.  1.
         21    1    1    2  502  501 -0.19021260282E+02  0.66611916068E+01  0.33145215427E+02  0.38791559933E+02  0.00000000000E+00 0.  1.
         21    1    1    2  503  502  0.19021260282E+02 -0.66611916068E+01  0.16886860907E+03  0.17006700723E+03  0.00000000000E+00 0. -1.
</event>
<event>
 4    1  0.5722454E+002  0.2164834E+02  0.7546771E-02  0.1510206E+00
          2   -1    0    0  503    0  0.00000000000E+00  0.00000000000E+00  0.28095690096E+03  0.28095690096E+03  0.00000000000E+00 0. -1.
         -2   -1    0    0    0  501 -0.00000000000E+00 -0.00000000000E+00 -0.51373197749E+01  0.51373197749E+01  0.00000000000E+00 0.  1.
         21    1    1    2  502  501 -0.19250849697E+02 -0.99022984697E+01  0.20357878242E+02  0.29716896465E+02  0.00000000000E+00 0.  1.
         21    1    1    2  503  502  0.19250849697E+02  0.99022984697E+01  0.25546170294E+03  0.25637732427E+03  0.00000000000E+00 0. -1.
</event>
<event>
 4    1  0.5722454E+002  0.2339292E+02  0.7546771E-02  0.1487622E+00
          2   -1    0    0  502    0  0.00000000000E+00  0.00000000000E+00  0.11849116596E+03  0.11849116596E+03  0.00000000000E+00 0.  1.
         -2   -1    0    0    0  501 -0.00000000000E+00 -0.00000000000E+00 -0.75360356361E+01  0.75360356361E+01  0.00000000000E+00 0. -1.
         21    1    1    2  502  503 -0.22599665159E+02  0.60401912705E+01  0.94686509739E+02  0.97533398907E+02  0.00000000000E+00 0.  1.
         21    1    1    2  503  501  0.22599665159E+02 -0.60401912705E+01  0.16268620583E+02  0.28493802686E+02  0.00000000000E+00 0. -1.
</event>
<event>
 4    1  0.5722454E+002  0.2083525E+02  0.7546771E-02  0.1521630E+00
          2   -1    0    0  502    0  0.00000000000E+00  0.00000000000E+00  0.97696603040E+03  0.97696603040E+03  0.00000000000E+00 0.  1.
         -2   -1    0    0    0  501 -0.00000000000E+00 -0.00000000000E+00 -0.65845702720E+00  0.65845702720E+00  0.00000000000E+00 0. -1.
         21    1    1    2  502  503 -0.32170388402E+01 -0.20585389355E+02  0.76689510920E+03  0.76717808631E+03  0.00000000000E+00 0.  1.
         21    1    1    2  503  501  0.32170388402E+01  0.20585389355E+02  0.20941246417E+03  0.21044640112E+03  0.00000000000E+00 0. -1.
</event>
<event>
 4    1  0.5722454E+002  0.2600826E+02  0.7546771E-02  0.1457833E+00
          2   -1    0    0  503    0  0.00000000000E+00  0.00000000000E+00  0.31135166692E+02  0.31135166692E+02  0.00000000000E+00 0.  1.
         -2   -1    0    0    0  501 -0.00000000000E+00 -0.00000000000E+00 -0.22152154590E+02  0.22152154590E+02  0.00000000000E+00 0. -1.
         21    1    1    2  502  501 -0.21197362428E+02  0.15069883767E+02  0.79421926469E+00  0.26020383450E+02  0.00000000000E+00 0. -1.
         21    1    1    2  503  502  0.21197362428E+02 -0.15069883767E+02  0.81887928374E+01  0.27266937833E+02  0.00000000000E+00 0.  1.
</event>
<event>
 4    1  0.5722454E+002  0.2033264E+02  0.7546771E-02  0.1529010E+00
          2   -1    0    0  503    0  0.00000000000E+00  0.00000000000E+00  0.25901172733E+02  0.25901172733E+02  0.00000000000E+00 0. -1.
         -2   -1    0    0    0  501 -0.00000000000E+00 -0.00000000000E+00 -0.15965819741E+02  0.15965819741E+02  0.00000000000E+00 0.  1.
         21    1    1    2  502  501  0.94884874956E+01  0.17982909598E+02  0.46155320249E+01  0.20849929698E+02  0.00000000000E+00 0.  1.
         21    1    1    2  503  502 -0.94884874956E+01 -0.17982909598E+02  0.53198209673E+01  0.21017062775E+02  0.00000000000E+00 0. -1.
</event>
<event>
 4    1  0.5722454E+002  0.2063728E+02  0.7546771E-02  0.1524507E+00
          2   -1    0    0  503    0  0.00000000000E+00  0.00000000000E+00  0.92396929530E+01  0.92396929530E+01  0.00000000000E+00 0. -1.
         -2   -1    0    0    0  501 -0.00000000000E+00 -0.00000000000E+00 -0.46189892053E+02  0.46189892053E+02  0.00000000000E+00 0.  1.
         21    1    1    2  502  501 -0.20614422917E+02 -0.97093078317E+00 -0.17214262657E+02  0.26874299574E+02  0.00000000000E+00 0.  1.
         21    1    1    2  503  502  0.20614422917E+02  0.97093078317E+00 -0.19735936443E+02  0.28555285432E+02  0.00000000000E+00 0. -1.
</event>
<event>
 4    1  0.5722454E+002  0.3152302E+02  0.7546771E-02  0.1406807E+00
          2   -1    0    0  503    0  0.00000000000E+00  0.00000000000E+00  0.14272994298E+03  0.14272994298E+03  0.00000000000E+00 0.  1.
         -2   -1    0    0    0  501 -0.00000000000E+00 -0.00000000000E+00 -0.88074474193E+01  0.88074474193E+01  0.00000000000E+00 0. -1.
         21    1    1    2  502  501 -0.14763445716E+02  0.27852138505E+02  0.32279323977E+02  0.45118241378E+02  0.00000000000E+00 0.  1.
         21    1    1    2  503  502  0.14763445716E+02 -0.27852138505E+02  0.10164317159E+03  0.10641914902E+03  0.00000000000E+00 0. -1.
</event>
<event>
 4    1  0.5722454E+002  0.7192803E+02  0.7546771E-02  0.1223939E+00
          2   -1    0    0  503    0  0.00000000000E+00  0.00000000000E+00  0.18577040792E+03  0.18577040792E+03  0.00000000000E+00 0. -1.
         -2   -1    0    0    0  501 -0.00000000000E+00 -0.00000000000E+00 -0.82734167828E+02  0.82734167828E+02  0.00000000000E+00 0.  1.
         21    1    1    2  502  501 -0.10647374257E+01  0.71920153046E+02 -0.57828193055E+02  0.92291613877E+02  0.00000000000E+00 0.  1.
         21    1    1    2  503  502  0.10647374257E+01 -0.71920153046E+02  0.16086443314E+03  0.17621296187E+03  0.00000000000E+00 0. -1.
</event>
<event>
 4    1  0.5722454E+002  0.2879479E+02  0.7546771E-02  0.1430367E+00
          2   -1    0    0  502    0  0.00000000000E+00  0.00000000000E+00  0.14173745268E+04  0.14173745268E+04  0.00000000000E+00 0. -1.
         -2   -1    0    0    0  501 -0.00000000000E+00 -0.00000000000E+00 -0.15009293875E+01  0.15009293875E+01  0.00000000000E+00 0.  1.
         21    1    1    2  502  503  0.67610866289E+01 -0.27989772924E+02  0.12621402564E+04  0.12624686795E+04  0.00000000000E+00 0. -1.
         21    1    1    2  503  501 -0.67610866289E+01  0.27989772924E+02  0.15373334093E+03  0.15640677669E+03  0.00000000000E+00 0.  1.
</event>
<event>
 4    1  0.5722454E+002  0.6434636E+02  0.7546771E-02  0.1245740E+00
          2   -1    0    0  503    0  0.00000000000E+00  0.00000000000E+00  0.71772150436E+02  0.71772150436E+02  0.00000000000E+00 0. -1.
         -2   -1    0    0    0  501 -0.00000000000E+00 -0.00000000000E+00 -0.58018913516E+02  0.58018913516E+02  0.00000000000E+00 0.  1.
         21    1    1    2  502  501 -0.13314031232E+02  0.62953881094E+02  0.11771167725E+02  0.65414180130E+02  0.00000000000E+00 0.  1.
         21    1    1    2  503  502  0.13314031232E+02 -0.62953881094E+02  0.19820691941E+01  0.64376883822E+02  0.00000000000E+00 0. -1.
</event>
<event>
 4    1  0.5722454E+002  0.2180249E+02  0.7546771E-02  0.1508109E+00
          2   -1    0    0  502    0  0.00000000000E+00  0.00000000000E+00  0.12486348774E+03  0.12486348774E+03  0.00000000000E+00 0.  1.
         -2   -1    0    0    0  501 -0.00000000000E+00 -0.00000000000E+00 -0.42432255590E+01  0.42432255590E+01  0.00000000000E+00 0. -1.
         21    1    1    2  502  503  0.10020311545E+02  0.19363421136E+02  0.81009282436E+02  0.83891909994E+02  0.00000000000E+00 0.  1.
         21    1    1    2  503  501 -0.10020311545E+02 -0.19363421136E+02  0.39610979742E+02  0.45214803303E+02  0.00000000000E+00 0. -1.
</event>
<event>
 4    1  0.5722454E+002  0.2443482E+02  0.7546771E-02  0.1475226E+00
          2   -1    0    0  503    0  0.00000000000E+00  0.00000000000E+00  0.43726915272E+00  0.43726915272E+00  0.00000000000E+00 0.  1.
         -2   -1    0    0    0  501 -0.00000000000E+00 -0.00000000000E+00 -0.19316556192E+04  0.19316556192E+04  0.00000000000E+00 0. -1.
         21    1    1    2  502  501  0.15577649871E+02  0.18825443904E+02 -0.14886406567E+04  0.14888411820E+04  0.00000000000E+00 0. -1.
         21    1    1    2  503  502 -0.15577649871E+02 -0.18825443904E+02 -0.44257769330E+03  0.44325170628E+03  0.00000000000E+00 0.  1.
</event>
<event>
 4    1  0.5722454E+002  0.2305744E+02  0.7546771E-02  0.1491778E+00
          2   -1    0    0  503    0  0.00000000000E+00  0.00000000000E+00  0.81054453807E+02  0.81054453807E+02  0.00000000000E+00 0.  1.
         -2   -1    0    0    0  501 -0.00000000000E+00 -0.00000000000E+00 -0.12445926868E+02  0.12445926868E+02  0.00000000000E+00 0. -1.
         21    1    1    2  502  501 -0.15511685030E+02  0.17059699125E+02  0.21521343007E+01  0.23157663716E+02  0.00000000000E+00 0. -1.
         21    1    1    2  503  502  0.15511685030E+02 -0.17059699125E+02  0.66456392639E+02  0.70342716960E+02  0.00000000000E+00 0.  1.
</event>
<event>
 4    1  0.5722454E+002  0.2438937E+02  0.7546771E-02  0.1475752E+00
          2   -1    0    0  503    0  0.00000000000E+00  0.00000000000E+00  0.22959842889E+01  0.22959842889E+01  0.00000000000E+00 0.  1.
         -2   -1    0    0    0  501 -0.00000000000E+00 -0.00000000000E+00 -0.36180237615E+03  0.36180237615E+03  0.00000000000E+00 0. -1.
         21    1    1    2  502  501  0.15250969390E+02 -0.19032844814E+02 -0.27675676686E+03  0.27782935276E+03  0.00000000000E+00 0. -1.
         21    1    1    2  503  502 -0.15250969390E+02  0.19032844814E+02 -0.82749624998E+02  0.86269007682E+02  0.00000000000E+00 0.  1.
</event>
<event>
 4    1  0.5722454E+002  0.2272607E+02  0.7546771E-02  0.1495967E+00
          2   -1    0    0  502    0  0.00000000000E+00  0.00000000000E+00  0.60521048319E+02  0.60521048319E+02  0.00000000000E+00 0. -1.
         -2   -1    0    0    0  501 -0.00000000000E+00 -0.00000000000E+00 -0.90366579894E+01  0.90366579894E+01  0.00000000000E+00 0.  1.
         21    1    1    2  502  503  0.49585294634E+01 -0.22178529311E+02  0.33946399626E+02  0.40851342994E+02  0.00000000000E+00 0. -1.
         21    1    1    2  503  501 -0.49585294634E+01  0.22178529311E+02  0.17537990704E+02  0.28706363315E+02  0.00000000000E+00 0.  1.
</event>
<event>
 4    1  0.5722454E+002  0.2879693E+02  0.7546771E-02  0.1430347E+00
          2   -1    0    0  502    0  0.00000000000E+00  0.00000000000E+00  0.18793634114E+04  0.18793634114E+04  0.00000000000E+00 0. -1.
         -2   -1    0    0    0  501 -0.00000000000E+00 -0.00000000000E+00 -0.20176933031E+01  0.20176933031E+01  0.00000000000E+00 0.  1.
         21    1    1    2  502  503  0.20791621835E+02 -0.19924141513E+02  0.17701663136E+04  0.17704005312E+04  0.00000000000E+00 0. -1.
         21    1    1    2  503  501 -0.20791621835E+02  0.19924141513E+02  0.10717940444E+03  0.11098057348E+03  0.00000000000E+00 0.  1.
</event>
<event>
 4    1  0.5722454E+002  0.2015850E+02  0.7546771E-02  0.1531627E+00
          2   -1    0    0  502    0  0.00000000000E+00  0.00000000000E+00  0.63478729006E+03  0.63478729006E+03  0.00000000000E+00 0.  1.
         -2   -1    0    0    0  501 -0.00000000000E+00 -0.00000000000E+00 -0.65209462778E+00  0.65209462778E+00  0.00000000000E+00 0. -1.
         21    1    1    2  502  503  0.64541237327E+01  0.19097361759E+02  0.36005165157E+03  0.36061552481E+03  0.00000000000E+00 0. -1.
         21    1    1    2  503  501 -0.64541237327E+01 -0.19097361759E+02  0.27408354386E+03  0.27482385987E+03  0.00000000000E+00 0.  1.
</event>
<event>
 4    1  0.5722454E+002  0.2122997E+02  0.7546771E-02  0.1516007E+00
          2   -1    0    0  502    0  0.00000000000E+00  0.00000000000E+00  0.36697940720E+01  0.36697940720E+01  0.00000000000E+00 0.  1.
         -2   -1    0    0    0  501 -0.00000000000E+00 -0.00000000000E+00 -0.12302921848E+03  0.12302921848E+03  0.00000000000E+00 0. -1.
         21    1    1    2  502  503 -0.18461975650E+02 -0.10481755814E+02 -0.57046375303E+02  0.60868716802E+02  0.00000000000E+00 0. -1.
         21    1    1    2  503  501  0.18461975650E+02  0.10481755814E+02 -0.62313049104E+02  0.65830295750E+02  0.00000000000E+00 0.  1.
</event>
<event>
 4    1  0.5722454E+002  0.3274774E+02  0.7546771E-02  0.1397128E+00
          2   -1    0    0  502    0  0.00000000000E+00  0.00000000000E+00  0.14773347403E+04  0.14773347403E+04  0.00000000000E+00 0. -1.
         -2   -1    0    0    0  501 -0.00000000000E+00 -0.00000000000E+00 -0.39714963064E+01  0.39714963064E+01  0.00000000000E+00 0.  1.
         21    1    1    2  502  503  0.29500052786E+02 -0.14218349714E+02  0.14062335133E+04  0.14066147690E+04  0.00000000000E+00 0. -1.
         21    1    1    2  503  501 -0.29500052786E+02  0.14218349714E+02  0.67129730715E+02  0.74691467577E+02  0.00000000000E+00 0.  1.
</event>
<event>
 4    1  0.5722454E+002  0.2027121E+02  0.7546771E-02  0.1529929E+00
          2   -1    0    0  502    0  0.00000000000E+00  0.00000000000E+00  0.20756999903E+02  0.20756999903E+02  0.00000000000E+00 0. -1.
         -2   -1    0    0    0  501 -0.00000000000E+00 -0.00000000000E+00 -0.19799681403E+02  0.19799681403E+02  0.00000000000E+00 0.  1.
         21    1    1    2  502  503 -0.10016424931E+02  0.17623651730E+02  0.72391379618E+00  0.20284129754E+02  0.00000000000E+00 0. -1.
         21    1    1    2  503  501  0.10016424931E+02 -0.17623651730E+02  0.23340470448E+00  0.20272551552E+02  0.00000000000E+00 0.  1.
</event>
<event>
 4    1  0.5722454E+002  0.3912797E+02  0.7546771E-02  0.1353673E+00
          2   -1    0    0  503    0  0.00000000000E+00  0.00000000000E+00  0.50937450176E+03  0.50937450176E+03  0.00000000000E+00 0.  1.
         -2   -1    0    0    0  501 -0.00000000000E+00 -0.00000000000E+00 -0.52063759786E+01  0.52063759786E+01  0.00000000000E+00 0. -1.
         21    1    1    2  502  501 -0.19511804259E+02 -0.33915886189E+02  0.84805775996E+02  0.93397095692E+02  0.00000000000E+00 0. -1.
         21    1    1    2  503  502  0.19511804259E+02  0.33915886189E+02  0.41936234979E+03  0.42118378205E+03  0.00000000000E+00 0.  1.
</event>
<event>
 4    1  0.5722454E+002  0.3284331E+02  0.7546771E-02  0.1396394E+00
          2   -1    0    0  503    0  0.00000000000E+00  0.00000000000E+00  0.13729638942E+04  0.13729638942E+04  0.00000000000E+00 0.  1.
         -2   -1    0    0    0  501 -0.00000000000E+00 -0.00000000000E+00 -0.33279907951E+01  0.33279907951E+01  0.00000000000E+00 0. -1.
         21    1    1    2  502  501 -0.21626175432E+02 -0.24718238094E+02  0.83359644350E+02  0.89596389796E+02  0.00000000000E+00 0. -1.
         21    1    1    2  503  502  0.21626175432E+02  0.24718238094E+02  0.12862762591E+04  0.12866954952E+04  0.00000000000E+00 0.  1.
</event>
<event>
 4    1  0.5722454E+002  0.2515571E+02  0.7546771E-02  0.1467069E+00
          2   -1    0    0  503    0  0.00000000000E+00  0.00000000000E+00  0.77595614101E+01  0.77595614101E+01  0.00000000000E+00 0.  1.
         -2   -1    0    0    0  501 -0.00000000000E+00 -0.00000000000E+00 -0.13187368848E+03  0.13187368848E+03  0.00000000000E+00 0. -1.
         21    1    1    2  502  501 -0.16388401641E+02  0.19084806863E+02 -0.10518477070E+03  0.10815103120E+03  0.00000000000E+00 0. -1.
         21    1    1    2  503  502  0.16388401641E+02 -0.19084806863E+02 -0.18929356367E+02  0.31482218692E+02  0.00000000000E+00 0.  1.
</event>
<event>
 4    1  0.5722454E+002  0.2850937E+02  0.7546771E-02  0.1433008E+00
          2   -1    0    0  503    0  0.00000000000E+00  0.00000000000E+00  0.20502822437E+04  0.20502822437E+04  0.00000000000E+00 0.  1.
         -2   -1    0    0    0  501 -0.00000000000E+00 -0.00000000000E+00 -0.60447762767E+00  0.60447762767E+00  0.00000000000E+00 0. -1.
         21    1    1    2  502  501  0.18281251205E+02 -0.21876466995E+02  0.42323899162E+03  0.42419809992E+03  0.00000000000E+00 0. -1.
         21    1    1    2  503  502 -0.18281251205E+02  0.21876466995E+02  0.16264387745E+04  0.16266886214E+04  0.00000000000E+00 0.  1.
</event>
<event>
 4    1  0.5722454E+002  0.2250690E+02  0.7546771E-02  0.1498785E+00
          2   -1    0    0  502    0  0.00000000000E+00  0.00000000000E+00  0.60551699399E+03  0.60551699399E+03  0.00000000000E+00 0. -1.
         -2   -1    0    0    0  501 -0.00000000000E+00 -0.00000000000E+00 -0.11797652493E+01  0.11797652493E+01  0.00000000000E+00 0.  1.
         21    1    1    2  502  503 -0.18891873571E+02 -0.12233456065E+02  0.46577919906E+03  0.46632265933E+03  0.00000000000E+00 0. -1.
         21    1    1    2  503  501  0.18891873571E+02  0.12233456065E+02  0.13855802968E+03  0.14037409990E+03  0.00000000000E+00 0.  1.
</event>
<event>
 4    1  0.5722454E+002  0.4674661E+02  0.7546771E-02  0.1312930E+00
          2   -1    0    0  502    0  0.00000000000E+00  0.00000000000E+00  0.15914369008E+02  0.15914369008E+02  0.00000000000E+00 0.  1.
         -2   -1    0    0    0  501 -0.00000000000E+00 -0.00000000000E+00 -0.14212753762E+03  0.14212753762E+03  0.00000000000E+00 0. -1.
         21    1    1    2  502  503  0.34430413202E+02 -0.31619496105E+02 -0.48562332245E+02  0.67405830610E+02  0.00000000000E+00 0. -1.
         21    1    1    2  503  501 -0.34430413202E+02  0.31619496105E+02 -0.77650836366E+02  0.90636076015E+02  0.00000000000E+00 0.  1.
</event>
<event>
 4    1  0.5722454E+002  0.2350737E+02  0.7546771E-02  0.1486224E+00
          2   -1    0    0  503    0  0.00000000000E+00  0.00000000000E+00  0.14636331933E+03  0.14636331933E+03  0.00000000000E+00 0.  1.
         -2   -1    0    0    0  501 -0.00000000000E+00 -0.00000000000E+00 -0.40042450802E+01  0.40042450802E+01  0.00000000000E+00 0. -1.
         21    1    1    2  502  501 -0.35921161568E+01 -0.23231292629E+02  0.89148777318E+02  0.92195990981E+02  0.00000000000E+00 0.  1.
         21    1    1    2  503  502  0.35921161568E+01  0.23231292629E+02  0.53210296935E+02  0.58171573432E+02  0.00000000000E+00 0. -1.
</event>
<event>
 4    1  0.5722454E+002  0.3525962E+02  0.7546771E-02  0.1378747E+00
          2   -1    0    0  503    0  0.00000000000E+00  0.00000000000E+00  0.63058414088E+01  0.63058414088E+01  0.00000000000E+00 0. -1.
         -2   -1    0    0    0  501 -0.00000000000E+00 -0.00000000000E+00 -0.44287033687E+03  0.44287033687E+03  0.00000000000E+00 0.  1.
         21    1    1    2  502  501  0.35256759759E+02 -0.44948718074E+00 -0.38556945710E+03  0.38717831472E+03  0.00000000000E+00 0.  1.
         21    1    1    2  503  502 -0.35256759759E+02  0.44948718074E+00 -0.50995038366E+02  0.61997863555E+02  0.00000000000E+00 0. -1.
</event>
<event>
 4    1  0.5722454E+002  0.2627041E+02  0.7546771E-02  0.1455078E+00
          2   -1    0    0  502    0  0.00000000000E+00  0.00000000000E+00  0.83929592364E+02  0.83929592364E+02  0.00000000000E+00 0.  1.
         -2   -1    0    0    0  501 -0.00000000000E+00 -0.00000000000E+00 -0.86457443014E+01  0.86457443014E+01  0.00000000000E+00 0. -1.
         21    1    1    2  502  503  0.12269161317E+02  0.23229336525E+02  0.47879969665E+02  0.54613422251E+02  0.00000000000E+00 0.  1.
         21    1    1    2  503  501 -0.12269161317E+02 -0.23229336525E+02  0.27403878398E+02  0.37961914415E+02  0.00000000000E+00 0. -1.
</event>
<event>
 4    1  0.5722454E+002  0.2576447E+02  0.7546771E-02  0.1460430E+00
          2   -1    0    0  502    0  0.00000000000E+00  0.00000000000E+00  0.81587243865E+03  0.81587243865E+03  0.00000000000E+00 0. -1.
         -2   -1    0    0    0  501 -0.00000000000E+00 -0.00000000000E+00 -0.28734040712E+01  0.28734040712E+01  0.00000000000E+00 0.  1.
         21    1    1    2  502  503 -0.17070853353E+02  0.19297515042E+02  0.75310215902E+03  0.75354274599E+03  0.00000000000E+00 0. -1.
         21    1    1    2  503  501  0.17070853353E+02 -0.19297515042E+02  0.59896875558E+02  0.65203096726E+02  0.00000000000E+00 0.  1.
</event>
<event>
 4    1  0.5722454E+002  0.2887503E+02  0.7546771E-02  0.1429631E+00
          2   -1    0    0  502    0  0.00000000000E+00  0.00000000000E+00  0.19369838846E+03  0.19369838846E+03  0.00000000000E+00 0. -1.
         -2   -1    0    0    0  501 -0.00000000000E+00 -0.00000000000E+00 -0.15418003309E+02  0.15418003309E+02  0.00000000000E+00 0.  1.
         21    1    1    2  502  503 -0.26519084454E+02 -0.11423909604E+02  0.17791101180E+03  0.18023899598E+03  0.00000000000E+00 0. -1.
         21    1    1    2  503  501  0.26519084454E+02  0.11423909604E+02  0.36937334817E+00  0.28877395789E+02  0.00000000000E+00 0.  1.
</event>
<event>
 4    1  0.5722454E+002  0.2134950E+02  0.7546771E-02  0.1514333E+00
          2   -1    0    0  503    0  0.00000000000E+00  0.00000000000E+00  0.20223643864E+03  0.20223643864E+03  0.00000000000E+00 0. -1.
         -2   -1    0    0    0  501 -0.00000000000E+00 -0.00000000000E+00 -0.68214581408E+01  0.68214581408E+01  0.00000000000E+00 0.  1.
         21    1    1    2  502  501  0.75014455183E+01  0.19988234166E+02  0.12172343948E+02  0.24575743063E+02  0.00000000000E+00 0.  1.
         21    1    1    2  503  502 -0.75014455183E+01 -0.19988234166E+02  0.18324263655E+03  0.18448215371E+03  0.00000000000E+00 0. -1.
</event>
<event>
 4    1  0.5722454E+002  0.5395906E+02  0.7546771E-02  0.1281863E+00
          2   -1    0    0  502    0  0.00000000000E+00  0.00000000000E+00  0.22914522954E+02  0.22914522954E+02  0.00000000000E+00 0. -1.
         -2   -1    0    0    0  501 -0.00000000000E+00 -0.00000000000E+00 -0.91186965857E+03  0.91186965857E+03  0.00000000000E+00 0.  1.
         21    1    1    2  502  503 -0.19599733678E+02 -0.50273560473E+02 -0.10870445213E+02  0.55043137829E+02  0.00000000000E+00 0.  1.
         21    1    1    2  503  501  0.19599733678E+02  0.50273560473E+02 -0.87808469041E+03  0.87974104370E+03  0.00000000000E+00 0. -1.
</event>
<event>
 4    1  0.5722454E+002  0.2748544E+02  0.7546771E-02  0.1442792E+00
          2   -1    0    0  502    0  0.00000000000E+00  0.00000000000E+00  0.37752370472E+03  0.37752370472E+03  0.00000000000E+00 0.  1.
         -2   -1    0    0    0  501 -0.00000000000E+00 -0.00000000000E+00 -0.23316917233E+01  0.23316917233E+01  0.00000000000E+00 0. -1.
         21    1    1    2  502  503  0.10412420733E+02 -0.25436797692E+02  0.25911513604E+03  0.26056880648E+03  0.00000000000E+00 0.  1.
         21    1    1    2  503  501 -0.10412420733E+02  0.25436797692E+02  0.11607687695E+03  0.11928658996E+03  0.00000000000E+00 0. -1.
</event>
<event>
 4    1  0.5722454E+002  0.2015585E+02  0.7546771E-02  0.1531666E+00
          2   -1    0    0  503    0  0.00000000000E+00  0.00000000000E+00  0.33083071115E+01  0.33083071115E+01  0.00000000000E+00 0. -1.
         -2   -1    0    0    0  501 -0.00000000000E+00 -0.00000000000E+00 -0.33496043576E+03  0.33496043576E+03  0.00000000000E+00 0.  1.
         21    1    1    2  502  501  0.15549844623E+02  0.12824222440E+02 -0.30043313168E+03  0.30110849367E+03  0.00000000000E+00 0.  1.
         21    1    1    2  503  502 -0.15549844623E+02 -0.12824222440E+02 -0.31218996966E+02  0.37160249199E+02  0.00000000000E+00 0. -1.
</event>
<event>
 4    1  0.5722454E+002  0.2536146E+02  0.7546771E-02  0.1464800E+00
          2   -1    0    0  503    0  0.00000000000E+00  0.00000000000E+00  0.21385276130E+03  0.21385276130E+03  0.00000000000E+00 0. -1.
         -2   -1    0    0    0  501 -0.00000000000E+00 -0.00000000000E+00 -0.51781394116E+01  0.51781394116E+01  0.00000000000E+00 0.  1.
         21    1    1    2  502  501 -0.14872877233E+02  0.20542669674E+02  0.33434587559E+02  0.41965168888E+02  0.00000000000E+00 0.  1.
         21    1    1    2  503  502  0.14872877233E+02 -0.20542669674E+02  0.17524003433E+03  0.17706573183E+03  0.00000000000E+00 0. -1.
</event>
<event>
 4    1  0.5722454E+002  0.2200908E+02  0.7546771E-02  0.1505331E+00
          2   -1    0    0  503    0  0.00000000000E+00  0.00000000000E+00  0.70047690390E+02  0.70047690390E+02  0.00000000000E+00 0. -1.
         -2   -1    0    0    0  501 -0.00000000000E+00 -0.00000000000E+00 -0.99845374128E+01  0.99845374128E+01  0.00000000000E+00 0.  1.
         21    1    1    2  502  501  0.10744587596E+02 -0.19208159054E+02  0.52218007569E+02  0.56666743786E+02  0.00000000000E+00 0. -1.
         21    1    1    2  503  502 -0.10744587596E+02  0.19208159054E+02  0.78451454082E+01  0.23365484017E+02  0.00000000000E+00 0.  1.
</event>
<event>
 4    1  0.5722454E+002  0.2597971E+02  0.7546771E-02  0.1458135E+00
          2   -1    0    0  503    0  0.00000000000E+00  0.00000000000E+00  0.14628776115E+02  0.14628776115E+02  0.00000000000E+00 0.  1.
         -2   -1    0    0    0  501 -0.00000000000E+00 -0.00000000000E+00 -0.12891108089E+03  0.12891108089E+03  0.00000000000E+00 0. -1.
         21    1    1    2  502  501  0.24951917295E+02 -0.72351185965E+01 -0.11465090169E+03  0.11755753645E+03  0.00000000000E+00 0. -1.
         21    1    1    2  503  502 -0.24951917295E+02  0.72351185965E+01  0.36859691506E+00  0.25982320556E+02  0.00000000000E+00 0.  1.
</event>
<event>
 4    1  0.5722454E+002  0.5241575E+02  0.7546771E-02  0.1288025E+00
          2   -1    0    0  502    0  0.00000000000E+00  0.00000000000E+00  0.12542509601E+04  0.12542509601E+04  0.00000000000E+00 0. -1.
         -2   -1    0    0    0  501 -0.00000000000E+00 -0.00000000000E+00 -0.24187828527E+01  0.24187828527E+01  0.00000000000E+00 0.  1.
         21    1    1    2  502  503 -0.20240737940E+02 -0.48350003766E+02  0.81895701027E+03  0.82063267971E+03  0.00000000000E+00 0. -1.
         21    1    1    2  503  501  0.20240737940E+02  0.48350003766E+02  0.43287516701E+03  0.43603706327E+03  0.00000000000E+00 0.  1.
</event>
<event>
 4    1  0.5722454E+002  0.2000595E+02  0.7546771E-02  0.1533945E+00
          2   -1    0    0  503    0  0.00000000000E+00  0.00000000000E+00  0.21986132425E+03  0.21986132425E+03  0.00000000000E+00 0.  1.
         -2   -1    0    0    0  501 -0.00000000000E+00 -0.00000000000E+00 -0.93940690442E+01  0.93940690442E+01  0.00000000000E+00 0. -1.
         21    1    1    2  502  501 -0.15581443658E+02  0.12548173351E+02  0.23098946719E+01  0.20138859311E+02  0.00000000000E+00 0. -1.
         21    1    1    2  503  502  0.15581443658E+02 -0.12548173351E+02  0.20815736053E+03  0.20911653398E+03  0.00000000000E+00 0.  1.
</event>
<event>
 4    1  0.5722454E+002  0.2299536E+02  0.7546771E-02  0.1492556E+00
          2   -1    0    0  503    0  0.00000000000E+00  0.00000000000E+00  0.10088871892E+04  0.10088871892E+04  0.00000000000E+00 0.  1.
         -2   -1    0    0    0  501 -0.00000000000E+00 -0.00000000000E+00 -0.11308320296E+01  0.11308320296E+01  0.00000000000E+00 0. -1.
         21    1    1    2  502  501  0.12449376576E+02  0.19333894890E+02  0.13397474824E+03  0.13593387964E+03  0.00000000000E+00 0. -1.
         21    1    1    2  503  502 -0.12449376576E+02 -0.19333894890E+02  0.87378160894E+03  0.87408414160E+03  0.00000000000E+00 0.  1.
</event>
<event>
 4    1  0.5722454E+002  0.2366662E+02  0.7546771E-02  0.1484293E+00
          2   -1    0    0  502    0  0.00000000000E+00  0.00000000000E+00  0.77959264990E+01  0.77959264990E+01  0.00000000000E+00 0.  1.
         -2   -1    0    0    0  501 -0.00000000000E+00 -0.00000000000E+00 -0.19408247228E+03  0.19408247228E+03  0.00000000000E+00 0. -1.
         21    1    1    2  502  503  0.22629849495E+02  0.69281215389E+01 -0.13037012323E+02  0.27019856523E+02  0.00000000000E+00 0.  1.
         21    1    1    2  503  501 -0.22629849495E+02 -0.69281215389E+01 -0.17324953346E+03  0.17485854226E+03  0.00000000000E+00 0. -1.
</event>
<event>
 4    1  0.5722454E+002  0.3393299E+02  0.7546771E-02  0.1388224E+00
          2   -1    0    0  502    0  0.00000000000E+00  0.00000000000E+00  0.77555208539E+03  0.77555208539E+03  0.00000000000E+00 0.  1.
         -2   -1    0    0    0  501 -0.00000000000E+00 -0.00000000000E+00 -0.16027477853E+01  0.16027477853E+01  0.00000000000E+00 0. -1.
         21    1    1    2  502  503  0.82101492265E+00 -0.33923055788E+02  0.49243959219E+03  0.49360733355E+03  0.00000000000E+00 0.  1.
         21    1    1    2  503  501 -0.82101492265E+00  0.33923055788E+02  0.28150974542E+03  0.28354749962E+03  0.00000000000E+00 0. -1.
</event>
<event>
 4    1  0.5722454E+002  0.2999129E+02  0.7546771E-02  0.1419672E+00
          2   -1    0    0  503    0  0.00000000000E+00  0.00000000000E+00  0.91575364152E+03  0.91575364152E+03  0.00000000000E+00 0. -1.
         -2   -1    0    0    0  501 -0.00000000000E+00 -0.00000000000E+00 -0.99644138899E+00  0.99644138899E+00  0.00000000000E+00 0.  1.
         21    1    1    2  502  501  0.23275761532E+02 -0.18913389439E+02  0.51212666927E+03  0.51300409623E+03  0.00000000000E+00 0.  1.
         21    1    1    2  503  502 -0.23275761532E+02  0.18913389439E+02  0.40263053086E+03  0.40374598668E+03  0.00000000000E+00 0. -1.
</event>
<event>
 4    1  0.5722454E+002  0.2386756E+02  0.7546771E-02  0.1481882E+00
          2   -1    0    0  503    0  0.00000000000E+00  0.00000000000E+00  0.94154409664E+03  0.94154409664E+03  0.00000000000E+00 0.  1.
         -2   -1    0    0    0  501 -0.00000000000E+00 -0.00000000000E+00 -0.93116099719E+00  0.93116099719E+00  0.00000000000E+00 0. -1.
         21    1    1    2  502  501 -0.16578233193E+02  0.17170399242E+02  0.19142155112E+03  0.19290378601E+03  0.00000000000E+00 0.  1.
         21    1    1    2  503  502  0.16578233193E+02 -0.17170399242E+02  0.74919138453E+03  0.74957147163E+03  0.00000000000E+00 0. -1.
</event>
<event>
 4    1  0.5722454E+002  0.2027991E+02  0.7546771E-02  0.1529799E+00
          2   -1    0    0  502    0  0.00000000000E+00  0.00000000000E+00  0.54037294397E+01  0.54037294397E+01  0.00000000000E+00 0.  1.
         -2   -1    0    0    0  501 -0.00000000000E+00 -0.00000000000E+00 -0.22489922536E+03  0.22489922536E+03  0.00000000000E+00 0. -1.
         21    1    1    2  502  503 -0.11572544739E+02  0.16653856515E+02 -0.16086030236E+02  0.25885036166E+02  0.00000000000E+00 0.  1.
         21    1    1    2  503  501  0.11572544739E+02 -0.16653856515E+02 -0.20340946568E+03  0.20441791863E+03  0.00000000000E+00 0. -1.
</event>
<event>
 4    1  0.5722454E+002  0.2109929E+02  0.7546771E-02  0.1517852E+00
          2   -1    0    0  503    0  0.00000000000E+00  0.00000000000E+00  0.90069338935E+01  0.90069338935E+01  0.00000000000E+00 0.  1.
         -2   -1    0    0    0  501 -0.00000000000E+00 -0.00000000000E+00 -0.55858844142E+02  0.55858844142E+02  0.00000000000E+00 0. -1.
         21    1    1    2  502  501  0.20565015727E+02  0.47180662999E+01 -0.34431936778E+02  0.40382400767E+02  0.00000000000E+00 0.  1.
         21    1    1    2  503  502 -0.20565015727E+02 -0.47180662999E+01 -0.12419973471E+02  0.24483377269E+02  0.00000000000E+00 0. -1.
</event>
<event>
 4    1  0.5722454E+002  0.2702856E+02  0.7546771E-02  0.1447321E+00
          2   -1    0    0  503    0  0.00000000000E+00  0.00000000000E+00  0.23074557880E+03  0.23074557880E+03  0.00000000000E+00 0.  1.
         -2   -1    0    0    0  501 -0.00000000000E+00 -0.00000000000E+00 -0.34660261005E+01  0.34660261005E+01  0.00000000000E+00 0. -1.
         21    1    1    2  502  501 -0.15382892727E+02 -0.22224084473E+02  0.79186289330E+02  0.83672048721E+02  0.00000000000E+00 0. -1.
         21    1    1    2  503  502  0.15382892727E+02  0.22224084473E+02  0.14809326337E+03  0.15053955618E+03  0.00000000000E+00 0.  1.
</event>
<event>
 4    1  0.5722454E+002  0.2542540E+02  0.7546771E-02  0.1464100E+00
          2   -1    0    0  502    0  0.00000000000E+00  0.00000000000E+00  0.11185669417E+04  0.11185669417E+04  0.00000000000E+00 0. -1.
         -2   -1    0    0    0  501 -0.00000000000E+00 -0.00000000000E+00 -0.92683726829E+00  0.92683726829E+00  0.00000000000E+00 0.  1.
         21    1    1    2  502  503  0.72586358128E+01  0.24367255280E+02  0.90225645495E+03  0.90261462509E+03  0.00000000000E+00 0. -1.
         21    1    1    2  503  501 -0.72586358128E+01 -0.24367255280E+02  0.21538364948E+03  0.21687915387E+03  0.00000000000E+00 0.  1.
</event>
<event>
 4    1  0.5722454E+002  0.4806856E+02  0.7546771E-02  0.1306771E+00
          2   -1    0    0  503    0  0.00000000000E+00  0.00000000000E+00  0.69907215997E+03  0.69907215997E+03  0.00000000000E+00 0. -1.
         -2   -1    0    0    0  501 -0.00000000000E+00 -0.00000000000E+00 -0.55285176543E+01  0.55285176543E+01  0.00000000000E+00 0.  1.
         21    1    1    2  502  501 -0.26656709865E+02  0.40000078837E+02  0.12335923973E+03  0.13239368759E+03  0.00000000000E+00 0.  1.
         21    1    1    2  503  502  0.26656709865E+02 -0.40000078837E+02  0.57018440259E+03  0.57220699003E+03  0.00000000000E+00 0. -1.
</event>
<event>
 4    1  0.5722454E+002  0.3296986E+02  0.7546771E-02  0.1395426E+00
          2   -1    0    0  503    0  0.00000000000E+00  0.00000000000E+00  0.10381522376E+03  0.10381522376E+03  0.00000000000E+00 0. -1.
         -2   -1    0    0    0  501 -0.00000000000E+00 -0.00000000000E+00 -0.11416461582E+02  0.11416461582E+02  0.00000000000E+00 0.  1.
         21    1    1    2  502  501  0.31308104489E+02 -0.10335091593E+02  0.29615680327E+02  0.44318168353E+02  0.00000000000E+00 0.  1.
         21    1    1    2  503  502 -0.31308104489E+02  0.10335091593E+02  0.62783081851E+02  0.70913516988E+02  0.00000000000E+00 0. -1.
</event>
<event>
 4    1  0.5722454E+002  0.2676617E+02  0.7546771E-02  0.1449971E+00
          2   -1    0    0  503    0  0.00000000000E+00  0.00000000000E+00  0.71302226790E+03  0.71302226790E+03  0.00000000000E+00 0.  1.
         -2   -1    0    0    0  501 -0.00000000000E+00 -0.00000000000E+00 -0.10131814178E+01  0.10131814178E+01  0.00000000000E+00 0. -1.
         21    1    1    2  502  501 -0.25513124149E+02  0.80937333163E+01  0.32348737201E+03  0.32459283398E+03  0.00000000000E+00 0.  1.
         21    1    1    2  503  502  0.25513124149E+02 -0.80937333163E+01  0.38852171447E+03  0.38944261534E+03  0.00000000000E+00 0. -1.
</event>
<event>
 4    1  0.5722454E+002  0.2717896E+02  0.7546771E-02  0.1445819E+00
          2   -1    0    0  502    0  0.00000000000E+00  0.00000000000E+00  0.20299628706E+03  0.20299628706E+03  0.00000000000E+00 0.  1.
         -2   -1    0    0    0  501 -0.00000000000E+00 -0.00000000000E+00 -0.16897954065E+02  0.16897954065E+02  0.00000000000E+00 0. -1.
         21    1    1    2  502  503 -0.10404410703E+02  0.25108649026E+02  0.19044088589E+03  0.19237054618E+03  0.00000000000E+00 0.  1.
         21    1    1    2  503  501  0.10404410703E+02 -0.25108649026E+02 -0.43425528948E+01  0.27523694949E+02  0.00000000000E+00 0. -1.
</event>
<event>
 4    1  0.5722454E+002  0.2884373E+02  0.7546771E-02  0.1429918E+00
          2   -1    0    0  502    0  0.00000000000E+00  0.00000000000E+00  0.18353544451E+03  0.18353544451E+03  0.00000000000E+00 0. -1.
         -2   -1    0    0    0  501 -0.00000000000E+00 -0.00000000000E+00 -0.57730362538E+01  0.57730362538E+01  0.00000000000E+00 0.  1.
         21    1    1    2  502  503  0.28605287942E+02 -0.37010904765E+01  0.13275048014E+03  0.13584789490E+03  0.00000000000E+00 0. -1.
         21    1    1    2  503  501 -0.28605287942E+02  0.37010904765E+01  0.45011928108E+02  0.53460585865E+02  0.00000000000E+00 0.  1.
</event>
<event>
 4    1  0.5722454E+002  0.2237645E+02  0.7546771E-02  0.1500480E+00
          2   -1    0    0  503    0  0.00000000000E+00  0.00000000000E+00  0.71625172086E+03  0.71625172086E+03  0.00000000000E+00 0.  1.
         -2   -1    0    0    0  501 -0.00000000000E+00 -0.00000000000E+00 -0.15866568470E+01  0.15866568470E+01  0.00000000000E+00 0. -1.
         21    1    1    2  502  501 -0.11576324947E+02 -0.19149263340E+02  0.88883315915E+02  0.91656693338E+02  0.00000000000E+00 0. -1.
         21    1    1    2  503  502  0.11576324947E+02  0.19149263340E+02  0.62578174810E+03  0.62618168437E+03  0.00000000000E+00 0.  1.
</event>
<event>
 4    1  0.5722454E+002  0.2219022E+02  0.7546771E-02  0.1502925E+00
          2   -1    0    0  503    0  0.00000000000E+00  0.00000000000E+00  0.44609293715E+03  0.44609293715E+03  0.00000000000E+00 0. -1.
         -2   -1    0    0    0  501 -0.00000000000E+00 -0.00000000000E+00 -0.39824038445E+01  0.39824038445E+01  0.00000000000E+00 0.  1.
         21    1    1    2  502  501  0.57250083010E+01 -0.21438982966E+02  0.29730092745E+02  0.37098303537E+02  0.00000000000E+00 0.  1.
         21    1    1    2  503  502 -0.57250083010E+01  0.21438982966E+02  0.41238044056E+03  0.41297703746E+03  0.00000000000E+00 0. -1.
</event>
<event>
 4    1  0.5722454E+002  0.2215548E+02  0.7546771E-02  0.1503384E+00
          2   -1    0    0  503    0  0.00000000000E+00  0.00000000000E+00  0.59695248602E+02  0.59695248602E+02  0.00000000000E+00 0.  1.
         -2   -1    0    0    0  501 -0.00000000000E+00 -0.00000000000E+00 -0.13271803696E+02  0.13271803696E+02  0.00000000000E+00 0. -1.
         21    1    1    2  502  501  0.19499625198E+02  0.10518067744E+02  0.70913363285E+00  0.22166822110E+02  0.00000000000E+00 0. -1.
         21    1    1    2  503  502 -0.19499625198E+02 -0.10518067744E+02  0.45714311273E+02  0.50800230188E+02  0.00000000000E+00 0.  1.
</event>
<event>
 4    1  0.5722454E+002  0.3170582E+02  0.7546771E-02  0.1405330E+00
          2   -1    0    0  502    0  0.00000000000E+00  0.00000000000E+00  0.12190083167E+03  0.12190083167E+03  0.00000000000E+00 0. -1.
         -2   -1    0    0    0  501 -0.00000000000E+00 -0.00000000000E+00 -0.12588600749E+02  0.12588600749E+02  0.00000000000E+00 0.  1.
         21    1    1    2  502  503 -0.76313706682E+01  0.30773710107E+02  0.94148904584E+02  0.99344226236E+02  0.00000000000E+00 0. -1.
         21    1    1    2  503  501  0.76313706682E+01 -0.30773710107E+02  0.15163326337E+02  0.35145206183E+02  0.00000000000E+00 0.  1.
</event>
<event>
 4    1  0.5722454E+002  0.9184536E+02  0.7546771E-02  0.1178742E+00
          2   -1    0    0  502    0  0.00000000000E+00  0.00000000000E+00  0.10236959498E+03  0.10236959498E+03  0.00000000000E+00 0.  1.
         -2   -1    0    0    0  501 -0.00000000000E+00 -0.00000000000E+00 -0.85030817554E+02  0.85030817554E+02  0.00000000000E+00 0. -1.
         21    1    1    2  502  503 -0.57550783221E+02  0.71578467848E+02  0.25141282666E+02  0.95224229075E+02  0.00000000000E+00 0. -1.
         21    1    1    2  503  501  0.57550783221E+02 -0.71578467848E+02 -0.78025052418E+01  0.92176183458E+02  0.00000000000E+00 0.  1.
</event>
<event>
 4    1  0.5722454E+002  0.2066784E+02  0.7546771E-02  0.1524060E+00
          2   -1    0    0  503    0  0.00000000000E+00  0.00000000000E+00  0.32912067147E+01  0.32912067147E+01  0.00000000000E+00 0.  1.
         -2   -1    0    0    0  501 -0.00000000000E+00 -0.00000000000E+00 -0.24082176029E+03  0.24082176029E+03  0.00000000000E+00 0. -1.
         21    1    1    2  502  501  0.34703938976E+01  0.20374398301E+02 -0.20164344738E+03  0.20269987570E+03  0.00000000000E+00 0. -1.
         21    1    1    2  503  502 -0.34703938976E+01 -0.20374398301E+02 -0.35887106202E+02  0.41413091306E+02  0.00000000000E+00 0.  1.
</event>
<event>
 4    1  0.5722454E+002  0.6372305E+02  0.7546771E-02  0.1247682E+00
          2   -1    0    0  502    0  0.00000000000E+00  0.00000000000E+00  0.83487213546E+02  0.83487213546E+02  0.00000000000E+00 0.  1.
         -2   -1    0    0    0  501 -0.00000000000E+00 -0.00000000000E+00 -0.48719182952E+03  0.48719182952E+03  0.00000000000E+00 0. -1.
         21    1    1    2  502  503 -0.58293012252E+02 -0.25740073294E+02  0.68869679248E+02  0.93827817678E+02  0.00000000000E+00 0.  1.
         21    1    1    2  503  501  0.58293012252E+02  0.25740073294E+02 -0.47257429523E+03  0.47685122539E+03  0.00000000000E+00 0. -1.
</event>
<event>
 4    1  0.5722454E+002  0.2191404E+02  0.7546771E-02  0.1506604E+00
          2   -1    0    0  503    0  0.00000000000E+00  0.00000000000E+00  0.95545427046E+02  0.95545427046E+02  0.00000000000E+00 0.  1.
         -2   -1    0    0    0  501 -0.00000000000E+00 -0.00000000000E+00 -0.48185864625E+02  0.48185864625E+02  0.00000000000E+00 0. -1.
         21    1    1    2  502  501 -0.55620614346E+01  0.21196428542E+02 -0.44334610027E+02  0.49454855743E+02  0.00000000000E+00 0. -1.
         21    1    1    2  503  502  0.55620614346E+01 -0.21196428542E+02  0.91694172448E+02  0.94276435928E+02  0.00000000000E+00 0.  1.
</event>
<event>
 4    1  0.5722454E+002  0.2047126E+02  0.7546771E-02  0.1526950E+00
          2   -1    0    0  503    0  0.00000000000E+00  0.00000000000E+00  0.30944555347E+02  0.30944555347E+02  0.00000000000E+00 0.  1.
         -2   -1    0    0    0  501 -0.00000000000E+00 -0.00000000000E+00 -0.19833468829E+02  0.19833468829E+02  0.00000000000E+00 0. -1.
         21    1    1    2  502  501 -0.17104509109E+02  0.11247580799E+02 -0.87432343302E+01  0.22260198837E+02  0.00000000000E+00 0. -1.
         21    1    1    2  503  502  0.17104509109E+02 -0.11247580799E+02  0.19854320848E+02  0.28517825339E+02  0.00000000000E+00 0.  1.
</event>
<event>
 4    1  0.5722454E+002  0.2427532E+02  0.7546771E-02  0.1477076E+00
          2   -1    0    0  502    0  0.00000000000E+00  0.00000000000E+00  0.30909284525E+03  0.30909284525E+03  0.00000000000E+00 0. -1.
         -2   -1    0    0    0  501 -0.00000000000E+00 -0.00000000000E+00 -0.19906357632E+01  0.19906357632E+01  0.00000000000E+00 0.  1.
         21    1    1    2  502  503 -0.22626929577E+02  0.87927946987E+01  0.12157732251E+03  0.12397716132E+03  0.00000000000E+00 0.  1.
         21    1    1    2  503  501  0.22626929577E+02 -0.87927946987E+01  0.18552488698E+03  0.18710631969E+03  0.00000000000E+00 0. -1.
</event>
<event>
 4    1  0.5722454E+002  0.2134123E+02  0.7546771E-02  0.1514448E+00
          2   -1    0    0  502    0  0.00000000000E+00  0.00000000000E+00  0.26620715137E+02  0.26620715137E+02  0.00000000000E+00 0. -1.
         -2   -1    0    0    0  501 -0.00000000000E+00 -0.00000000000E+00 -0.17816792941E+02  0.17816792941E+02  0.00000000000E+00 0.  1.
         21    1    1    2  502  503  0.74972595199E+01  0.19980967275E+02  0.88311641691E+01  0.23096264073E+02  0.00000000000E+00 0. -1.
         21    1    1    2  503  501 -0.74972595199E+01 -0.19980967275E+02 -0.27241972804E-01  0.21341244005E+02  0.00000000000E+00 0.  1.
</event>
<event>
 4    1  0.5722454E+002  0.2304114E+02  0.7546771E-02  0.1491982E+00
          2   -1    0    0  502    0  0.00000000000E+00  0.00000000000E+00  0.39068355223E+03  0.39068355223E+03  0.00000000000E+00 0.  1.
         -2   -1    0    0    0  501 -0.00000000000E+00 -0.00000000000E+00 -0.38816944836E+01  0.38816944836E+01  0.00000000000E+00 0. -1.
         21    1    1    2  502  503  0.11327500237E+02 -0.20064441112E+02  0.35244605972E+03  0.35319841318E+03  0.00000000000E+00 0.  1.
         21    1    1    2  503  501 -0.11327500237E+02  0.20064441112E+02  0.34355798024E+02  0.41366833534E+02  0.00000000000E+00 0. -1.
</event>
<event>
 4    1  0.5722454E+002  0.2037219E+02  0.7546771E-02  0.1528420E+00
          2   -1    0    0  503    0  0.00000000000E+00  0.00000000000E+00  0.41639838060E+02  0.41639838060E+02  0.00000000000E+00 0.  1.
         -2   -1    0    0    0  501 -0.00000000000E+00 -0.00000000000E+00 -0.13754699442E+02  0.13754699442E+02  0.00000000000E+00 0. -1.
         21    1    1    2  502  501  0.40524147469E-02 -0.20372194254E+02 -0.59180452254E+00  0.20380788692E+02  0.00000000000E+00 0. -1.
         21    1    1    2  503  502 -0.40524147469E-02  0.20372194254E+02  0.28476943140E+02  0.35013748810E+02  0.00000000000E+00 0.  1.
</event>
<event>
 4    1  0.5722454E+002  0.2550610E+02  0.7546771E-02  0.1463221E+00
          2   -1    0    0  502    0  0.00000000000E+00  0.00000000000E+00  0.64654054580E+03  0.64654054580E+03  0.00000000000E+00 0.  1.
         -2   -1    0    0    0  501 -0.00000000000E+00 -0.00000000000E+00 -0.10118650586E+01  0.10118650586E+01  0.00000000000E+00 0. -1.
         21    1    1    2  502  503 -0.24348709063E+02  0.75961366748E+01  0.29857726024E+03  0.29966471474E+03  0.00000000000E+00 0. -1.
         21    1    1    2  503  501  0.24348709063E+02 -0.75961366748E+01  0.34695142050E+03  0.34788769612E+03  0.00000000000E+00 0.  1.
</event>
<event>
 4    1  0.5722454E+002  0.3516549E+02  0.7546771E-02  0.1379403E+00
          2   -1    0    0  503    0  0.00000000000E+00  0.00000000000E+00  0.11513364713E+03  0.11513364713E+03  0.00000000000E+00 0. -1.
         -2   -1    0    0    0  501 -0.00000000000E+00 -0.00000000000E+00 -0.13746782227E+02  0.13746782227E+02  0.00000000000E+00 0.  1.
         21    1    1    2  502  501  0.33753970731E+01  0.35003120278E+02  0.20559241668E+02  0.40734434482E+02  0.00000000000E+00 0.  1.
         21    1    1    2  503  502 -0.33753970731E+01 -0.35003120278E+02  0.80827623232E+02  0.88145994871E+02  0.00000000000E+00 0. -1.
</event>
<event>
 4    1  0.5722454E+002  0.2715174E+02  0.7546771E-02  0.1446090E+00
          2   -1    0    0  502    0  0.00000000000E+00  0.00000000000E+00  0.24017248914E+03  0.24017248914E+03  0.00000000000E+00 0.  1.
         -2   -1    0    0    0  501 -0.00000000000E+00 -0.00000000000E+00 -0.64956409100E+01  0.64956409100E+01  0.00000000000E+00 0. -1.
         21    1    1    2  502  503  0.13028426860E+02 -0.23821779980E+02  0.20641049860E+03  0.20818864291E+03  0.00000000000E+00 0.  1.
         21    1    1    2  503  501 -0.13028426860E+02  0.23821779980E+02  0.27266349634E+02  0.38479487135E+02  0.00000000000E+00 0. -1.
</event>
<event>
 4    1  0.5722454E+002  0.4954968E+02  0.7546771E-02  0.1300137E+00
          2   -1    0    0  503    0  0.00000000000E+00  0.00000000000E+00  0.10571900949E+03  0.10571900949E+03  0.00000000000E+00 0.  1.
         -2   -1    0    0    0  501 -0.00000000000E+00 -0.00000000000E+00 -0.16068108014E+03  0.16068108014E+03  0.00000000000E+00 0. -1.
         21    1    1    2  502  501  0.19392391986E+02  0.45597210356E+02 -0.15067977681E+03  0.15861767115E+03  0.00000000000E+00 0. -1.
         21    1    1    2  503  502 -0.19392391986E+02 -0.45597210356E+02  0.95717706163E+02  0.10778241848E+03  0.00000000000E+00 0.  1.
</event>
<event>
 4    1  0.5722454E+002  0.4450230E+02  0.7546771E-02  0.1323947E+00
          2   -1    0    0  503    0  0.00000000000E+00  0.00000000000E+00  0.17734820054E+04  0.17734820054E+04  0.00000000000E+00 0.  1.
         -2   -1    0    0    0  501 -0.00000000000E+00 -0.00000000000E+00 -0.11213495594E+01  0.11213495594E+01  0.00000000000E+00 0. -1.
         21    1    1    2  502  501 -0.24373645302E+02 -0.37234129458E+02  0.82907116836E+03  0.83026469104E+03  0.00000000000E+00 0.  1.
         21    1    1    2  503  502  0.24373645302E+02  0.37234129458E+02  0.94328948747E+03  0.94433866391E+03  0.00000000000E+00 0. -1.
</event>
<event>
 4    1  0.5722454E+002  0.3377869E+02  0.7546771E-02  0.1389359E+00
          2   -1    0    0  503    0  0.00000000000E+00  0.00000000000E+00  0.14918729278E+04  0.14918729278E+04  0.00000000000E+00 0.  1.
         -2   -1    0    0    0  501 -0.00000000000E+00 -0.00000000000E+00 -0.50276816687E+01  0.50276816687E+01  0.00000000000E+00 0. -1.
         21    1    1    2  502  501  0.21058229999E+02  0.26411191001E+02  0.54246555041E+02  0.63903746326E+02  0.00000000000E+00 0. -1.
         21    1    1    2  503  502 -0.21058229999E+02 -0.26411191001E+02  0.14325986911E+04  0.14329968631E+04  0.00000000000E+00 0.  1.
</event>
<event>
 4    1 -0.5722454E+002  0.4569075E+02  0.7546771E-02  0.1318021E+00
          2   -1    0    0  503    0  0.00000000000E+00  0.00000000000E+00  0.83217453666E+00  0.83217453666E+00  0.00000000000E+00 0. -1.
         -2   -1    0    0    0  501 -0.00000000000E+00 -0.00000000000E+00 -0.41123999749E+04  0.41123999749E+04  0.00000000000E+00 0.  1.
         21    1    1    2  502  501 -0.41718017824E+02 -0.18634698472E+02 -0.33401008075E+04  0.33404133052E+04  0.00000000000E+00 0.  1.
         21    1    1    2  503  502  0.41718017824E+02  0.18634698472E+02 -0.77146699287E+03  0.77281884428E+03  0.00000000000E+00 0. -1.
</event>
<event>
 4    1  0.5722454E+002  0.3500122E+02  0.7546771E-02  0.1380555E+00
          2   -1    0    0  502    0  0.00000000000E+00  0.00000000000E+00  0.81410945029E+03  0.81410945029E+03  0.00000000000E+00 0.  1.
         -2   -1    0    0    0  501 -0.00000000000E+00 -0.00000000000E+00 -0.17037163234E+01  0.17037163234E+01  0.00000000000E+00 0. -1.
         21    1    1    2  502  503 -0.20669691963E+02 -0.28246231320E+02  0.54557588780E+03  0.54669748042E+03  0.00000000000E+00 0.  1.
         21    1    1    2  503  501  0.20669691963E+02  0.28246231320E+02  0.26682984617E+03  0.26911568619E+03  0.00000000000E+00 0. -1.
</event>
<event>
 4    1  0.5722454E+002  0.2451783E+02  0.7546771E-02  0.1474270E+00
          2   -1    0    0  503    0  0.00000000000E+00  0.00000000000E+00  0.10873259257E+03  0.10873259257E+03  0.00000000000E+00 0.  1.
         -2   -1    0    0    0  501 -0.00000000000E+00 -0.00000000000E+00 -0.62790989574E+01  0.62790989574E+01  0.00000000000E+00 0. -1.
         21    1    1    2  502  501 -0.12611023302E+02  0.21025837834E+02  0.71109610884E+02  0.75217687584E+02  0.00000000000E+00 0.  1.
         21    1    1    2  503  502  0.12611023302E+02 -0.21025837834E+02  0.31343882727E+02  0.39794003942E+02  0.00000000000E+00 0. -1.
</event>
<event>
 4    1  0.5722454E+002  0.2056201E+02  0.7546771E-02  0.1525611E+00
          2   -1    0    0  503    0  0.00000000000E+00  0.00000000000E+00  0.95914067269E+03  0.95914067269E+03  0.00000000000E+00 0. -1.
         -2   -1    0    0    0  501 -0.00000000000E+00 -0.00000000000E+00 -0.10120874189E+01  0.10120874189E+01  0.00000000000E+00 0.  1.
         21    1    1    2  502  501 -0.13592951338E+02  0.15428149423E+02  0.11838109054E+03  0.12015356307E+03  0.00000000000E+00 0.  1.
         21    1    1    2  503  502  0.13592951338E+02 -0.15428149423E+02  0.83974749473E+03  0.83999919704E+03  0.00000000000E+00 0. -1.
</event>
<event>
 4    1  0.5722454E+002  0.2199567E+02  0.7546771E-02  0.1505510E+00
          2   -1    0    0  503    0  0.00000000000E+00  0.00000000000E+00  0.77234986048E+03  0.77234986048E+03  0.00000000000E+00 0.  1.
         -2   -1    0    0    0  501 -0.00000000000E+00 -0.00000000000E+00 -0.12781205885E+01  0.12781205885E+01  0.00000000000E+00 0. -1.
         21    1    1    2  502  501 -0.39585922471E+01  0.21636518745E+02  0.10932363955E+03  0.11151442759E+03  0.00000000000E+00 0. -1.
         21    1    1    2  503  502  0.39585922471E+01 -0.21636518745E+02  0.66174810034E+03  0.66211355348E+03  0.00000000000E+00 0.  1.
</event>
<event>
 4    1  0.5722454E+002  0.2928542E+02  0.7546771E-02  0.1425909E+00
          2   -1    0    0  503    0  0.00000000000E+00  0.00000000000E+00  0.52842967463E+03  0.52842967463E+03  0.00000000000E+00 0.  1.
         -2   -1    0    0    0  501 -0.00000000000E+00 -0.00000000000E+00 -0.18641550301E+01  0.18641550301E+01  0.00000000000E+00 0. -1.
         21    1    1    2  502  501  0.25913345262E+02 -0.13643100828E+02  0.16791459221E+03  0.17044924741E+03  0.00000000000E+00 0.  1.
         21    1    1    2  503  502 -0.25913345262E+02  0.13643100828E+02  0.35865092739E+03  0.35984458225E+03  0.00000000000E+00 0. -1.
</event>
<event>
 4    1  0.5722454E+002  0.2800651E+02  0.7546771E-02  0.1437751E+00
          2   -1    0    0  503    0  0.00000000000E+00  0.00000000000E+00  0.88195145903E+03  0.88195145903E+03  0.00000000000E+00 0. -1.
         -2   -1    0    0    0  501 -0.00000000000E+00 -0.00000000000E+00 -0.89059401499E+00  0.89059401499E+00  0.00000000000E+00 0.  1.
         21    1    1    2  502  501  0.18425975641E+02  0.21091414094E+02  0.42403862733E+03  0.42496249457E+03  0.00000000000E+00 0. -1.
         21    1    1    2  503  502 -0.18425975641E+02 -0.21091414094E+02  0.45702223769E+03  0.45787955848E+03  0.00000000000E+00 0.  1.
</event>
<event>
 4    1  0.5722454E+002  0.2180626E+02  0.7546771E-02  0.1508058E+00
          2   -1    0    0  503    0  0.00000000000E+00  0.00000000000E+00  0.32426656735E+02  0.32426656735E+02  0.00000000000E+00 0.  1.
         -2   -1    0    0    0  501 -0.00000000000E+00 -0.00000000000E+00 -0.17177178936E+02  0.17177178936E+02  0.00000000000E+00 0. -1.
         21    1    1    2  502  501  0.13693655538E+02 -0.16970468677E+02 -0.18615939898E+01  0.21885578386E+02  0.00000000000E+00 0. -1.
         21    1    1    2  503  502 -0.13693655538E+02  0.16970468677E+02  0.17111071789E+02  0.27718257284E+02  0.00000000000E+00 0.  1.
</event>
<event>
 4    1  0.5722454E+002  0.4016783E+02  0.7546771E-02  0.1347505E+00
          2   -1    0    0  502    0  0.00000000000E+00  0.00000000000E+00  0.22028376708E+04  0.22028376708E+04  0.00000000000E+00 0. -1.
         -2   -1    0    0    0  501 -0.00000000000E+00 -0.00000000000E+00 -0.89447959824E+00  0.89447959824E+00  0.00000000000E+00 0.  1.
         21    1    1    2  502  503 -0.33995474056E+02 -0.21395388570E+02  0.15699458584E+04  0.15704596312E+04  0.00000000000E+00 0.  1.
         21    1    1    2  503  501  0.33995474056E+02  0.21395388570E+02  0.63199733277E+03  0.63327251917E+03  0.00000000000E+00 0. -1.
</event>
<event>
 4    1  0.5722454E+002  0.2347163E+02  0.7546771E-02  0.1486659E+00
          2   -1    0    0  503    0  0.00000000000E+00  0.00000000000E+00  0.15095532650E+03  0.15095532650E+03  0.00000000000E+00 0. -1.
         -2   -1    0    0    0  501 -0.00000000000E+00 -0.00000000000E+00 -0.79755235700E+01  0.79755235700E+01  0.00000000000E+00 0.  1.
         21    1    1    2  502  501  0.15388913744E+02 -0.17722831862E+02  0.12964949721E+02  0.26814312534E+02  0.00000000000E+00 0.  1.
         21    1    1    2  503  502 -0.15388913744E+02  0.17722831862E+02  0.13001485321E+03  0.13211653754E+03  0.00000000000E+00 0. -1.
</event>
<event>
 4    1  0.5722454E+002  0.2087184E+02  0.7546771E-02  0.1521102E+00
          2   -1    0    0  502    0  0.00000000000E+00  0.00000000000E+00  0.45874026481E+03  0.45874026481E+03  0.00000000000E+00 0. -1.
         -2   -1    0    0    0  501 -0.00000000000E+00 -0.00000000000E+00 -0.43291561133E+01  0.43291561133E+01  0.00000000000E+00 0.  1.
         21    1    1    2  502  503 -0.10596594843E+01 -0.20844926972E+02  0.43177574001E+03  0.43227991339E+03  0.00000000000E+00 0. -1.
         21    1    1    2  503  501  0.10596594843E+01  0.20844926972E+02  0.22635368691E+02  0.30789507538E+02  0.00000000000E+00 0.  1.
</event>
<event>
 4    1  0.5722454E+002  0.2000811E+02  0.7546771E-02  0.1533912E+00
          2   -1    0    0  502    0  0.00000000000E+00  0.00000000000E+00  0.14131263071E+04  0.14131263071E+04  0.00000000000E+00 0.  1.
         -2   -1    0    0    0  501 -0.00000000000E+00 -0.00000000000E+00 -0.12799365396E+01  0.12799365396E+01  0.00000000000E+00 0. -1.
         21    1    1    2  502  503 -0.15811940026E+02  0.12259969102E+02  0.13299748878E+04  0.13301253800E+04  0.00000000000E+00 0.  1.
         21    1    1    2  503  501  0.15811940026E+02 -0.12259969102E+02  0.81871482762E+02  0.84280863661E+02  0.00000000000E+00 0. -1.
</event>
<event>
 4    1  0.5722454E+002  0.3471736E+02  0.7546771E-02  0.1382561E+00
          2   -1    0    0  502    0  0.00000000000E+00  0.00000000000E+00  0.58946720644E+02  0.58946720644E+02  0.00000000000E+00 0.  1.
         -2   -1    0    0    0  501 -0.00000000000E+00 -0.00000000000E+00 -0.12204572776E+03  0.12204572776E+03  0.00000000000E+00 0. -1.
         21    1    1    2  502  503  0.14454156091E+02 -0.31565367339E+02  0.51018710030E+02  0.61710645894E+02  0.00000000000E+00 0.  1.
         21    1    1    2  503  501 -0.14454156091E+02  0.31565367339E+02 -0.11411771714E+03  0.11928180251E+03  0.00000000000E+00 0. -1.
</event>
<event>
 4    1  0.5722454E+002  0.4544072E+02  0.7546771E-02  0.1319250E+00
          2   -1    0    0  502    0  0.00000000000E+00  0.00000000000E+00  0.92648709855E+03  0.92648709855E+03  0.00000000000E+00 0.  1.
         -2   -1    0    0    0  501 -0.00000000000E+00 -0.00000000000E+00 -0.43186729490E+01  0.43186729490E+01  0.00000000000E+00 0. -1.
         21    1    1    2  502  503  0.45319558570E+02 -0.33160504985E+01  0.78484526800E+03  0.78615962329E+03  0.00000000000E+00 0.  1.
         21    1    1    2  503  501 -0.45319558570E+02  0.33160504985E+01  0.13732315760E+03  0.14464614821E+03  0.00000000000E+00 0. -1.
</event>
<event>
 4    1  0.5722454E+002  0.2020625E+02  0.7546771E-02  0.1530906E+00
          2   -1    0    0  502    0  0.00000000000E+00  0.00000000000E+00  0.19529884557E+02  0.19529884557E+02  0.00000000000E+00 0.  1.
         -2   -1    0    0    0  501 -0.00000000000E+00 -0.00000000000E+00 -0.53135983489E+02  0.53135983489E+02  0.00000000000E+00 0. -1.
         21    1    1    2  502  503  0.17027666383E+02 -0.10878935443E+02  0.11493653909E+02  0.23246434974E+02  0.00000000000E+00 0.  1.
         21    1    1    2  503  501 -0.17027666383E+02  0.10878935443E+02 -0.45099752841E+02  0.49419433072E+02  0.00000000000E+00 0. -1.
</event>
<event>
 4    1  0.5722454E+002  0.2052138E+02  0.7546771E-02  0.1526209E+00
          2   -1    0    0  502    0  0.00000000000E+00  0.00000000000E+00  0.18472734802E+03  0.18472734802E+03  0.00000000000E+00 0. -1.
         -2   -1    0    0    0  501 -0.00000000000E+00 -0.00000000000E+00 -0.23598977299E+01  0.23598977299E+01  0.00000000000E+00 0.  1.
         21    1    1    2  502  503 -0.17658012789E+02 -0.10455690456E+02  0.10842585159E+03  0.11035076878E+03  0.00000000000E+00 0. -1.
         21    1    1    2  503  501  0.17658012789E+02  0.10455690456E+02  0.73941598703E+02  0.76736476968E+02  0.00000000000E+00 0.  1.
</event>
<event>
 4    1  0.5722454E+002  0.2003958E+02  0.7546771E-02  0.1533431E+00
          2   -1    0    0  503    0  0.00000000000E+00  0.00000000000E+00  0.19773993934E+04  0.19773993934E+04  0.00000000000E+00 0. -1.
         -2   -1    0    0    0  501 -0.00000000000E+00 -0.00000000000E+00 -0.26463270754E+00  0.26463270754E+00  0.00000000000E+00 0.  1.
         21    1    1    2  502  501  0.13324525434E+02 -0.14968030943E+02  0.51169937708E+03  0.51209162992E+03  0.00000000000E+00 0.  1.
         21    1    1    2  503  502 -0.13324525434E+02  0.14968030943E+02  0.14654353836E+04  0.14655723962E+04  0.00000000000E+00 0. -1.
</event>
<event>
 4    1  0.5722454E+002  0.2060967E+02  0.7546771E-02  0.1524911E+00
          2   -1    0    0  503    0  0.00000000000E+00  0.00000000000E+00  0.29108233189E+03  0.29108233189E+03  0.00000000000E+00 0. -1.
         -2   -1    0    0    0  501 -0.00000000000E+00 -0.00000000000E+00 -0.21918836857E+02  0.21918836857E+02  0.00000000000E+00 0.  1.
         21    1    1    2  502  501 -0.20583099840E+02  0.10462218469E+01 -0.16619634981E+02  0.26475854020E+02  0.00000000000E+00 0.  1.
         21    1    1    2  503  502  0.20583099840E+02 -0.10462218469E+01  0.28578313002E+03  0.28652531473E+03  0.00000000000E+00 0. -1.
</event>
<event>
 4    1  0.5722454E+002  0.2481225E+02  0.7546771E-02  0.1470915E+00
          2   -1    0    0  502    0  0.00000000000E+00  0.00000000000E+00  0.12306373012E+04  0.12306373012E+04  0.00000000000E+00 0.  1.
         -2   -1    0    0    0  501 -0.00000000000E+00 -0.00000000000E+00 -0.18676578948E+01  0.18676578948E+01  0.00000000000E+00 0. -1.
         21    1    1    2  502  503 -0.78137329534E+01  0.23549809787E+02  0.11416829903E+04  0.11419525815E+04  0.00000000000E+00 0.  1.
         21    1    1    2  503  501  0.78137329534E+01 -0.23549809787E+02  0.87086653017E+02  0.90552377647E+02  0.00000000000E+00 0. -1.
</event>
<event>
 4    1  0.5722454E+002  0.4833458E+02  0.7546771E-02  0.1305559E+00
          2   -1    0    0  503    0  0.00000000000E+00  0.00000000000E+00  0.90205488429E+03  0.90205488429E+03  0.00000000000E+00 0. -1.
         -2   -1    0    0    0  501 -0.00000000000E+00 -0.00000000000E+00 -0.26715782266E+01  0.26715782266E+01  0.00000000000E+00 0.  1.
         21    1    1    2  502  501  0.46108826697E+02 -0.14498532997E+02  0.37059497792E+03  0.37373368729E+03  0.00000000000E+00 0.  1.
         21    1    1    2  503  502 -0.46108826697E+02  0.14498532997E+02  0.52878832814E+03  0.53099277522E+03  0.00000000000E+00 0. -1.
</event>
<event>
 4    1  0.5722454E+002  0.3508298E+02  0.7546771E-02  0.1379981E+00
          2   -1    0    0  503    0  0.00000000000E+00  0.00000000000E+00  0.31255816460E+03  0.31255816460E+03  0.00000000000E+00 0.  1.
         -2   -1    0    0    0  501 -0.00000000000E+00 -0.00000000000E+00 -0.47681972468E+01  0.47681972468E+01  0.00000000000E+00 0. -1.
         21    1    1    2  502  501  0.11735409894E+02 -0.33061997485E+02  0.87685235623E+02  0.94443189639E+02  0.00000000000E+00 0. -1.
         21    1    1    2  503  502 -0.11735409894E+02  0.33061997485E+02  0.22010473173E+03  0.22288317221E+03  0.00000000000E+00 0.  1.
</event>
<event>
 4    1  0.5722454E+002  0.2702519E+02  0.7546771E-02  0.1447355E+00
          2   -1    0    0  502    0  0.00000000000E+00  0.00000000000E+00  0.66642282183E+02  0.66642282183E+02  0.00000000000E+00 0. -1.
         -2   -1    0    0    0  501 -0.00000000000E+00 -0.00000000000E+00 -0.19831739768E+02  0.19831739768E+02  0.00000000000E+00 0.  1.
         21    1    1    2  502  503 -0.12043236315E+02 -0.24193412314E+02  0.52324976022E+02  0.58891967670E+02  0.00000000000E+00 0. -1.
         21    1    1    2  503  501  0.12043236315E+02  0.24193412314E+02 -0.55144336070E+01  0.27582054281E+02  0.00000000000E+00 0.  1.
</event>
<event>
 4    1  0.5722454E+002  0.3033286E+02  0.7546771E-02  0.1416725E+00
          2   -1    0    0  502    0  0.00000000000E+00  0.00000000000E+00  0.54678094636E+01  0.54678094636E+01  0.00000000000E+00 0. -1.
         -2   -1    0    0    0  501 -0.00000000000E+00 -0.00000000000E+00 -0.22110561134E+03  0.22110561134E+03  0.00000000000E+00 0.  1.
         21    1    1    2  502  503 -0.11750554475E+02  0.27964388603E+02 -0.52441606718E+02  0.60582214185E+02  0.00000000000E+00 0. -1.
         21    1    1    2  503  501  0.11750554475E+02 -0.27964388603E+02 -0.16319619515E+03  0.16599120661E+03  0.00000000000E+00 0.  1.
</event>
<event>
 4    1  0.5722454E+002  0.2697437E+02  0.7546771E-02  0.1447866E+00
          2   -1    0    0  502    0  0.00000000000E+00  0.00000000000E+00  0.22350221790E+01  0.22350221790E+01  0.00000000000E+00 0. -1.
         -2   -1    0    0    0  501 -0.00000000000E+00 -0.00000000000E+00 -0.68191685971E+03  0.68191685971E+03  0.00000000000E+00 0.  1.
         21    1    1    2  502  503 -0.26562256140E+02  0.46971605280E+01 -0.92552358045E+02  0.96403089930E+02  0.00000000000E+00 0. -1.
         21    1    1    2  503  501  0.26562256140E+02 -0.46971605280E+01 -0.58712947949E+03  0.58774879196E+03  0.00000000000E+00 0.  1.
</event>
<event>
 4    1  0.5722454E+002  0.2948010E+02  0.7546771E-02  0.1424169E+00
          2   -1    0    0  502    0  0.00000000000E+00  0.00000000000E+00  0.15945390155E+03  0.15945390155E+03  0.00000000000E+00 0. -1.
         -2   -1    0    0    0  501 -0.00000000000E+00 -0.00000000000E+00 -0.54530972129E+01  0.54530972129E+01  0.00000000000E+00 0.  1.
         21    1    1    2  502  503 -0.91447043286E+01  0.28025890289E+02  0.78858320351E+02  0.84188543355E+02  0.00000000000E+00 0.  1.
         21    1    1    2  503  501  0.91447043286E+01 -0.28025890289E+02  0.75142483991E+02  0.80718455412E+02  0.00000000000E+00 0. -1.
</event>
<event>
 4    1  0.5722454E+002  0.2072045E+02  0.7546771E-02  0.1523294E+00
          2   -1    0    0  503    0  0.00000000000E+00  0.00000000000E+00  0.54590370888E+01  0.54590370888E+01  0.00000000000E+00 0.  1.
         -2   -1    0    0    0  501 -0.00000000000E+00 -0.00000000000E+00 -0.11985516000E+03  0.11985516000E+03  0.00000000000E+00 0. -1.
         21    1    1    2  502  501 -0.36180805452E+01 -0.20402122621E+02 -0.93937567007E+02  0.96195652757E+02  0.00000000000E+00 0. -1.
         21    1    1    2  503  502  0.36180805452E+01  0.20402122621E+02 -0.20458555903E+02  0.29118544330E+02  0.00000000000E+00 0.  1.
</event>
<event>
 4    1  0.5722454E+002  0.3291833E+02  0.7546771E-02  0.1395820E+00
          2   -1    0    0  502    0  0.00000000000E+00  0.00000000000E+00  0.24690303216E+03  0.24690303216E+03  0.00000000000E+00 0.  1.
         -2   -1    0    0    0  501 -0.00000000000E+00 -0.00000000000E+00 -0.49870891992E+01  0.49870891992E+01  0.00000000000E+00 0. -1.
         21    1    1    2  502  503 -0.17716684444E+02  0.27744108183E+02  0.77336453249E+02  0.84050838471E+02  0.00000000000E+00 0. -1.
         21    1    1    2  503  501  0.17716684444E+02 -0.27744108183E+02  0.16457948972E+03  0.16783928289E+03  0.00000000000E+00 0.  1.
</event>
<event>
 4    1  0.5722454E+002  0.2355262E+02  0.7546771E-02  0.1485673E+00
          2   -1    0    0  503    0  0.00000000000E+00  0.00000000000E+00  0.45627028023E+02  0.45627028023E+02  0.00000000000E+00 0.  1.
         -2   -1    0    0    0  501 -0.00000000000E+00 -0.00000000000E+00 -0.16458196267E+02  0.16458196267E+02  0.00000000000E+00 0. -1.
         21    1    1    2  502  501 -0.21885292898E+02 -0.87040149006E+01 -0.12834881134E+01  0.23587565842E+02  0.00000000000E+00 0.  1.
         21    1    1    2  503  502  0.21885292898E+02  0.87040149006E+01  0.30452319869E+02  0.38497658448E+02  0.00000000000E+00 0. -1.
</event>
<event>
 4    1  0.5722454E+002  0.2554696E+02  0.7546771E-02  0.1462777E+00
          2   -1    0    0  502    0  0.00000000000E+00  0.00000000000E+00  0.16075115215E+04  0.16075115215E+04  0.00000000000E+00 0. -1.
         -2   -1    0    0    0  501 -0.00000000000E+00 -0.00000000000E+00 -0.79408267874E+00  0.79408267874E+00  0.00000000000E+00 0.  1.
         21    1    1    2  502  503 -0.25364890847E+02 -0.30446135892E+01  0.13655299994E+04  0.13657689506E+04  0.00000000000E+00 0. -1.
         21    1    1    2  503  501  0.25364890847E+02  0.30446135892E+01  0.24118743948E+03  0.24253665356E+03  0.00000000000E+00 0.  1.
</event>
<event>
 4    1  0.5722454E+002  0.2475569E+02  0.7546771E-02  0.1471555E+00
          2   -1    0    0  502    0  0.00000000000E+00  0.00000000000E+00  0.30390010683E+03  0.30390010683E+03  0.00000000000E+00 0.  1.
         -2   -1    0    0    0  501 -0.00000000000E+00 -0.00000000000E+00 -0.41438949435E+01  0.41438949435E+01  0.00000000000E+00 0. -1.
         21    1    1    2  502  503 -0.21481920644E+02  0.12303297394E+02  0.26023324278E+03  0.26140808077E+03  0.00000000000E+00 0.  1.
         21    1    1    2  503  501  0.21481920644E+02 -0.12303297394E+02  0.39522969103E+02  0.46635921005E+02  0.00000000000E+00 0. -1.
</event>
<event>
 4    1  0.5722454E+002  0.2499680E+02  0.7546771E-02  0.1468839E+00
          2   -1    0    0  502    0  0.00000000000E+00  0.00000000000E+00  0.37326192818E+02  0.37326192818E+02  0.00000000000E+00 0.  1.
         -2   -1    0    0    0  501 -0.00000000000E+00 -0.00000000000E+00 -0.32820833890E+02  0.32820833890E+02  0.00000000000E+00 0. -1.
         21    1    1    2  502  503  0.21927278971E+02  0.12001426897E+02  0.26803102892E+02  0.36650322444E+02  0.00000000000E+00 0.  1.
         21    1    1    2  503  501 -0.21927278971E+02 -0.12001426897E+02 -0.22297743964E+02  0.33496704263E+02  0.00000000000E+00 0. -1.
</event>
<event>
 4    1  0.5722454E+002  0.2162097E+02  0.7546771E-02  0.1510581E+00
          2   -1    0    0  502    0  0.00000000000E+00  0.00000000000E+00  0.10750307735E+04  0.10750307735E+04  0.00000000000E+00 0. -1.
         -2   -1    0    0    0  501 -0.00000000000E+00 -0.00000000000E+00 -0.68023745645E+01  0.68023745645E+01  0.00000000000E+00 0.  1.
         21    1    1    2  502  503  0.20528581482E+02 -0.67855418841E+01  0.10574563055E+04  0.10576773158E+04  0.00000000000E+00 0. -1.
         21    1    1    2  503  501 -0.20528581482E+02  0.67855418841E+01  0.10772093402E+02  0.24155832268E+02  0.00000000000E+00 0.  1.
</event>
<event>
 4    1  0.5722454E+002  0.2213035E+02  0.7546771E-02  0.1503717E+00
          2   -1    0    0  503    0  0.00000000000E+00  0.00000000000E+00  0.23052927513E+03  0.23052927513E+03  0.00000000000E+00 0.  1.
         -2   -1    0    0    0  501 -0.00000000000E+00 -0.00000000000E+00 -0.47025037160E+01  0.47025037160E+01  0.00000000000E+00 0. -1.
         21    1    1    2  502  501  0.14218794746E+02 -0.16958133222E+02  0.25827902755E+02  0.34012247311E+02  0.00000000000E+00 0. -1.
         21    1    1    2  503  502 -0.14218794746E+02  0.16958133222E+02  0.19999886865E+03  0.20121953153E+03  0.00000000000E+00 0.  1.
</event>
<event>
 4    1  0.5722454E+002  0.2872098E+02  0.7546771E-02  0.1431046E+00
          2   -1    0    0  503    0  0.00000000000E+00  0.00000000000E+00  0.17175170421E+04  0.17175170421E+04  0.00000000000E+00 0. -1.
         -2   -1    0    0    0  501 -0.00000000000E+00 -0.00000000000E+00 -0.52853886561E+00  0.52853886561E+00  0.00000000000E+00 0.  1.
         21    1    1    2  502  501  0.25944924892E+02  0.12318921114E+02  0.59893326076E+03  0.59962150210E+03  0.00000000000E+00 0.  1.
         21    1    1    2  503  502 -0.25944924892E+02 -0.12318921114E+02  0.11180552425E+04  0.11184240789E+04  0.00000000000E+00 0. -1.
</event>
<event>
 4    1  0.5722454E+002  0.2108216E+02  0.7546771E-02  0.1518095E+00
          2   -1    0    0  502    0  0.00000000000E+00  0.00000000000E+00  0.55962157232E+01  0.55962157232E+01  0.00000000000E+00 0.  1.
         -2   -1    0    0    0  501 -0.00000000000E+00 -0.00000000000E+00 -0.24288945833E+03  0.24288945833E+03  0.00000000000E+00 0. -1.
         21    1    1    2  502  503  0.57678770429E+01  0.20277794312E+02 -0.16720865847E+02  0.26908078757E+02  0.00000000000E+00 0.  1.
         21    1    1    2  503  501 -0.57678770429E+01 -0.20277794312E+02 -0.22057237676E+03  0.22157759529E+03  0.00000000000E+00 0. -1.
</event>
<event>
 4    1  0.5722454E+002  0.2448953E+02  0.7546771E-02  0.1474596E+00
          2   -1    0    0  502    0  0.00000000000E+00  0.00000000000E+00  0.16284368240E+04  0.16284368240E+04  0.00000000000E+00 0. -1.
         -2   -1    0    0    0  501 -0.00000000000E+00 -0.00000000000E+00 -0.78666811132E+00  0.78666811132E+00  0.00000000000E+00 0.  1.
         21    1    1    2  502  503  0.17887981710E+02 -0.16725945248E+02  0.14078974140E+04  0.14081103883E+04  0.00000000000E+00 0. -1.
         21    1    1    2  503  501 -0.17887981710E+02  0.16725945248E+02  0.21975274192E+03  0.22111310389E+03  0.00000000000E+00 0.  1.
</event>
<event>
 4    1  0.5722454E+002  0.2493806E+02  0.7546771E-02  0.1469497E+00
          2   -1    0    0  502    0  0.00000000000E+00  0.00000000000E+00  0.12313078459E+04  0.12313078459E+04  0.00000000000E+00 0.  1.
         -2   -1    0    0    0  501 -0.00000000000E+00 -0.00000000000E+00 -0.15552374442E+01  0.15552374442E+01  0.00000000000E+00 0. -1.
         21    1    1    2  502  503 -0.24533465138E+02 -0.44739382775E+01  0.11214166386E+04  0.11216938907E+04  0.00000000000E+00 0.  1.
         21    1    1    2  503  501  0.24533465138E+02  0.44739382775E+01  0.10833596984E+03  0.11116919266E+03  0.00000000000E+00 0. -1.
</event>
<event>
 4    1  0.5722454E+002  0.2540007E+02  0.7546771E-02  0.1464377E+00
          2   -1    0    0  503    0  0.00000000000E+00  0.00000000000E+00  0.37898182497E+02  0.37898182497E+02  0.00000000000E+00 0.  1.
         -2   -1    0    0    0  501 -0.00000000000E+00 -0.00000000000E+00 -0.11358974332E+03  0.11358974332E+03  0.00000000000E+00 0. -1.
         21    1    1    2  502  501 -0.25350638810E+02  0.15839239112E+01 -0.10768363603E+03  0.11063873269E+03  0.00000000000E+00 0. -1.
         21    1    1    2  503  502  0.25350638810E+02 -0.15839239112E+01  0.31992075206E+02  0.40849193126E+02  0.00000000000E+00 0.  1.
</event>
<event>
 4    1  0.5722454E+002  0.2446502E+02  0.7546771E-02  0.1474878E+00
          2   -1    0    0  503    0  0.00000000000E+00  0.00000000000E+00  0.35952889509E+02  0.35952889509E+02  0.00000000000E+00 0. -1.
         -2   -1    0    0    0  501 -0.00000000000E+00 -0.00000000000E+00 -0.87015537255E+02  0.87015537255E+02  0.00000000000E+00 0.  1.
         21    1    1    2  502  501  0.22256430900E+02 -0.10158180511E+02 -0.80822004944E+02  0.84443672533E+02  0.00000000000E+00 0.  1.
         21    1    1    2  503  502 -0.22256430900E+02  0.10158180511E+02  0.29759357198E+02  0.38524754231E+02  0.00000000000E+00 0. -1.
</event>
<event>
 4    1  0.5722454E+002  0.3947954E+02  0.7546771E-02  0.1351563E+00
          2   -1    0    0  502    0  0.00000000000E+00  0.00000000000E+00  0.83279906998E+01  0.83279906998E+01  0.00000000000E+00 0. -1.
         -2   -1    0    0    0  501 -0.00000000000E+00 -0.00000000000E+00 -0.27192171590E+03  0.27192171590E+03  0.00000000000E+00 0.  1.
         21    1    1    2  502  503 -0.39040581405E+02 -0.58708342482E+01 -0.53561470974E+02  0.66539197952E+02  0.00000000000E+00 0. -1.
         21    1    1    2  503  501  0.39040581405E+02  0.58708342482E+01 -0.21003225423E+03  0.21371050865E+03  0.00000000000E+00 0.  1.
</event>
<event>
 4    1  0.5722454E+002  0.2521655E+02  0.7546771E-02  0.1466395E+00
          2   -1    0    0  502    0  0.00000000000E+00  0.00000000000E+00  0.65680045679E+03  0.65680045679E+03  0.00000000000E+00 0. -1.
         -2   -1    0    0    0  501 -0.00000000000E+00 -0.00000000000E+00 -0.61975488777E+01  0.61975488777E+01  0.00000000000E+00 0.  1.
         21    1    1    2  502  503 -0.25216346517E+02  0.10202771966E+00  0.62980935238E+03  0.63031396533E+03  0.00000000000E+00 0. -1.
         21    1    1    2  503  501  0.25216346517E+02 -0.10202771966E+00  0.20793555532E+02  0.32684040340E+02  0.00000000000E+00 0.  1.
</event>
<event>
 4    1  0.5722454E+002  0.2829091E+02  0.7546771E-02  0.1435054E+00
          2   -1    0    0  502    0  0.00000000000E+00  0.00000000000E+00  0.71692672381E+03  0.71692672381E+03  0.00000000000E+00 0.  1.
         -2   -1    0    0    0  501 -0.00000000000E+00 -0.00000000000E+00 -0.26215432807E+01  0.26215432807E+01  0.00000000000E+00 0. -1.
         21    1    1    2  502  503  0.14618413727E+02 -0.24221433579E+02  0.62976182857E+03  0.63039696746E+03  0.00000000000E+00 0.  1.
         21    1    1    2  503  501 -0.14618413727E+02  0.24221433579E+02  0.84543351955E+02  0.89151299621E+02  0.00000000000E+00 0. -1.
</event>
<event>
 4    1  0.5722454E+002  0.2809844E+02  0.7546771E-02  0.1436875E+00
          2   -1    0    0  503    0  0.00000000000E+00  0.00000000000E+00  0.12831963044E+03  0.12831963044E+03  0.00000000000E+00 0.  1.
         -2   -1    0    0    0  501 -0.00000000000E+00 -0.00000000000E+00 -0.10707813920E+02  0.10707813920E+02  0.00000000000E+00 0. -1.
         21    1    1    2  502  501  0.42251957984E+00  0.28095264524E+02  0.13467532213E+02  0.31159217503E+02  0.00000000000E+00 0. -1.
         21    1    1    2  503  502 -0.42251957984E+00 -0.28095264524E+02  0.10414428430E+03  0.10786822685E+03  0.00000000000E+00 0.  1.
</event>
<event>
 4    1  0.5722454E+002  0.4554275E+02  0.7546771E-02  0.1318748E+00
          2   -1    0    0  503    0  0.00000000000E+00  0.00000000000E+00  0.97532820292E+03  0.97532820292E+03  0.00000000000E+00 0. -1.
         -2   -1    0    0    0  501 -0.00000000000E+00 -0.00000000000E+00 -0.27326813782E+01  0.27326813782E+01  0.00000000000E+00 0.  1.
         21    1    1    2  502  501  0.46148926672E+01 -0.45308330843E+02  0.25599268185E+03  0.26001229825E+03  0.00000000000E+00 0.  1.
         21    1    1    2  503  502 -0.46148926672E+01  0.45308330843E+02  0.71660283970E+03  0.71804858606E+03  0.00000000000E+00 0. -1.
</event>
<event>
 4    1  0.5722454E+002  0.3454053E+02  0.7546771E-02  0.1383822E+00
          2   -1    0    0  503    0  0.00000000000E+00  0.00000000000E+00  0.77674420664E+02  0.77674420664E+02  0.00000000000E+00 0. -1.
         -2   -1    0    0    0  501 -0.00000000000E+00 -0.00000000000E+00 -0.72754015553E+02  0.72754015553E+02  0.00000000000E+00 0.  1.
         21    1    1    2  502  501  0.22207968443E+02  0.26454754694E+02 -0.64344384805E+02  0.73029088479E+02  0.00000000000E+00 0.  1.
         21    1    1    2  503  502 -0.22207968443E+02 -0.26454754694E+02  0.69264789915E+02  0.77399347738E+02  0.00000000000E+00 0. -1.
</event>
<event>
 4    1  0.5722454E+002  0.2605865E+02  0.7546771E-02  0.1457300E+00
          2   -1    0    0  502    0  0.00000000000E+00  0.00000000000E+00  0.11227909776E+04  0.11227909776E+04  0.00000000000E+00 0. -1.
         -2   -1    0    0    0  501 -0.00000000000E+00 -0.00000000000E+00 -0.45090241560E+01  0.45090241560E+01  0.00000000000E+00 0.  1.
         21    1    1    2  502  503  0.55269363033E+01 -0.25465785184E+02  0.10836296761E+04  0.10839429543E+04  0.00000000000E+00 0. -1.
         21    1    1    2  503  501 -0.55269363033E+01  0.25465785184E+02  0.34652277372E+02  0.43357047490E+02  0.00000000000E+00 0.  1.
</event>
<event>
 4    1  0.5722454E+002  0.3228210E+02  0.7546771E-02  0.1400749E+00
          2   -1    0    0  503    0  0.00000000000E+00  0.00000000000E+00  0.12742780642E+04  0.12742780642E+04  0.00000000000E+00 0.  1.
         -2   -1    0    0    0  501 -0.00000000000E+00 -0.00000000000E+00 -0.10531567786E+01  0.10531567786E+01  0.00000000000E+00 0. -1.
         21    1    1    2  502  501 -0.25514071429E+02 -0.19777915141E+02  0.33518089560E+03  0.33673189119E+03  0.00000000000E+00 0. -1.
         21    1    1    2  503  502  0.25514071429E+02  0.19777915141E+02  0.93804401178E+03  0.93859932975E+03  0.00000000000E+00 0.  1.
</event>
<event>
 4    1  0.5722454E+002  0.3741520E+02  0.7546771E-02  0.1364337E+00
          2   -1    0    0  503    0  0.00000000000E+00  0.00000000000E+00  0.22476873762E+04  0.22476873762E+04  0.00000000000E+00 0.  1.
         -2   -1    0    0    0  501 -0.00000000000E+00 -0.00000000000E+00 -0.85040193091E+00  0.85040193091E+00  0.00000000000E+00 0. -1.
         21    1    1    2  502  501 -0.25054875867E+02 -0.27787587680E+02  0.54181060745E+03  0.54310094014E+03  0.00000000000E+00 0. -1.
         21    1    1    2  503  502  0.25054875867E+02  0.27787587680E+02  0.17050263668E+04  0.17054368380E+04  0.00000000000E+00 0.  1.
</event>
<event>
 4    1  0.5722454E+002  0.2126264E+02  0.7546771E-02  0.1515548E+00
          2   -1    0    0  503    0  0.00000000000E+00  0.00000000000E+00  0.87659527440E+03  0.87659527440E+03  0.00000000000E+00 0. -1.
         -2   -1    0    0    0  501 -0.00000000000E+00 -0.00000000000E+00 -0.26753500332E+01  0.26753500332E+01  0.00000000000E+00 0.  1.
         21    1    1    2  502  501  0.80863651167E+01  0.19664952813E+02  0.41966940115E+02  0.47045974669E+02  0.00000000000E+00 0.  1.
         21    1    1    2  503  502 -0.80863651167E+01 -0.19664952813E+02  0.83195298425E+03  0.83222464976E+03  0.00000000000E+00 0. -1.
</event>
<event>
 4    1  0.5722454E+002  0.2120761E+02  0.7546771E-02  0.1516321E+00
          2   -1    0    0  503    0  0.00000000000E+00  0.00000000000E+00  0.11446225967E+04  0.11446225967E+04  0.00000000000E+00 0. -1.
         -2   -1    0    0    0  501 -0.00000000000E+00 -0.00000000000E+00 -0.63753384709E+00  0.63753384709E+00  0.00000000000E+00 0.  1.
         21    1    1    2  502  501  0.15136130798E+02  0.14854634978E+02  0.21730211850E+03  0.21833454454E+03  0.00000000000E+00 0.  1.
         21    1    1    2  503  502 -0.15136130798E+02 -0.14854634978E+02  0.92668294433E+03  0.92692558598E+03  0.00000000000E+00 0. -1.
</event>
<event>
 4    1  0.5722454E+002  0.2555081E+02  0.7546771E-02  0.1462735E+00
          2   -1    0    0  502    0  0.00000000000E+00  0.00000000000E+00  0.31278169078E+02  0.31278169078E+02  0.00000000000E+00 0. -1.
         -2   -1    0    0    0  501 -0.00000000000E+00 -0.00000000000E+00 -0.52087567499E+02  0.52087567499E+02  0.00000000000E+00 0.  1.
         21    1    1    2  502  503 -0.72405630967E+01  0.24503434559E+02  0.21863506397E+02  0.33628216889E+02  0.00000000000E+00 0. -1.
         21    1    1    2  503  501  0.72405630967E+01 -0.24503434559E+02 -0.42672904818E+02  0.49737519688E+02  0.00000000000E+00 0.  1.
</event>
<event>
 4    1  0.5722454E+002  0.2062698E+02  0.7546771E-02  0.1524658E+00
          2   -1    0    0  502    0  0.00000000000E+00  0.00000000000E+00  0.44829117862E+01  0.44829117862E+01  0.00000000000E+00 0. -1.
         -2   -1    0    0    0  501 -0.00000000000E+00 -0.00000000000E+00 -0.39987951973E+03  0.39987951973E+03  0.00000000000E+00 0.  1.
         21    1    1    2  502  503  0.10462363225E+02 -0.17776708040E+02 -0.21133326980E+02  0.29531168318E+02  0.00000000000E+00 0. -1.
         21    1    1    2  503  501 -0.10462363225E+02  0.17776708040E+02 -0.37426328096E+03  0.37483126320E+03  0.00000000000E+00 0.  1.
</event>
<event>
 4    1  0.5722454E+002  0.3820657E+02  0.7546771E-02  0.1359328E+00
          2   -1    0    0  502    0  0.00000000000E+00  0.00000000000E+00  0.76777867111E+03  0.76777867111E+03  0.00000000000E+00 0.  1.
         -2   -1    0    0    0  501 -0.00000000000E+00 -0.00000000000E+00 -0.71196323137E+01  0.71196323137E+01  0.00000000000E+00 0. -1.
         21    1    1    2  502  503  0.28049764390E+02  0.25941335270E+02  0.71203581787E+03  0.71306012936E+03  0.00000000000E+00 0.  1.
         21    1    1    2  503  501 -0.28049764390E+02 -0.25941335270E+02  0.48623220929E+02  0.61838174063E+02  0.00000000000E+00 0. -1.
</event>
<event>
 4    1  0.5722454E+002  0.2149093E+02  0.7546771E-02  0.1512370E+00
          2   -1    0    0  503    0  0.00000000000E+00  0.00000000000E+00  0.22060053853E+03  0.22060053853E+03  0.00000000000E+00 0.  1.
         -2   -1    0    0    0  501 -0.00000000000E+00 -0.00000000000E+00 -0.23120415478E+01  0.23120415478E+01  0.00000000000E+00 0. -1.
         21    1    1    2  502  501  0.20972120713E+02  0.46936324638E+01  0.74889091532E+02  0.77911719679E+02  0.00000000000E+00 0. -1.
         21    1    1    2  503  502 -0.20972120713E+02 -0.46936324638E+01  0.14339940545E+03  0.14500086040E+03  0.00000000000E+00 0.  1.
</event>
<event>
 4    1  0.5722454E+002  0.2868801E+02  0.7546771E-02  0.1431351E+00
          2   -1    0    0  503    0  0.00000000000E+00  0.00000000000E+00  0.44212000469E+03  0.44212000469E+03  0.00000000000E+00 0.  1.
         -2   -1    0    0    0  501 -0.00000000000E+00 -0.00000000000E+00 -0.42907069265E+01  0.42907069265E+01  0.00000000000E+00 0. -1.
         21    1    1    2  502  501 -0.34276116046E+01  0.28482510206E+02  0.50967224975E+02  0.58486408084E+02  0.00000000000E+00 0. -1.
         21    1    1    2  503  502  0.34276116046E+01 -0.28482510206E+02  0.38686207279E+03  0.38792430353E+03  0.00000000000E+00 0.  1.
</event>
<event>
 4    1  0.5722454E+002  0.2689007E+02  0.7546771E-02  0.1448716E+00
          2   -1    0    0  502    0  0.00000000000E+00  0.00000000000E+00  0.11097289546E+04  0.11097289546E+04  0.00000000000E+00 0.  1.
         -2   -1    0    0    0  501 -0.00000000000E+00 -0.00000000000E+00 -0.65529096668E+00  0.65529096668E+00  0.00000000000E+00 0. -1.
         21    1    1    2  502  503 -0.51390424512E+01 -0.26394429022E+02  0.51274883737E+03  0.51345345053E+03  0.00000000000E+00 0. -1.
         21    1    1    2  503  501  0.51390424512E+01  0.26394429022E+02  0.59632482627E+03  0.59693079503E+03  0.00000000000E+00 0.  1.
</event>
<event>
 4    1  0.5722454E+002  0.2259512E+02  0.7546771E-02  0.1497646E+00
          2   -1    0    0  502    0  0.00000000000E+00  0.00000000000E+00  0.10895553402E+03  0.10895553402E+03  0.00000000000E+00 0. -1.
         -2   -1    0    0    0  501 -0.00000000000E+00 -0.00000000000E+00 -0.73699690969E+01  0.73699690969E+01  0.00000000000E+00 0.  1.
         21    1    1    2  502  503 -0.22358576930E+02  0.32608822298E+01  0.85893856635E+02  0.88816067932E+02  0.00000000000E+00 0. -1.
         21    1    1    2  503  501  0.22358576930E+02 -0.32608822298E+01  0.15691708291E+02  0.27509435188E+02  0.00000000000E+00 0.  1.
</event>
<event>
 4    1  0.5722454E+002  0.2702486E+02  0.7546771E-02  0.1447359E+00
          2   -1    0    0  502    0  0.00000000000E+00  0.00000000000E+00  0.69597932141E+02  0.69597932141E+02  0.00000000000E+00 0.  1.
         -2   -1    0    0    0  501 -0.00000000000E+00 -0.00000000000E+00 -0.25819087746E+02  0.25819087746E+02  0.00000000000E+00 0. -1.
         21    1    1    2  502  503 -0.16821586775E+02 -0.21151289368E+02  0.58645615787E+02  0.64572835423E+02  0.00000000000E+00 0.  1.
         21    1    1    2  503  501  0.16821586775E+02  0.21151289368E+02 -0.14866771392E+02  0.30844184463E+02  0.00000000000E+00 0. -1.
</event>
<event>
 4    1  0.5722454E+002  0.2452124E+02  0.7546771E-02  0.1474231E+00
          2   -1    0    0  503    0  0.00000000000E+00  0.00000000000E+00  0.51477399267E+02  0.51477399267E+02  0.00000000000E+00 0.  1.
         -2   -1    0    0    0  501 -0.00000000000E+00 -0.00000000000E+00 -0.11726917873E+02  0.11726917873E+02  0.00000000000E+00 0. -1.
         21    1    1    2  502  501 -0.12491142883E+02  0.21101250139E+02  0.21859457256E+02  0.32850072747E+02  0.00000000000E+00 0.  1.
         21    1    1    2  503  502  0.12491142883E+02 -0.21101250139E+02  0.17891024138E+02  0.30354244393E+02  0.00000000000E+00 0. -1.
</event>
<event>
 4    1  0.5722454E+002  0.2352066E+02  0.7546771E-02  0.1486062E+00
          2   -1    0    0  502    0  0.00000000000E+00  0.00000000000E+00  0.48693167496E+02  0.48693167496E+02  0.00000000000E+00 0.  1.
         -2   -1    0    0    0  501 -0.00000000000E+00 -0.00000000000E+00 -0.21068634510E+02  0.21068634510E+02  0.00000000000E+00 0. -1.
         21    1    1    2  502  503 -0.23434631867E+02 -0.20098306066E+01  0.37488782433E+02  0.44256414203E+02  0.00000000000E+00 0.  1.
         21    1    1    2  503  501  0.23434631867E+02  0.20098306066E+01 -0.98642494468E+01  0.25505387803E+02  0.00000000000E+00 0. -1.
</event>
<event>
 4    1  0.5722454E+002  0.3050477E+02  0.7546771E-02  0.1415260E+00
          2   -1    0    0  503    0  0.00000000000E+00  0.00000000000E+00  0.61265865206E+02  0.61265865206E+02  0.00000000000E+00 0. -1.
         -2   -1    0    0    0  501 -0.00000000000E+00 -0.00000000000E+00 -0.21628768490E+02  0.21628768490E+02  0.00000000000E+00 0.  1.
         21    1    1    2  502  501 -0.64105194663E+01 -0.29823589876E+02 -0.27981880501E+01  0.30632843963E+02  0.00000000000E+00 0.  1.
         21    1    1    2  503  502  0.64105194663E+01  0.29823589876E+02  0.42435284766E+02  0.52261789733E+02  0.00000000000E+00 0. -1.
</event>
<event>
 4    1  0.5722454E+002  0.3772936E+02  0.7546771E-02  0.1362331E+00
          2   -1    0    0  503    0  0.00000000000E+00  0.00000000000E+00  0.20643953203E+03  0.20643953203E+03  0.00000000000E+00 0. -1.
         -2   -1    0    0    0  501 -0.00000000000E+00 -0.00000000000E+00 -0.11535565552E+02  0.11535565552E+02  0.00000000000E+00 0.  1.
         21    1    1    2  502  501  0.19652537495E+02 -0.32206868959E+02  0.16657446234E+03  0.17079389960E+03  0.00000000000E+00 0. -1.
         21    1    1    2  503  502 -0.19652537495E+02  0.32206868959E+02  0.28329504145E+02  0.47181197984E+02  0.00000000000E+00 0.  1.
</event>
<event>
 4    1  0.5722454E+002  0.2429269E+02  0.7546771E-02  0.1476874E+00
          2   -1    0    0  502    0  0.00000000000E+00  0.00000000000E+00  0.47063540742E+02  0.47063540742E+02  0.00000000000E+00 0. -1.
         -2   -1    0    0    0  501 -0.00000000000E+00 -0.00000000000E+00 -0.23115790407E+02  0.23115790407E+02  0.00000000000E+00 0.  1.
         21    1    1    2  502  503 -0.19469880116E+02  0.14527849613E+02  0.35709445023E+02  0.43189108696E+02  0.00000000000E+00 0. -1.
         21    1    1    2  503  501  0.19469880116E+02 -0.14527849613E+02 -0.11761694688E+02  0.26990222452E+02  0.00000000000E+00 0.  1.
</event>
<event>
 4    1  0.5722454E+002  0.3762411E+02  0.7546771E-02  0.1363000E+00
          2   -1    0    0  503    0  0.00000000000E+00  0.00000000000E+00  0.72278068220E+02  0.72278068220E+02  0.00000000000E+00 0. -1.
         -2   -1    0    0    0  501 -0.00000000000E+00 -0.00000000000E+00 -0.21873589994E+02  0.21873589994E+02  0.00000000000E+00 0.  1.
         21    1    1    2  502  501  0.13729982581E+02 -0.35029428852E+02  0.99753107697E+01  0.38924030268E+02  0.00000000000E+00 0.  1.
         21    1    1    2  503  502 -0.13729982581E+02  0.35029428852E+02  0.40429167456E+02  0.55227627946E+02  0.00000000000E+00 0. -1.
</event>
<event>
 4    1  0.5722454E+002  0.4124324E+02  0.7546771E-02  0.1341351E+00
          2   -1    0    0  503    0  0.00000000000E+00  0.00000000000E+00  0.74203091957E+01  0.74203091957E+01  0.00000000000E+00 0. -1.
         -2   -1    0    0    0  501 -0.00000000000E+00 -0.00000000000E+00 -0.70592934004E+03  0.70592934004E+03  0.00000000000E+00 0.  1.
         21    1    1    2  502  501  0.32814227297E+02 -0.24984621524E+02 -0.64235140441E+03  0.64367408800E+03  0.00000000000E+00 0.  1.
         21    1    1    2  503  502 -0.32814227297E+02  0.24984621524E+02 -0.56157626440E+02  0.69675561233E+02  0.00000000000E+00 0. -1.
</event>
<event>
 4    1  0.5722454E+002  0.2143552E+02  0.7546771E-02  0.1513137E+00
          2   -1    0    0  502    0  0.00000000000E+00  0.00000000000E+00  0.10034993326E+04  0.10034993326E+04  0.00000000000E+00 0.  1.
         -2   -1    0    0    0  501 -0.00000000000E+00 -0.00000000000E+00 -0.28943757587E+01  0.28943757587E+01  0.00000000000E+00 0. -1.
         21    1    1    2  502  503 -0.21360398890E+02 -0.17929484867E+01  0.96198494045E+03  0.96222373020E+03  0.00000000000E+00 0.  1.
         21    1    1    2  503  501  0.21360398890E+02  0.17929484867E+01  0.38620016429E+02  0.44169978197E+02  0.00000000000E+00 0. -1.
</event>
<event>
 4    1  0.5722454E+002  0.3915210E+02  0.7546771E-02  0.1353527E+00
          2   -1    0    0  503    0  0.00000000000E+00  0.00000000000E+00  0.33643750131E+03  0.33643750131E+03  0.00000000000E+00 0. -1.
         -2   -1    0    0    0  501 -0.00000000000E+00 -0.00000000000E+00 -0.24994323459E+02  0.24994323459E+02  0.00000000000E+00 0.  1.
         21    1    1    2  502  501 -0.33566026767E+02  0.20154622047E+02 -0.76949027229E+01  0.39901108640E+02  0.00000000000E+00 0.  1.
         21    1    1    2  503  502  0.33566026767E+02 -0.20154622047E+02  0.31913808058E+03  0.32153071613E+03  0.00000000000E+00 0. -1.
</event>
<event>
 4    1  0.5722454E+002  0.3097956E+02  0.7546771E-02  0.1411271E+00
          2   -1    0    0  502    0  0.00000000000E+00  0.00000000000E+00  0.99980950640E+02  0.99980950640E+02  0.00000000000E+00 0.  1.
         -2   -1    0    0    0  501 -0.00000000000E+00 -0.00000000000E+00 -0.43463412131E+02  0.43463412131E+02  0.00000000000E+00 0. -1.
         21    1    1    2  502  503  0.96590921955E+01  0.29435272539E+02  0.91567311463E+02  0.96665949848E+02  0.00000000000E+00 0.  1.
         21    1    1    2  503  501 -0.96590921955E+01 -0.29435272539E+02 -0.35049772954E+02  0.46778412923E+02  0.00000000000E+00 0. -1.
</event>
<event>
 4    1  0.5722454E+002  0.2117394E+02  0.7546771E-02  0.1516796E+00
          2   -1    0    0  502    0  0.00000000000E+00  0.00000000000E+00  0.18793362678E+02  0.18793362678E+02  0.00000000000E+00 0. -1.
         -2   -1    0    0    0  501 -0.00000000000E+00 -0.00000000000E+00 -0.25656748952E+02  0.25656748952E+02  0.00000000000E+00 0.  1.
         21    1    1    2  502  503 -0.14701304595E+02  0.15238349675E+02  0.24562139618E+01  0.21315924672E+02  0.00000000000E+00 0. -1.
         21    1    1    2  503  501  0.14701304595E+02 -0.15238349675E+02 -0.93196002359E+01  0.23134186957E+02  0.00000000000E+00 0.  1.
</event>
<event>
 4    1  0.5722454E+002  0.8680952E+02  0.7546771E-02  0.1188864E+00
          2   -1    0    0  502    0  0.00000000000E+00  0.00000000000E+00  0.69266694901E+02  0.69266694901E+02  0.00000000000E+00 0.  1.
         -2   -1    0    0    0  501 -0.00000000000E+00 -0.00000000000E+00 -0.16356416970E+03  0.16356416970E+03  0.00000000000E+00 0. -1.
         21    1    1    2  502  503 -0.85561523485E+02  0.14666934793E+02  0.20216092700E+02  0.89132394119E+02  0.00000000000E+00 0.  1.
         21    1    1    2  503  501  0.85561523485E+02 -0.14666934793E+02 -0.11451356749E+03  0.14369847048E+03  0.00000000000E+00 0. -1.
</event>
<event>
 4    1  0.5722454E+002  0.2591189E+02  0.7546771E-02  0.1458855E+00
          2   -1    0    0  502    0  0.00000000000E+00  0.00000000000E+00  0.19436748810E+02  0.19436748810E+02  0.00000000000E+00 0.  1.
         -2   -1    0    0    0  501 -0.00000000000E+00 -0.00000000000E+00 -0.53206859919E+02  0.53206859919E+02  0.00000000000E+00 0. -1.
         21    1    1    2  502  503  0.55893116822E+01 -0.25301895030E+02  0.46264474339E+01  0.26321670028E+02  0.00000000000E+00 0.  1.
         21    1    1    2  503  501 -0.55893116822E+01  0.25301895030E+02 -0.38396558543E+02  0.46321938702E+02  0.00000000000E+00 0. -1.
</event>
<event>
 4    1  0.5722454E+002  0.3693815E+02  0.7546771E-02  0.1367427E+00
          2   -1    0    0  503    0  0.00000000000E+00  0.00000000000E+00  0.19442619511E+03  0.19442619511E+03  0.00000000000E+00 0. -1.
         -2   -1    0    0    0  501 -0.00000000000E+00 -0.00000000000E+00 -0.92131468902E+01  0.92131468902E+01  0.00000000000E+00 0.  1.
         21    1    1    2  502  501  0.36580519409E+02 -0.51276398342E+01  0.42902912362E+02  0.56613487613E+02  0.00000000000E+00 0.  1.
         21    1    1    2  503  502 -0.36580519409E+02  0.51276398342E+01  0.14231013586E+03  0.14702585439E+03  0.00000000000E+00 0. -1.
</event>
<event>
 4    1  0.5722454E+002  0.2271196E+02  0.7546771E-02  0.1496147E+00
          2   -1    0    0  502    0  0.00000000000E+00  0.00000000000E+00  0.51416316626E+02  0.51416316626E+02  0.00000000000E+00 0.  1.
         -2   -1    0    0    0  501 -0.00000000000E+00 -0.00000000000E+00 -0.15410980344E+02  0.15410980344E+02  0.00000000000E+00 0. -1.
         21    1    1    2  502  503  0.22422953759E+02 -0.36117067809E+01  0.37742310410E+02  0.44049009934E+02  0.00000000000E+00 0.  1.
         21    1    1    2  503  501 -0.22422953759E+02  0.36117067809E+01 -0.17369741270E+01  0.22778287035E+02  0.00000000000E+00 0. -1.
</event>
<event>
 4    1  0.5722454E+002  0.2497704E+02  0.7546771E-02  0.1469060E+00
          2   -1    0    0  503    0  0.00000000000E+00  0.00000000000E+00  0.49667290921E+01  0.49667290921E+01  0.00000000000E+00 0.  1.
         -2   -1    0    0    0  501 -0.00000000000E+00 -0.00000000000E+00 -0.12803874793E+03  0.12803874793E+03  0.00000000000E+00 0. -1.
         21    1    1    2  502  501  0.95306686505E+01  0.23087202846E+02 -0.52369826600E+02  0.58021128206E+02  0.00000000000E+00 0.  1.
         21    1    1    2  503  502 -0.95306686505E+01 -0.23087202846E+02 -0.70702192240E+02  0.74984348818E+02  0.00000000000E+00 0. -1.
</event>
<event>
 4    1  0.5722454E+002  0.2315442E+02  0.7546771E-02  0.1490568E+00
          2   -1    0    0  503    0  0.00000000000E+00  0.00000000000E+00  0.42927565990E+02  0.42927565990E+02  0.00000000000E+00 0. -1.
         -2   -1    0    0    0  501 -0.00000000000E+00 -0.00000000000E+00 -0.13604908220E+02  0.13604908220E+02  0.00000000000E+00 0.  1.
         21    1    1    2  502  501 -0.22077883762E+02 -0.69781352282E+01  0.65664196518E+01  0.24067513160E+02  0.00000000000E+00 0.  1.
         21    1    1    2  503  502  0.22077883762E+02  0.69781352282E+01  0.22756238118E+02  0.32464961049E+02  0.00000000000E+00 0. -1.
</event>
<event>
 4    1  0.5722454E+002  0.2261875E+02  0.7546771E-02  0.1497342E+00
          2   -1    0    0  503    0  0.00000000000E+00  0.00000000000E+00  0.30517593093E+03  0.30517593093E+03  0.00000000000E+00 0. -1.
         -2   -1    0    0    0  501 -0.00000000000E+00 -0.00000000000E+00 -0.10363519835E+02  0.10363519835E+02  0.00000000000E+00 0.  1.
         21    1    1    2  502  501 -0.15655287264E+02 -0.16325441781E+02  0.29597059221E+01  0.22811574427E+02  0.00000000000E+00 0.  1.
         21    1    1    2  503  502  0.15655287264E+02  0.16325441781E+02  0.29185270517E+03  0.29272787634E+03  0.00000000000E+00 0. -1.
</event>
<event>
 4    1  0.5722454E+002  0.2865760E+02  0.7546771E-02  0.1431632E+00
          2   -1    0    0  502    0  0.00000000000E+00  0.00000000000E+00  0.72857765337E+03  0.72857765337E+03  0.00000000000E+00 0.  1.
         -2   -1    0    0    0  501 -0.00000000000E+00 -0.00000000000E+00 -0.14754732548E+01  0.14754732548E+01  0.00000000000E+00 0. -1.
         21    1    1    2  502  503 -0.16782335972E+02  0.23229532941E+02  0.54089421250E+03  0.54165284742E+03  0.00000000000E+00 0. -1.
         21    1    1    2  503  501  0.16782335972E+02 -0.23229532941E+02  0.18620796762E+03  0.18840027921E+03  0.00000000000E+00 0.  1.
</event>
<event>
 4    1  0.5722454E+002  0.2996651E+02  0.7546771E-02  0.1419888E+00
          2   -1    0    0  502    0  0.00000000000E+00  0.00000000000E+00  0.49379763403E+03  0.49379763403E+03  0.00000000000E+00 0.  1.
         -2   -1    0    0    0  501 -0.00000000000E+00 -0.00000000000E+00 -0.16743484713E+03  0.16743484713E+03  0.00000000000E+00 0. -1.
         21    1    1    2  502  503 -0.11166627756E+02  0.27808243786E+02  0.49199728847E+03  0.49290904218E+03  0.00000000000E+00 0.  1.
         21    1    1    2  503  501  0.11166627756E+02 -0.27808243786E+02 -0.16563450157E+03  0.16832343898E+03  0.00000000000E+00 0. -1.
</event>
<event>
 4    1  0.5722454E+002  0.2688852E+02  0.7546771E-02  0.1448731E+00
          2   -1    0    0  503    0  0.00000000000E+00  0.00000000000E+00  0.22738281501E+03  0.22738281501E+03  0.00000000000E+00 0.  1.
         -2   -1    0    0    0  501 -0.00000000000E+00 -0.00000000000E+00 -0.74624507538E+01  0.74624507538E+01  0.00000000000E+00 0. -1.
         21    1    1    2  502  501 -0.26055159177E+02  0.66423904248E+01  0.21003997653E+02  0.34119797591E+02  0.00000000000E+00 0. -1.
         21    1    1    2  503  502  0.26055159177E+02 -0.66423904248E+01  0.19891636660E+03  0.20072546817E+03  0.00000000000E+00 0.  1.
</event>
<event>
 4    1  0.5722454E+002  0.3348805E+02  0.7546771E-02  0.1391516E+00
          2   -1    0    0  503    0  0.00000000000E+00  0.00000000000E+00  0.65423109833E+03  0.65423109833E+03  0.00000000000E+00 0.  1.
         -2   -1    0    0    0  501 -0.00000000000E+00 -0.00000000000E+00 -0.33655268436E+01  0.33655268436E+01  0.00000000000E+00 0. -1.
         21    1    1    2  502  501 -0.31267016006E+02  0.11992633651E+02  0.95115632694E+02  0.10083864901E+03  0.00000000000E+00 0. -1.
         21    1    1    2  503  502  0.31267016006E+02 -0.11992633651E+02  0.55574993879E+03  0.55675797616E+03  0.00000000000E+00 0.  1.
</event>
<event>
 4    1  0.5722454E+002  0.2750933E+02  0.7546771E-02  0.1442558E+00
          2   -1    0    0  503    0  0.00000000000E+00  0.00000000000E+00  0.12047672278E+04  0.12047672278E+04  0.00000000000E+00 0. -1.
         -2   -1    0    0    0  501 -0.00000000000E+00 -0.00000000000E+00 -0.84162030849E+01  0.84162030849E+01  0.00000000000E+00 0.  1.
         21    1    1    2  502  501 -0.21674807898E+02  0.16940070573E+02  0.14659090131E+02  0.31171336382E+02  0.00000000000E+00 0.  1.
         21    1    1    2  503  502  0.21674807898E+02 -0.16940070573E+02  0.11816919346E+04  0.11820120945E+04  0.00000000000E+00 0. -1.
</event>
<event>
 4    1  0.5722454E+002  0.3148406E+02  0.7546771E-02  0.1407124E+00
          2   -1    0    0  503    0  0.00000000000E+00  0.00000000000E+00  0.73266369966E+02  0.73266369966E+02  0.00000000000E+00 0. -1.
         -2   -1    0    0    0  501 -0.00000000000E+00 -0.00000000000E+00 -0.13682340224E+02  0.13682340224E+02  0.00000000000E+00 0.  1.
         21    1    1    2  502  501 -0.23066675247E+02  0.21428358895E+02  0.25194846341E+02  0.40324017087E+02  0.00000000000E+00 0. -1.
         21    1    1    2  503  502  0.23066675247E+02 -0.21428358895E+02  0.34389183402E+02  0.46624693103E+02  0.00000000000E+00 0.  1.
</event>
<event>
 4    1  0.5722454E+002  0.2117539E+02  0.7546771E-02  0.1516775E+00
          2   -1    0    0  502    0  0.00000000000E+00  0.00000000000E+00  0.32053909570E+02  0.32053909570E+02  0.00000000000E+00 0.  1.
         -2   -1    0    0    0  501 -0.00000000000E+00 -0.00000000000E+00 -0.18220477930E+02  0.18220477930E+02  0.00000000000E+00 0. -1.
         21    1    1    2  502  503  0.20238925910E+02 -0.62276122488E+01  0.19030804216E+02  0.28470489729E+02  0.00000000000E+00 0.  1.
         21    1    1    2  503  501 -0.20238925910E+02  0.62276122488E+01 -0.51973725752E+01  0.21803897771E+02  0.00000000000E+00 0. -1.
</event>
<event>
 4    1  0.5722454E+002  0.2746035E+02  0.7546771E-02  0.1443038E+00
          2   -1    0    0  502    0  0.00000000000E+00  0.00000000000E+00  0.16454390667E+04  0.16454390667E+04  0.00000000000E+00 0.  1.
         -2   -1    0    0    0  501 -0.00000000000E+00 -0.00000000000E+00 -0.50043275288E+00  0.50043275288E+00  0.00000000000E+00 0. -1.
         21    1    1    2  502  503 -0.24934093385E+02 -0.11504858899E+02  0.10613203845E+04  0.10616755763E+04  0.00000000000E+00 0.  1.
         21    1    1    2  503  501  0.24934093385E+02  0.11504858899E+02  0.58361824943E+03  0.58426392312E+03  0.00000000000E+00 0. -1.
</event>
<event>
 4    1  0.5722454E+002  0.2584577E+02  0.7546771E-02  0.1459560E+00
          2   -1    0    0  503    0  0.00000000000E+00  0.00000000000E+00  0.56569844314E+03  0.56569844314E+03  0.00000000000E+00 0. -1.
         -2   -1    0    0    0  501 -0.00000000000E+00 -0.00000000000E+00 -0.14862065875E+01  0.14862065875E+01  0.00000000000E+00 0.  1.
         21    1    1    2  502  501  0.23587655965E+02  0.10565327601E+02  0.15355962907E+03  0.15571950213E+03  0.00000000000E+00 0.  1.
         21    1    1    2  503  502 -0.23587655965E+02 -0.10565327601E+02  0.41065260748E+03  0.41146514760E+03  0.00000000000E+00 0. -1.
</event>
<event>
 4    1  0.5722454E+002  0.2921506E+02  0.7546771E-02  0.1426542E+00
          2   -1    0    0  502    0  0.00000000000E+00  0.00000000000E+00  0.23838573827E+03  0.23838573827E+03  0.00000000000E+00 0. -1.
         -2   -1    0    0    0  501 -0.00000000000E+00 -0.00000000000E+00 -0.48608015845E+01  0.48608015845E+01  0.00000000000E+00 0.  1.
         21    1    1    2  502  503  0.23076064409E+02 -0.17916883875E+02  0.17918387747E+03  0.18154994195E+03  0.00000000000E+00 0. -1.
         21    1    1    2  503  501 -0.23076064409E+02  0.17916883875E+02  0.54341059210E+02  0.61696597901E+02  0.00000000000E+00 0.  1.
</event>
<event>
 4    1  0.5722454E+002  0.2050842E+02  0.7546771E-02  0.1526400E+00
          2   -1    0    0  502    0  0.00000000000E+00  0.00000000000E+00  0.31164370718E+03  0.31164370718E+03  0.00000000000E+00 0. -1.
         -2   -1    0    0    0  501 -0.00000000000E+00 -0.00000000000E+00 -0.28650679163E+01  0.28650679163E+01  0.00000000000E+00 0.  1.
         21    1    1    2  502  503  0.10069891722E+02  0.17865965494E+02  0.26875828190E+03  0.26953962516E+03  0.00000000000E+00 0. -1.
         21    1    1    2  503  501 -0.10069891722E+02 -0.17865965494E+02  0.40020357362E+02  0.44969149933E+02  0.00000000000E+00 0.  1.
</event>
<event>
 4    1  0.5722454E+002  0.2252461E+02  0.7546771E-02  0.1498555E+00
          2   -1    0    0  503    0  0.00000000000E+00  0.00000000000E+00  0.40220925537E+02  0.40220925537E+02  0.00000000000E+00 0.  1.
         -2   -1    0    0    0  501 -0.00000000000E+00 -0.00000000000E+00 -0.12645709068E+02  0.12645709068E+02  0.00000000000E+00 0. -1.
         21    1    1    2  502  501 -0.17378006366E+02 -0.14330493896E+02  0.15105322036E+02  0.27120636319E+02  0.00000000000E+00 0.  1.
         21    1    1    2  503  502  0.17378006366E+02  0.14330493896E+02  0.12469894433E+02  0.25745998286E+02  0.00000000000E+00 0. -1.
</event>
<event>
 4    1  0.5722454E+002  0.4691292E+02  0.7546771E-02  0.1312142E+00
          2   -1    0    0  502    0  0.00000000000E+00  0.00000000000E+00  0.89155590270E+01  0.89155590270E+01  0.00000000000E+00 0. -1.
         -2   -1    0    0    0  501 -0.00000000000E+00 -0.00000000000E+00 -0.30364486334E+03  0.30364486334E+03  0.00000000000E+00 0.  1.
         21    1    1    2  502  503 -0.11298333853E+02 -0.45532069771E+02 -0.79776792027E+02  0.92548140293E+02  0.00000000000E+00 0. -1.
         21    1    1    2  503  501  0.11298333853E+02  0.45532069771E+02 -0.21495251229E+03  0.22001228208E+03  0.00000000000E+00 0.  1.
</event>
<event>
 4    1  0.5722454E+002  0.2239461E+02  0.7546771E-02  0.1500243E+00
          2   -1    0    0  502    0  0.00000000000E+00  0.00000000000E+00  0.95015489959E+02  0.95015489959E+02  0.00000000000E+00 0.  1.
         -2   -1    0    0    0  501 -0.00000000000E+00 -0.00000000000E+00 -0.94477429395E+01  0.94477429395E+01  0.00000000000E+00 0. -1.
         21    1    1    2  502  503 -0.12740934058E+02 -0.18417037904E+02  0.77482262620E+02  0.80653702374E+02  0.00000000000E+00 0.  1.
         21    1    1    2  503  501  0.12740934058E+02  0.18417037904E+02  0.80854843992E+01  0.23809530525E+02  0.00000000000E+00 0. -1.
</event>
<event>
 4    1  0.5722454E+002  0.2073299E+02  0.7546771E-02  0.1523111E+00
          2   -1    0    0  502    0  0.00000000000E+00  0.00000000000E+00  0.49450549985E+03  0.49450549985E+03  0.00000000000E+00 0. -1.
         -2   -1    0    0    0  501 -0.00000000000E+00 -0.00000000000E+00 -0.91409613175E+00  0.91409613175E+00  0.00000000000E+00 0.  1.
         21    1    1    2  502  503 -0.45484430658E+01 -0.20227913504E+02  0.30165272610E+03  0.30236438941E+03  0.00000000000E+00 0. -1.
         21    1    1    2  503  501  0.45484430658E+01  0.20227913504E+02  0.19193867761E+03  0.19305520657E+03  0.00000000000E+00 0.  1.
</event>
<event>
 4    1  0.5722454E+002  0.2420255E+02  0.7546771E-02  0.1477926E+00
          2   -1    0    0  503    0  0.00000000000E+00  0.00000000000E+00  0.14778378405E+04  0.14778378405E+04  0.00000000000E+00 0.  1.
         -2   -1    0    0    0  501 -0.00000000000E+00 -0.00000000000E+00 -0.70660883078E+00  0.70660883078E+00  0.00000000000E+00 0. -1.
         21    1    1    2  502  501 -0.24168135212E+02 -0.12902881966E+01  0.24871208440E+03  0.24988690348E+03  0.00000000000E+00 0. -1.
         21    1    1    2  503  502  0.24168135212E+02  0.12902881966E+01  0.12284191473E+04  0.12286575459E+04  0.00000000000E+00 0.  1.
</event>
<event>
 4    1  0.5722454E+002  0.2628526E+02  0.7546771E-02  0.1454923E+00
          2   -1    0    0  502    0  0.00000000000E+00  0.00000000000E+00  0.11365866719E+04  0.11365866719E+04  0.00000000000E+00 0. -1.
         -2   -1    0    0    0  501 -0.00000000000E+00 -0.00000000000E+00 -0.14694506671E+01  0.14694506671E+01  0.00000000000E+00 0.  1.
         21    1    1    2  502  503  0.20128534605E+02  0.16904349590E+02  0.10032712515E+04  0.10036155235E+04  0.00000000000E+00 0. -1.
         21    1    1    2  503  501 -0.20128534605E+02 -0.16904349590E+02  0.13184596972E+03  0.13444059904E+03  0.00000000000E+00 0.  1.
</event>
<event>
 4    1  0.5722454E+002  0.4156051E+02  0.7546771E-02  0.1339576E+00
          2   -1    0    0  502    0  0.00000000000E+00  0.00000000000E+00  0.21666689968E+04  0.21666689968E+04  0.00000000000E+00 0.  1.
         -2   -1    0    0    0  501 -0.00000000000E+00 -0.00000000000E+00 -0.26066088847E+01  0.26066088847E+01  0.00000000000E+00 0. -1.
         21    1    1    2  502  503 -0.22158505142E+02  0.35160727187E+02  0.19857113414E+04  0.19861462201E+04  0.00000000000E+00 0.  1.
         21    1    1    2  503  501  0.22158505142E+02 -0.35160727187E+02  0.17835104647E+03  0.18312938558E+03  0.00000000000E+00 0. -1.
</event>
<event>
 4    1  0.5722454E+002  0.7805976E+02  0.7546771E-02  0.1208425E+00
          2   -1    0    0  502    0  0.00000000000E+00  0.00000000000E+00  0.69470447209E+03  0.69470447209E+03  0.00000000000E+00 0.  1.
         -2   -1    0    0    0  501 -0.00000000000E+00 -0.00000000000E+00 -0.17284581827E+02  0.17284581827E+02  0.00000000000E+00 0. -1.
         21    1    1    2  502  503 -0.73890245084E+02  0.25170560584E+02  0.58855305534E+03  0.59370701898E+03  0.00000000000E+00 0.  1.
         21    1    1    2  503  501  0.73890245084E+02 -0.25170560584E+02  0.88866834920E+02  0.11828203493E+03  0.00000000000E+00 0. -1.
</event>
<event>
 4    1  0.5722454E+002  0.2115878E+02  0.7546771E-02  0.1517010E+00
          2   -1    0    0  502    0  0.00000000000E+00  0.00000000000E+00  0.15581395597E+04  0.15581395597E+04  0.00000000000E+00 0. -1.
         -2   -1    0    0    0  501 -0.00000000000E+00 -0.00000000000E+00 -0.89423599667E+01  0.89423599667E+01  0.00000000000E+00 0.  1.
         21    1    1    2  502  503  0.16900950428E+02  0.12729961256E+02  0.15454488507E+04  0.15455936866E+04  0.00000000000E+00 0. -1.
         21    1    1    2  503  501 -0.16900950428E+02 -0.12729961256E+02  0.37483490515E+01  0.21488233049E+02  0.00000000000E+00 0.  1.
</event>
<event>
 4    1  0.5722454E+002  0.2404652E+02  0.7546771E-02  0.1479759E+00
          2   -1    0    0  502    0  0.00000000000E+00  0.00000000000E+00  0.75785916929E+01  0.75785916929E+01  0.00000000000E+00 0.  1.
         -2   -1    0    0    0  501 -0.00000000000E+00 -0.00000000000E+00 -0.31812455481E+03  0.31812455481E+03  0.00000000000E+00 0. -1.
         21    1    1    2  502  503 -0.21204168940E+02  0.11341012354E+02 -0.13287189472E+02  0.27473346096E+02  0.00000000000E+00 0.  1.
         21    1    1    2  503  501  0.21204168940E+02 -0.11341012354E+02 -0.29725877365E+03  0.29822980041E+03  0.00000000000E+00 0. -1.
</event>
<event>
 4    1  0.5722454E+002  0.2693643E+02  0.7546771E-02  0.1448248E+00
          2   -1    0    0  503    0  0.00000000000E+00  0.00000000000E+00  0.14537697642E+03  0.14537697642E+03  0.00000000000E+00 0. -1.
         -2   -1    0    0    0  501 -0.00000000000E+00 -0.00000000000E+00 -0.96220918523E+02  0.96220918523E+02  0.00000000000E+00 0.  1.
         21    1    1    2  502  501 -0.19831199634E+02 -0.18228949919E+02 -0.93046292999E+02  0.96866835061E+02  0.00000000000E+00 0.  1.
         21    1    1    2  503  502  0.19831199634E+02  0.18228949919E+02  0.14220235090E+03  0.14473105989E+03  0.00000000000E+00 0. -1.
</event>
<event>
 4    1  0.5722454E+002  0.2025573E+02  0.7546771E-02  0.1530162E+00
          2   -1    0    0  503    0  0.00000000000E+00  0.00000000000E+00  0.75725686816E+02  0.75725686816E+02  0.00000000000E+00 0.  1.
         -2   -1    0    0    0  501 -0.00000000000E+00 -0.00000000000E+00 -0.57222443800E+01  0.57222443800E+01  0.00000000000E+00 0. -1.
         21    1    1    2  502  501 -0.12079401637E+02  0.16259852923E+02  0.25614097400E+02  0.32655424459E+02  0.00000000000E+00 0. -1.
         21    1    1    2  503  502  0.12079401637E+02 -0.16259852923E+02  0.44389345036E+02  0.48792506737E+02  0.00000000000E+00 0.  1.
</event>
<event>
 4    1  0.5722454E+002  0.2281358E+02  0.7546771E-02  0.1494852E+00
          2   -1    0    0  503    0  0.00000000000E+00  0.00000000000E+00  0.10086510893E+04  0.10086510893E+04  0.00000000000E+00 0. -1.
         -2   -1    0    0    0  501 -0.00000000000E+00 -0.00000000000E+00 -0.91708871758E+00  0.91708871758E+00  0.00000000000E+00 0.  1.
         21    1    1    2  502  501  0.22652101620E+02 -0.27095683734E+01  0.17003911084E+03  0.17156269608E+03  0.00000000000E+00 0.  1.
         21    1    1    2  503  502 -0.22652101620E+02  0.27095683734E+01  0.83769488969E+03  0.83800548190E+03  0.00000000000E+00 0. -1.
</event>
<event>
 4    1  0.5722454E+002  0.2806768E+02  0.7546771E-02  0.1437168E+00
          2   -1    0    0  502    0  0.00000000000E+00  0.00000000000E+00  0.44027717507E+02  0.44027717507E+02  0.00000000000E+00 0.  1.
         -2   -1    0    0    0  501 -0.00000000000E+00 -0.00000000000E+00 -0.62722183597E+02  0.62722183597E+02  0.00000000000E+00 0. -1.
         21    1    1    2  502  503 -0.13606885112E+01  0.28034676556E+02  0.35776662819E+02  0.45472674930E+02  0.00000000000E+00 0.  1.
         21    1    1    2  503  501  0.13606885112E+01 -0.28034676556E+02 -0.54471128909E+02  0.61277226173E+02  0.00000000000E+00 0. -1.
</event>
<event>
 4    1  0.5722454E+002  0.2542069E+02  0.7546771E-02  0.1464152E+00
          2   -1    0    0  502    0  0.00000000000E+00  0.00000000000E+00  0.84497258152E+01  0.84497258152E+01  0.00000000000E+00 0.  1.
         -2   -1    0    0    0  501 -0.00000000000E+00 -0.00000000000E+00 -0.11763326962E+03  0.11763326962E+03  0.00000000000E+00 0. -1.
         21    1    1    2  502  503 -0.18018245825E+02  0.17931931629E+02 -0.17302972959E+02  0.30750678493E+02  0.00000000000E+00 0.  1.
         21    1    1    2  503  501  0.18018245825E+02 -0.17931931629E+02 -0.91880570841E+02  0.95332316937E+02  0.00000000000E+00 0. -1.
</event>
<event>
 4    1  0.5722454E+002  0.2998167E+02  0.7546771E-02  0.1419756E+00
          2   -1    0    0  502    0  0.00000000000E+00  0.00000000000E+00  0.83209072595E+02  0.83209072595E+02  0.00000000000E+00 0.  1.
         -2   -1    0    0    0  501 -0.00000000000E+00 -0.00000000000E+00 -0.25557064639E+02  0.25557064639E+02  0.00000000000E+00 0. -1.
         21    1    1    2  502  503 -0.24755379515E+02  0.16913652182E+02  0.70146481533E+02  0.76285184122E+02  0.00000000000E+00 0.  1.
         21    1    1    2  503  501  0.24755379515E+02 -0.16913652182E+02 -0.12494473577E+02  0.32480953111E+02  0.00000000000E+00 0. -1.
</event>
<event>
 4    1  0.5722454E+002  0.2207131E+02  0.7546771E-02  0.1504501E+00
          2   -1    0    0  502    0  0.00000000000E+00  0.00000000000E+00  0.10799416031E+04  0.10799416031E+04  0.00000000000E+00 0.  1.
         -2   -1    0    0    0  501 -0.00000000000E+00 -0.00000000000E+00 -0.17635655902E+01  0.17635655902E+01  0.00000000000E+00 0. -1.
         21    1    1    2  502  503  0.44125946013E+01  0.21625715075E+02  0.10056731801E+04  0.10059153482E+04  0.00000000000E+00 0.  1.
         21    1    1    2  503  501 -0.44125946013E+01 -0.21625715075E+02  0.72504857345E+02  0.75789820439E+02  0.00000000000E+00 0. -1.
</event>
<event>
 4    1  0.5722454E+002  0.2445122E+02  0.7546771E-02  0.1475037E+00
          2   -1    0    0  502    0  0.00000000000E+00  0.00000000000E+00  0.58869314057E+03  0.58869314057E+03  0.00000000000E+00 0. -1.
         -2   -1    0    0    0  501 -0.00000000000E+00 -0.00000000000E+00 -0.40181055671E+01  0.40181055671E+01  0.00000000000E+00 0.  1.
         21    1    1    2  502  503  0.23733780424E+02 -0.58795912531E+01  0.54851811416E+03  0.54906282289E+03  0.00000000000E+00 0. -1.
         21    1    1    2  503  501 -0.23733780424E+02  0.58795912531E+01  0.36156920846E+02  0.43648423243E+02  0.00000000000E+00 0.  1.
</event>
<event>
 4    1  0.5722454E+002  0.2374192E+02  0.7546771E-02  0.1483386E+00
          2   -1    0    0  503    0  0.00000000000E+00  0.00000000000E+00  0.73426459130E+03  0.73426459130E+03  0.00000000000E+00 0. -1.
         -2   -1    0    0    0  501 -0.00000000000E+00 -0.00000000000E+00 -0.16640063061E+02  0.16640063061E+02  0.00000000000E+00 0.  1.
         21    1    1    2  502  501 -0.23734753941E+02  0.58323179562E+00 -0.78771844423E+01  0.25014570528E+02  0.00000000000E+00 0.  1.
         21    1    1    2  503  502  0.23734753941E+02 -0.58323179562E+00  0.72550171268E+03  0.72589008384E+03  0.00000000000E+00 0. -1.
</event>
<event>
 4    1  0.5722454E+002  0.2399132E+02  0.7546771E-02  0.1480412E+00
          2   -1    0    0  503    0  0.00000000000E+00  0.00000000000E+00  0.29730394343E+02  0.29730394343E+02  0.00000000000E+00 0. -1.
         -2   -1    0    0    0  501 -0.00000000000E+00 -0.00000000000E+00 -0.63859092563E+02  0.63859092563E+02  0.00000000000E+00 0.  1.
         21    1    1    2  502  501  0.19374659405E+02  0.14149411332E+02 -0.56126918981E+02  0.61039448739E+02  0.00000000000E+00 0.  1.
         21    1    1    2  503  502 -0.19374659405E+02 -0.14149411332E+02  0.21998220760E+02  0.32550038167E+02  0.00000000000E+00 0. -1.
</event>
<event>
 4    1  0.5722454E+002  0.2066403E+02  0.7546771E-02  0.1524116E+00
          2   -1    0    0  503    0  0.00000000000E+00  0.00000000000E+00  0.11146960822E+02  0.11146960822E+02  0.00000000000E+00 0.  1.
         -2   -1    0    0    0  501 -0.00000000000E+00 -0.00000000000E+00 -0.50563922923E+02  0.50563922923E+02  0.00000000000E+00 0. -1.
         21    1    1    2  502  501  0.15769797824E+02  0.13353479715E+02 -0.34900292524E+02  0.40558998535E+02  0.00000000000E+00 0.  1.
         21    1    1    2  503  502 -0.15769797824E+02 -0.13353479715E+02 -0.45166695771E+01  0.21151885211E+02  0.00000000000E+00 0. -1.
</event>
<event>
 4    1  0.5722454E+002  0.2237403E+02  0.7546771E-02  0.1500512E+00
          2   -1    0    0  502    0  0.00000000000E+00  0.00000000000E+00  0.21172354695E+03  0.21172354695E+03  0.00000000000E+00 0.  1.
         -2   -1    0    0    0  501 -0.00000000000E+00 -0.00000000000E+00 -0.58907275821E+01  0.58907275821E+01  0.00000000000E+00 0. -1.
         21    1    1    2  502  503 -0.17184305065E+02  0.14328184681E+02  0.18710142690E+03  0.18843444793E+03  0.00000000000E+00 0.  1.
         21    1    1    2  503  501  0.17184305065E+02 -0.14328184681E+02  0.18731392459E+02  0.29179826598E+02  0.00000000000E+00 0. -1.
</event>
<event>
 4    1  0.5722454E+002  0.4049302E+02  0.7546771E-02  0.1345621E+00
          2   -1    0    0  503    0  0.00000000000E+00  0.00000000000E+00  0.24528795922E+04  0.24528795922E+04  0.00000000000E+00 0.  1.
         -2   -1    0    0    0  501 -0.00000000000E+00 -0.00000000000E+00 -0.80257151928E+00  0.80257151928E+00  0.00000000000E+00 0. -1.
         21    1    1    2  502  501  0.99251154621E+01  0.39257822152E+02  0.72455351565E+03  0.72568414724E+03  0.00000000000E+00 0. -1.
         21    1    1    2  503  502 -0.99251154621E+01 -0.39257822152E+02  0.17275235050E+04  0.17279980165E+04  0.00000000000E+00 0.  1.
</event>
<event>
 4    1  0.5722454E+002  0.2400246E+02  0.7546771E-02  0.1480280E+00
          2   -1    0    0  502    0  0.00000000000E+00  0.00000000000E+00  0.15118443405E+02  0.15118443405E+02  0.00000000000E+00 0. -1.
         -2   -1    0    0    0  501 -0.00000000000E+00 -0.00000000000E+00 -0.47024532394E+02  0.47024532394E+02  0.00000000000E+00 0.  1.
         21    1    1    2  502  503 -0.24002427387E+02  0.41984171803E-01 -0.24222735680E+01  0.24124379626E+02  0.00000000000E+00 0. -1.
         21    1    1    2  503  501  0.24002427387E+02 -0.41984171803E-01 -0.29483815421E+02  0.38018596172E+02  0.00000000000E+00 0.  1.
</event>
<event>
 4    1  0.5722454E+002  0.2464381E+02  0.7546771E-02  0.1472828E+00
          2   -1    0    0  502    0  0.00000000000E+00  0.00000000000E+00  0.25845845187E+02  0.25845845187E+02  0.00000000000E+00 0.  1.
         -2   -1    0    0    0  501 -0.00000000000E+00 -0.00000000000E+00 -0.24127727798E+02  0.24127727798E+02  0.00000000000E+00 0. -1.
         21    1    1    2  502  503  0.15044686271E+02 -0.19518575539E+02  0.48968071093E+01  0.25125606379E+02  0.00000000000E+00 0.  1.
         21    1    1    2  503  501 -0.15044686271E+02  0.19518575539E+02 -0.31786897205E+01  0.24847966605E+02  0.00000000000E+00 0. -1.
</event>
<event>
 4    1  0.5722454E+002  0.4393718E+02  0.7546771E-02  0.1326840E+00
          2   -1    0    0  502    0  0.00000000000E+00  0.00000000000E+00  0.39833785852E+03  0.39833785852E+03  0.00000000000E+00 0.  1.
         -2   -1    0    0    0  501 -0.00000000000E+00 -0.00000000000E+00 -0.66222522308E+01  0.66222522308E+01  0.00000000000E+00 0. -1.
         21    1    1    2  502  503  0.30893994853E+02 -0.31241582075E+02  0.30071343862E+03  0.30390631375E+03  0.00000000000E+00 0.  1.
         21    1    1    2  503  501 -0.30893994853E+02  0.31241582075E+02  0.91002167672E+02  0.10105379701E+03  0.00000000000E+00 0. -1.
</event>
<event>
 4    1  0.5722454E+002  0.2659932E+02  0.7546771E-02  0.1451675E+00
          2   -1    0    0  503    0  0.00000000000E+00  0.00000000000E+00  0.46184228516E+03  0.46184228516E+03  0.00000000000E+00 0.  1.
         -2   -1    0    0    0  501 -0.00000000000E+00 -0.00000000000E+00 -0.49760448510E+01  0.49760448510E+01  0.00000000000E+00 0. -1.
         21    1    1    2  502  501  0.16888594315E+02 -0.20549920727E+02  0.34249456958E+02  0.43365299050E+02  0.00000000000E+00 0. -1.
         21    1    1    2  503  502 -0.16888594315E+02  0.20549920727E+02  0.42261678335E+03  0.42345303096E+03  0.00000000000E+00 0.  1.
</event>
<event>
 4    1  0.5722454E+002  0.2026034E+02  0.7546771E-02  0.1530092E+00
          2   -1    0    0  502    0  0.00000000000E+00  0.00000000000E+00  0.13052723273E+04  0.13052723273E+04  0.00000000000E+00 0.  1.
         -2   -1    0    0    0  501 -0.00000000000E+00 -0.00000000000E+00 -0.10319144904E+01  0.10319144904E+01  0.00000000000E+00 0. -1.
         21    1    1    2  502  503 -0.58453601500E+01  0.19398791939E+02  0.11967278956E+04  0.11968993849E+04  0.00000000000E+00 0.  1.
         21    1    1    2  503  501  0.58453601500E+01 -0.19398791939E+02  0.10751251725E+03  0.10940485697E+03  0.00000000000E+00 0. -1.
</event>
<event>
 4    1  0.5722454E+002  0.2454190E+02  0.7546771E-02  0.1473994E+00
          2   -1    0    0  502    0  0.00000000000E+00  0.00000000000E+00  0.23198787622E+03  0.23198787622E+03  0.00000000000E+00 0.  1.
         -2   -1    0    0    0  501 -0.00000000000E+00 -0.00000000000E+00 -0.29648189436E+01  0.29648189436E+01  0.00000000000E+00 0. -1.
         21    1    1    2  502  503 -0.17423519478E+02  0.17283690633E+02  0.15593002094E+03  0.15784953729E+03  0.00000000000E+00 0.  1.
         21    1    1    2  503  501  0.17423519478E+02 -0.17283690633E+02  0.73093036336E+02  0.77103157872E+02  0.00000000000E+00 0. -1.
</event>
<event>
 4    1  0.5722454E+002  0.2278687E+02  0.7546771E-02  0.1495192E+00
          2   -1    0    0  503    0  0.00000000000E+00  0.00000000000E+00  0.11455295568E+04  0.11455295568E+04  0.00000000000E+00 0. -1.
         -2   -1    0    0    0  501 -0.00000000000E+00 -0.00000000000E+00 -0.82599652543E+00  0.82599652543E+00  0.00000000000E+00 0.  1.
         21    1    1    2  502  501 -0.11880768165E+02 -0.19444501238E+02  0.18732425872E+03  0.18870511171E+03  0.00000000000E+00 0.  1.
         21    1    1    2  503  502  0.11880768165E+02  0.19444501238E+02  0.95737930160E+03  0.95765044166E+03  0.00000000000E+00 0. -1.
</event>
<event>
 4    1  0.5722454E+002  0.2175639E+02  0.7546771E-02  0.1508734E+00
          2   -1    0    0  502    0  0.00000000000E+00  0.00000000000E+00  0.35843006961E+03  0.35843006961E+03  0.00000000000E+00 0.  1.
         -2   -1    0    0    0  501 -0.00000000000E+00 -0.00000000000E+00 -0.27189433690E+01  0.27189433690E+01  0.00000000000E+00 0. -1.
         21    1    1    2  502  503  0.17228610228E+02 -0.13285911853E+02  0.30735392046E+03  0.30812298338E+03  0.00000000000E+00 0.  1.
         21    1    1    2  503  501 -0.17228610228E+02  0.13285911853E+02  0.48357205777E+02  0.53026029596E+02  0.00000000000E+00 0. -1.
</event>
<event>
 4    1  0.5722454E+002  0.3925641E+02  0.7546771E-02  0.1352899E+00
          2   -1    0    0  502    0  0.00000000000E+00  0.00000000000E+00  0.11344633121E+04  0.11344633121E+04  0.00000000000E+00 0.  1.
         -2   -1    0    0    0  501 -0.00000000000E+00 -0.00000000000E+00 -0.34446273707E+01  0.34446273707E+01  0.00000000000E+00 0. -1.
         21    1    1    2  502  503 -0.14119297575E+02  0.36629379379E+02  0.10082871187E+04  0.10090510293E+04  0.00000000000E+00 0.  1.
         21    1    1    2  503  501  0.14119297575E+02 -0.36629379379E+02  0.12273156597E+03  0.12885691011E+03  0.00000000000E+00 0. -1.
</event>
<event>
 4    1  0.5722454E+002  0.2512134E+02  0.7546771E-02  0.1467450E+00
          2   -1    0    0  503    0  0.00000000000E+00  0.00000000000E+00  0.13521597156E+04  0.13521597156E+04  0.00000000000E+00 0.  1.
         -2   -1    0    0    0  501 -0.00000000000E+00 -0.00000000000E+00 -0.98028761691E+00  0.98028761691E+00  0.00000000000E+00 0. -1.
         21    1    1    2  502  501 -0.77378447158E+01 -0.23899946025E+02  0.18588501617E+03  0.18757484079E+03  0.00000000000E+00 0. -1.
         21    1    1    2  503  502  0.77378447158E+01  0.23899946025E+02  0.11652944118E+04  0.11655651624E+04  0.00000000000E+00 0.  1.
</event>
<event>
 4    1  0.5722454E+002  0.2124620E+02  0.7546771E-02  0.1515779E+00
          2   -1    0    0  502    0  0.00000000000E+00  0.00000000000E+00  0.28285249510E+02  0.28285249510E+02  0.00000000000E+00 0. -1.
         -2   -1    0    0    0  501 -0.00000000000E+00 -0.00000000000E+00 -0.21107834218E+02  0.21107834218E+02  0.00000000000E+00 0.  1.
         21    1    1    2  502  503  0.60068043664E+00 -0.21237710881E+02  0.15786280174E+02  0.26468997377E+02  0.00000000000E+00 0. -1.
         21    1    1    2  503  501 -0.60068043664E+00  0.21237710881E+02 -0.86088648812E+01  0.22924086350E+02  0.00000000000E+00 0.  1.
</event>
<event>
 4    1  0.5722454E+002  0.4157706E+02  0.7546771E-02  0.1339484E+00
          2   -1    0    0  503    0  0.00000000000E+00  0.00000000000E+00  0.24674787035E+01  0.24674787035E+01  0.00000000000E+00 0. -1.
         -2   -1    0    0    0  501 -0.00000000000E+00 -0.00000000000E+00 -0.10343797768E+04  0.10343797768E+04  0.00000000000E+00 0.  1.
         21    1    1    2  502  501 -0.24716671467E+01  0.41503529425E+02 -0.81046037041E+03  0.81152613273E+03  0.00000000000E+00 0.  1.
         21    1    1    2  503  502  0.24716671467E+01 -0.41503529425E+02 -0.22145192767E+03  0.22532112276E+03  0.00000000000E+00 0. -1.
</event>
<event>
 4    1  0.5722454E+002  0.2314015E+02  0.7546771E-02  0.1490746E+00
          2   -1    0    0  502    0  0.00000000000E+00  0.00000000000E+00  0.13131441718E+01  0.13131441718E+01  0.00000000000E+00 0.  1.
         -2   -1    0    0    0  501 -0.00000000000E+00 -0.00000000000E+00 -0.40961030138E+03  0.40961030138E+03  0.00000000000E+00 0. -1.
         21    1    1    2  502  503  0.23792224292E+01 -0.23017512714E+02 -0.19039331593E+03  0.19179437255E+03  0.00000000000E+00 0.  1.
         21    1    1    2  503  501 -0.23792224292E+01  0.23017512714E+02 -0.21790384128E+03  0.21912907300E+03  0.00000000000E+00 0. -1.
</event>
<event>
 4    1  0.5722454E+002  0.2035474E+02  0.7546771E-02  0.1528680E+00
          2   -1    0    0  503    0  0.00000000000E+00  0.00000000000E+00  0.17983341672E+03  0.17983341672E+03  0.00000000000E+00 0. -1.
         -2   -1    0    0    0  501 -0.00000000000E+00 -0.00000000000E+00 -0.25124476857E+01  0.25124476857E+01  0.00000000000E+00 0.  1.
         21    1    1    2  502  501  0.13868413085E+02  0.14899079866E+02  0.62391940783E+02  0.65628269343E+02  0.00000000000E+00 0.  1.
         21    1    1    2  503  502 -0.13868413085E+02 -0.14899079866E+02  0.11492902825E+03  0.11671759507E+03  0.00000000000E+00 0. -1.
</event>
<event>
 4    1  0.5722454E+002  0.2714580E+02  0.7546771E-02  0.1446149E+00
          2   -1    0    0  502    0  0.00000000000E+00  0.00000000000E+00  0.37205805754E+03  0.37205805754E+03  0.00000000000E+00 0. -1.
         -2   -1    0    0    0  501 -0.00000000000E+00 -0.00000000000E+00 -0.80445931541E+01  0.80445931541E+01  0.00000000000E+00 0.  1.
         21    1    1    2  502  503  0.13218784879E+02 -0.23709877524E+02  0.34701228517E+03  0.34807243589E+03  0.00000000000E+00 0. -1.
         21    1    1    2  503  501 -0.13218784879E+02  0.23709877524E+02  0.17001179218E+02  0.32030214809E+02  0.00000000000E+00 0.  1.
</event>
<event>
 4    1  0.5722454E+002  0.2315888E+02  0.7546771E-02  0.1490513E+00
          2   -1    0    0  502    0  0.00000000000E+00  0.00000000000E+00  0.10628037699E+03  0.10628037699E+03  0.00000000000E+00 0.  1.
         -2   -1    0    0    0  501 -0.00000000000E+00 -0.00000000000E+00 -0.76053693363E+01  0.76053693363E+01  0.00000000000E+00 0. -1.
         21    1    1    2  502  503  0.20267224010E+02  0.11205949379E+02  0.82367723532E+02  0.85561530786E+02  0.00000000000E+00 0.  1.
         21    1    1    2  503  501 -0.20267224010E+02 -0.11205949379E+02  0.16307284122E+02  0.28324215541E+02  0.00000000000E+00 0. -1.
</event>
<event>
 4    1  0.5722454E+002  0.2600436E+02  0.7546771E-02  0.1457874E+00
          2   -1    0    0  502    0  0.00000000000E+00  0.00000000000E+00  0.57956886328E+01  0.57956886328E+01  0.00000000000E+00 0.  1.
         -2   -1    0    0    0  501 -0.00000000000E+00 -0.00000000000E+00 -0.15007101248E+03  0.15007101248E+03  0.00000000000E+00 0. -1.
         21    1    1    2  502  503 -0.25827835192E+02  0.30248661412E+01 -0.35375121443E+02  0.43904738958E+02  0.00000000000E+00 0.  1.
         21    1    1    2  503  501  0.25827835192E+02 -0.30248661412E+01 -0.10890020240E+03  0.11196196215E+03  0.00000000000E+00 0. -1.
</event>
<event>
 4    1  0.5722454E+002  0.2086409E+02  0.7546771E-02  0.1521214E+00
          2   -1    0    0  502    0  0.00000000000E+00  0.00000000000E+00  0.10050904042E+04  0.10050904042E+04  0.00000000000E+00 0.  1.
         -2   -1    0    0    0  501 -0.00000000000E+00 -0.00000000000E+00 -0.45042564021E+00  0.45042564021E+00  0.00000000000E+00 0. -1.
         21    1    1    2  502  503  0.61210653635E+01 -0.19945994362E+02  0.60091035650E+03  0.60127245628E+03  0.00000000000E+00 0. -1.
         21    1    1    2  503  501 -0.61210653635E+01  0.19945994362E+02  0.40372962202E+03  0.40426837352E+03  0.00000000000E+00 0.  1.
</event>
<event>
 4    1  0.5722454E+002  0.3206940E+02  0.7546771E-02  0.1402426E+00
          2   -1    0    0  502    0  0.00000000000E+00  0.00000000000E+00  0.75568810051E+03  0.75568810051E+03  0.00000000000E+00 0. -1.
         -2   -1    0    0    0  501 -0.00000000000E+00 -0.00000000000E+00 -0.14788374627E+01  0.14788374627E+01  0.00000000000E+00 0.  1.
         21    1    1    2  502  503  0.31596310509E+02  0.54881222319E+01  0.27021064745E+03  0.27210703834E+03  0.00000000000E+00 0.  1.
         21    1    1    2  503  501 -0.31596310509E+02 -0.54881222319E+01  0.48399861560E+03  0.48505989963E+03  0.00000000000E+00 0. -1.
</event>
<event>
 4    1  0.5722454E+002  0.2694696E+02  0.7546771E-02  0.1448142E+00
          2   -1    0    0  502    0  0.00000000000E+00  0.00000000000E+00  0.47282301046E+03  0.47282301046E+03  0.00000000000E+00 0. -1.
         -2   -1    0    0    0  501 -0.00000000000E+00 -0.00000000000E+00 -0.29657223814E+01  0.29657223814E+01  0.00000000000E+00 0.  1.
         21    1    1    2  502  503 -0.52442392411E+01  0.26431738771E+02  0.40011814423E+03  0.40102452319E+03  0.00000000000E+00 0. -1.
         21    1    1    2  503  501  0.52442392411E+01 -0.26431738771E+02  0.69739143851E+02  0.74764209651E+02  0.00000000000E+00 0.  1.
</event>
<event>
 4    1  0.5722454E+002  0.3896987E+02  0.7546771E-02  0.1354630E+00
          2   -1    0    0  503    0  0.00000000000E+00  0.00000000000E+00  0.17895074218E+03  0.17895074218E+03  0.00000000000E+00 0. -1.
         -2   -1    0    0    0  501 -0.00000000000E+00 -0.00000000000E+00 -0.86334974688E+01  0.86334974688E+01  0.00000000000E+00 0.  1.
         21    1    1    2  502  501 -0.35550083267E+02 -0.15963771488E+02  0.97400615243E+02  0.10490724603E+03  0.00000000000E+00 0. -1.
         21    1    1    2  503  502  0.35550083267E+02  0.15963771488E+02  0.72916629469E+02  0.82676993617E+02  0.00000000000E+00 0.  1.
</event>
<event>
 4    1  0.5722454E+002  0.2059490E+02  0.7546771E-02  0.1525128E+00
          2   -1    0    0  503    0  0.00000000000E+00  0.00000000000E+00  0.40862706038E+03  0.40862706038E+03  0.00000000000E+00 0. -1.
         -2   -1    0    0    0  501 -0.00000000000E+00 -0.00000000000E+00 -0.10663422376E+01  0.10663422376E+01  0.00000000000E+00 0.  1.
         21    1    1    2  502  501  0.18665222237E+02  0.87039770645E+01  0.23718403718E+03  0.23807649450E+03  0.00000000000E+00 0. -1.
         21    1    1    2  503  502 -0.18665222237E+02 -0.87039770645E+01  0.17037668096E+03  0.17161690812E+03  0.00000000000E+00 0.  1.
</event>
<event>
 4    1  0.5722454E+002  0.2126865E+02  0.7546771E-02  0.1515464E+00
          2   -1    0    0  503    0  0.00000000000E+00  0.00000000000E+00  0.10048438404E+04  0.10048438404E+04  0.00000000000E+00 0.  1.
         -2   -1    0    0    0  501 -0.00000000000E+00 -0.00000000000E+00 -0.91411175337E+00  0.91411175337E+00  0.00000000000E+00 0. -1.
         21    1    1    2  502  501 -0.21233929566E+02 -0.12148736042E+01  0.14370911179E+03  0.14527444543E+03  0.00000000000E+00 0. -1.
         21    1    1    2  503  502  0.21233929566E+02  0.12148736042E+01  0.86022061685E+03  0.86048350672E+03  0.00000000000E+00 0.  1.
</event>
<event>
 4    1  0.5722454E+002  0.2081712E+02  0.7546771E-02  0.1521892E+00
          2   -1    0    0  502    0  0.00000000000E+00  0.00000000000E+00  0.30139173935E+03  0.30139173935E+03  0.00000000000E+00 0.  1.
         -2   -1    0    0    0  501 -0.00000000000E+00 -0.00000000000E+00 -0.16292630498E+01  0.16292630498E+01  0.00000000000E+00 0. -1.
         21    1    1    2  502  503  0.72464351435E+01 -0.19515160870E+02  0.20181468569E+03  0.20288548417E+03  0.00000000000E+00 0.  1.
         21    1    1    2  503  501 -0.72464351435E+01  0.19515160870E+02  0.97947790611E+02  0.10013551823E+03  0.00000000000E+00 0. -1.
</event>
<event>
 4    1  0.5722454E+002  0.2071019E+02  0.7546771E-02  0.1523443E+00
          2   -1    0    0  502    0  0.00000000000E+00  0.00000000000E+00  0.76974748970E+01  0.76974748970E+01  0.00000000000E+00 0. -1.
         -2   -1    0    0    0  501 -0.00000000000E+00 -0.00000000000E+00 -0.16417337650E+03  0.16417337650E+03  0.00000000000E+00 0.  1.
         21    1    1    2  502  503 -0.33343857567E+01 -0.20440009520E+02 -0.83921802295E+01  0.22345934900E+02  0.00000000000E+00 0. -1.
         21    1    1    2  503  501  0.33343857567E+01  0.20440009520E+02 -0.14808372138E+03  0.14952491650E+03  0.00000000000E+00 0.  1.
</event>
<event>
 4    1  0.5722454E+002  0.2109488E+02  0.7546771E-02  0.1517914E+00
          2   -1    0    0  503    0  0.00000000000E+00  0.00000000000E+00  0.17461690627E+04  0.17461690627E+04  0.00000000000E+00 0.  1.
         -2   -1    0    0    0  501 -0.00000000000E+00 -0.00000000000E+00 -0.25722431389E+00  0.25722431389E+00  0.00000000000E+00 0. -1.
         21    1    1    2  502  501 -0.12597399258E+02 -0.16920389763E+02  0.78888833723E+03  0.78917032551E+03  0.00000000000E+00 0. -1.
         21    1    1    2  503  502  0.12597399258E+02  0.16920389763E+02  0.95702350115E+03  0.95725596149E+03  0.00000000000E+00 0.  1.
</event>
<event>
 4    1  0.5722454E+002  0.2865097E+02  0.7546771E-02  0.1431693E+00
          2   -1    0    0  502    0  0.00000000000E+00  0.00000000000E+00  0.22724507408E+02  0.22724507408E+02  0.00000000000E+00 0.  1.
         -2   -1    0    0    0  501 -0.00000000000E+00 -0.00000000000E+00 -0.36123935953E+02  0.36123935953E+02  0.00000000000E+00 0. -1.
         21    1    1    2  502  503  0.83767814014E+01  0.27399045498E+02 -0.68467165132E+01  0.29457693186E+02  0.00000000000E+00 0. -1.
         21    1    1    2  503  501 -0.83767814014E+01 -0.27399045498E+02 -0.65527120314E+01  0.29390750174E+02  0.00000000000E+00 0.  1.
</event>
<event>
 4    1  0.5722454E+002  0.2846706E+02  0.7546771E-02  0.1433403E+00
          2   -1    0    0  503    0  0.00000000000E+00  0.00000000000E+00  0.27920411575E+03  0.27920411575E+03  0.00000000000E+00 0.  1.
         -2   -1    0    0    0  501 -0.00000000000E+00 -0.00000000000E+00 -0.17535951813E+02  0.17535951813E+02  0.00000000000E+00 0. -1.
         21    1    1    2  502  501  0.19073632615E+02 -0.21132209728E+02 -0.47022648160E+01  0.28852816908E+02  0.00000000000E+00 0. -1.
         21    1    1    2  503  502 -0.19073632615E+02  0.21132209728E+02  0.26637042876E+03  0.26788725066E+03  0.00000000000E+00 0.  1.
</event>
<event>
 4    1  0.5722454E+002  0.2483250E+02  0.7546771E-02  0.1470686E+00
          2   -1    0    0  502    0  0.00000000000E+00  0.00000000000E+00  0.49709817640E+01  0.49709817640E+01  0.00000000000E+00 0. -1.
         -2   -1    0    0    0  501 -0.00000000000E+00 -0.00000000000E+00 -0.12416414363E+03  0.12416414363E+03  0.00000000000E+00 0.  1.
         21    1    1    2  502  503 -0.51958552527E+01  0.24282831452E+02 -0.61549898129E+02  0.66370496268E+02  0.00000000000E+00 0.  1.
         21    1    1    2  503  501  0.51958552527E+01 -0.24282831452E+02 -0.57643263735E+02  0.62764629124E+02  0.00000000000E+00 0. -1.
</event>
<event>
 4    1  0.5722454E+002  0.3305288E+02  0.7546771E-02  0.1394794E+00
          2   -1    0    0  502    0  0.00000000000E+00  0.00000000000E+00  0.12245310747E+03  0.12245310747E+03  0.00000000000E+00 0. -1.
         -2   -1    0    0    0  501 -0.00000000000E+00 -0.00000000000E+00 -0.11435549157E+02  0.11435549157E+02  0.00000000000E+00 0.  1.
         21    1    1    2  502  503  0.17967550132E+02 -0.27742751383E+02  0.24121576648E+02  0.40918743529E+02  0.00000000000E+00 0. -1.
         21    1    1    2  503  501 -0.17967550132E+02  0.27742751383E+02  0.86895981667E+02  0.92969913100E+02  0.00000000000E+00 0.  1.
</event>
<event>
 4    1  0.5722454E+002  0.8192229E+02  0.7546771E-02  0.1199454E+00
          2   -1    0    0  503    0  0.00000000000E+00  0.00000000000E+00  0.31994693824E+03  0.31994693824E+03  0.00000000000E+00 0.  1.
         -2   -1    0    0    0  501 -0.00000000000E+00 -0.00000000000E+00 -0.22654830008E+02  0.22654830008E+02  0.00000000000E+00 0. -1.
         21    1    1    2  502  501  0.69911818051E+02 -0.42703626546E+02  0.10201660256E+03  0.13083825595E+03  0.00000000000E+00 0. -1.
         21    1    1    2  503  502 -0.69911818051E+02  0.42703626546E+02  0.19527550567E+03  0.21176351229E+03  0.00000000000E+00 0.  1.
</event>
<event>
 4    1  0.5722454E+002  0.4117267E+02  0.7546771E-02  0.1341748E+00
          2   -1    0    0  503    0  0.00000000000E+00  0.00000000000E+00  0.37144162947E+02  0.37144162947E+02  0.00000000000E+00 0.  1.
         -2   -1    0    0    0  501 -0.00000000000E+00 -0.00000000000E+00 -0.58935381035E+02  0.58935381035E+02  0.00000000000E+00 0. -1.
         21    1    1    2  502  501 -0.36701634547E+02 -0.18659558169E+02 -0.33714486924E+02  0.53215183154E+02  0.00000000000E+00 0. -1.
         21    1    1    2  503  502  0.36701634547E+02  0.18659558169E+02  0.11923268835E+02  0.42864360829E+02  0.00000000000E+00 0.  1.
</event>
<event>
 4    1  0.5722454E+002  0.2000490E+02  0.7546771E-02  0.1533961E+00
          2   -1    0    0  502    0  0.00000000000E+00  0.00000000000E+00  0.50393252759E+03  0.50393252759E+03  0.00000000000E+00 0.  1.
         -2   -1    0    0    0  501 -0.00000000000E+00 -0.00000000000E+00 -0.79855533896E+00  0.79855533896E+00  0.00000000000E+00 0. -1.
         21    1    1    2  502  503 -0.16801361552E+02  0.10858646536E+02  0.23281406926E+03  0.23367196409E+03  0.00000000000E+00 0. -1.
         21    1    1    2  503  501  0.16801361552E+02 -0.10858646536E+02  0.27031990299E+03  0.27105911884E+03  0.00000000000E+00 0.  1.
</event>
<event>
 4    1  0.5722454E+002  0.2184930E+02  0.7546771E-02  0.1507476E+00
          2   -1    0    0  503    0  0.00000000000E+00  0.00000000000E+00  0.81425331141E+02  0.81425331141E+02  0.00000000000E+00 0. -1.
         -2   -1    0    0    0  501 -0.00000000000E+00 -0.00000000000E+00 -0.16713018709E+02  0.16713018709E+02  0.00000000000E+00 0.  1.
         21    1    1    2  502  501 -0.17420637994E+02 -0.13187622038E+02 -0.71802971299E+01  0.22998884104E+02  0.00000000000E+00 0.  1.
         21    1    1    2  503  502  0.17420637994E+02  0.13187622038E+02  0.71892609561E+02  0.75139465747E+02  0.00000000000E+00 0. -1.
</event>
<event>
 4    1  0.5722454E+002  0.3449347E+02  0.7546771E-02  0.1384160E+00
          2   -1    0    0  503    0  0.00000000000E+00  0.00000000000E+00  0.18093895111E+03  0.18093895111E+03  0.00000000000E+00 0.  1.
         -2   -1    0    0    0  501 -0.00000000000E+00 -0.00000000000E+00 -0.82905001577E+02  0.82905001577E+02  0.00000000000E+00 0. -1.
         21    1    1    2  502  501  0.18798174606E+02  0.28921072748E+02 -0.77565165416E+02  0.84889072933E+02  0.00000000000E+00 0. -1.
         21    1    1    2  503  502 -0.18798174606E+02 -0.28921072748E+02  0.17559911495E+03  0.17895487975E+03  0.00000000000E+00 0.  1.
</event>
<event>
 4    1  0.5722454E+002  0.2363682E+02  0.7546771E-02  0.1484653E+00
          2   -1    0    0  502    0  0.00000000000E+00  0.00000000000E+00  0.16801804584E+04  0.16801804584E+04  0.00000000000E+00 0. -1.
         -2   -1    0    0    0  501 -0.00000000000E+00 -0.00000000000E+00 -0.40806674123E+00  0.40806674123E+00  0.00000000000E+00 0.  1.
         21    1    1    2  502  503 -0.49887065323E+00 -0.23631551007E+02  0.47833957228E+03  0.47892321460E+03  0.00000000000E+00 0.  1.
         21    1    1    2  503  501  0.49887065323E+00  0.23631551007E+02  0.12014328194E+04  0.12016653106E+04  0.00000000000E+00 0. -1.
</event>
<event>
 4    1  0.5722454E+002  0.2050167E+02  0.7546771E-02  0.1526500E+00
          2   -1    0    0  503    0  0.00000000000E+00  0.00000000000E+00  0.26651436662E+04  0.26651436662E+04  0.00000000000E+00 0.  1.
         -2   -1    0    0    0  501 -0.00000000000E+00 -0.00000000000E+00 -0.15771040240E+00  0.15771040240E+00  0.00000000000E+00 0. -1.
         21    1    1    2  502  501 -0.15365560256E+02  0.13572695830E+02  0.13293312138E+04  0.13294892984E+04  0.00000000000E+00 0.  1.
         21    1    1    2  503  502  0.15365560256E+02 -0.13572695830E+02  0.13356547420E+04  0.13358120782E+04  0.00000000000E+00 0. -1.
</event>
<event>
 4    1  0.5722454E+002  0.2484415E+02  0.7546771E-02  0.1470554E+00
          2   -1    0    0  503    0  0.00000000000E+00  0.00000000000E+00  0.35733226406E+03  0.35733226406E+03  0.00000000000E+00 0.  1.
         -2   -1    0    0    0  501 -0.00000000000E+00 -0.00000000000E+00 -0.24091719896E+01  0.24091719896E+01  0.00000000000E+00 0. -1.
         21    1    1    2  502  501 -0.23918164414E+02 -0.67196235693E+01  0.81771364974E+02  0.85462202520E+02  0.00000000000E+00 0. -1.
         21    1    1    2  503  502  0.23918164414E+02  0.67196235693E+01  0.27315172709E+03  0.27427923353E+03  0.00000000000E+00 0.  1.
</event>
<event>
 4    1  0.5722454E+002  0.2005107E+02  0.7546771E-02  0.1533256E+00
          2   -1    0    0  502    0  0.00000000000E+00  0.00000000000E+00  0.30428531617E+03  0.30428531617E+03  0.00000000000E+00 0.  1.
         -2   -1    0    0    0  501 -0.00000000000E+00 -0.00000000000E+00 -0.15784433375E+01  0.15784433375E+01  0.00000000000E+00 0. -1.
         21    1    1    2  502  503  0.11498184693E+02 -0.16426715264E+02  0.21308261369E+03  0.21402393671E+03  0.00000000000E+00 0.  1.
         21    1    1    2  503  501 -0.11498184693E+02  0.16426715264E+02  0.89624259139E+02  0.91839822800E+02  0.00000000000E+00 0. -1.
</event>
<event>
 4    1  0.5722454E+002  0.2191936E+02  0.7546771E-02  0.1506533E+00
          2   -1    0    0  502    0  0.00000000000E+00  0.00000000000E+00  0.61898228196E+03  0.61898228196E+03  0.00000000000E+00 0. -1.
         -2   -1    0    0    0  501 -0.00000000000E+00 -0.00000000000E+00 -0.92825176769E+00  0.92825176769E+00  0.00000000000E+00 0.  1.
         21    1    1    2  502  503  0.21891033288E+02 -0.11139109638E+01  0.43447174792E+03  0.43502431872E+03  0.00000000000E+00 0. -1.
         21    1    1    2  503  501 -0.21891033288E+02  0.11139109638E+01  0.18358228227E+03  0.18488621501E+03  0.00000000000E+00 0.  1.
</event>
<event>
 4    1  0.5722454E+002  0.5053061E+02  0.7546771E-02  0.1295888E+00
          2   -1    0    0  503    0  0.00000000000E+00  0.00000000000E+00  0.30750643949E+03  0.30750643949E+03  0.00000000000E+00 0. -1.
         -2   -1    0    0    0  501 -0.00000000000E+00 -0.00000000000E+00 -0.31328246900E+02  0.31328246900E+02  0.00000000000E+00 0.  1.
         21    1    1    2  502  501  0.23553822096E+02  0.44705252260E+02 -0.71516280668E+01  0.51034183632E+02  0.00000000000E+00 0.  1.
         21    1    1    2  503  502 -0.23553822096E+02 -0.44705252260E+02  0.28332982066E+03  0.28780050276E+03  0.00000000000E+00 0. -1.
</event>
<event>
 4    1  0.5722454E+002  0.7009952E+02  0.7546771E-02  0.1228909E+00
          2   -1    0    0  503    0  0.00000000000E+00  0.00000000000E+00  0.59782281201E+02  0.59782281201E+02  0.00000000000E+00 0. -1.
         -2   -1    0    0    0  501 -0.00000000000E+00 -0.00000000000E+00 -0.13086551021E+03  0.13086551021E+03  0.00000000000E+00 0.  1.
         21    1    1    2  502  501 -0.36174521216E+02  0.60044539509E+02 -0.93673153895E+02  0.11699830114E+03  0.00000000000E+00 0.  1.
         21    1    1    2  503  502  0.36174521216E+02 -0.60044539509E+02  0.22589924887E+02  0.73649490266E+02  0.00000000000E+00 0. -1.
</event>
<event>
 4    1  0.5722454E+002  0.2069561E+02  0.7546771E-02  0.1523656E+00
          2   -1    0    0  502    0  0.00000000000E+00  0.00000000000E+00  0.45035696321E+01  0.45035696321E+01  0.00000000000E+00 0. -1.
         -2   -1    0    0    0  501 -0.00000000000E+00 -0.00000000000E+00 -0.19867769933E+03  0.19867769933E+03  0.00000000000E+00 0.  1.
         21    1    1    2  502  503  0.13317315396E+02  0.15841628472E+02 -0.23736480445E+02  0.31491722498E+02  0.00000000000E+00 0. -1.
         21    1    1    2  503  501 -0.13317315396E+02 -0.15841628472E+02 -0.17043764925E+03  0.17168954646E+03  0.00000000000E+00 0.  1.
</event>
<event>
 4    1  0.5722454E+002  0.2254349E+02  0.7546771E-02  0.1498311E+00
          2   -1    0    0  502    0  0.00000000000E+00  0.00000000000E+00  0.54474818943E+02  0.54474818943E+02  0.00000000000E+00 0.  1.
         -2   -1    0    0    0  501 -0.00000000000E+00 -0.00000000000E+00 -0.10840657860E+02  0.10840657860E+02  0.00000000000E+00 0. -1.
         21    1    1    2  502  503  0.53290830705E+01 -0.21904563286E+02  0.34011176673E+02  0.40804033597E+02  0.00000000000E+00 0. -1.
         21    1    1    2  503  501 -0.53290830705E+01  0.21904563286E+02  0.96229844100E+01  0.24511443206E+02  0.00000000000E+00 0.  1.
</event>
<event>
 4    1  0.5722454E+002  0.2069969E+02  0.7546771E-02  0.1523596E+00
          2   -1    0    0  502    0  0.00000000000E+00  0.00000000000E+00  0.24760788023E+01  0.24760788023E+01  0.00000000000E+00 0. -1.
         -2   -1    0    0    0  501 -0.00000000000E+00 -0.00000000000E+00 -0.42239020150E+03  0.42239020150E+03  0.00000000000E+00 0.  1.
         21    1    1    2  502  503 -0.20668502338E+02  0.11359055771E+01 -0.46740442593E+02  0.51118942127E+02  0.00000000000E+00 0. -1.
         21    1    1    2  503  501  0.20668502338E+02 -0.11359055771E+01 -0.37317368010E+03  0.37374733817E+03  0.00000000000E+00 0.  1.
</event>
<event>
 4    1  0.5722454E+002  0.2091273E+02  0.7546771E-02  0.1520514E+00
          2   -1    0    0  503    0  0.00000000000E+00  0.00000000000E+00  0.94821189652E+01  0.94821189652E+01  0.00000000000E+00 0.  1.
         -2   -1    0    0    0  501 -0.00000000000E+00 -0.00000000000E+00 -0.99551628894E+02  0.99551628894E+02  0.00000000000E+00 0. -1.
         21    1    1    2  502  501  0.11374231773E+02  0.17549049775E+02 -0.84973499348E+02  0.87509073175E+02  0.00000000000E+00 0. -1.
         21    1    1    2  503  502 -0.11374231773E+02 -0.17549049775E+02 -0.50960105805E+01  0.21524674684E+02  0.00000000000E+00 0.  1.
</event>
<event>
 4    1  0.5722454E+002  0.2643913E+02  0.7546771E-02  0.1453325E+00
          2   -1    0    0  503    0  0.00000000000E+00  0.00000000000E+00  0.46436168740E+03  0.46436168740E+03  0.00000000000E+00 0.  1.
         -2   -1    0    0    0  501 -0.00000000000E+00 -0.00000000000E+00 -0.65836744174E+01  0.65836744174E+01  0.00000000000E+00 0. -1.
         21    1    1    2  502  501  0.12994585093E+02 -0.23025381117E+02  0.22081391799E+02  0.34447282637E+02  0.00000000000E+00 0. -1.
         21    1    1    2  503  502 -0.12994585093E+02  0.23025381117E+02  0.43569662118E+03  0.43649807918E+03  0.00000000000E+00 0.  1.
</event>
<event>
 4    1  0.5722454E+002  0.2382524E+02  0.7546771E-02  0.1482388E+00
          2   -1    0    0  502    0  0.00000000000E+00  0.00000000000E+00  0.23983472704E+03  0.23983472704E+03  0.00000000000E+00 0. -1.
         -2   -1    0    0    0  501 -0.00000000000E+00 -0.00000000000E+00 -0.38356129385E+02  0.38356129385E+02  0.00000000000E+00 0.  1.
         21    1    1    2  502  503 -0.52739227975E+01 -0.23234190434E+02  0.23547488603E+03  0.23667712990E+03  0.00000000000E+00 0. -1.
         21    1    1    2  503  501  0.52739227975E+01  0.23234190434E+02 -0.33996288374E+02  0.41513726525E+02  0.00000000000E+00 0.  1.
</event>
<event>
 4    1  0.5722454E+002  0.2135964E+02  0.7546771E-02  0.1514192E+00
          2   -1    0    0  503    0  0.00000000000E+00  0.00000000000E+00  0.15841890037E+04  0.15841890037E+04  0.00000000000E+00 0. -1.
         -2   -1    0    0    0  501 -0.00000000000E+00 -0.00000000000E+00 -0.90736139457E+00  0.90736139457E+00  0.00000000000E+00 0.  1.
         21    1    1    2  502  501  0.21357461015E+02 -0.30507675237E+00  0.13683837060E+03  0.13849539300E+03  0.00000000000E+00 0.  1.
         21    1    1    2  503  502 -0.21357461015E+02  0.30507675237E+00  0.14464432717E+04  0.14466009721E+04  0.00000000000E+00 0. -1.
</event>
<event>
 4    1  0.5722454E+002  0.2587505E+02  0.7546771E-02  0.1459248E+00
          2   -1    0    0  502    0  0.00000000000E+00  0.00000000000E+00  0.14564511171E+04  0.14564511171E+04  0.00000000000E+00 0. -1.
         -2   -1    0    0    0  501 -0.00000000000E+00 -0.00000000000E+00 -0.57214827386E+00  0.57214827386E+00  0.00000000000E+00 0.  1.
         21    1    1    2  502  503  0.16690161041E+02  0.19772620912E+02  0.10509192023E+04  0.10512376933E+04  0.00000000000E+00 0. -1.
         21    1    1    2  503  501 -0.16690161041E+02 -0.19772620912E+02  0.40495976654E+03  0.40578557211E+03  0.00000000000E+00 0.  1.
</event>
<event>
 4    1  0.5722454E+002  0.2064040E+02  0.7546771E-02  0.1524461E+00
          2   -1    0    0  502    0  0.00000000000E+00  0.00000000000E+00  0.14925356867E+01  0.14925356867E+01  0.00000000000E+00 0. -1.
         -2   -1    0    0    0  501 -0.00000000000E+00 -0.00000000000E+00 -0.12402309342E+04  0.12402309342E+04  0.00000000000E+00 0.  1.
         21    1    1    2  502  503 -0.12549492591E+02  0.16387081559E+02 -0.74617940606E+02  0.77420044346E+02  0.00000000000E+00 0. -1.
         21    1    1    2  503  501  0.12549492591E+02 -0.16387081559E+02 -0.11641204579E+04  0.11643034255E+04  0.00000000000E+00 0.  1.
</event>
<event>
 4    1  0.5722454E+002  0.2239016E+02  0.7546771E-02  0.1500301E+00
          2   -1    0    0  502    0  0.00000000000E+00  0.00000000000E+00  0.42856799668E+03  0.42856799668E+03  0.00000000000E+00 0.  1.
         -2   -1    0    0    0  501 -0.00000000000E+00 -0.00000000000E+00 -0.12707318734E+01  0.12707318734E+01  0.00000000000E+00 0. -1.
         21    1    1    2  502  503  0.17494138651E+02 -0.13974053563E+02  0.27423320356E+03  0.27514572320E+03  0.00000000000E+00 0.  1.
         21    1    1    2  503  501 -0.17494138651E+02  0.13974053563E+02  0.15306406124E+03  0.15469300535E+03  0.00000000000E+00 0. -1.
</event>
<event>
 4    1  0.5722454E+002  0.2521630E+02  0.7546771E-02  0.1466398E+00
          2   -1    0    0  503    0  0.00000000000E+00  0.00000000000E+00  0.15672497999E+04  0.15672497999E+04  0.00000000000E+00 0. -1.
         -2   -1    0    0    0  501 -0.00000000000E+00 -0.00000000000E+00 -0.76631423903E+00  0.76631423903E+00  0.00000000000E+00 0.  1.
         21    1    1    2  502  501 -0.35749975126E+01  0.24961593760E+02  0.24543337750E+03  0.24672536262E+03  0.00000000000E+00 0.  1.
         21    1    1    2  503  502  0.35749975126E+01 -0.24961593760E+02  0.13210501081E+04  0.13212907515E+04  0.00000000000E+00 0. -1.
</event>
<event>
 4    1  0.5722454E+002  0.2476020E+02  0.7546771E-02  0.1471504E+00
          2   -1    0    0  503    0  0.00000000000E+00  0.00000000000E+00  0.19968253255E+03  0.19968253255E+03  0.00000000000E+00 0.  1.
         -2   -1    0    0    0  501 -0.00000000000E+00 -0.00000000000E+00 -0.69719706918E+01  0.69719706918E+01  0.00000000000E+00 0. -1.
         21    1    1    2  502  501 -0.79312111111E+01 -0.23455559284E+02  0.19057433758E+02  0.31245050047E+02  0.00000000000E+00 0. -1.
         21    1    1    2  503  502  0.79312111111E+01  0.23455559284E+02  0.17365312810E+03  0.17540945319E+03  0.00000000000E+00 0.  1.
</event>
<event>
 4    1  0.5722454E+002  0.2406502E+02  0.7546771E-02  0.1479541E+00
          2   -1    0    0  503    0  0.00000000000E+00  0.00000000000E+00  0.61316386920E+00  0.61316386920E+00  0.00000000000E+00 0. -1.
         -2   -1    0    0    0  501 -0.00000000000E+00 -0.00000000000E+00 -0.13059136696E+04  0.13059136696E+04  0.00000000000E+00 0.  1.
         21    1    1    2  502  501  0.22697022430E+02  0.79981346047E+01 -0.99632016720E+03  0.99661075680E+03  0.00000000000E+00 0.  1.
         21    1    1    2  503  502 -0.22697022430E+02 -0.79981346047E+01 -0.30898033854E+03  0.30991607669E+03  0.00000000000E+00 0. -1.
</event>
<event>
 4    1  0.5722454E+002  0.2050551E+02  0.7546771E-02  0.1526443E+00
          2   -1    0    0  503    0  0.00000000000E+00  0.00000000000E+00  0.40624415157E+01  0.40624415157E+01  0.00000000000E+00 0. -1.
         -2   -1    0    0    0  501 -0.00000000000E+00 -0.00000000000E+00 -0.22260385423E+03  0.22260385423E+03  0.00000000000E+00 0.  1.
         21    1    1    2  502  501  0.85082293660E+01  0.18657061480E+02 -0.19216938146E+03  0.19326030912E+03  0.00000000000E+00 0.  1.
         21    1    1    2  503  502 -0.85082293660E+01 -0.18657061480E+02 -0.26372031254E+02  0.33405986626E+02  0.00000000000E+00 0. -1.
</event>
<event>
 4    1  0.5722454E+002  0.2537208E+02  0.7546771E-02  0.1464684E+00
          2   -1    0    0  503    0  0.00000000000E+00  0.00000000000E+00  0.35325534292E+03  0.35325534292E+03  0.00000000000E+00 0.  1.
         -2   -1    0    0    0  501 -0.00000000000E+00 -0.00000000000E+00 -0.66261096348E+01  0.66261096348E+01  0.00000000000E+00 0. -1.
         21    1    1    2  502  501  0.11495854364E+02 -0.22618304492E+02  0.20102753018E+02  0.32370712759E+02  0.00000000000E+00 0. -1.
         21    1    1    2  503  502 -0.11495854364E+02  0.22618304492E+02  0.32652648026E+03  0.32751073979E+03  0.00000000000E+00 0.  1.
</event>
<event>
 4    1  0.5722454E+002  0.2508519E+02  0.7546771E-02  0.1467853E+00
          2   -1    0    0  503    0  0.00000000000E+00  0.00000000000E+00  0.40058149192E+03  0.40058149192E+03  0.00000000000E+00 0. -1.
         -2   -1    0    0    0  501 -0.00000000000E+00 -0.00000000000E+00 -0.15779751804E+01  0.15779751804E+01  0.00000000000E+00 0.  1.
         21    1    1    2  502  501  0.17791374598E+01  0.25022019524E+02  0.21298200248E+03  0.21445419131E+03  0.00000000000E+00 0. -1.
         21    1    1    2  503  502 -0.17791374598E+01 -0.25022019524E+02  0.18602151426E+03  0.18770527579E+03  0.00000000000E+00 0.  1.
</event>
<event>
 4    1  0.5722454E+002  0.3624704E+02  0.7546771E-02  0.1372002E+00
          2   -1    0    0  503    0  0.00000000000E+00  0.00000000000E+00  0.18555738787E+03  0.18555738787E+03  0.00000000000E+00 0.  1.
         -2   -1    0    0    0  501 -0.00000000000E+00 -0.00000000000E+00 -0.34722787773E+02  0.34722787773E+02  0.00000000000E+00 0. -1.
         21    1    1    2  502  501  0.99819044367E+00 -0.36233291327E+02 -0.22853558236E+02  0.42850121454E+02  0.00000000000E+00 0. -1.
         21    1    1    2  503  502 -0.99819044367E+00  0.36233291327E+02  0.17368815833E+03  0.17743005419E+03  0.00000000000E+00 0.  1.
</event>
<event>
 4    1  0.5722454E+002  0.2178540E+02  0.7546771E-02  0.1508340E+00
          2   -1    0    0  503    0  0.00000000000E+00  0.00000000000E+00  0.32385528972E+02  0.32385528972E+02  0.00000000000E+00 0. -1.
         -2   -1    0    0    0  501 -0.00000000000E+00 -0.00000000000E+00 -0.64827366733E+03  0.64827366733E+03  0.00000000000E+00 0.  1.
         21    1    1    2  502  501  0.19622411273E+01 -0.21696850473E+02 -0.64440495040E+03  0.64477309482E+03  0.00000000000E+00 0.  1.
         21    1    1    2  503  502 -0.19622411273E+01  0.21696850473E+02  0.28516812038E+02  0.35886101481E+02  0.00000000000E+00 0. -1.
</event>
<event>
 4    1  0.5722454E+002  0.7256818E+02  0.7546771E-02  0.1222238E+00
          2   -1    0    0  503    0  0.00000000000E+00  0.00000000000E+00  0.11678574132E+04  0.11678574132E+04  0.00000000000E+00 0.  1.
         -2   -1    0    0    0  501 -0.00000000000E+00 -0.00000000000E+00 -0.61580363566E+01  0.61580363566E+01  0.00000000000E+00 0. -1.
         21    1    1    2  502  501 -0.15220835807E+01  0.72552211819E+02  0.27710601753E+03  0.28645049333E+03  0.00000000000E+00 0. -1.
         21    1    1    2  503  502  0.15220835807E+01 -0.72552211819E+02  0.88459335933E+03  0.88756495624E+03  0.00000000000E+00 0.  1.
</event>
<event>
 4    1  0.5722454E+002  0.3023914E+02  0.7546771E-02  0.1417529E+00
          2   -1    0    0  502    0  0.00000000000E+00  0.00000000000E+00  0.16323283007E+03  0.16323283007E+03  0.00000000000E+00 0. -1.
         -2   -1    0    0    0  501 -0.00000000000E+00 -0.00000000000E+00 -0.63532159893E+02  0.63532159893E+02  0.00000000000E+00 0.  1.
         21    1    1    2  502  503 -0.11528006515E+02  0.27955509421E+02  0.15811883861E+03  0.16098438609E+03  0.00000000000E+00 0. -1.
         21    1    1    2  503  501  0.11528006515E+02 -0.27955509421E+02 -0.58418168440E+02  0.65780603867E+02  0.00000000000E+00 0.  1.
</event>
<event>
 4    1  0.5722454E+002  0.2165583E+02  0.7546771E-02  0.1510104E+00
          2   -1    0    0  502    0  0.00000000000E+00  0.00000000000E+00  0.12936305203E+03  0.12936305203E+03  0.00000000000E+00 0. -1.
         -2   -1    0    0    0  501 -0.00000000000E+00 -0.00000000000E+00 -0.62553722699E+01  0.62553722699E+01  0.00000000000E+00 0.  1.
         21    1    1    2  502  503  0.19549428397E+02 -0.93163796051E+01  0.10552308589E+03  0.10772231308E+03  0.00000000000E+00 0. -1.
         21    1    1    2  503  501 -0.19549428397E+02  0.93163796051E+01  0.17584593870E+02  0.27896111219E+02  0.00000000000E+00 0.  1.
</event>
<event>
 4    1  0.5722454E+002  0.2491809E+02  0.7546771E-02  0.1469722E+00
          2   -1    0    0  503    0  0.00000000000E+00  0.00000000000E+00  0.94454710592E+03  0.94454710592E+03  0.00000000000E+00 0. -1.
         -2   -1    0    0    0  501 -0.00000000000E+00 -0.00000000000E+00 -0.18161586851E+01  0.18161586851E+01  0.00000000000E+00 0.  1.
         21    1    1    2  502  501 -0.22572386128E+02 -0.10554548726E+02  0.93398146817E+02  0.96665014059E+02  0.00000000000E+00 0.  1.
         21    1    1    2  503  502  0.22572386128E+02  0.10554548726E+02  0.84933280041E+03  0.84969825054E+03  0.00000000000E+00 0. -1.
</event>
<event>
 4    1  0.5722454E+002  0.2095452E+02  0.7546771E-02  0.1519915E+00
          2   -1    0    0  502    0  0.00000000000E+00  0.00000000000E+00  0.22055791802E+03  0.22055791802E+03  0.00000000000E+00 0. -1.
         -2   -1    0    0    0  501 -0.00000000000E+00 -0.00000000000E+00 -0.97542194366E+01  0.97542194366E+01  0.00000000000E+00 0.  1.
         21    1    1    2  502  503 -0.14567805372E+02 -0.15062239028E+02  0.20813637571E+03  0.20918853433E+03  0.00000000000E+00 0. -1.
         21    1    1    2  503  501  0.14567805372E+02  0.15062239028E+02  0.26673228674E+01  0.21123603129E+02  0.00000000000E+00 0.  1.
</event>
<event>
 4    1  0.5722454E+002  0.4877690E+02  0.7546771E-02  0.1303564E+00
          2   -1    0    0  502    0  0.00000000000E+00  0.00000000000E+00  0.51283113584E+03  0.51283113584E+03  0.00000000000E+00 0.  1.
         -2   -1    0    0    0  501 -0.00000000000E+00 -0.00000000000E+00 -0.59338930681E+01  0.59338930681E+01  0.00000000000E+00 0. -1.
         21    1    1    2  502  503  0.44764347820E+02 -0.19373665063E+02  0.37460179078E+03  0.37776406313E+03  0.00000000000E+00 0. -1.
         21    1    1    2  503  501 -0.44764347820E+02  0.19373665063E+02  0.13229545199E+03  0.14100096578E+03  0.00000000000E+00 0.  1.
</event>
<event>
 4    1  0.5722454E+002  0.2522545E+02  0.7546771E-02  0.1466297E+00
          2   -1    0    0  502    0  0.00000000000E+00  0.00000000000E+00  0.49162867596E+02  0.49162867596E+02  0.00000000000E+00 0.  1.
         -2   -1    0    0    0  501 -0.00000000000E+00 -0.00000000000E+00 -0.18502735949E+02  0.18502735949E+02  0.00000000000E+00 0. -1.
         21    1    1    2  502  503 -0.19390477612E+02 -0.16134830363E+02  0.33875645649E+02  0.42236036047E+02  0.00000000000E+00 0.  1.
         21    1    1    2  503  501  0.19390477612E+02  0.16134830363E+02 -0.32155140014E+01  0.25429567498E+02  0.00000000000E+00 0. -1.
</event>
<event>
 4    1  0.5722454E+002  0.2470589E+02  0.7546771E-02  0.1472121E+00
          2   -1    0    0  503    0  0.00000000000E+00  0.00000000000E+00  0.41003185900E+01  0.41003185900E+01  0.00000000000E+00 0. -1.
         -2   -1    0    0    0  501 -0.00000000000E+00 -0.00000000000E+00 -0.19699104853E+03  0.19699104853E+03  0.00000000000E+00 0.  1.
         21    1    1    2  502  501 -0.57738056225E+01 -0.24021748605E+02 -0.14614397593E+03  0.14821755274E+03  0.00000000000E+00 0.  1.
         21    1    1    2  503  502  0.57738056225E+01  0.24021748605E+02 -0.46746754011E+02  0.52873814388E+02  0.00000000000E+00 0. -1.
</event>
<event>
 4    1  0.5722454E+002  0.3595466E+02  0.7546771E-02  0.1373973E+00
          2   -1    0    0  503    0  0.00000000000E+00  0.00000000000E+00  0.20826838606E+03  0.20826838606E+03  0.00000000000E+00 0.  1.
         -2   -1    0    0    0  501 -0.00000000000E+00 -0.00000000000E+00 -0.98098777724E+01  0.98098777724E+01  0.00000000000E+00 0. -1.
         21    1    1    2  502  501 -0.23941767272E+02  0.26824049001E+02  0.33149147513E+02  0.48904026477E+02  0.00000000000E+00 0. -1.
         21    1    1    2  503  502  0.23941767272E+02 -0.26824049001E+02  0.16530936077E+03  0.16917423735E+03  0.00000000000E+00 0.  1.
</event>
<event>
 4    1  0.5722454E+002  0.3044225E+02  0.7546771E-02  0.1415791E+00
          2   -1    0    0  503    0  0.00000000000E+00  0.00000000000E+00  0.68777236744E+03  0.68777236744E+03  0.00000000000E+00 0. -1.
         -2   -1    0    0    0  501 -0.00000000000E+00 -0.00000000000E+00 -0.25060084820E+01  0.25060084820E+01  0.00000000000E+00 0.  1.
         21    1    1    2  502  501  0.26783889818E+02  0.14469075031E+02  0.10795961889E+03  0.11216956003E+03  0.00000000000E+00 0.  1.
         21    1    1    2  503  502 -0.26783889818E+02 -0.14469075031E+02  0.57730674006E+03  0.57810881589E+03  0.00000000000E+00 0. -1.
</event>
<event>
 4    1  0.5722454E+002  0.2016257E+02  0.7546771E-02  0.1531565E+00
          2   -1    0    0  503    0  0.00000000000E+00  0.00000000000E+00  0.29911733318E+03  0.29911733318E+03  0.00000000000E+00 0.  1.
         -2   -1    0    0    0  501 -0.00000000000E+00 -0.00000000000E+00 -0.57077818710E+01  0.57077818710E+01  0.00000000000E+00 0. -1.
         21    1    1    2  502  501 -0.20142845155E+02 -0.89174615167E+00  0.13669735932E+02  0.24359620329E+02  0.00000000000E+00 0. -1.
         21    1    1    2  503  502  0.20142845155E+02  0.89174615167E+00  0.27973981538E+03  0.28046549472E+03  0.00000000000E+00 0.  1.
</event>
<event>
 4    1  0.5722454E+002  0.2071328E+02  0.7546771E-02  0.1523398E+00
          2   -1    0    0  503    0  0.00000000000E+00  0.00000000000E+00  0.16096394593E+03  0.16096394593E+03  0.00000000000E+00 0. -1.
         -2   -1    0    0    0  501 -0.00000000000E+00 -0.00000000000E+00 -0.33707044315E+01  0.33707044315E+01  0.00000000000E+00 0.  1.
         21    1    1    2  502  501 -0.20712600242E+02 -0.16760125183E+00  0.41211625448E+02  0.46124158215E+02  0.00000000000E+00 0.  1.
         21    1    1    2  503  502  0.20712600242E+02  0.16760125183E+00  0.11638161605E+03  0.11821049215E+03  0.00000000000E+00 0. -1.
</event>
<event>
 4    1  0.5722454E+002  0.2604976E+02  0.7546771E-02  0.1457394E+00
          2   -1    0    0  502    0  0.00000000000E+00  0.00000000000E+00  0.31888324728E+01  0.31888324728E+01  0.00000000000E+00 0.  1.
         -2   -1    0    0    0  501 -0.00000000000E+00 -0.00000000000E+00 -0.21763034087E+03  0.21763034087E+03  0.00000000000E+00 0. -1.
         21    1    1    2  502  503 -0.23474486917E+02  0.11293296915E+02 -0.90775381482E+02  0.94439186647E+02  0.00000000000E+00 0. -1.
         21    1    1    2  503  501  0.23474486917E+02 -0.11293296915E+02 -0.12366612691E+03  0.12637998669E+03  0.00000000000E+00 0.  1.
</event>
<event>
 4    1  0.5722454E+002  0.3169248E+02  0.7546771E-02  0.1405438E+00
          2   -1    0    0  503    0  0.00000000000E+00  0.00000000000E+00  0.22981607964E+04  0.22981607964E+04  0.00000000000E+00 0. -1.
         -2   -1    0    0    0  501 -0.00000000000E+00 -0.00000000000E+00 -0.54631877152E+01  0.54631877152E+01  0.00000000000E+00 0.  1.
         21    1    1    2  502  501 -0.35287995781E+01  0.31495413386E+02  0.41569111543E+02  0.52272406921E+02  0.00000000000E+00 0.  1.
         21    1    1    2  503  502  0.35287995781E+01 -0.31495413386E+02  0.22511284972E+04  0.22513515772E+04  0.00000000000E+00 0. -1.
</event>
<event>
 4    1  0.5722454E+002  0.3306891E+02  0.7546771E-02  0.1394672E+00
          2   -1    0    0  503    0  0.00000000000E+00  0.00000000000E+00  0.16337880315E+04  0.16337880315E+04  0.00000000000E+00 0. -1.
         -2   -1    0    0    0  501 -0.00000000000E+00 -0.00000000000E+00 -0.14589486518E+01  0.14589486518E+01  0.00000000000E+00 0.  1.
         21    1    1    2  502  501  0.25536895638E+02 -0.21009989690E+02  0.21465782661E+03  0.21719009008E+03  0.00000000000E+00 0.  1.
         21    1    1    2  503  502 -0.25536895638E+02  0.21009989690E+02  0.14176712562E+04  0.14180568900E+04  0.00000000000E+00 0. -1.
</event>
<event>
 4    1  0.5722454E+002  0.6105646E+02  0.7546771E-02  0.1256285E+00
          2   -1    0    0  502    0  0.00000000000E+00  0.00000000000E+00  0.73869148313E+02  0.73869148313E+02  0.00000000000E+00 0. -1.
         -2   -1    0    0    0  501 -0.00000000000E+00 -0.00000000000E+00 -0.53719629344E+02  0.53719629344E+02  0.00000000000E+00 0.  1.
         21    1    1    2  502  503 -0.29795887218E+02  0.53292560019E+02  0.25774399944E+02  0.66273762085E+02  0.00000000000E+00 0.  1.
         21    1    1    2  503  501  0.29795887218E+02 -0.53292560019E+02 -0.56248809747E+01  0.61315015571E+02  0.00000000000E+00 0. -1.
</event>
<event>
 4    1  0.5722454E+002  0.2036242E+02  0.7546771E-02  0.1528566E+00
          2   -1    0    0  503    0  0.00000000000E+00  0.00000000000E+00  0.36587517341E+03  0.36587517341E+03  0.00000000000E+00 0. -1.
         -2   -1    0    0    0  501 -0.00000000000E+00 -0.00000000000E+00 -0.86471556682E+01  0.86471556682E+01  0.00000000000E+00 0.  1.
         21    1    1    2  502  501 -0.98918115490E+01  0.17798319404E+02  0.40543257048E+01  0.20762120948E+02  0.00000000000E+00 0.  1.
         21    1    1    2  503  502  0.98918115490E+01 -0.17798319404E+02  0.35317369204E+03  0.35376020813E+03  0.00000000000E+00 0. -1.
</event>
<event>
 4    1  0.5722454E+002  0.3191300E+02  0.7546771E-02  0.1403670E+00
          2   -1    0    0  503    0  0.00000000000E+00  0.00000000000E+00  0.12536198909E+02  0.12536198909E+02  0.00000000000E+00 0. -1.
         -2   -1    0    0    0  501 -0.00000000000E+00 -0.00000000000E+00 -0.12407560758E+03  0.12407560758E+03  0.00000000000E+00 0.  1.
         21    1    1    2  502  501  0.30373138543E+02  0.97934605478E+01 -0.95904223011E+02  0.10107452402E+03  0.00000000000E+00 0.  1.
         21    1    1    2  503  502 -0.30373138543E+02 -0.97934605478E+01 -0.15635185655E+02  0.35537282464E+02  0.00000000000E+00 0. -1.
</event>
<event>
 4    1  0.5722454E+002  0.2214496E+02  0.7546771E-02  0.1503523E+00
          2   -1    0    0  503    0  0.00000000000E+00  0.00000000000E+00  0.47801670188E+02  0.47801670188E+02  0.00000000000E+00 0.  1.
         -2   -1    0    0    0  501 -0.00000000000E+00 -0.00000000000E+00 -0.11270669474E+02  0.11270669474E+02  0.00000000000E+00 0. -1.
         21    1    1    2  502  501 -0.22140655027E+02 -0.43665666157E+00  0.27114413515E+02  0.35008437473E+02  0.00000000000E+00 0.  1.
         21    1    1    2  503  502  0.22140655027E+02  0.43665666157E+00  0.94165871986E+01  0.24063902188E+02  0.00000000000E+00 0. -1.
</event>
<event>
 4    1  0.5722454E+002  0.4375800E+02  0.7546771E-02  0.1327768E+00
          2   -1    0    0  503    0  0.00000000000E+00  0.00000000000E+00  0.98947606155E+02  0.98947606155E+02  0.00000000000E+00 0. -1.
         -2   -1    0    0    0  501 -0.00000000000E+00 -0.00000000000E+00 -0.29639093806E+02  0.29639093806E+02  0.00000000000E+00 0.  1.
         21    1    1    2  502  501 -0.76580934995E+01  0.43082665236E+02 -0.32244578095E+01  0.43876640346E+02  0.00000000000E+00 0.  1.
         21    1    1    2  503  502  0.76580934995E+01 -0.43082665236E+02  0.72532970158E+02  0.84710059614E+02  0.00000000000E+00 0. -1.
</event>
<event>
 4    1  0.5722454E+002  0.2249607E+02  0.7546771E-02  0.1498925E+00
          2   -1    0    0  503    0  0.00000000000E+00  0.00000000000E+00  0.74218775336E+03  0.74218775336E+03  0.00000000000E+00 0.  1.
         -2   -1    0    0    0  501 -0.00000000000E+00 -0.00000000000E+00 -0.17873489523E+01  0.17873489523E+01  0.00000000000E+00 0. -1.
         21    1    1    2  502  501  0.19311762520E+02  0.11538159717E+02  0.77650561600E+02  0.80843571285E+02  0.00000000000E+00 0. -1.
         21    1    1    2  503  502 -0.19311762520E+02 -0.11538159717E+02  0.66274984281E+03  0.66313153103E+03  0.00000000000E+00 0.  1.
</event>
<event>
 4    1  0.5722454E+002  0.5199801E+02  0.7546771E-02  0.1289735E+00
          2   -1    0    0  502    0  0.00000000000E+00  0.00000000000E+00  0.22039292905E+04  0.22039292905E+04  0.00000000000E+00 0.  1.
         -2   -1    0    0    0  501 -0.00000000000E+00 -0.00000000000E+00 -0.20848367337E+01  0.20848367337E+01  0.00000000000E+00 0. -1.
         21    1    1    2  502  503 -0.80477616085E+01 -0.51371461296E+02  0.18085318175E+04  0.18092791737E+04  0.00000000000E+00 0.  1.
         21    1    1    2  503  501  0.80477616085E+01  0.51371461296E+02  0.39331263628E+03  0.39673495354E+03  0.00000000000E+00 0. -1.
</event>
<event>
 4    1  0.5722454E+002  0.3364913E+02  0.7546771E-02  0.1390317E+00
          2   -1    0    0  502    0  0.00000000000E+00  0.00000000000E+00  0.35395216207E+03  0.35395216207E+03  0.00000000000E+00 0.  1.
         -2   -1    0    0    0  501 -0.00000000000E+00 -0.00000000000E+00 -0.65922488843E+01  0.65922488843E+01  0.00000000000E+00 0. -1.
         21    1    1    2  502  503  0.12407412780E+02  0.31278110126E+02  0.30301763378E+03  0.30488022312E+03  0.00000000000E+00 0.  1.
         21    1    1    2  503  501 -0.12407412780E+02 -0.31278110126E+02  0.44342279406E+02  0.55664187840E+02  0.00000000000E+00 0. -1.
</event>
<event>
 4    1  0.5722454E+002  0.2017736E+02  0.7546771E-02  0.1531341E+00
          2   -1    0    0  503    0  0.00000000000E+00  0.00000000000E+00  0.13564161351E+04  0.13564161351E+04  0.00000000000E+00 0.  1.
         -2   -1    0    0    0  501 -0.00000000000E+00 -0.00000000000E+00 -0.88191880365E+00  0.88191880365E+00  0.00000000000E+00 0. -1.
         21    1    1    2  502  501 -0.19246201674E+02  0.60588556661E+01  0.12657019736E+03  0.12816840824E+03  0.00000000000E+00 0. -1.
         21    1    1    2  503  502  0.19246201674E+02 -0.60588556661E+01  0.12289640190E+04  0.12291296457E+04  0.00000000000E+00 0.  1.
</event>
<event>
 4    1  0.5722454E+002  0.2911397E+02  0.7546771E-02  0.1427455E+00
          2   -1    0    0  502    0  0.00000000000E+00  0.00000000000E+00  0.31531382687E+03  0.31531382687E+03  0.00000000000E+00 0.  1.
         -2   -1    0    0    0  501 -0.00000000000E+00 -0.00000000000E+00 -0.33883824220E+01  0.33883824220E+01  0.00000000000E+00 0. -1.
         21    1    1    2  502  503  0.24937563766E+02 -0.15024675562E+02  0.22840099342E+03  0.23024907548E+03  0.00000000000E+00 0. -1.
         21    1    1    2  503  501 -0.24937563766E+02  0.15024675562E+02  0.83524451027E+02  0.88453133815E+02  0.00000000000E+00 0.  1.
</event>
<event>
 4    1  0.5722454E+002  0.2476273E+02  0.7546771E-02  0.1471475E+00
          2   -1    0    0  503    0  0.00000000000E+00  0.00000000000E+00  0.17523845537E+02  0.17523845537E+02  0.00000000000E+00 0.  1.
         -2   -1    0    0    0  501 -0.00000000000E+00 -0.00000000000E+00 -0.42506960045E+02  0.42506960045E+02  0.00000000000E+00 0. -1.
         21    1    1    2  502  501 -0.82146784771E+00  0.24749100078E+02 -0.25112162788E+02  0.35267739989E+02  0.00000000000E+00 0. -1.
         21    1    1    2  503  502  0.82146784771E+00 -0.24749100078E+02  0.12904828005E+00  0.24763065593E+02  0.00000000000E+00 0.  1.
</event>
<event>
 4    1  0.5722454E+002  0.5357262E+02  0.7546771E-02  0.1283384E+00
          2   -1    0    0  502    0  0.00000000000E+00  0.00000000000E+00  0.22938906537E+03  0.22938906537E+03  0.00000000000E+00 0. -1.
         -2   -1    0    0    0  501 -0.00000000000E+00 -0.00000000000E+00 -0.15353034984E+02  0.15353034984E+02  0.00000000000E+00 0.  1.
         21    1    1    2  502  503  0.12291996072E+02  0.52143380926E+02  0.15966215802E+03  0.16841030267E+03  0.00000000000E+00 0. -1.
         21    1    1    2  503  501 -0.12291996072E+02 -0.52143380926E+02  0.54373872370E+02  0.76331797688E+02  0.00000000000E+00 0.  1.
</event>
<event>
 4    1  0.5722454E+002  0.2393782E+02  0.7546771E-02  0.1481046E+00
          2   -1    0    0  503    0  0.00000000000E+00  0.00000000000E+00  0.15191967322E+04  0.15191967322E+04  0.00000000000E+00 0.  1.
         -2   -1    0    0    0  501 -0.00000000000E+00 -0.00000000000E+00 -0.12516960760E+03  0.12516960760E+03  0.00000000000E+00 0. -1.
         21    1    1    2  502  501 -0.15779627638E+02  0.18000633542E+02 -0.12392989049E+03  0.12622058950E+03  0.00000000000E+00 0. -1.
         21    1    1    2  503  502  0.15779627638E+02 -0.18000633542E+02  0.15179570151E+04  0.15181457503E+04  0.00000000000E+00 0.  1.
</event>
<event>
 4    1  0.5722454E+002  0.5885113E+02  0.7546771E-02  0.1263787E+00
          2   -1    0    0  503    0  0.00000000000E+00  0.00000000000E+00  0.46012091659E+02  0.46012091659E+02  0.00000000000E+00 0.  1.
         -2   -1    0    0    0  501 -0.00000000000E+00 -0.00000000000E+00 -0.11206575282E+03  0.11206575282E+03  0.00000000000E+00 0. -1.
         21    1    1    2  502  501 -0.53950398941E+02 -0.23511904133E+02 -0.78315270580E+02  0.97962935786E+02  0.00000000000E+00 0. -1.
         21    1    1    2  503  502  0.53950398941E+02  0.23511904133E+02  0.12261609417E+02  0.60114908694E+02  0.00000000000E+00 0.  1.
</event>
<event>
 4    1  0.5722454E+002  0.2847276E+02  0.7546771E-02  0.1433350E+00
          2   -1    0    0  503    0  0.00000000000E+00  0.00000000000E+00  0.19545381181E+03  0.19545381181E+03  0.00000000000E+00 0.  1.
         -2   -1    0    0    0  501 -0.00000000000E+00 -0.00000000000E+00 -0.93202095519E+01  0.93202095519E+01  0.00000000000E+00 0. -1.
         21    1    1    2  502  501 -0.26801926217E+02 -0.96101482218E+01  0.16792264532E+02  0.33055685531E+02  0.00000000000E+00 0. -1.
         21    1    1    2  503  502  0.26801926217E+02  0.96101482218E+01  0.16934133773E+03  0.17171833583E+03  0.00000000000E+00 0.  1.
</event>
<event>
 4    1  0.5722454E+002  0.2668725E+02  0.7546771E-02  0.1450775E+00
          2   -1    0    0  503    0  0.00000000000E+00  0.00000000000E+00  0.19924215711E+04  0.19924215711E+04  0.00000000000E+00 0.  1.
         -2   -1    0    0    0  501 -0.00000000000E+00 -0.00000000000E+00 -0.44630228805E+00  0.44630228805E+00  0.00000000000E+00 0. -1.
         21    1    1    2  502  501 -0.10245014948E+02  0.24642423258E+02  0.55141179525E+03  0.55205722284E+03  0.00000000000E+00 0. -1.
         21    1    1    2  503  502  0.10245014948E+02 -0.24642423258E+02  0.14405634736E+04  0.14408106506E+04  0.00000000000E+00 0.  1.
</event>
<event>
 4    1  0.5722454E+002  0.2699825E+02  0.7546771E-02  0.1447626E+00
          2   -1    0    0  503    0  0.00000000000E+00  0.00000000000E+00  0.51639701488E+03  0.51639701488E+03  0.00000000000E+00 0.  1.
         -2   -1    0    0    0  501 -0.00000000000E+00 -0.00000000000E+00 -0.44868262392E+01  0.44868262392E+01  0.00000000000E+00 0. -1.
         21    1    1    2  502  501  0.96935552255E+01  0.25198026537E+02  0.40336935317E+02  0.48538375592E+02  0.00000000000E+00 0. -1.
         21    1    1    2  503  502 -0.96935552255E+01 -0.25198026537E+02  0.47157325333E+03  0.47234546553E+03  0.00000000000E+00 0.  1.
</event>
<event>
 4    1  0.5722454E+002  0.2405769E+02  0.7546771E-02  0.1479627E+00
          2   -1    0    0  502    0  0.00000000000E+00  0.00000000000E+00  0.16851870375E+03  0.16851870375E+03  0.00000000000E+00 0. -1.
         -2   -1    0    0    0  501 -0.00000000000E+00 -0.00000000000E+00 -0.14355217047E+02  0.14355217047E+02  0.00000000000E+00 0.  1.
         21    1    1    2  502  503 -0.11396802007E+02  0.21186909330E+02  0.15683402148E+03  0.15866846730E+03  0.00000000000E+00 0. -1.
         21    1    1    2  503  501  0.11396802007E+02 -0.21186909330E+02 -0.26705347746E+01  0.24205453495E+02  0.00000000000E+00 0.  1.
</event>
<event>
 4    1  0.5722454E+002  0.2203884E+02  0.7546771E-02  0.1504933E+00
          2   -1    0    0  502    0  0.00000000000E+00  0.00000000000E+00  0.95752729767E+03  0.95752729767E+03  0.00000000000E+00 0.  1.
         -2   -1    0    0    0  501 -0.00000000000E+00 -0.00000000000E+00 -0.51732369421E+00  0.51732369421E+00  0.00000000000E+00 0. -1.
         21    1    1    2  502  503  0.21946299129E+02 -0.20175280411E+01  0.41167642214E+03  0.41226591784E+03  0.00000000000E+00 0.  1.
         21    1    1    2  503  501 -0.21946299129E+02  0.20175280411E+01  0.54533355184E+03  0.54577870353E+03  0.00000000000E+00 0. -1.
</event>
<event>
 4    1  0.5722454E+002  0.2935296E+02  0.7546771E-02  0.1425304E+00
          2   -1    0    0  503    0  0.00000000000E+00  0.00000000000E+00  0.84338246844E+02  0.84338246844E+02  0.00000000000E+00 0. -1.
         -2   -1    0    0    0  501 -0.00000000000E+00 -0.00000000000E+00 -0.12207701487E+04  0.12207701487E+04  0.00000000000E+00 0.  1.
         21    1    1    2  502  501 -0.18823474085E+02 -0.22522723138E+02 -0.12180339769E+04  0.12183876087E+04  0.00000000000E+00 0.  1.
         21    1    1    2  503  502  0.18823474085E+02  0.22522723138E+02  0.81602074982E+02  0.86720786872E+02  0.00000000000E+00 0. -1.
</event>
<event>
 4    1  0.5722454E+002  0.2160837E+02  0.7546771E-02  0.1510753E+00
          2   -1    0    0  503    0  0.00000000000E+00  0.00000000000E+00  0.99140947587E+03  0.99140947587E+03  0.00000000000E+00 0.  1.
         -2   -1    0    0    0  501 -0.00000000000E+00 -0.00000000000E+00 -0.49697619981E+00  0.49697619981E+00  0.00000000000E+00 0. -1.
         21    1    1    2  502  501 -0.14466510444E+02  0.16051226029E+02  0.38199930792E+03  0.38260997509E+03  0.00000000000E+00 0.  1.
         21    1    1    2  503  502  0.14466510444E+02 -0.16051226029E+02  0.60891319175E+03  0.60929647698E+03  0.00000000000E+00 0. -1.
</event>
<event>
 4    1  0.5722454E+002  0.2344169E+02  0.7546771E-02  0.1487025E+00
          2   -1    0    0  502    0  0.00000000000E+00  0.00000000000E+00  0.53983167092E+01  0.53983167092E+01  0.00000000000E+00 0.  1.
         -2   -1    0    0    0  501 -0.00000000000E+00 -0.00000000000E+00 -0.12003155096E+03  0.12003155096E+03  0.00000000000E+00 0. -1.
         21    1    1    2  502  503 -0.16032733698E+02  0.17101587625E+02 -0.32870267312E+02  0.40372853779E+02  0.00000000000E+00 0.  1.
         21    1    1    2  503  501  0.16032733698E+02 -0.17101587625E+02 -0.81762966936E+02  0.85057013887E+02  0.00000000000E+00 0. -1.
</event>
<event>
 4    1  0.5722454E+002  0.2420596E+02  0.7546771E-02  0.1477886E+00
          2   -1    0    0  503    0  0.00000000000E+00  0.00000000000E+00  0.24147372475E+01  0.24147372475E+01  0.00000000000E+00 0. -1.
         -2   -1    0    0    0  501 -0.00000000000E+00 -0.00000000000E+00 -0.49956679256E+03  0.49956679256E+03  0.00000000000E+00 0.  1.
         21    1    1    2  502  501 -0.20544019650E+02 -0.12801241728E+02 -0.42857076934E+03  0.42925380938E+03  0.00000000000E+00 0.  1.
         21    1    1    2  503  502  0.20544019650E+02  0.12801241728E+02 -0.68581285970E+02  0.72727720427E+02  0.00000000000E+00 0. -1.
</event>
<event>
 4    1  0.5722454E+002  0.3084457E+02  0.7546771E-02  0.1412396E+00
          2   -1    0    0  502    0  0.00000000000E+00  0.00000000000E+00  0.55004879500E+03  0.55004879500E+03  0.00000000000E+00 0.  1.
         -2   -1    0    0    0  501 -0.00000000000E+00 -0.00000000000E+00 -0.23816918923E+01  0.23816918923E+01  0.00000000000E+00 0. -1.
         21    1    1    2  502  503  0.30677762523E+02  0.32035216941E+01  0.12930782348E+03  0.13293570204E+03  0.00000000000E+00 0.  1.
         21    1    1    2  503  501 -0.30677762523E+02 -0.32035216941E+01  0.41835927963E+03  0.41949478485E+03  0.00000000000E+00 0. -1.
</event>
<event>
 4    1  0.5722454E+002  0.2736210E+02  0.7546771E-02  0.1444004E+00
          2   -1    0    0  502    0  0.00000000000E+00  0.00000000000E+00  0.15719102651E+03  0.15719102651E+03  0.00000000000E+00 0.  1.
         -2   -1    0    0    0  501 -0.00000000000E+00 -0.00000000000E+00 -0.85434351366E+01  0.85434351366E+01  0.00000000000E+00 0. -1.
         21    1    1    2  502  503  0.26002877835E+02  0.85167459024E+01  0.12944813455E+03  0.13230836767E+03  0.00000000000E+00 0.  1.
         21    1    1    2  503  501 -0.26002877835E+02 -0.85167459024E+01  0.19199456827E+02  0.33426093983E+02  0.00000000000E+00 0. -1.
</event>
<event>
 4    1  0.5722454E+002  0.3299955E+02  0.7546771E-02  0.1395200E+00
          2   -1    0    0  502    0  0.00000000000E+00  0.00000000000E+00  0.92255500033E+03  0.92255500033E+03  0.00000000000E+00 0.  1.
         -2   -1    0    0    0  501 -0.00000000000E+00 -0.00000000000E+00 -0.17964144326E+01  0.17964144326E+01  0.00000000000E+00 0. -1.
         21    1    1    2  502  503 -0.24570124587E+02  0.22029059312E+02  0.73102704737E+03  0.73177149061E+03  0.00000000000E+00 0.  1.
         21    1    1    2  503  501  0.24570124587E+02 -0.22029059312E+02  0.18973153852E+03  0.19257992415E+03  0.00000000000E+00 0. -1.
</event>
<event>
 4    1  0.5722454E+002  0.2069045E+02  0.7546771E-02  0.1523731E+00
          2   -1    0    0  503    0  0.00000000000E+00  0.00000000000E+00  0.30783933703E+03  0.30783933703E+03  0.00000000000E+00 0. -1.
         -2   -1    0    0    0  501 -0.00000000000E+00 -0.00000000000E+00 -0.15509681696E+01  0.15509681696E+01  0.00000000000E+00 0.  1.
         21    1    1    2  502  501 -0.72245062924E+01  0.19388168422E+02  0.10340755495E+03  0.10545718082E+03  0.00000000000E+00 0.  1.
         21    1    1    2  503  502  0.72245062924E+01 -0.19388168422E+02  0.20288081392E+03  0.20393312438E+03  0.00000000000E+00 0. -1.
</event>
<event>
 4    1  0.5722454E+002  0.2418976E+02  0.7546771E-02  0.1478075E+00
          2   -1    0    0  502    0  0.00000000000E+00  0.00000000000E+00  0.65636333215E+03  0.65636333215E+03  0.00000000000E+00 0.  1.
         -2   -1    0    0    0  501 -0.00000000000E+00 -0.00000000000E+00 -0.92712366425E+00  0.92712366425E+00  0.00000000000E+00 0. -1.
         21    1    1    2  502  503  0.22029061573E+02 -0.99932471351E+01  0.39214379337E+03  0.39288916914E+03  0.00000000000E+00 0.  1.
         21    1    1    2  503  501 -0.22029061573E+02  0.99932471351E+01  0.26329241512E+03  0.26440128668E+03  0.00000000000E+00 0. -1.
</event>
<event>
 4    1  0.5722454E+002  0.2452966E+02  0.7546771E-02  0.1474134E+00
          2   -1    0    0  502    0  0.00000000000E+00  0.00000000000E+00  0.11594617012E+03  0.11594617012E+03  0.00000000000E+00 0. -1.
         -2   -1    0    0    0  501 -0.00000000000E+00 -0.00000000000E+00 -0.34262477701E+02  0.34262477701E+02  0.00000000000E+00 0.  1.
         21    1    1    2  502  503  0.27853649340E+01 -0.24371003381E+02  0.11002497907E+03  0.11272621737E+03  0.00000000000E+00 0. -1.
         21    1    1    2  503  501 -0.27853649340E+01  0.24371003381E+02 -0.28341286649E+02  0.37482430451E+02  0.00000000000E+00 0.  1.
</event>
<event>
 4    1  0.5722454E+002  0.3519267E+02  0.7546771E-02  0.1379214E+00
          2   -1    0    0  502    0  0.00000000000E+00  0.00000000000E+00  0.16940214464E+04  0.16940214464E+04  0.00000000000E+00 0.  1.
         -2   -1    0    0    0  501 -0.00000000000E+00 -0.00000000000E+00 -0.10503996419E+01  0.10503996419E+01  0.00000000000E+00 0. -1.
         21    1    1    2  502  503  0.35183079499E+02 -0.82153514072E+00  0.37921321744E+03  0.38084273432E+03  0.00000000000E+00 0. -1.
         21    1    1    2  503  501 -0.35183079499E+02  0.82153514072E+00  0.13137578294E+04  0.13142291118E+04  0.00000000000E+00 0.  1.
</event>
<event>
 4    1  0.5722454E+002  0.2158270E+02  0.7546771E-02  0.1511106E+00
          2   -1    0    0  503    0  0.00000000000E+00  0.00000000000E+00  0.14632075821E+04  0.14632075821E+04  0.00000000000E+00 0. -1.
         -2   -1    0    0    0  501 -0.00000000000E+00 -0.00000000000E+00 -0.43721611235E+00  0.43721611235E+00  0.00000000000E+00 0.  1.
         21    1    1    2  502  501  0.20953429900E+02  0.51736559127E+01  0.34980514972E+03  0.35047033499E+03  0.00000000000E+00 0. -1.
         21    1    1    2  503  502 -0.20953429900E+02 -0.51736559127E+01  0.11129652163E+04  0.11131744632E+04  0.00000000000E+00 0.  1.
</event>
<event>
 4    1  0.5722454E+002  0.2815700E+02  0.7546771E-02  0.1436320E+00
          2   -1    0    0  503    0  0.00000000000E+00  0.00000000000E+00  0.33871087598E+02  0.33871087598E+02  0.00000000000E+00 0.  1.
         -2   -1    0    0    0  501 -0.00000000000E+00 -0.00000000000E+00 -0.38078606788E+02  0.38078606788E+02  0.00000000000E+00 0. -1.
         21    1    1    2  502  501  0.27627996451E+02 -0.54323458165E+01  0.20226769371E+02  0.34668988565E+02  0.00000000000E+00 0.  1.
         21    1    1    2  503  502 -0.27627996451E+02  0.54323458165E+01 -0.24434288561E+02  0.37280705820E+02  0.00000000000E+00 0. -1.
</event>
<event>
 4    1  0.5722454E+002  0.2275108E+02  0.7546771E-02  0.1495648E+00
          2   -1    0    0  503    0  0.00000000000E+00  0.00000000000E+00  0.44330676547E+03  0.44330676547E+03  0.00000000000E+00 0. -1.
         -2   -1    0    0    0  501 -0.00000000000E+00 -0.00000000000E+00 -0.11728301257E+01  0.11728301257E+01  0.00000000000E+00 0.  1.
         21    1    1    2  502  501 -0.21082923768E+02  0.85511321544E+01  0.20624706248E+03  0.20749810196E+03  0.00000000000E+00 0.  1.
         21    1    1    2  503  502  0.21082923768E+02 -0.85511321544E+01  0.23588687286E+03  0.23698149363E+03  0.00000000000E+00 0. -1.
</event>
<event>
 4    1  0.5722454E+002  0.3032764E+02  0.7546771E-02  0.1416770E+00
          2   -1    0    0  502    0  0.00000000000E+00  0.00000000000E+00  0.58828910614E+02  0.58828910614E+02  0.00000000000E+00 0. -1.
         -2   -1    0    0    0  501 -0.00000000000E+00 -0.00000000000E+00 -0.34273605378E+02  0.34273605378E+02  0.00000000000E+00 0.  1.
         21    1    1    2  502  503  0.11314761037E+02  0.28137906529E+02  0.46606804003E+02  0.55605393449E+02  0.00000000000E+00 0. -1.
         21    1    1    2  503  501 -0.11314761037E+02 -0.28137906529E+02 -0.22051498767E+02  0.37497122544E+02  0.00000000000E+00 0.  1.
</event>
<event>
 4    1  0.5722454E+002  0.2966186E+02  0.7546771E-02  0.1422558E+00
          2   -1    0    0  502    0  0.00000000000E+00  0.00000000000E+00  0.90422316459E+03  0.90422316459E+03  0.00000000000E+00 0. -1.
         -2   -1    0    0    0  501 -0.00000000000E+00 -0.00000000000E+00 -0.13870410647E+01  0.13870410647E+01  0.00000000000E+00 0.  1.
         21    1    1    2  502  503  0.29505845116E+02 -0.30382566559E+01  0.69880606765E+03  0.69943530515E+03  0.00000000000E+00 0. -1.
         21    1    1    2  503  501 -0.29505845116E+02  0.30382566559E+01  0.20403005588E+03  0.20617490051E+03  0.00000000000E+00 0.  1.
</event>
<event>
 4    1  0.5722454E+002  0.2828241E+02  0.7546771E-02  0.1435135E+00
          2   -1    0    0  503    0  0.00000000000E+00  0.00000000000E+00  0.96424816365E+03  0.96424816365E+03  0.00000000000E+00 0. -1.
         -2   -1    0    0    0  501 -0.00000000000E+00 -0.00000000000E+00 -0.13131662202E+01  0.13131662202E+01  0.00000000000E+00 0.  1.
         21    1    1    2  502  501  0.28093445068E+02  0.32638670674E+01  0.18848659132E+03  0.19059666731E+03  0.00000000000E+00 0.  1.
         21    1    1    2  503  502 -0.28093445068E+02 -0.32638670674E+01  0.77444840611E+03  0.77496466256E+03  0.00000000000E+00 0. -1.
</event>
<event>
 4    1  0.5722454E+002  0.2662532E+02  0.7546771E-02  0.1451409E+00
          2   -1    0    0  502    0  0.00000000000E+00  0.00000000000E+00  0.15987881039E+01  0.15987881039E+01  0.00000000000E+00 0.  1.
         -2   -1    0    0    0  501 -0.00000000000E+00 -0.00000000000E+00 -0.86273873046E+03  0.86273873046E+03  0.00000000000E+00 0. -1.
         21    1    1    2  502  503  0.16401781795E+02  0.20973534082E+02 -0.12927310666E+03  0.13198652841E+03  0.00000000000E+00 0.  1.
         21    1    1    2  503  501 -0.16401781795E+02 -0.20973534082E+02 -0.73186683570E+03  0.73235099015E+03  0.00000000000E+00 0. -1.
</event>
<event>
 4    1  0.5722454E+002  0.2766237E+02  0.7546771E-02  0.1441066E+00
          2   -1    0    0  503    0  0.00000000000E+00  0.00000000000E+00  0.12825680987E+04  0.12825680987E+04  0.00000000000E+00 0. -1.
         -2   -1    0    0    0  501 -0.00000000000E+00 -0.00000000000E+00 -0.35936053252E+01  0.35936053252E+01  0.00000000000E+00 0.  1.
         21    1    1    2  502  501  0.58893723638E+01 -0.27028166758E+02  0.52210700976E+02  0.59086071129E+02  0.00000000000E+00 0.  1.
         21    1    1    2  503  502 -0.58893723638E+01  0.27028166758E+02  0.12267637924E+04  0.12270756329E+04  0.00000000000E+00 0. -1.
</event>
<event>
 4    1  0.5722454E+002  0.3366745E+02  0.7546771E-02  0.1390181E+00
          2   -1    0    0  503    0  0.00000000000E+00  0.00000000000E+00  0.16354071667E+04  0.16354071667E+04  0.00000000000E+00 0. -1.
         -2   -1    0    0    0  501 -0.00000000000E+00 -0.00000000000E+00 -0.16587225200E+01  0.16587225200E+01  0.00000000000E+00 0.  1.
         21    1    1    2  502  501  0.32091809549E+02 -0.10179039997E+02  0.19234396652E+03  0.19526827329E+03  0.00000000000E+00 0.  1.
         21    1    1    2  503  502 -0.32091809549E+02  0.10179039997E+02  0.14414044776E+04  0.14417976159E+04  0.00000000000E+00 0. -1.
</event>
<event>
 4    1  0.5722454E+002  0.2648149E+02  0.7546771E-02  0.1452887E+00
          2   -1    0    0  502    0  0.00000000000E+00  0.00000000000E+00  0.70005371901E+01  0.70005371901E+01  0.00000000000E+00 0. -1.
         -2   -1    0    0    0  501 -0.00000000000E+00 -0.00000000000E+00 -0.21273389538E+03  0.21273389538E+03  0.00000000000E+00 0.  1.
         21    1    1    2  502  503  0.42971168715E+00  0.26478000526E+02 -0.22949095342E+02  0.35041834156E+02  0.00000000000E+00 0. -1.
         21    1    1    2  503  501 -0.42971168715E+00 -0.26478000526E+02 -0.18278426285E+03  0.18469259841E+03  0.00000000000E+00 0.  1.
</event>
<event>
 4    1  0.5722454E+002  0.2062446E+02  0.7546771E-02  0.1524695E+00
          2   -1    0    0  503    0  0.00000000000E+00  0.00000000000E+00  0.44021646828E+03  0.44021646828E+03  0.00000000000E+00 0. -1.
         -2   -1    0    0    0  501 -0.00000000000E+00 -0.00000000000E+00 -0.11461153553E+01  0.11461153553E+01  0.00000000000E+00 0.  1.
         21    1    1    2  502  501  0.44620587623E+01  0.20136002230E+02  0.13211748087E+03  0.13371760283E+03  0.00000000000E+00 0.  1.
         21    1    1    2  503  502 -0.44620587623E+01 -0.20136002230E+02  0.30695287205E+03  0.30764498080E+03  0.00000000000E+00 0. -1.
</event>
<event>
 4    1  0.5722454E+002  0.2099586E+02  0.7546771E-02  0.1519324E+00
          2   -1    0    0  503    0  0.00000000000E+00  0.00000000000E+00  0.43157857988E+03  0.43157857988E+03  0.00000000000E+00 0. -1.
         -2   -1    0    0    0  501 -0.00000000000E+00 -0.00000000000E+00 -0.31462329743E+01  0.31462329743E+01  0.00000000000E+00 0.  1.
         21    1    1    2  502  501  0.20995529705E+02 -0.11703375782E+00  0.35588539609E+02  0.41320335381E+02  0.00000000000E+00 0.  1.
         21    1    1    2  503  502 -0.20995529705E+02  0.11703375782E+00  0.39284380730E+03  0.39340447748E+03  0.00000000000E+00 0. -1.
</event>
<event>
 4    1  0.5722454E+002  0.2332953E+02  0.7546771E-02  0.1488401E+00
          2   -1    0    0  503    0  0.00000000000E+00  0.00000000000E+00  0.11656273366E+04  0.11656273366E+04  0.00000000000E+00 0.  1.
         -2   -1    0    0    0  501 -0.00000000000E+00 -0.00000000000E+00 -0.13581554494E+02  0.13581554494E+02  0.00000000000E+00 0. -1.
         21    1    1    2  502  501  0.15048817370E+02 -0.17826951734E+02 -0.33576816005E+01  0.23569920197E+02  0.00000000000E+00 0. -1.
         21    1    1    2  503  502 -0.15048817370E+02  0.17826951734E+02  0.11554034637E+04  0.11556389709E+04  0.00000000000E+00 0.  1.
</event>
<event>
 4    1  0.5722454E+002  0.2471919E+02  0.7546771E-02  0.1471969E+00
          2   -1    0    0  503    0  0.00000000000E+00  0.00000000000E+00  0.31876087844E+02  0.31876087844E+02  0.00000000000E+00 0.  1.
         -2   -1    0    0    0  501 -0.00000000000E+00 -0.00000000000E+00 -0.63340265966E+02  0.63340265966E+02  0.00000000000E+00 0. -1.
         21    1    1    2  502  501 -0.56747606286E+01 -0.24058994532E+02 -0.55488823093E+02  0.60745762110E+02  0.00000000000E+00 0. -1.
         21    1    1    2  503  502  0.56747606286E+01  0.24058994532E+02  0.24024644972E+02  0.34470591700E+02  0.00000000000E+00 0.  1.
</event>
<event>
 4    1  0.5722454E+002  0.2034540E+02  0.7546771E-02  0.1528819E+00
          2   -1    0    0  502    0  0.00000000000E+00  0.00000000000E+00  0.11431690564E+04  0.11431690564E+04  0.00000000000E+00 0.  1.
         -2   -1    0    0    0  501 -0.00000000000E+00 -0.00000000000E+00 -0.42332970674E+00  0.42332970674E+00  0.00000000000E+00 0. -1.
         21    1    1    2  502  503  0.87646487954E+00 -0.20326515528E+02  0.78884412405E+03  0.78910644875E+03  0.00000000000E+00 0. -1.
         21    1    1    2  503  501 -0.87646487954E+00  0.20326515528E+02  0.35390160268E+03  0.35448593738E+03  0.00000000000E+00 0.  1.
</event>
<event>
 4    1  0.5722454E+002  0.2207467E+02  0.7546771E-02  0.1504456E+00
          2   -1    0    0  503    0  0.00000000000E+00  0.00000000000E+00  0.14062435605E+03  0.14062435605E+03  0.00000000000E+00 0. -1.
         -2   -1    0    0    0  501 -0.00000000000E+00 -0.00000000000E+00 -0.47915207859E+01  0.47915207859E+01  0.00000000000E+00 0.  1.
         21    1    1    2  502  501  0.21926928743E+02  0.25496927365E+01  0.29663032361E+02  0.36975486825E+02  0.00000000000E+00 0.  1.
         21    1    1    2  503  502 -0.21926928743E+02 -0.25496927365E+01  0.10616980290E+03  0.10844039001E+03  0.00000000000E+00 0. -1.
</event>
<event>
 4    1  0.5722454E+002  0.2230155E+02  0.7546771E-02  0.1501460E+00
          2   -1    0    0  502    0  0.00000000000E+00  0.00000000000E+00  0.71698545150E+03  0.71698545150E+03  0.00000000000E+00 0. -1.
         -2   -1    0    0    0  501 -0.00000000000E+00 -0.00000000000E+00 -0.13770771436E+01  0.13770771436E+01  0.00000000000E+00 0.  1.
         21    1    1    2  502  503 -0.41867245602E+01  0.21905028372E+02  0.61083354569E+03  0.61124052506E+03  0.00000000000E+00 0. -1.
         21    1    1    2  503  501  0.41867245602E+01 -0.21905028372E+02  0.10477482867E+03  0.10712200359E+03  0.00000000000E+00 0.  1.
</event>
<event>
 4    1  0.5722454E+002  0.2358034E+02  0.7546771E-02  0.1485337E+00
          2   -1    0    0  502    0  0.00000000000E+00  0.00000000000E+00  0.78126405896E+03  0.78126405896E+03  0.00000000000E+00 0.  1.
         -2   -1    0    0    0  501 -0.00000000000E+00 -0.00000000000E+00 -0.10802220324E+01  0.10802220324E+01  0.00000000000E+00 0. -1.
         21    1    1    2  502  503  0.19798135541E+02  0.12808844105E+02  0.61856646792E+03  0.61901575739E+03  0.00000000000E+00 0.  1.
         21    1    1    2  503  501 -0.19798135541E+02 -0.12808844105E+02  0.16161736901E+03  0.16332852361E+03  0.00000000000E+00 0. -1.
</event>
<event>
 4    1  0.5722454E+002  0.2217622E+02  0.7546771E-02  0.1503110E+00
          2   -1    0    0  503    0  0.00000000000E+00  0.00000000000E+00  0.56993237472E+01  0.56993237472E+01  0.00000000000E+00 0.  1.
         -2   -1    0    0    0  501 -0.00000000000E+00 -0.00000000000E+00 -0.10059903200E+03  0.10059903200E+03  0.00000000000E+00 0. -1.
         21    1    1    2  502  501  0.20652968274E+02 -0.80770991200E+01 -0.67496025983E+02  0.71045746897E+02  0.00000000000E+00 0. -1.
         21    1    1    2  503  502 -0.20652968274E+02  0.80770991200E+01 -0.27403682269E+02  0.35252608848E+02  0.00000000000E+00 0.  1.
</event>
<event>
 4    1  0.5722454E+002  0.2820189E+02  0.7546771E-02  0.1435895E+00
          2   -1    0    0  502    0  0.00000000000E+00  0.00000000000E+00  0.18570039849E+04  0.18570039849E+04  0.00000000000E+00 0. -1.
         -2   -1    0    0    0  501 -0.00000000000E+00 -0.00000000000E+00 -0.46263032341E+01  0.46263032341E+01  0.00000000000E+00 0.  1.
         21    1    1    2  502  503 -0.79629986462E+01  0.27054341824E+02  0.18128710636E+04  0.18130904115E+04  0.00000000000E+00 0. -1.
         21    1    1    2  503  501  0.79629986462E+01 -0.27054341824E+02  0.39506618008E+02  0.48539876652E+02  0.00000000000E+00 0.  1.
</event>
<event>
 4    1  0.5722454E+002  0.5525772E+02  0.7546771E-02  0.1276856E+00
          2   -1    0    0  502    0  0.00000000000E+00  0.00000000000E+00  0.19832708007E+03  0.19832708007E+03  0.00000000000E+00 0. -1.
         -2   -1    0    0    0  501 -0.00000000000E+00 -0.00000000000E+00 -0.42481488875E+02  0.42481488875E+02  0.00000000000E+00 0.  1.
         21    1    1    2  502  503  0.14415764314E+02  0.53344173337E+02  0.17406444606E+03  0.18262487911E+03  0.00000000000E+00 0. -1.
         21    1    1    2  503  501 -0.14415764314E+02 -0.53344173337E+02 -0.18218854864E+02  0.58183689831E+02  0.00000000000E+00 0.  1.
</event>
<event>
 4    1  0.5722454E+002  0.3195245E+02  0.7546771E-02  0.1403355E+00
          2   -1    0    0  502    0  0.00000000000E+00  0.00000000000E+00  0.13220789727E+04  0.13220789727E+04  0.00000000000E+00 0.  1.
         -2   -1    0    0    0  501 -0.00000000000E+00 -0.00000000000E+00 -0.15272612180E+01  0.15272612180E+01  0.00000000000E+00 0. -1.
         21    1    1    2  502  503  0.29992042408E+02  0.11019819332E+02  0.11255966165E+04  0.11260500443E+04  0.00000000000E+00 0.  1.
         21    1    1    2  503  501 -0.29992042408E+02 -0.11019819332E+02  0.19495509495E+03  0.19755618966E+03  0.00000000000E+00 0. -1.
</event>
<event>
 4    1  0.5722454E+002  0.3662554E+02  0.7546771E-02  0.1369482E+00
          2   -1    0    0  502    0  0.00000000000E+00  0.00000000000E+00  0.18667166230E+02  0.18667166230E+02  0.00000000000E+00 0.  1.
         -2   -1    0    0    0  501 -0.00000000000E+00 -0.00000000000E+00 -0.71948532123E+02  0.71948532123E+02  0.00000000000E+00 0. -1.
         21    1    1    2  502  503  0.36490954744E+02  0.31369755877E+01 -0.25055126049E+02  0.44375553352E+02  0.00000000000E+00 0.  1.
         21    1    1    2  503  501 -0.36490954744E+02 -0.31369755877E+01 -0.28226239844E+02  0.46240145001E+02  0.00000000000E+00 0. -1.
</event>
<event>
 4    1  0.5722454E+002  0.3118620E+02  0.7546771E-02  0.1409561E+00
          2   -1    0    0  502    0  0.00000000000E+00  0.00000000000E+00  0.71016136869E+02  0.71016136869E+02  0.00000000000E+00 0. -1.
         -2   -1    0    0    0  501 -0.00000000000E+00 -0.00000000000E+00 -0.16076565881E+02  0.16076565881E+02  0.00000000000E+00 0.  1.
         21    1    1    2  502  503 -0.22647511072E+01  0.31103853253E+02  0.44229630883E+02  0.54118749365E+02  0.00000000000E+00 0. -1.
         21    1    1    2  503  501  0.22647511072E+01 -0.31103853253E+02  0.10709940105E+02  0.32973953385E+02  0.00000000000E+00 0.  1.
</event>
<event>
 4    1  0.5722454E+002  0.2222231E+02  0.7546771E-02  0.1502502E+00
          2   -1    0    0  503    0  0.00000000000E+00  0.00000000000E+00  0.25445281141E+03  0.25445281141E+03  0.00000000000E+00 0. -1.
         -2   -1    0    0    0  501 -0.00000000000E+00 -0.00000000000E+00 -0.24047953394E+02  0.24047953394E+02  0.00000000000E+00 0.  1.
         21    1    1    2  502  501 -0.32235771719E+00  0.22219973027E+02 -0.18310759855E+02  0.28794357820E+02  0.00000000000E+00 0.  1.
         21    1    1    2  503  502  0.32235771719E+00 -0.22219973027E+02  0.24871561787E+03  0.24970640698E+03  0.00000000000E+00 0. -1.
</event>
<event>
 4    1  0.5722454E+002  0.7179594E+02  0.7546771E-02  0.1224292E+00
          2   -1    0    0  503    0  0.00000000000E+00  0.00000000000E+00  0.10287431082E+04  0.10287431082E+04  0.00000000000E+00 0.  1.
         -2   -1    0    0    0  501 -0.00000000000E+00 -0.00000000000E+00 -0.10664338323E+02  0.10664338323E+02  0.00000000000E+00 0. -1.
         21    1    1    2  502  501 -0.51276441038E+02  0.50253196781E+02  0.13063571267E+03  0.14906490739E+03  0.00000000000E+00 0. -1.
         21    1    1    2  503  502  0.51276441038E+02 -0.50253196781E+02  0.88744305718E+03  0.89034253910E+03  0.00000000000E+00 0.  1.
</event>
<event>
 4    1  0.5722454E+002  0.2264937E+02  0.7546771E-02  0.1496949E+00
          2   -1    0    0  503    0  0.00000000000E+00  0.00000000000E+00  0.86973155684E+03  0.86973155684E+03  0.00000000000E+00 0.  1.
         -2   -1    0    0    0  501 -0.00000000000E+00 -0.00000000000E+00 -0.10200593086E+01  0.10200593086E+01  0.00000000000E+00 0. -1.
         21    1    1    2  502  501 -0.30109137566E+01  0.22448350623E+02  0.15160652990E+03  0.15328905361E+03  0.00000000000E+00 0. -1.
         21    1    1    2  503  502  0.30109137566E+01 -0.22448350623E+02  0.71710496762E+03  0.71746256253E+03  0.00000000000E+00 0.  1.
</event>
<event>
 4    1  0.5722454E+002  0.2519501E+02  0.7546771E-02  0.1466633E+00
          2   -1    0    0  502    0  0.00000000000E+00  0.00000000000E+00  0.24011061838E+03  0.24011061838E+03  0.00000000000E+00 0.  1.
         -2   -1    0    0    0  501 -0.00000000000E+00 -0.00000000000E+00 -0.62942983005E+01  0.62942983005E+01  0.00000000000E+00 0. -1.
         21    1    1    2  502  503 -0.16718959397E+02 -0.18848479293E+02  0.21073469377E+03  0.21223548227E+03  0.00000000000E+00 0.  1.
         21    1    1    2  503  501  0.16718959397E+02  0.18848479293E+02  0.23081626307E+02  0.34169434411E+02  0.00000000000E+00 0. -1.
</event>
<event>
 4    1  0.5722454E+002  0.5447500E+02  0.7546771E-02  0.1279855E+00
          2   -1    0    0  502    0  0.00000000000E+00  0.00000000000E+00  0.67736094511E+03  0.67736094511E+03  0.00000000000E+00 0. -1.
         -2   -1    0    0    0  501 -0.00000000000E+00 -0.00000000000E+00 -0.46647700851E+01  0.46647700851E+01  0.00000000000E+00 0.  1.
         21    1    1    2  502  503  0.29806581409E+02  0.45597073404E+02  0.42045485057E+03  0.42396911063E+03  0.00000000000E+00 0.  1.
         21    1    1    2  503  501 -0.29806581409E+02 -0.45597073404E+02  0.25224132446E+03  0.25805660457E+03  0.00000000000E+00 0. -1.
</event>
<event>
 4    1  0.5722454E+002  0.2770919E+02  0.7546771E-02  0.1440611E+00
          2   -1    0    0  503    0  0.00000000000E+00  0.00000000000E+00  0.11010573468E+04  0.11010573468E+04  0.00000000000E+00 0.  1.
         -2   -1    0    0    0  501 -0.00000000000E+00 -0.00000000000E+00 -0.77895077845E+00  0.77895077845E+00  0.00000000000E+00 0. -1.
         21    1    1    2  502  501  0.22580181669E+02  0.16060335697E+02  0.37180457910E+03  0.37283567966E+03  0.00000000000E+00 0.  1.
         21    1    1    2  503  502 -0.22580181669E+02 -0.16060335697E+02  0.72847381693E+03  0.72900061793E+03  0.00000000000E+00 0. -1.
</event>
<event>
 4    1  0.5722454E+002  0.2504986E+02  0.7546771E-02  0.1468246E+00
          2   -1    0    0  502    0  0.00000000000E+00  0.00000000000E+00  0.40295968395E+03  0.40295968395E+03  0.00000000000E+00 0.  1.
         -2   -1    0    0    0  501 -0.00000000000E+00 -0.00000000000E+00 -0.40222153303E+01  0.40222153303E+01  0.00000000000E+00 0. -1.
         21    1    1    2  502  503  0.23630156666E+01 -0.24938158024E+02  0.35877056876E+03  0.35964401368E+03  0.00000000000E+00 0.  1.
         21    1    1    2  503  501 -0.23630156666E+01  0.24938158024E+02  0.40166899862E+02  0.47337885601E+02  0.00000000000E+00 0. -1.
</event>
<event>
 4    1  0.5722454E+002  0.2550234E+02  0.7546771E-02  0.1463261E+00
          2   -1    0    0  503    0  0.00000000000E+00  0.00000000000E+00  0.23267100882E+03  0.23267100882E+03  0.00000000000E+00 0. -1.
         -2   -1    0    0    0  501 -0.00000000000E+00 -0.00000000000E+00 -0.32348159191E+01  0.32348159191E+01  0.00000000000E+00 0.  1.
         21    1    1    2  502  501 -0.19920832831E+02 -0.15922624687E+02  0.71236593115E+02  0.75663873522E+02  0.00000000000E+00 0.  1.
         21    1    1    2  503  502  0.19920832831E+02  0.15922624687E+02  0.15819959979E+03  0.16024195122E+03  0.00000000000E+00 0. -1.
</event>
<event>
 4    1  0.5722454E+002  0.4307982E+02  0.7546771E-02  0.1331326E+00
          2   -1    0    0  503    0  0.00000000000E+00  0.00000000000E+00  0.35611856805E+03  0.35611856805E+03  0.00000000000E+00 0. -1.
         -2   -1    0    0    0  501 -0.00000000000E+00 -0.00000000000E+00 -0.85738486114E+01  0.85738486114E+01  0.00000000000E+00 0.  1.
         21    1    1    2  502  501  0.43079143248E+02 -0.24121813427E+00  0.59579838028E+02  0.73522975107E+02  0.00000000000E+00 0.  1.
         21    1    1    2  503  502 -0.43079143248E+02  0.24121813427E+00  0.28796488141E+03  0.29116944155E+03  0.00000000000E+00 0. -1.
</event>
<event>
 4    1  0.5722454E+002  0.2344871E+02  0.7546771E-02  0.1486939E+00
          2   -1    0    0  502    0  0.00000000000E+00  0.00000000000E+00  0.15414861442E+04  0.15414861442E+04  0.00000000000E+00 0.  1.
         -2   -1    0    0    0  501 -0.00000000000E+00 -0.00000000000E+00 -0.44833934372E+00  0.44833934372E+00  0.00000000000E+00 0. -1.
         21    1    1    2  502  503  0.18734549558E+02 -0.14101722441E+02  0.11190832723E+04  0.11193289115E+04  0.00000000000E+00 0.  1.
         21    1    1    2  503  501 -0.18734549558E+02  0.14101722441E+02  0.42195453257E+03  0.42260557199E+03  0.00000000000E+00 0. -1.
</event>
<event>
 4    1  0.5722454E+002  0.2693515E+02  0.7546771E-02  0.1448261E+00
          2   -1    0    0  502    0  0.00000000000E+00  0.00000000000E+00  0.74520285589E+03  0.74520285589E+03  0.00000000000E+00 0. -1.
         -2   -1    0    0    0  501 -0.00000000000E+00 -0.00000000000E+00 -0.35913024117E+01  0.35913024117E+01  0.00000000000E+00 0.  1.
         21    1    1    2  502  503 -0.26391661971E+02  0.53835155195E+01  0.69045205662E+03  0.69097723880E+03  0.00000000000E+00 0. -1.
         21    1    1    2  503  501  0.26391661971E+02 -0.53835155195E+01  0.51159496865E+02  0.57816919499E+02  0.00000000000E+00 0.  1.
</event>
<event>
 4    1  0.5722454E+002  0.2197961E+02  0.7546771E-02  0.1505725E+00
          2   -1    0    0  503    0  0.00000000000E+00  0.00000000000E+00  0.20976680240E+03  0.20976680240E+03  0.00000000000E+00 0.  1.
         -2   -1    0    0    0  501 -0.00000000000E+00 -0.00000000000E+00 -0.23903440125E+01  0.23903440125E+01  0.00000000000E+00 0. -1.
         21    1    1    2  502  501 -0.16413533776E+02  0.14618456188E+02  0.83416506090E+02  0.86263647272E+02  0.00000000000E+00 0.  1.
         21    1    1    2  503  502  0.16413533776E+02 -0.14618456188E+02  0.12395995229E+03  0.12589349914E+03  0.00000000000E+00 0. -1.
</event>
<event>
 4    1  0.5722454E+002  0.2259860E+02  0.7546771E-02  0.1497601E+00
          2   -1    0    0  502    0  0.00000000000E+00  0.00000000000E+00  0.40795312556E+03  0.40795312556E+03  0.00000000000E+00 0. -1.
         -2   -1    0    0    0  501 -0.00000000000E+00 -0.00000000000E+00 -0.17252297195E+01  0.17252297195E+01  0.00000000000E+00 0.  1.
         21    1    1    2  502  503 -0.22418580616E+02  0.28467341404E+01  0.31041248088E+03  0.31123400351E+03  0.00000000000E+00 0. -1.
         21    1    1    2  503  501  0.22418580616E+02 -0.28467341404E+01  0.95815414960E+02  0.98444351773E+02  0.00000000000E+00 0.  1.
</event>
<event>
 4    1  0.5722454E+002  0.2156268E+02  0.7546771E-02  0.1511381E+00
          2   -1    0    0  502    0  0.00000000000E+00  0.00000000000E+00  0.85092850352E+03  0.85092850352E+03  0.00000000000E+00 0.  1.
         -2   -1    0    0    0  501 -0.00000000000E+00 -0.00000000000E+00 -0.56238073817E+00  0.56238073817E+00  0.00000000000E+00 0. -1.
         21    1    1    2  502  503  0.13935820697E+02 -0.16454237669E+02  0.49694696192E+03  0.49741454743E+03  0.00000000000E+00 0.  1.
         21    1    1    2  503  501 -0.13935820697E+02  0.16454237669E+02  0.35341916086E+03  0.35407633683E+03  0.00000000000E+00 0. -1.
</event>
<event>
 4    1  0.5722454E+002  0.3006054E+02  0.7546771E-02  0.1419071E+00
          2   -1    0    0  503    0  0.00000000000E+00  0.00000000000E+00  0.84223973367E+02  0.84223973367E+02  0.00000000000E+00 0. -1.
         -2   -1    0    0    0  501 -0.00000000000E+00 -0.00000000000E+00 -0.32861712389E+02  0.32861712389E+02  0.00000000000E+00 0.  1.
         21    1    1    2  502  501 -0.23865275387E+02  0.18277976307E+02 -0.22363671603E+02  0.37466913334E+02  0.00000000000E+00 0.  1.
         21    1    1    2  503  502  0.23865275387E+02 -0.18277976307E+02  0.73725932580E+02  0.79618772422E+02  0.00000000000E+00 0. -1.
</event>
<event>
 4    1  0.5722454E+002  0.2812448E+02  0.7546771E-02  0.1436628E+00
          2   -1    0    0  503    0  0.00000000000E+00  0.00000000000E+00  0.40524678757E+02  0.40524678757E+02  0.00000000000E+00 0.  1.
         -2   -1    0    0    0  501 -0.00000000000E+00 -0.00000000000E+00 -0.24192189393E+02  0.24192189393E+02  0.00000000000E+00 0. -1.
         21    1    1    2  502  501  0.11753847517E+02 -0.25550607708E+02 -0.60561745884E+01  0.28769145561E+02  0.00000000000E+00 0. -1.
         21    1    1    2  503  502 -0.11753847517E+02  0.25550607708E+02  0.22388663953E+02  0.35947722588E+02  0.00000000000E+00 0.  1.
</event>
<event>
 4    1  0.5722454E+002  0.2569553E+02  0.7546771E-02  0.1461171E+00
          2   -1    0    0  503    0  0.00000000000E+00  0.00000000000E+00  0.82282248370E+03  0.82282248370E+03  0.00000000000E+00 0. -1.
         -2   -1    0    0    0  501 -0.00000000000E+00 -0.00000000000E+00 -0.83831903778E+00  0.83831903778E+00  0.00000000000E+00 0.  1.
         21    1    1    2  502  501 -0.24511542842E+02 -0.77100402796E+01  0.32578562166E+03  0.32679738636E+03  0.00000000000E+00 0.  1.
         21    1    1    2  503  502  0.24511542842E+02  0.77100402796E+01  0.49619854300E+03  0.49686341637E+03  0.00000000000E+00 0. -1.
</event>
<event>
 4    1  0.5722454E+002  0.3283869E+02  0.7546771E-02  0.1396430E+00
          2   -1    0    0  503    0  0.00000000000E+00  0.00000000000E+00  0.13223621798E+04  0.13223621798E+04  0.00000000000E+00 0. -1.
         -2   -1    0    0    0  501 -0.00000000000E+00 -0.00000000000E+00 -0.15565662639E+01  0.15565662639E+01  0.00000000000E+00 0.  1.
         21    1    1    2  502  501  0.30912681798E+02 -0.11080861963E+02  0.20365381971E+03  0.20628440969E+03  0.00000000000E+00 0.  1.
         21    1    1    2  503  502 -0.30912681798E+02  0.11080861963E+02  0.11171517938E+04  0.11176343364E+04  0.00000000000E+00 0. -1.
</event>
<event>
 4    1  0.5722454E+002  0.2133391E+02  0.7546771E-02  0.1514550E+00
          2   -1    0    0  503    0  0.00000000000E+00  0.00000000000E+00  0.72250998993E+03  0.72250998993E+03  0.00000000000E+00 0.  1.
         -2   -1    0    0    0  501 -0.00000000000E+00 -0.00000000000E+00 -0.12116474187E+01  0.12116474187E+01  0.00000000000E+00 0. -1.
         21    1    1    2  502  501  0.20749015627E+02 -0.49612699671E+01  0.10991887502E+03  0.11197006267E+03  0.00000000000E+00 0. -1.
         21    1    1    2  503  502 -0.20749015627E+02  0.49612699671E+01  0.61137946750E+03  0.61175157468E+03  0.00000000000E+00 0.  1.
</event>
<event>
 4    1  0.5722454E+002  0.2889896E+02  0.7546771E-02  0.1429412E+00
          2   -1    0    0  503    0  0.00000000000E+00  0.00000000000E+00  0.19625117182E+03  0.19625117182E+03  0.00000000000E+00 0.  1.
         -2   -1    0    0    0  501 -0.00000000000E+00 -0.00000000000E+00 -0.68685846558E+01  0.68685846558E+01  0.00000000000E+00 0. -1.
         21    1    1    2  502  501  0.20969083578E+02 -0.19885858398E+02  0.32049522705E+02  0.43154625893E+02  0.00000000000E+00 0.  1.
         21    1    1    2  503  502 -0.20969083578E+02  0.19885858398E+02  0.15733306446E+03  0.15996513059E+03  0.00000000000E+00 0. -1.
</event>
<event>
 4    1  0.5722454E+002  0.2043859E+02  0.7546771E-02  0.1527433E+00
          2   -1    0    0  502    0  0.00000000000E+00  0.00000000000E+00  0.24782181660E+03  0.24782181660E+03  0.00000000000E+00 0.  1.
         -2   -1    0    0    0  501 -0.00000000000E+00 -0.00000000000E+00 -0.26805459016E+01  0.26805459016E+01  0.00000000000E+00 0. -1.
         21    1    1    2  502  503  0.20423375454E+02  0.78855571665E+00  0.19887743148E+03  0.19992490799E+03  0.00000000000E+00 0.  1.
         21    1    1    2  503  501 -0.20423375454E+02 -0.78855571665E+00  0.46263839221E+02  0.50577454508E+02  0.00000000000E+00 0. -1.
</event>
<event>
 4    1  0.5722454E+002  0.2088663E+02  0.7546771E-02  0.1520890E+00
          2   -1    0    0  503    0  0.00000000000E+00  0.00000000000E+00  0.64058193400E+02  0.64058193400E+02  0.00000000000E+00 0. -1.
         -2   -1    0    0    0  501 -0.00000000000E+00 -0.00000000000E+00 -0.19049964793E+02  0.19049964793E+02  0.00000000000E+00 0.  1.
         21    1    1    2  502  501  0.20644109023E+02  0.31736760375E+01 -0.10804185050E+02  0.23515566580E+02  0.00000000000E+00 0.  1.
         21    1    1    2  503  502 -0.20644109023E+02 -0.31736760375E+01  0.55812413658E+02  0.59592591614E+02  0.00000000000E+00 0. -1.
</event>
<event>
 4    1  0.5722454E+002  0.3091416E+02  0.7546771E-02  0.1411815E+00
          2   -1    0    0  502    0  0.00000000000E+00  0.00000000000E+00  0.14926838891E+03  0.14926838891E+03  0.00000000000E+00 0. -1.
         -2   -1    0    0    0  501 -0.00000000000E+00 -0.00000000000E+00 -0.91228161496E+01  0.91228161496E+01  0.00000000000E+00 0.  1.
         21    1    1    2  502  503 -0.27938732750E+02  0.13233013258E+02  0.11331911070E+03  0.11746023275E+03  0.00000000000E+00 0. -1.
         21    1    1    2  503  501  0.27938732750E+02 -0.13233013258E+02  0.26826462057E+02  0.40930972308E+02  0.00000000000E+00 0.  1.
</event>
<event>
 4    1  0.5722454E+002  0.3154351E+02  0.7546771E-02  0.1406641E+00
          2   -1    0    0  503    0  0.00000000000E+00  0.00000000000E+00  0.10601306050E+04  0.10601306050E+04  0.00000000000E+00 0.  1.
         -2   -1    0    0    0  501 -0.00000000000E+00 -0.00000000000E+00 -0.13616196577E+01  0.13616196577E+01  0.00000000000E+00 0. -1.
         21    1    1    2  502  501 -0.26008546850E+02  0.17847931727E+02  0.23354157509E+03  0.23566217446E+03  0.00000000000E+00 0. -1.
         21    1    1    2  503  502  0.26008546850E+02 -0.17847931727E+02  0.82522741024E+03  0.82583005019E+03  0.00000000000E+00 0.  1.
</event>
<event>
 4    1  0.5722454E+002  0.3003543E+02  0.7546771E-02  0.1419289E+00
          2   -1    0    0  502    0  0.00000000000E+00  0.00000000000E+00  0.58458629991E+02  0.58458629991E+02  0.00000000000E+00 0.  1.
         -2   -1    0    0    0  501 -0.00000000000E+00 -0.00000000000E+00 -0.29933043016E+02  0.29933043016E+02  0.00000000000E+00 0. -1.
         21    1    1    2  502  503 -0.21950101092E+02  0.20501717375E+02  0.45024267245E+02  0.54123118851E+02  0.00000000000E+00 0.  1.
         21    1    1    2  503  501  0.21950101092E+02 -0.20501717375E+02 -0.16498680270E+02  0.34268554156E+02  0.00000000000E+00 0. -1.
</event>
<event>
 4    1  0.5722454E+002  0.2357855E+02  0.7546771E-02  0.1485358E+00
          2   -1    0    0  502    0  0.00000000000E+00  0.00000000000E+00  0.10901545075E+04  0.10901545075E+04  0.00000000000E+00 0. -1.
         -2   -1    0    0    0  501 -0.00000000000E+00 -0.00000000000E+00 -0.12664262026E+01  0.12664262026E+01  0.00000000000E+00 0.  1.
         21    1    1    2  502  503 -0.11668237294E+02  0.20489025795E+02  0.96620244759E+03  0.96649010221E+03  0.00000000000E+00 0. -1.
         21    1    1    2  503  501  0.11668237294E+02 -0.20489025795E+02  0.12268563374E+03  0.12493083152E+03  0.00000000000E+00 0.  1.
</event>
<event>
 4    1  0.5722454E+002  0.2355974E+02  0.7546771E-02  0.1485587E+00
          2   -1    0    0  503    0  0.00000000000E+00  0.00000000000E+00  0.33324245921E+01  0.33324245921E+01  0.00000000000E+00 0. -1.
         -2   -1    0    0    0  501 -0.00000000000E+00 -0.00000000000E+00 -0.17004430028E+03  0.17004430028E+03  0.00000000000E+00 0.  1.
         21    1    1    2  502  501 -0.22936403820E+02 -0.53835554706E+01 -0.70953677324E+02  0.74762862542E+02  0.00000000000E+00 0.  1.
         21    1    1    2  503  502  0.22936403820E+02  0.53835554706E+01 -0.95758198361E+02  0.98613862327E+02  0.00000000000E+00 0. -1.
</event>
<event>
 4    1  0.5722454E+002  0.4129544E+02  0.7546771E-02  0.1341057E+00
          2   -1    0    0  502    0  0.00000000000E+00  0.00000000000E+00  0.24191811573E+04  0.24191811573E+04  0.00000000000E+00 0.  1.
         -2   -1    0    0    0  501 -0.00000000000E+00 -0.00000000000E+00 -0.76059609001E+00  0.76059609001E+00  0.00000000000E+00 0. -1.
         21    1    1    2  502  503  0.22091518559E+02  0.34889512803E+02  0.88182598252E+03  0.88279237465E+03  0.00000000000E+00 0. -1.
         21    1    1    2  503  501 -0.22091518559E+02 -0.34889512803E+02  0.15365945786E+04  0.15371493787E+04  0.00000000000E+00 0.  1.
</event>
<event>
 4    1  0.5722454E+002  0.2055544E+02  0.7546771E-02  0.1525708E+00
          2   -1    0    0  502    0  0.00000000000E+00  0.00000000000E+00  0.78033777958E+02  0.78033777958E+02  0.00000000000E+00 0. -1.
         -2   -1    0    0    0  501 -0.00000000000E+00 -0.00000000000E+00 -0.66805231723E+01  0.66805231723E+01  0.00000000000E+00 0.  1.
         21    1    1    2  502  503 -0.10108452069E+02  0.17898187614E+02  0.54114715157E+02  0.57887203419E+02  0.00000000000E+00 0. -1.
         21    1    1    2  503  501  0.10108452069E+02 -0.17898187614E+02  0.17238539628E+02  0.26827097711E+02  0.00000000000E+00 0.  1.
</event>
<event>
 4    1  0.5722454E+002  0.2207059E+02  0.7546771E-02  0.1504511E+00
          2   -1    0    0  502    0  0.00000000000E+00  0.00000000000E+00  0.64928358999E+02  0.64928358999E+02  0.00000000000E+00 0.  1.
         -2   -1    0    0    0  501 -0.00000000000E+00 -0.00000000000E+00 -0.11302976345E+02  0.11302976345E+02  0.00000000000E+00 0. -1.
         21    1    1    2  502  503 -0.21776979964E+02  0.35880684336E+01  0.48915038188E+02  0.53663693988E+02  0.00000000000E+00 0. -1.
         21    1    1    2  503  501  0.21776979964E+02 -0.35880684336E+01  0.47103444659E+01  0.22567641357E+02  0.00000000000E+00 0.  1.
</event>
<event>
 4    1  0.5722454E+002  0.3301231E+02  0.7546771E-02  0.1395103E+00
          2   -1    0    0  502    0  0.00000000000E+00  0.00000000000E+00  0.20530251187E+03  0.20530251187E+03  0.00000000000E+00 0. -1.
         -2   -1    0    0    0  501 -0.00000000000E+00 -0.00000000000E+00 -0.53560732264E+01  0.53560732264E+01  0.00000000000E+00 0.  1.
         21    1    1    2  502  503  0.31062347877E+02 -0.11177787823E+02  0.10991824405E+03  0.11476860534E+03  0.00000000000E+00 0. -1.
         21    1    1    2  503  501 -0.31062347877E+02  0.11177787823E+02  0.90028194591E+02  0.95889979756E+02  0.00000000000E+00 0.  1.
</event>
<event>
 4    1  0.5722454E+002  0.6043856E+02  0.7546771E-02  0.1258350E+00
          2   -1    0    0  503    0  0.00000000000E+00  0.00000000000E+00  0.29303806944E+02  0.29303806944E+02  0.00000000000E+00 0.  1.
         -2   -1    0    0    0  501 -0.00000000000E+00 -0.00000000000E+00 -0.12517054248E+03  0.12517054248E+03  0.00000000000E+00 0. -1.
         21    1    1    2  502  501 -0.47724678789E+02 -0.37083340641E+02 -0.52897932001E+02  0.80318181806E+02  0.00000000000E+00 0.  1.
         21    1    1    2  503  502  0.47724678789E+02  0.37083340641E+02 -0.42968803538E+02  0.74156167620E+02  0.00000000000E+00 0. -1.
</event>
<event>
 4    1  0.5722454E+002  0.2192195E+02  0.7546771E-02  0.1506498E+00
          2   -1    0    0  502    0  0.00000000000E+00  0.00000000000E+00  0.31501849681E+02  0.31501849681E+02  0.00000000000E+00 0.  1.
         -2   -1    0    0    0  501 -0.00000000000E+00 -0.00000000000E+00 -0.17653995071E+02  0.17653995071E+02  0.00000000000E+00 0. -1.
         21    1    1    2  502  503 -0.13022129406E+02  0.17635077284E+02  0.15983474318E+02  0.27130117146E+02  0.00000000000E+00 0.  1.
         21    1    1    2  503  501  0.13022129406E+02 -0.17635077284E+02 -0.21356197076E+01  0.22025727607E+02  0.00000000000E+00 0. -1.
</event>
<event>
 4    1  0.5722454E+002  0.3424876E+02  0.7546771E-02  0.1385923E+00
          2   -1    0    0  503    0  0.00000000000E+00  0.00000000000E+00  0.66844678953E+02  0.66844678953E+02  0.00000000000E+00 0.  1.
         -2   -1    0    0    0  501 -0.00000000000E+00 -0.00000000000E+00 -0.18051217820E+02  0.18051217820E+02  0.00000000000E+00 0. -1.
         21    1    1    2  502  501 -0.32006306003E+02 -0.12189078461E+02  0.31485428181E+02  0.46522139304E+02  0.00000000000E+00 0.  1.
         21    1    1    2  503  502  0.32006306003E+02  0.12189078461E+02  0.17308032952E+02  0.38373757469E+02  0.00000000000E+00 0. -1.
</event>
<event>
 4    1  0.5722454E+002  0.2181923E+02  0.7546771E-02  0.1507882E+00
          2   -1    0    0  503    0  0.00000000000E+00  0.00000000000E+00  0.39409520398E+02  0.39409520398E+02  0.00000000000E+00 0. -1.
         -2   -1    0    0    0  501 -0.00000000000E+00 -0.00000000000E+00 -0.16958575772E+02  0.16958575772E+02  0.00000000000E+00 0.  1.
         21    1    1    2  502  501 -0.14405189064E+02 -0.16388086379E+02 -0.38907000969E+01  0.22163402139E+02  0.00000000000E+00 0.  1.
         21    1    1    2  503  502  0.14405189064E+02  0.16388086379E+02  0.26341644723E+02  0.34204694032E+02  0.00000000000E+00 0. -1.
</event>
<event>
 4    1  0.5722454E+002  0.2190548E+02  0.7546771E-02  0.1506719E+00
          2   -1    0    0  503    0  0.00000000000E+00  0.00000000000E+00  0.13982606555E+01  0.13982606555E+01  0.00000000000E+00 0.  1.
         -2   -1    0    0    0  501 -0.00000000000E+00 -0.00000000000E+00 -0.34944742944E+03  0.34944742944E+03  0.00000000000E+00 0. -1.
         21    1    1    2  502  501 -0.18355335940E+02 -0.11955409594E+02 -0.19752425216E+03  0.19873520163E+03  0.00000000000E+00 0. -1.
         21    1    1    2  503  502  0.18355335940E+02  0.11955409594E+02 -0.15052491663E+03  0.15211048847E+03  0.00000000000E+00 0.  1.
</event>
<event>
 4    1  0.5722454E+002  0.2228766E+02  0.7546771E-02  0.1501642E+00
          2   -1    0    0  502    0  0.00000000000E+00  0.00000000000E+00  0.85373246336E+03  0.85373246336E+03  0.00000000000E+00 0.  1.
         -2   -1    0    0    0  501 -0.00000000000E+00 -0.00000000000E+00 -0.62668762721E+00  0.62668762721E+00  0.00000000000E+00 0. -1.
         21    1    1    2  502  503  0.16784166035E+02  0.14663949954E+02  0.54082287740E+03  0.54128192689E+03  0.00000000000E+00 0. -1.
         21    1    1    2  503  501 -0.16784166035E+02 -0.14663949954E+02  0.31228289833E+03  0.31307722409E+03  0.00000000000E+00 0.  1.
</event>
<event>
 4    1  0.5722454E+002  0.2344469E+02  0.7546771E-02  0.1486988E+00
          2   -1    0    0  503    0  0.00000000000E+00  0.00000000000E+00  0.95169836086E+03  0.95169836086E+03  0.00000000000E+00 0. -1.
         -2   -1    0    0    0  501 -0.00000000000E+00 -0.00000000000E+00 -0.66017294571E+00  0.66017294571E+00  0.00000000000E+00 0.  1.
         21    1    1    2  502  501 -0.18441803304E+02  0.14475960652E+02  0.30706113950E+03  0.30795486185E+03  0.00000000000E+00 0.  1.
         21    1    1    2  503  502  0.18441803304E+02 -0.14475960652E+02  0.64397704842E+03  0.64440367196E+03  0.00000000000E+00 0. -1.
</event>
<event>
 4    1  0.5722454E+002  0.2057142E+02  0.7546771E-02  0.1525473E+00
          2   -1    0    0  503    0  0.00000000000E+00  0.00000000000E+00  0.90790130083E+03  0.90790130083E+03  0.00000000000E+00 0. -1.
         -2   -1    0    0    0  501 -0.00000000000E+00 -0.00000000000E+00 -0.71101326905E+00  0.71101326905E+00  0.00000000000E+00 0.  1.
         21    1    1    2  502  501  0.85537903874E+00  0.20553632855E+02  0.18696731422E+03  0.18809561420E+03  0.00000000000E+00 0.  1.
         21    1    1    2  503  502 -0.85537903874E+00 -0.20553632855E+02  0.72022297334E+03  0.72051669990E+03  0.00000000000E+00 0. -1.
</event>
<event>
 4    1  0.5722454E+002  0.2017764E+02  0.7546771E-02  0.1531337E+00
          2   -1    0    0  503    0  0.00000000000E+00  0.00000000000E+00  0.20626013390E+02  0.20626013390E+02  0.00000000000E+00 0. -1.
         -2   -1    0    0    0  501 -0.00000000000E+00 -0.00000000000E+00 -0.24785206423E+02  0.24785206423E+02  0.00000000000E+00 0.  1.
         21    1    1    2  502  501  0.14452050098E+02 -0.14081030456E+02 -0.12324757762E+02  0.23643959580E+02  0.00000000000E+00 0. -1.
         21    1    1    2  503  502 -0.14452050098E+02  0.14081030456E+02  0.81655647285E+01  0.21767260233E+02  0.00000000000E+00 0.  1.
</event>
<event>
 4    1  0.5722454E+002  0.2409148E+02  0.7546771E-02  0.1479229E+00
          2   -1    0    0  503    0  0.00000000000E+00  0.00000000000E+00  0.35649259136E+01  0.35649259136E+01  0.00000000000E+00 0.  1.
         -2   -1    0    0    0  501 -0.00000000000E+00 -0.00000000000E+00 -0.16297484140E+03  0.16297484140E+03  0.00000000000E+00 0. -1.
         21    1    1    2  502  501 -0.19213779700E+02  0.14533757117E+02 -0.77042848687E+02  0.80721744035E+02  0.00000000000E+00 0. -1.
         21    1    1    2  503  502  0.19213779700E+02 -0.14533757117E+02 -0.82367066800E+02  0.85818023279E+02  0.00000000000E+00 0.  1.
</event>
<event>
 4    1  0.5722454E+002  0.2263894E+02  0.7546771E-02  0.1497082E+00
          2   -1    0    0  502    0  0.00000000000E+00  0.00000000000E+00  0.77396482047E+02  0.77396482047E+02  0.00000000000E+00 0.  1.
         -2   -1    0    0    0  501 -0.00000000000E+00 -0.00000000000E+00 -0.19499618376E+02  0.19499618376E+02  0.00000000000E+00 0. -1.
         21    1    1    2  502  503 -0.15967321226E+01  0.22582565339E+02  0.68319801231E+02  0.71973030025E+02  0.00000000000E+00 0.  1.
         21    1    1    2  503  501  0.15967321226E+01 -0.22582565339E+02 -0.10422937560E+02  0.24923070399E+02  0.00000000000E+00 0. -1.
</event>
<event>
 4    1  0.5722454E+002  0.2583023E+02  0.7546771E-02  0.1459726E+00
          2   -1    0    0  503    0  0.00000000000E+00  0.00000000000E+00  0.46162523792E+03  0.46162523792E+03  0.00000000000E+00 0.  1.
         -2   -1    0    0    0  501 -0.00000000000E+00 -0.00000000000E+00 -0.43981924776E+01  0.43981924776E+01  0.00000000000E+00 0. -1.
         21    1    1    2  502  501 -0.22203800043E+02  0.13198184197E+02  0.37688763288E+02  0.45690739549E+02  0.00000000000E+00 0. -1.
         21    1    1    2  503  502  0.22203800043E+02 -0.13198184197E+02  0.41953828215E+03  0.42033269085E+03  0.00000000000E+00 0.  1.
</event>
<event>
 4    1  0.5722454E+002  0.2453501E+02  0.7546771E-02  0.1474073E+00
          2   -1    0    0  503    0  0.00000000000E+00  0.00000000000E+00  0.27556667948E+03  0.27556667948E+03  0.00000000000E+00 0.  1.
         -2   -1    0    0    0  501 -0.00000000000E+00 -0.00000000000E+00 -0.25517402722E+01  0.25517402722E+01  0.00000000000E+00 0. -1.
         21    1    1    2  502  501  0.21325159357E+02 -0.12132787361E+02  0.83751109104E+02  0.87270930022E+02  0.00000000000E+00 0. -1.
         21    1    1    2  503  502 -0.21325159357E+02  0.12132787361E+02  0.18926383010E+03  0.19084748973E+03  0.00000000000E+00 0.  1.
</event>
<event>
 4    1  0.5722454E+002  0.2503796E+02  0.7546771E-02  0.1468379E+00
          2   -1    0    0  502    0  0.00000000000E+00  0.00000000000E+00  0.18668066021E+04  0.18668066021E+04  0.00000000000E+00 0.  1.
         -2   -1    0    0    0  501 -0.00000000000E+00 -0.00000000000E+00 -0.83610360836E+00  0.83610360836E+00  0.00000000000E+00 0. -1.
         21    1    1    2  502  503 -0.21140080244E+02  0.13416272978E+02  0.16553301145E+04  0.16555194615E+04  0.00000000000E+00 0.  1.
         21    1    1    2  503  501  0.21140080244E+02 -0.13416272978E+02  0.21064038404E+03  0.21212324428E+03  0.00000000000E+00 0. -1.
</event>
<event>
 4    1  0.5722454E+002  0.7463605E+02  0.7546771E-02  0.1216879E+00
          2   -1    0    0  502    0  0.00000000000E+00  0.00000000000E+00  0.99831077329E+03  0.99831077329E+03  0.00000000000E+00 0. -1.
         -2   -1    0    0    0  501 -0.00000000000E+00 -0.00000000000E+00 -0.57109607707E+01  0.57109607707E+01  0.00000000000E+00 0.  1.
         21    1    1    2  502  503 -0.45287552957E+02 -0.59326030299E+02  0.42026985942E+03  0.42684575090E+03  0.00000000000E+00 0. -1.
         21    1    1    2  503  501  0.45287552957E+02  0.59326030299E+02  0.57232995311E+03  0.57717598317E+03  0.00000000000E+00 0.  1.
</event>
<event>
 4    1  0.5722454E+002  0.3044144E+02  0.7546771E-02  0.1415798E+00
          2   -1    0    0  502    0  0.00000000000E+00  0.00000000000E+00  0.14182099731E+03  0.14182099731E+03  0.00000000000E+00 0. -1.
         -2   -1    0    0    0  501 -0.00000000000E+00 -0.00000000000E+00 -0.10242509949E+02  0.10242509949E+02  0.00000000000E+00 0.  1.
         21    1    1    2  502  503 -0.30437659326E+02  0.47958026719E+00  0.11153830204E+03  0.11561779242E+03  0.00000000000E+00 0. -1.
         21    1    1    2  503  501  0.30437659326E+02 -0.47958026719E+00  0.20040185329E+02  0.36445714844E+02  0.00000000000E+00 0.  1.
</event>
<event>
 4    1  0.5722454E+002  0.2348996E+02  0.7546771E-02  0.1486436E+00
          2   -1    0    0  503    0  0.00000000000E+00  0.00000000000E+00  0.95575988676E+02  0.95575988676E+02  0.00000000000E+00 0. -1.
         -2   -1    0    0    0  501 -0.00000000000E+00 -0.00000000000E+00 -0.61267205045E+01  0.61267205045E+01  0.00000000000E+00 0.  1.
         21    1    1    2  502  501 -0.75900361074E+01  0.22229922128E+02  0.32509349637E+02  0.40107803477E+02  0.00000000000E+00 0.  1.
         21    1    1    2  503  502  0.75900361074E+01 -0.22229922128E+02  0.56939918534E+02  0.61594905703E+02  0.00000000000E+00 0. -1.
</event>
<event>
 4    1  0.5722454E+002  0.3034646E+02  0.7546771E-02  0.1416609E+00
          2   -1    0    0  502    0  0.00000000000E+00  0.00000000000E+00  0.20984003642E+04  0.20984003642E+04  0.00000000000E+00 0.  1.
         -2   -1    0    0    0  501 -0.00000000000E+00 -0.00000000000E+00 -0.14284060719E+01  0.14284060719E+01  0.00000000000E+00 0. -1.
         21    1    1    2  502  503 -0.14440946604E+02  0.26690198763E+02  0.19223536417E+04  0.19225931529E+04  0.00000000000E+00 0.  1.
         21    1    1    2  503  501  0.14440946604E+02 -0.26690198763E+02  0.17461831643E+03  0.17723561741E+03  0.00000000000E+00 0. -1.
</event>
<event>
 4    1  0.5722454E+002  0.2255890E+02  0.7546771E-02  0.1498113E+00
          2   -1    0    0  503    0  0.00000000000E+00  0.00000000000E+00  0.66604329049E+03  0.66604329049E+03  0.00000000000E+00 0.  1.
         -2   -1    0    0    0  501 -0.00000000000E+00 -0.00000000000E+00 -0.85190267055E+00  0.85190267055E+00  0.00000000000E+00 0. -1.
         21    1    1    2  502  501 -0.20783894219E+02  0.87711887442E+01  0.22552774570E+03  0.22665318902E+03  0.00000000000E+00 0.  1.
         21    1    1    2  503  502  0.20783894219E+02 -0.87711887442E+01  0.43966364211E+03  0.44024200414E+03  0.00000000000E+00 0. -1.
</event>
<event>
 4    1  0.5722454E+002  0.2056226E+02  0.7546771E-02  0.1525607E+00
          2   -1    0    0  503    0  0.00000000000E+00  0.00000000000E+00  0.10326050407E+04  0.10326050407E+04  0.00000000000E+00 0. -1.
         -2   -1    0    0    0  501 -0.00000000000E+00 -0.00000000000E+00 -0.41120468102E+01  0.41120468102E+01  0.00000000000E+00 0.  1.
         21    1    1    2  502  501 -0.10953599667E+02  0.17401878702E+02  0.22372263387E+02  0.30386261651E+02  0.00000000000E+00 0.  1.
         21    1    1    2  503  502  0.10953599667E+02 -0.17401878702E+02  0.10061207305E+04  0.10063308259E+04  0.00000000000E+00 0. -1.
</event>
<event>
 4    1  0.5722454E+002  0.2210709E+02  0.7546771E-02  0.1504025E+00
          2   -1    0    0  503    0  0.00000000000E+00  0.00000000000E+00  0.13127918939E+03  0.13127918939E+03  0.00000000000E+00 0. -1.
         -2   -1    0    0    0  501 -0.00000000000E+00 -0.00000000000E+00 -0.72935713802E+01  0.72935713802E+01  0.00000000000E+00 0.  1.
         21    1    1    2  502  501 -0.13211372540E+02 -0.17725214117E+02  0.13513103201E+02  0.25909989154E+02  0.00000000000E+00 0.  1.
         21    1    1    2  503  502  0.13211372540E+02  0.17725214117E+02  0.11047251481E+03  0.11266277162E+03  0.00000000000E+00 0. -1.
</event>
<event>
 4    1  0.5722454E+002  0.2012945E+02  0.7546771E-02  0.1532066E+00
          2   -1    0    0  502    0  0.00000000000E+00  0.00000000000E+00  0.20235772369E+02  0.20235772369E+02  0.00000000000E+00 0. -1.
         -2   -1    0    0    0  501 -0.00000000000E+00 -0.00000000000E+00 -0.28444550223E+02  0.28444550223E+02  0.00000000000E+00 0.  1.
         21    1    1    2  502  503  0.46992258779E+01 -0.19573250903E+02 -0.17347868081E+02  0.26573358872E+02  0.00000000000E+00 0.  1.
         21    1    1    2  503  501 -0.46992258779E+01  0.19573250903E+02  0.91390902271E+01  0.22106963721E+02  0.00000000000E+00 0. -1.
</event>
<event>
 4    1  0.5722454E+002  0.2356315E+02  0.7546771E-02  0.1485545E+00
          2   -1    0    0  502    0  0.00000000000E+00  0.00000000000E+00  0.71893873971E+03  0.71893873971E+03  0.00000000000E+00 0. -1.
         -2   -1    0    0    0  501 -0.00000000000E+00 -0.00000000000E+00 -0.12277384060E+01  0.12277384060E+01  0.00000000000E+00 0.  1.
         21    1    1    2  502  503 -0.13067901089E+02 -0.19607448956E+02  0.57817350796E+03  0.57865346055E+03  0.00000000000E+00 0. -1.
         21    1    1    2  503  501  0.13067901089E+02  0.19607448956E+02  0.13953749335E+03  0.14151301757E+03  0.00000000000E+00 0.  1.
</event>
<event>
 4    1  0.5722454E+002  0.6078716E+02  0.7546771E-02  0.1257181E+00
          2   -1    0    0  502    0  0.00000000000E+00  0.00000000000E+00  0.38208851068E+03  0.38208851068E+03  0.00000000000E+00 0. -1.
         -2   -1    0    0    0  501 -0.00000000000E+00 -0.00000000000E+00 -0.25146309555E+02  0.25146309555E+02  0.00000000000E+00 0.  1.
         21    1    1    2  502  503 -0.31058950981E+02  0.52253430114E+02  0.33820646379E+03  0.34362580162E+03  0.00000000000E+00 0. -1.
         21    1    1    2  503  501  0.31058950981E+02 -0.52253430114E+02  0.18735737336E+02  0.63609018608E+02  0.00000000000E+00 0.  1.
</event>
<event>
 4    1  0.5722454E+002  0.2312594E+02  0.7546771E-02  0.1490923E+00
          2   -1    0    0  503    0  0.00000000000E+00  0.00000000000E+00  0.26998469060E+03  0.26998469060E+03  0.00000000000E+00 0.  1.
         -2   -1    0    0    0  501 -0.00000000000E+00 -0.00000000000E+00 -0.10641594783E+02  0.10641594783E+02  0.00000000000E+00 0. -1.
         21    1    1    2  502  501  0.11378838484E+01  0.23097930714E+02  0.30896263518E+01  0.23331416029E+02  0.00000000000E+00 0. -1.
         21    1    1    2  503  502 -0.11378838484E+01 -0.23097930714E+02  0.25625346947E+03  0.25729486936E+03  0.00000000000E+00 0.  1.
</event>
<event>
 4    1  0.5722454E+002  0.2170119E+02  0.7546771E-02  0.1509485E+00
          2   -1    0    0  502    0  0.00000000000E+00  0.00000000000E+00  0.98711300765E+02  0.98711300765E+02  0.00000000000E+00 0.  1.
         -2   -1    0    0    0  501 -0.00000000000E+00 -0.00000000000E+00 -0.80493892721E+01  0.80493892721E+01  0.00000000000E+00 0. -1.
         21    1    1    2  502  503  0.92731374017E+01 -0.19620157519E+02  0.79398188104E+02  0.82310472800E+02  0.00000000000E+00 0.  1.
         21    1    1    2  503  501 -0.92731374017E+01  0.19620157519E+02  0.11263723389E+02  0.24450217237E+02  0.00000000000E+00 0. -1.
</event>
<event>
 4    1  0.5722454E+002  0.2448000E+02  0.7546771E-02  0.1474705E+00
          2   -1    0    0  503    0  0.00000000000E+00  0.00000000000E+00  0.71974762629E+02  0.71974762629E+02  0.00000000000E+00 0. -1.
         -2   -1    0    0    0  501 -0.00000000000E+00 -0.00000000000E+00 -0.22640144663E+02  0.22640144663E+02  0.00000000000E+00 0.  1.
         21    1    1    2  502  501 -0.34880380608E+01  0.24230226430E+02 -0.12948542963E+02  0.27693592169E+02  0.00000000000E+00 0.  1.
         21    1    1    2  503  502  0.34880380608E+01 -0.24230226430E+02  0.62283160930E+02  0.66921315123E+02  0.00000000000E+00 0. -1.
</event>
<event>
 4    1  0.5722454E+002  0.3856887E+02  0.7546771E-02  0.1357082E+00
          2   -1    0    0  502    0  0.00000000000E+00  0.00000000000E+00  0.11025148605E+04  0.11025148605E+04  0.00000000000E+00 0.  1.
         -2   -1    0    0    0  501 -0.00000000000E+00 -0.00000000000E+00 -0.12390736290E+02  0.12390736290E+02  0.00000000000E+00 0. -1.
         21    1    1    2  502  503 -0.26496933023E+01 -0.38477748741E+02  0.10712895049E+04  0.10719835639E+04  0.00000000000E+00 0.  1.
         21    1    1    2  503  501  0.26496933023E+01  0.38477748741E+02  0.18834619358E+02  0.42922032910E+02  0.00000000000E+00 0. -1.
</event>
<event>
 4    1  0.5722454E+002  0.2455710E+02  0.7546771E-02  0.1473819E+00
          2   -1    0    0  502    0  0.00000000000E+00  0.00000000000E+00  0.30784419219E+04  0.30784419219E+04  0.00000000000E+00 0.  1.
         -2   -1    0    0    0  501 -0.00000000000E+00 -0.00000000000E+00 -0.19771777450E+00  0.19771777450E+00  0.00000000000E+00 0. -1.
         21    1    1    2  502  503 -0.12897708936E+02 -0.20897374187E+02  0.13913196521E+04  0.13915363543E+04  0.00000000000E+00 0. -1.
         21    1    1    2  503  501  0.12897708936E+02  0.20897374187E+02  0.16869245521E+04  0.16871032854E+04  0.00000000000E+00 0.  1.
</event>
<event>
 4    1  0.5722454E+002  0.3454430E+02  0.7546771E-02  0.1383795E+00
          2   -1    0    0  502    0  0.00000000000E+00  0.00000000000E+00  0.70051501066E+03  0.70051501066E+03  0.00000000000E+00 0.  1.
         -2   -1    0    0    0  501 -0.00000000000E+00 -0.00000000000E+00 -0.27457959599E+01  0.27457959599E+01  0.00000000000E+00 0. -1.
         21    1    1    2  502  503  0.20070284033E+02 -0.28115691496E+02  0.56553198635E+03  0.56658603582E+03  0.00000000000E+00 0.  1.
         21    1    1    2  503  501 -0.20070284033E+02  0.28115691496E+02  0.13223722835E+03  0.13667477080E+03  0.00000000000E+00 0. -1.
</event>
<event>
 4    1  0.5722454E+002  0.2011519E+02  0.7546771E-02  0.1532282E+00
          2   -1    0    0  502    0  0.00000000000E+00  0.00000000000E+00  0.16813757096E+04  0.16813757096E+04  0.00000000000E+00 0.  1.
         -2   -1    0    0    0  501 -0.00000000000E+00 -0.00000000000E+00 -0.31823740877E+00  0.31823740877E+00  0.00000000000E+00 0. -1.
         21    1    1    2  502  503 -0.16437751678E+02  0.11594009516E+02  0.12557129657E+04  0.12558740673E+04  0.00000000000E+00 0.  1.
         21    1    1    2  503  501  0.16437751678E+02 -0.11594009516E+02  0.42534450651E+03  0.42581987971E+03  0.00000000000E+00 0. -1.
</event>
<event>
 4    1  0.5722454E+002  0.2315085E+02  0.7546771E-02  0.1490613E+00
          2   -1    0    0  503    0  0.00000000000E+00  0.00000000000E+00  0.87892557311E+01  0.87892557311E+01  0.00000000000E+00 0.  1.
         -2   -1    0    0    0  501 -0.00000000000E+00 -0.00000000000E+00 -0.66501552502E+02  0.66501552502E+02  0.00000000000E+00 0. -1.
         21    1    1    2  502  501  0.72763839220E+01  0.21977627563E+02 -0.39704349229E+02  0.45960822708E+02  0.00000000000E+00 0. -1.
         21    1    1    2  503  502 -0.72763839220E+01 -0.21977627563E+02 -0.18007947542E+02  0.29329985526E+02  0.00000000000E+00 0.  1.
</event>
<event>
 4    1  0.5722454E+002  0.2457658E+02  0.7546771E-02  0.1473596E+00
          2   -1    0    0  503    0  0.00000000000E+00  0.00000000000E+00  0.11970005243E+04  0.11970005243E+04  0.00000000000E+00 0.  1.
         -2   -1    0    0    0  501 -0.00000000000E+00 -0.00000000000E+00 -0.63080752242E+00  0.63080752242E+00  0.00000000000E+00 0. -1.
         21    1    1    2  502  501  0.51278333318E+01 -0.24035676619E+02  0.33033925366E+03  0.33125221650E+03  0.00000000000E+00 0. -1.
         21    1    1    2  503  502 -0.51278333318E+01  0.24035676619E+02  0.86603046311E+03  0.86637911532E+03  0.00000000000E+00 0.  1.
</event>
<event>
 4    1  0.5722454E+002  0.2117016E+02  0.7546771E-02  0.1516849E+00
          2   -1    0    0  502    0  0.00000000000E+00  0.00000000000E+00  0.51955199755E+02  0.51955199755E+02  0.00000000000E+00 0. -1.
         -2   -1    0    0    0  501 -0.00000000000E+00 -0.00000000000E+00 -0.13087547967E+02  0.13087547967E+02  0.00000000000E+00 0.  1.
         21    1    1    2  502  503  0.12328254725E+02  0.17210163556E+02  0.38421558952E+02  0.43867890154E+02  0.00000000000E+00 0. -1.
         21    1    1    2  503  501 -0.12328254725E+02 -0.17210163556E+02  0.44609283581E+00  0.21174857568E+02  0.00000000000E+00 0.  1.
</event>
<event>
 4    1  0.5722454E+002  0.3555262E+02  0.7546771E-02  0.1376719E+00
          2   -1    0    0  502    0  0.00000000000E+00  0.00000000000E+00  0.12065910721E+04  0.12065910721E+04  0.00000000000E+00 0. -1.
         -2   -1    0    0    0  501 -0.00000000000E+00 -0.00000000000E+00 -0.17280545562E+01  0.17280545562E+01  0.00000000000E+00 0.  1.
         21    1    1    2  502  503  0.24724681245E+02 -0.25547576277E+02  0.98155621860E+03  0.98219987721E+03  0.00000000000E+00 0. -1.
         21    1    1    2  503  501 -0.24724681245E+02  0.25547576277E+02  0.22330679896E+03  0.22611924947E+03  0.00000000000E+00 0.  1.
</event>
<event>
 4    1  0.5722454E+002  0.5093953E+02  0.7546771E-02  0.1294150E+00
          2   -1    0    0  503    0  0.00000000000E+00  0.00000000000E+00  0.36371629519E+03  0.36371629519E+03  0.00000000000E+00 0. -1.
         -2   -1    0    0    0  501 -0.00000000000E+00 -0.00000000000E+00 -0.73644272120E+01  0.73644272120E+01  0.00000000000E+00 0.  1.
         21    1    1    2  502  501 -0.25288067240E+02  0.44219337099E+02  0.14537260892E+03  0.15403905850E+03  0.00000000000E+00 0.  1.
         21    1    1    2  503  502  0.25288067240E+02 -0.44219337099E+02  0.21097925905E+03  0.21704166390E+03  0.00000000000E+00 0. -1.
</event>
<event>
 4    1  0.5722454E+002  0.2064207E+02  0.7546771E-02  0.1524437E+00
          2   -1    0    0  502    0  0.00000000000E+00  0.00000000000E+00  0.12222171154E+02  0.12222171154E+02  0.00000000000E+00 0. -1.
         -2   -1    0    0    0  501 -0.00000000000E+00 -0.00000000000E+00 -0.36501406289E+02  0.36501406289E+02  0.00000000000E+00 0.  1.
         21    1    1    2  502  503 -0.20533319408E+02  0.21161145323E+01 -0.69774198374E+01  0.21789436298E+02  0.00000000000E+00 0. -1.
         21    1    1    2  503  501  0.20533319408E+02 -0.21161145323E+01 -0.17301815298E+02  0.26934141145E+02  0.00000000000E+00 0.  1.
</event>
<event>
 4    1  0.5722454E+002  0.2417624E+02  0.7546771E-02  0.1478234E+00
          2   -1    0    0  503    0  0.00000000000E+00  0.00000000000E+00  0.16457044618E+03  0.16457044618E+03  0.00000000000E+00 0.  1.
         -2   -1    0    0    0  501 -0.00000000000E+00 -0.00000000000E+00 -0.37167163071E+01  0.37167163071E+01  0.00000000000E+00 0. -1.
         21    1    1    2  502  501  0.23912668933E+02 -0.35602003229E+01  0.62692429502E+02  0.67192495702E+02  0.00000000000E+00 0. -1.
         21    1    1    2  503  502 -0.23912668933E+02  0.35602003229E+01  0.98161300368E+02  0.10109466678E+03  0.00000000000E+00 0.  1.
</event>
<event>
 4    1  0.5722454E+002  0.2038343E+02  0.7546771E-02  0.1528253E+00
          2   -1    0    0  503    0  0.00000000000E+00  0.00000000000E+00  0.12957223750E+04  0.12957223750E+04  0.00000000000E+00 0.  1.
         -2   -1    0    0    0  501 -0.00000000000E+00 -0.00000000000E+00 -0.72717512908E+00  0.72717512908E+00  0.00000000000E+00 0. -1.
         21    1    1    2  502  501 -0.15952435581E+02  0.12688731239E+02  0.11321667705E+04  0.11323502463E+04  0.00000000000E+00 0.  1.
         21    1    1    2  503  502  0.15952435581E+02 -0.12688731239E+02  0.16282842938E+03  0.16409930382E+03  0.00000000000E+00 0. -1.
</event>
<event>
 4    1  0.5722454E+002  0.2554247E+02  0.7546771E-02  0.1462825E+00
          2   -1    0    0  503    0  0.00000000000E+00  0.00000000000E+00  0.21936176619E+04  0.21936176619E+04  0.00000000000E+00 0. -1.
         -2   -1    0    0    0  501 -0.00000000000E+00 -0.00000000000E+00 -0.36374954100E+00  0.36374954100E+00  0.00000000000E+00 0.  1.
         21    1    1    2  502  501 -0.77655344942E+01 -0.24333399407E+02  0.62817287698E+03  0.62869196052E+03  0.00000000000E+00 0.  1.
         21    1    1    2  503  502  0.77655344942E+01  0.24333399407E+02  0.15650810354E+04  0.15652894509E+04  0.00000000000E+00 0. -1.
</event>
<event>
 4    1  0.5722454E+002  0.2357649E+02  0.7546771E-02  0.1485383E+00
          2   -1    0    0  503    0  0.00000000000E+00  0.00000000000E+00  0.30529954938E+02  0.30529954938E+02  0.00000000000E+00 0. -1.
         -2   -1    0    0    0  501 -0.00000000000E+00 -0.00000000000E+00 -0.19945950676E+02  0.19945950676E+02  0.00000000000E+00 0.  1.
         21    1    1    2  502  501  0.10888911786E+02  0.20911294839E+02 -0.21605337690E+01  0.23675273133E+02  0.00000000000E+00 0.  1.
         21    1    1    2  503  502 -0.10888911786E+02 -0.20911294839E+02  0.12744538031E+02  0.26800632481E+02  0.00000000000E+00 0. -1.
</event>
<event>
 4    1  0.5722454E+002  0.4897314E+02  0.7546771E-02  0.1302687E+00
          2   -1    0    0  502    0  0.00000000000E+00  0.00000000000E+00  0.28107371293E+02  0.28107371293E+02  0.00000000000E+00 0.  1.
         -2   -1    0    0    0  501 -0.00000000000E+00 -0.00000000000E+00 -0.85328812542E+02  0.85328812542E+02  0.00000000000E+00 0. -1.
         21    1    1    2  502  503  0.48113975077E+02  0.91331264501E+01 -0.28615852216E+02  0.56720680484E+02  0.00000000000E+00 0.  1.
         21    1    1    2  503  501 -0.48113975077E+02 -0.91331264501E+01 -0.28605589033E+02  0.56715503351E+02  0.00000000000E+00 0. -1.
</event>
<event>
 4    1  0.5722454E+002  0.2542331E+02  0.7546771E-02  0.1464123E+00
          2   -1    0    0  503    0  0.00000000000E+00  0.00000000000E+00  0.27425351360E+02  0.27425351360E+02  0.00000000000E+00 0.  1.
         -2   -1    0    0    0  501 -0.00000000000E+00 -0.00000000000E+00 -0.17901322618E+03  0.17901322618E+03  0.00000000000E+00 0. -1.
         21    1    1    2  502  501 -0.23701855642E+02  0.91960102186E+01 -0.17197904120E+03  0.17384802322E+03  0.00000000000E+00 0. -1.
         21    1    1    2  503  502  0.23701855642E+02 -0.91960102186E+01  0.20391166379E+02  0.32590554324E+02  0.00000000000E+00 0.  1.
</event>
<event>
 4    1  0.5722454E+002  0.2464042E+02  0.7546771E-02  0.1472866E+00
          2   -1    0    0  503    0  0.00000000000E+00  0.00000000000E+00  0.48787998133E+02  0.48787998133E+02  0.00000000000E+00 0. -1.
         -2   -1    0    0    0  501 -0.00000000000E+00 -0.00000000000E+00 -0.13583210822E+02  0.13583210822E+02  0.00000000000E+00 0.  1.
         21    1    1    2  502  501 -0.16368505466E+01 -0.24585988539E+02  0.85736170243E+01  0.26089404383E+02  0.00000000000E+00 0.  1.
         21    1    1    2  503  502  0.16368505466E+01  0.24585988539E+02  0.26631170287E+02  0.36281804572E+02  0.00000000000E+00 0. -1.
</event>
<event>
 4    1  0.5722454E+002  0.2167228E+02  0.7546771E-02  0.1509879E+00
          2   -1    0    0  503    0  0.00000000000E+00  0.00000000000E+00  0.24694360416E+02  0.24694360416E+02  0.00000000000E+00 0.  1.
         -2   -1    0    0    0  501 -0.00000000000E+00 -0.00000000000E+00 -0.23043338535E+02  0.23043338535E+02  0.00000000000E+00 0. -1.
         21    1    1    2  502  501 -0.20113723008E+02 -0.80700491530E+01 -0.91480512599E+01  0.23523910993E+02  0.00000000000E+00 0.  1.
         21    1    1    2  503  502  0.20113723008E+02  0.80700491530E+01  0.10799073141E+02  0.24213787958E+02  0.00000000000E+00 0. -1.
</event>
<event>
 4    1  0.5722454E+002  0.2515391E+02  0.7546771E-02  0.1467089E+00
          2   -1    0    0  502    0  0.00000000000E+00  0.00000000000E+00  0.15136797018E+04  0.15136797018E+04  0.00000000000E+00 0. -1.
         -2   -1    0    0    0  501 -0.00000000000E+00 -0.00000000000E+00 -0.63231620277E+00  0.63231620277E+00  0.00000000000E+00 0.  1.
         21    1    1    2  502  503  0.22364427671E+02  0.11513102264E+02  0.11973271878E+04  0.11975913802E+04  0.00000000000E+00 0. -1.
         21    1    1    2  503  501 -0.22364427671E+02 -0.11513102264E+02  0.31572019774E+03  0.31672063781E+03  0.00000000000E+00 0.  1.
</event>
<event>
 4    1  0.5722454E+002  0.2909033E+02  0.7546771E-02  0.1427670E+00
          2   -1    0    0  502    0  0.00000000000E+00  0.00000000000E+00  0.16905804062E+03  0.16905804062E+03  0.00000000000E+00 0. -1.
         -2   -1    0    0    0  501 -0.00000000000E+00 -0.00000000000E+00 -0.53535861432E+01  0.53535861432E+01  0.00000000000E+00 0.  1.
         21    1    1    2  502  503 -0.94903127474E+01  0.27498746357E+02  0.59620842579E+02  0.66339218846E+02  0.00000000000E+00 0.  1.
         21    1    1    2  503  501  0.94903127474E+01 -0.27498746357E+02  0.10408361189E+03  0.10807240791E+03  0.00000000000E+00 0. -1.
</event>
<event>
 4    1  0.5722454E+002  0.2376814E+02  0.7546771E-02  0.1483071E+00
          2   -1    0    0  503    0  0.00000000000E+00  0.00000000000E+00  0.68660189903E+02  0.68660189903E+02  0.00000000000E+00 0.  1.
         -2   -1    0    0    0  501 -0.00000000000E+00 -0.00000000000E+00 -0.83145449190E+01  0.83145449190E+01  0.00000000000E+00 0. -1.
         21    1    1    2  502  501  0.19237359998E+02  0.13958820597E+02  0.34103198829E+02  0.41568652402E+02  0.00000000000E+00 0.  1.
         21    1    1    2  503  502 -0.19237359998E+02 -0.13958820597E+02  0.26242446155E+02  0.35406082420E+02  0.00000000000E+00 0. -1.
</event>
<event>
 4    1  0.5722454E+002  0.3189477E+02  0.7546771E-02  0.1403815E+00
          2   -1    0    0  503    0  0.00000000000E+00  0.00000000000E+00  0.18027669986E+03  0.18027669986E+03  0.00000000000E+00 0.  1.
         -2   -1    0    0    0  501 -0.00000000000E+00 -0.00000000000E+00 -0.11804756403E+02  0.11804756403E+02  0.00000000000E+00 0. -1.
         21    1    1    2  502  501  0.31887508946E+02  0.68040617768E+00  0.14848010801E+02  0.35181523618E+02  0.00000000000E+00 0. -1.
         21    1    1    2  503  502 -0.31887508946E+02 -0.68040617768E+00  0.15362393266E+03  0.15689993265E+03  0.00000000000E+00 0.  1.
</event>
<event>
 4    1  0.5722454E+002  0.3597471E+02  0.7546771E-02  0.1373837E+00
          2   -1    0    0  502    0  0.00000000000E+00  0.00000000000E+00  0.31907639618E+02  0.31907639618E+02  0.00000000000E+00 0. -1.
         -2   -1    0    0    0  501 -0.00000000000E+00 -0.00000000000E+00 -0.68676724046E+03  0.68676724046E+03  0.00000000000E+00 0.  1.
         21    1    1    2  502  503 -0.21685346513E+02 -0.28704105295E+02  0.21135001837E+02  0.41723712884E+02  0.00000000000E+00 0. -1.
         21    1    1    2  503  501  0.21685346513E+02  0.28704105295E+02 -0.67599460268E+03  0.67695116719E+03  0.00000000000E+00 0.  1.
</event>
<event>
 4    1  0.5722454E+002  0.3622451E+02  0.7546771E-02  0.1372153E+00
          2   -1    0    0  503    0  0.00000000000E+00  0.00000000000E+00  0.22138947424E+04  0.22138947424E+04  0.00000000000E+00 0.  1.
         -2   -1    0    0    0  501 -0.00000000000E+00 -0.00000000000E+00 -0.99173684397E+00  0.99173684397E+00  0.00000000000E+00 0. -1.
         21    1    1    2  502  501  0.29742497272E+02  0.20678466068E+02  0.18089089078E+04  0.18092715804E+04  0.00000000000E+00 0.  1.
         21    1    1    2  503  502 -0.29742497272E+02 -0.20678466068E+02  0.40399409784E+03  0.40561489888E+03  0.00000000000E+00 0. -1.
</event>
<event>
 4    1  0.5722454E+002  0.2522834E+02  0.7546771E-02  0.1466265E+00
          2   -1    0    0  502    0  0.00000000000E+00  0.00000000000E+00  0.73515023252E+03  0.73515023252E+03  0.00000000000E+00 0.  1.
         -2   -1    0    0    0  501 -0.00000000000E+00 -0.00000000000E+00 -0.11054667956E+01  0.11054667956E+01  0.00000000000E+00 0. -1.
         21    1    1    2  502  503 -0.16969259152E+02 -0.18668514984E+02  0.53844146527E+03  0.53903217040E+03  0.00000000000E+00 0.  1.
         21    1    1    2  503  501  0.16969259152E+02  0.18668514984E+02  0.19560330046E+03  0.19722352892E+03  0.00000000000E+00 0. -1.
</event>
<event>
 4    1  0.5722454E+002  0.2378093E+02  0.7546771E-02  0.1482918E+00
          2   -1    0    0  502    0  0.00000000000E+00  0.00000000000E+00  0.42818806692E+01  0.42818806692E+01  0.00000000000E+00 0.  1.
         -2   -1    0    0    0  501 -0.00000000000E+00 -0.00000000000E+00 -0.14050295072E+03  0.14050295072E+03  0.00000000000E+00 0. -1.
         21    1    1    2  502  503  0.57051720309E+01 -0.23086440051E+02 -0.50381242494E+02  0.55711778803E+02  0.00000000000E+00 0.  1.
         21    1    1    2  503  501 -0.57051720309E+01  0.23086440051E+02 -0.85839827561E+02  0.89073052591E+02  0.00000000000E+00 0. -1.
</event>
<event>
 4    1  0.5722454E+002  0.2193760E+02  0.7546771E-02  0.1506288E+00
          2   -1    0    0  503    0  0.00000000000E+00  0.00000000000E+00  0.12010421029E+04  0.12010421029E+04  0.00000000000E+00 0.  1.
         -2   -1    0    0    0  501 -0.00000000000E+00 -0.00000000000E+00 -0.18720191164E+01  0.18720191164E+01  0.00000000000E+00 0. -1.
         21    1    1    2  502  501 -0.89785227473E+01  0.20016107011E+02  0.66369470228E+02  0.69901108638E+02  0.00000000000E+00 0. -1.
         21    1    1    2  503  502  0.89785227473E+01 -0.20016107011E+02  0.11328006135E+04  0.11330130134E+04  0.00000000000E+00 0.  1.
</event>
<event>
 4    1  0.5722454E+002  0.2105001E+02  0.7546771E-02  0.1518552E+00
          2   -1    0    0  502    0  0.00000000000E+00  0.00000000000E+00  0.88135753402E+02  0.88135753402E+02  0.00000000000E+00 0. -1.
         -2   -1    0    0    0  501 -0.00000000000E+00 -0.00000000000E+00 -0.71362569830E+01  0.71362569830E+01  0.00000000000E+00 0.  1.
         21    1    1    2  502  503 -0.15098268179E+02  0.14667826564E+02  0.66394572325E+02  0.69651576237E+02  0.00000000000E+00 0. -1.
         21    1    1    2  503  501  0.15098268179E+02 -0.14667826564E+02  0.14604924095E+02  0.25620434148E+02  0.00000000000E+00 0.  1.
</event>
<event>
 4    1  0.5722454E+002  0.2502231E+02  0.7546771E-02  0.1468554E+00
          2   -1    0    0  503    0  0.00000000000E+00  0.00000000000E+00  0.76947565401E+03  0.76947565401E+03  0.00000000000E+00 0. -1.
         -2   -1    0    0    0  501 -0.00000000000E+00 -0.00000000000E+00 -0.23790216932E+01  0.23790216932E+01  0.00000000000E+00 0.  1.
         21    1    1    2  502  501 -0.22223167531E+02  0.11499868557E+02  0.70501522358E+02  0.74810298802E+02  0.00000000000E+00 0.  1.
         21    1    1    2  503  502  0.22223167531E+02 -0.11499868557E+02  0.69659510996E+03  0.69704437690E+03  0.00000000000E+00 0. -1.
</event>
<event>
 4    1  0.5722454E+002  0.4534384E+02  0.7546771E-02  0.1319729E+00
          2   -1    0    0  503    0  0.00000000000E+00  0.00000000000E+00  0.51937286849E+03  0.51937286849E+03  0.00000000000E+00 0.  1.
         -2   -1    0    0    0  501 -0.00000000000E+00 -0.00000000000E+00 -0.69243080347E+01  0.69243080347E+01  0.00000000000E+00 0. -1.
         21    1    1    2  502  501  0.96677615482E+00 -0.45333535040E+02  0.84011042495E+02  0.95466849306E+02  0.00000000000E+00 0. -1.
         21    1    1    2  503  502 -0.96677615482E+00  0.45333535040E+02  0.42843751796E+03  0.43083032721E+03  0.00000000000E+00 0.  1.
</event>
<event>
 4    1  0.5722454E+002  0.2033844E+02  0.7546771E-02  0.1528923E+00
          2   -1    0    0  502    0  0.00000000000E+00  0.00000000000E+00  0.20189159850E+03  0.20189159850E+03  0.00000000000E+00 0. -1.
         -2   -1    0    0    0  501 -0.00000000000E+00 -0.00000000000E+00 -0.86251669604E+01  0.86251669604E+01  0.00000000000E+00 0.  1.
         21    1    1    2  502  503  0.20215381464E+02 -0.22339417609E+01  0.18854331523E+03  0.18963711099E+03  0.00000000000E+00 0. -1.
         21    1    1    2  503  501 -0.20215381464E+02  0.22339417609E+01  0.47231163105E+01  0.20879654480E+02  0.00000000000E+00 0.  1.
</event>
<event>
 4    1  0.5722454E+002  0.2540362E+02  0.7546771E-02  0.1464338E+00
          2   -1    0    0  503    0  0.00000000000E+00  0.00000000000E+00  0.46544440279E+02  0.46544440279E+02  0.00000000000E+00 0.  1.
         -2   -1    0    0    0  501 -0.00000000000E+00 -0.00000000000E+00 -0.18523561921E+02  0.18523561921E+02  0.00000000000E+00 0. -1.
         21    1    1    2  502  501  0.14806502175E+02 -0.20642460341E+02 -0.23049014006E+01  0.25507964365E+02  0.00000000000E+00 0. -1.
         21    1    1    2  503  502 -0.14806502175E+02  0.20642460341E+02  0.30325779758E+02  0.39560037835E+02  0.00000000000E+00 0.  1.
</event>
<event>
 4    1  0.5722454E+002  0.2394226E+02  0.7546771E-02  0.1480993E+00
          2   -1    0    0  503    0  0.00000000000E+00  0.00000000000E+00  0.14138012169E+03  0.14138012169E+03  0.00000000000E+00 0.  1.
         -2   -1    0    0    0  501 -0.00000000000E+00 -0.00000000000E+00 -0.45751575537E+01  0.45751575537E+01  0.00000000000E+00 0. -1.
         21    1    1    2  502  501 -0.20946651010E+02  0.11596098554E+02  0.93020053723E+02  0.96051871845E+02  0.00000000000E+00 0.  1.
         21    1    1    2  503  502  0.20946651010E+02 -0.11596098554E+02  0.43784910417E+02  0.49903407403E+02  0.00000000000E+00 0. -1.
</event>
<event>
 4    1  0.5722454E+002  0.2305474E+02  0.7546771E-02  0.1491812E+00
          2   -1    0    0  503    0  0.00000000000E+00  0.00000000000E+00  0.19786823382E+02  0.19786823382E+02  0.00000000000E+00 0. -1.
         -2   -1    0    0    0  501 -0.00000000000E+00 -0.00000000000E+00 -0.30049701406E+02  0.30049701406E+02  0.00000000000E+00 0.  1.
         21    1    1    2  502  501  0.10896127896E+02  0.20317372018E+02  0.29839709852E+01  0.23247049096E+02  0.00000000000E+00 0. -1.
         21    1    1    2  503  502 -0.10896127896E+02 -0.20317372018E+02 -0.13246849010E+02  0.26589475691E+02  0.00000000000E+00 0.  1.
</event>
<event>
 4    1  0.5722454E+002  0.3502630E+02  0.7546771E-02  0.1380378E+00
          2   -1    0    0  502    0  0.00000000000E+00  0.00000000000E+00  0.43716118247E+03  0.43716118247E+03  0.00000000000E+00 0.  1.
         -2   -1    0    0    0  501 -0.00000000000E+00 -0.00000000000E+00 -0.60619197579E+01  0.60619197579E+01  0.00000000000E+00 0. -1.
         21    1    1    2  502  503  0.28052963694E+02 -0.20973149286E+02  0.37795433208E+03  0.37957386488E+03  0.00000000000E+00 0.  1.
         21    1    1    2  503  501 -0.28052963694E+02  0.20973149286E+02  0.53144930638E+02  0.63649237352E+02  0.00000000000E+00 0. -1.
</event>
<event>
 4    1  0.5722454E+002  0.2243372E+02  0.7546771E-02  0.1499734E+00
          2   -1    0    0  502    0  0.00000000000E+00  0.00000000000E+00  0.17330261542E+04  0.17330261542E+04  0.00000000000E+00 0. -1.
         -2   -1    0    0    0  501 -0.00000000000E+00 -0.00000000000E+00 -0.94873317763E+00  0.94873317763E+00  0.00000000000E+00 0.  1.
         21    1    1    2  502  503  0.21691733100E+02 -0.57219198225E+01  0.15882486679E+04  0.15884070960E+04  0.00000000000E+00 0. -1.
         21    1    1    2  503  501 -0.21691733100E+02  0.57219198225E+01  0.14382875312E+03  0.14556779134E+03  0.00000000000E+00 0.  1.
</event>
<event>
 4    1  0.5722454E+002  0.2312638E+02  0.7546771E-02  0.1490917E+00
          2   -1    0    0  503    0  0.00000000000E+00  0.00000000000E+00  0.83942854005E+03  0.83942854005E+03  0.00000000000E+00 0. -1.
         -2   -1    0    0    0  501 -0.00000000000E+00 -0.00000000000E+00 -0.66152514952E+00  0.66152514952E+00  0.00000000000E+00 0.  1.
         21    1    1    2  502  501 -0.32204510036E+01 -0.22901049854E+02  0.50003807932E+03  0.50057258230E+03  0.00000000000E+00 0. -1.
         21    1    1    2  503  502  0.32204510036E+01  0.22901049854E+02  0.33872893558E+03  0.33951748290E+03  0.00000000000E+00 0.  1.
</event>
<event>
 4    1  0.5722454E+002  0.2263277E+02  0.7546771E-02  0.1497162E+00
          2   -1    0    0  503    0  0.00000000000E+00  0.00000000000E+00  0.14413812313E+03  0.14413812313E+03  0.00000000000E+00 0.  1.
         -2   -1    0    0    0  501 -0.00000000000E+00 -0.00000000000E+00 -0.40299904484E+01  0.40299904484E+01  0.00000000000E+00 0. -1.
         21    1    1    2  502  501  0.21038931220E+02  0.83429974401E+01  0.44588702198E+02  0.50003945813E+02  0.00000000000E+00 0. -1.
         21    1    1    2  503  502 -0.21038931220E+02 -0.83429974401E+01  0.95519430481E+02  0.98164167763E+02  0.00000000000E+00 0.  1.
</event>
<event>
 4    1  0.5722454E+002  0.2730458E+02  0.7546771E-02  0.1444572E+00
          2   -1    0    0  503    0  0.00000000000E+00  0.00000000000E+00  0.26111178104E+03  0.26111178104E+03  0.00000000000E+00 0. -1.
         -2   -1    0    0    0  501 -0.00000000000E+00 -0.00000000000E+00 -0.51487227724E+01  0.51487227724E+01  0.00000000000E+00 0.  1.
         21    1    1    2  502  501  0.27304461616E+02 -0.80040549699E-01  0.39128227531E+02  0.47713291862E+02  0.00000000000E+00 0.  1.
         21    1    1    2  503  502 -0.27304461616E+02  0.80040549699E-01  0.21683483074E+03  0.21854721195E+03  0.00000000000E+00 0. -1.
</event>
<event>
 4    1  0.5722454E+002  0.2971871E+02  0.7546771E-02  0.1422057E+00
          2   -1    0    0  503    0  0.00000000000E+00  0.00000000000E+00  0.18652713573E+02  0.18652713573E+02  0.00000000000E+00 0. -1.
         -2   -1    0    0    0  501 -0.00000000000E+00 -0.00000000000E+00 -0.51673414988E+02  0.51673414988E+02  0.00000000000E+00 0.  1.
         21    1    1    2  502  501  0.25848543092E+02 -0.14664740745E+02 -0.26681683579E+02  0.39938878798E+02  0.00000000000E+00 0.  1.
         21    1    1    2  503  502 -0.25848543092E+02  0.14664740745E+02 -0.63390178364E+01  0.30387249764E+02  0.00000000000E+00 0. -1.
</event>
<event>
 4    1  0.5722454E+002  0.4085345E+02  0.7546771E-02  0.1343556E+00
          2   -1    0    0  502    0  0.00000000000E+00  0.00000000000E+00  0.11761174966E+04  0.11761174966E+04  0.00000000000E+00 0. -1.
         -2   -1    0    0    0  501 -0.00000000000E+00 -0.00000000000E+00 -0.15316396032E+01  0.15316396032E+01  0.00000000000E+00 0.  1.
         21    1    1    2  502  503 -0.26209522578E+02 -0.31337926511E+02  0.74691725494E+03  0.74803368269E+03  0.00000000000E+00 0. -1.
         21    1    1    2  503  501  0.26209522578E+02  0.31337926511E+02  0.42766860201E+03  0.42961545346E+03  0.00000000000E+00 0.  1.
</event>
<event>
 4    1  0.5722454E+002  0.2235848E+02  0.7546771E-02  0.1500715E+00
          2   -1    0    0  502    0  0.00000000000E+00  0.00000000000E+00  0.10141584612E+03  0.10141584612E+03  0.00000000000E+00 0. -1.
         -2   -1    0    0    0  501 -0.00000000000E+00 -0.00000000000E+00 -0.19139996263E+02  0.19139996263E+02  0.00000000000E+00 0.  1.
         21    1    1    2  502  503  0.21811172763E+02 -0.49167662446E+01  0.93077227990E+02  0.95724982204E+02  0.00000000000E+00 0. -1.
         21    1    1    2  503  501 -0.21811172763E+02  0.49167662446E+01 -0.10801378134E+02  0.24830860178E+02  0.00000000000E+00 0.  1.
</event>
<event>
 4    1  0.5722454E+002  0.2055696E+02  0.7546771E-02  0.1525685E+00
          2   -1    0    0  503    0  0.00000000000E+00  0.00000000000E+00  0.23463419885E+02  0.23463419885E+02  0.00000000000E+00 0. -1.
         -2   -1    0    0    0  501 -0.00000000000E+00 -0.00000000000E+00 -0.18020586702E+02  0.18020586702E+02  0.00000000000E+00 0.  1.
         21    1    1    2  502  501  0.83729853146E+01  0.18774498642E+02  0.32113575881E+01  0.20806285106E+02  0.00000000000E+00 0.  1.
         21    1    1    2  503  502 -0.83729853146E+01 -0.18774498642E+02  0.22314755941E+01  0.20677721481E+02  0.00000000000E+00 0. -1.
</event>
<event>
 4    1  0.5722454E+002  0.2202873E+02  0.7546771E-02  0.1505068E+00
          2   -1    0    0  503    0  0.00000000000E+00  0.00000000000E+00  0.23170369381E+04  0.23170369381E+04  0.00000000000E+00 0. -1.
         -2   -1    0    0    0  501 -0.00000000000E+00 -0.00000000000E+00 -0.21034436801E+00  0.21034436801E+00  0.00000000000E+00 0.  1.
         21    1    1    2  502  501  0.16009841250E+02  0.15131088560E+02  0.12346624974E+04  0.12348589990E+04  0.00000000000E+00 0.  1.
         21    1    1    2  503  502 -0.16009841250E+02 -0.15131088560E+02  0.10821640963E+04  0.10823882835E+04  0.00000000000E+00 0. -1.
</event>
<event>
 4    1  0.5722454E+002  0.2146338E+02  0.7546771E-02  0.1512751E+00
          2   -1    0    0  502    0  0.00000000000E+00  0.00000000000E+00  0.57889342190E+02  0.57889342190E+02  0.00000000000E+00 0. -1.
         -2   -1    0    0    0  501 -0.00000000000E+00 -0.00000000000E+00 -0.45842134345E+02  0.45842134345E+02  0.00000000000E+00 0.  1.
         21    1    1    2  502  503  0.15386483857E+02 -0.14964388039E+02  0.53173146729E+02  0.57341610789E+02  0.00000000000E+00 0. -1.
         21    1    1    2  503  501 -0.15386483857E+02  0.14964388039E+02 -0.41125938884E+02  0.46389865746E+02  0.00000000000E+00 0.  1.
</event>
<event>
 4    1  0.5722454E+002  0.2444381E+02  0.7546771E-02  0.1475123E+00
          2   -1    0    0  502    0  0.00000000000E+00  0.00000000000E+00  0.74371425296E+02  0.74371425296E+02  0.00000000000E+00 0.  1.
         -2   -1    0    0    0  501 -0.00000000000E+00 -0.00000000000E+00 -0.77264475165E+02  0.77264475165E+02  0.00000000000E+00 0. -1.
         21    1    1    2  502  503 -0.24372089032E+02 -0.18710999282E+01  0.70321464212E+02  0.74448694197E+02  0.00000000000E+00 0.  1.
         21    1    1    2  503  501  0.24372089032E+02  0.18710999282E+01 -0.73214514081E+02  0.77187206264E+02  0.00000000000E+00 0. -1.
</event>
<event>
 4    1  0.5722454E+002  0.2394466E+02  0.7546771E-02  0.1480965E+00
          2   -1    0    0  502    0  0.00000000000E+00  0.00000000000E+00  0.66785079932E+01  0.66785079932E+01  0.00000000000E+00 0.  1.
         -2   -1    0    0    0  501 -0.00000000000E+00 -0.00000000000E+00 -0.12123864605E+03  0.12123864605E+03  0.00000000000E+00 0. -1.
         21    1    1    2  502  503 -0.74214730833E+01 -0.22765509836E+02 -0.22724887632E+02  0.33011622479E+02  0.00000000000E+00 0.  1.
         21    1    1    2  503  501  0.74214730833E+01  0.22765509836E+02 -0.91835250423E+02  0.94905531562E+02  0.00000000000E+00 0. -1.
</event>
<event>
 4    1  0.5722454E+002  0.2446205E+02  0.7546771E-02  0.1474912E+00
          2   -1    0    0  502    0  0.00000000000E+00  0.00000000000E+00  0.12389130163E+03  0.12389130163E+03  0.00000000000E+00 0.  1.
         -2   -1    0    0    0  501 -0.00000000000E+00 -0.00000000000E+00 -0.92898433766E+01  0.92898433766E+01  0.00000000000E+00 0. -1.
         21    1    1    2  502  503  0.18009655730E+02  0.16554277000E+02  0.10343988173E+03  0.10629299563E+03  0.00000000000E+00 0.  1.
         21    1    1    2  503  501 -0.18009655730E+02 -0.16554277000E+02  0.11161576517E+02  0.26888149376E+02  0.00000000000E+00 0. -1.
</event>
<event>
 4    1  0.5722454E+002  0.3671838E+02  0.7546771E-02  0.1368869E+00
          2   -1    0    0  502    0  0.00000000000E+00  0.00000000000E+00  0.99437392418E+03  0.99437392418E+03  0.00000000000E+00 0. -1.
         -2   -1    0    0    0  501 -0.00000000000E+00 -0.00000000000E+00 -0.31872678005E+01  0.31872678005E+01  0.00000000000E+00 0.  1.
         21    1    1    2  502  503 -0.16641771880E+02 -0.32730579997E+02  0.87368045848E+03  0.87445170420E+03  0.00000000000E+00 0. -1.
         21    1    1    2  503  501  0.16641771880E+02  0.32730579997E+02  0.11750619790E+03  0.12310948779E+03  0.00000000000E+00 0.  1.
</event>
<event>
 4    1  0.5722454E+002  0.6818383E+02  0.7546771E-02  0.1234305E+00
          2   -1    0    0  503    0  0.00000000000E+00  0.00000000000E+00  0.83689316728E+02  0.83689316728E+02  0.00000000000E+00 0.  1.
         -2   -1    0    0    0  501 -0.00000000000E+00 -0.00000000000E+00 -0.17234450385E+03  0.17234450385E+03  0.00000000000E+00 0. -1.
         21    1    1    2  502  501  0.67626473996E+02  0.87002507039E+01 -0.14971234208E+03  0.16450781051E+03  0.00000000000E+00 0. -1.
         21    1    1    2  503  502 -0.67626473996E+02 -0.87002507039E+01  0.61057154958E+02  0.91526010069E+02  0.00000000000E+00 0.  1.
</event>
<event>
 4    1  0.5722454E+002  0.2636425E+02  0.7546771E-02  0.1454101E+00
          2   -1    0    0  503    0  0.00000000000E+00  0.00000000000E+00  0.88082550077E+02  0.88082550077E+02  0.00000000000E+00 0. -1.
         -2   -1    0    0    0  501 -0.00000000000E+00 -0.00000000000E+00 -0.26216354614E+02  0.26216354614E+02  0.00000000000E+00 0.  1.
         21    1    1    2  502  501 -0.76247892719E+01 -0.25237598689E+02 -0.16847345984E+02  0.31287487367E+02  0.00000000000E+00 0.  1.
         21    1    1    2  503  502  0.76247892719E+01  0.25237598689E+02  0.78713541447E+02  0.83011417324E+02  0.00000000000E+00 0. -1.
</event>
<event>
 4    1  0.5722454E+002  0.2134736E+02  0.7546771E-02  0.1514363E+00
          2   -1    0    0  502    0  0.00000000000E+00  0.00000000000E+00  0.41882410573E+03  0.41882410573E+03  0.00000000000E+00 0.  1.
         -2   -1    0    0    0  501 -0.00000000000E+00 -0.00000000000E+00 -0.70238416122E+01  0.70238416122E+01  0.00000000000E+00 0. -1.
         21    1    1    2  502  503  0.90392946783E+01  0.19339104522E+02  0.40163843134E+03  0.40220534475E+03  0.00000000000E+00 0.  1.
         21    1    1    2  503  501 -0.90392946783E+01 -0.19339104522E+02  0.10161832772E+02  0.23642602591E+02  0.00000000000E+00 0. -1.
</event>
<event>
 4    1  0.5722454E+002  0.2068524E+02  0.7546771E-02  0.1523807E+00
          2   -1    0    0  502    0  0.00000000000E+00  0.00000000000E+00  0.12319881890E+04  0.12319881890E+04  0.00000000000E+00 0. -1.
         -2   -1    0    0    0  501 -0.00000000000E+00 -0.00000000000E+00 -0.33862449880E+01  0.33862449880E+01  0.00000000000E+00 0.  1.
         21    1    1    2  502  503 -0.20551158607E+02  0.23513768890E+01  0.11994551211E+04  0.11996334718E+04  0.00000000000E+00 0. -1.
         21    1    1    2  503  501  0.20551158607E+02 -0.23513768890E+01  0.29146822914E+02  0.35740962206E+02  0.00000000000E+00 0.  1.
</event>
<event>
 4    1  0.5722454E+002  0.2597635E+02  0.7546771E-02  0.1458171E+00
          2   -1    0    0  503    0  0.00000000000E+00  0.00000000000E+00  0.15004950712E+04  0.15004950712E+04  0.00000000000E+00 0.  1.
         -2   -1    0    0    0  501 -0.00000000000E+00 -0.00000000000E+00 -0.10373503046E+01  0.10373503046E+01  0.00000000000E+00 0. -1.
         21    1    1    2  502  501 -0.25942060583E+02 -0.13342518733E+01  0.18465925295E+03  0.18647737244E+03  0.00000000000E+00 0. -1.
         21    1    1    2  503  502  0.25942060583E+02  0.13342518733E+01  0.13147984679E+04  0.13150550490E+04  0.00000000000E+00 0.  1.
</event>
<event>
 4    1  0.5722454E+002  0.4540940E+02  0.7546771E-02  0.1319405E+00
          2   -1    0    0  502    0  0.00000000000E+00  0.00000000000E+00  0.52345539201E+03  0.52345539201E+03  0.00000000000E+00 0. -1.
         -2   -1    0    0    0  501 -0.00000000000E+00 -0.00000000000E+00 -0.14780208892E+02  0.14780208892E+02  0.00000000000E+00 0.  1.
         21    1    1    2  502  503 -0.40518480119E+02  0.20500400151E+02  0.48481920955E+03  0.48694114591E+03  0.00000000000E+00 0. -1.
         21    1    1    2  503  501  0.40518480119E+02 -0.20500400151E+02  0.23855973569E+02  0.51294454987E+02  0.00000000000E+00 0.  1.
</event>
<event>
 4    1  0.5722454E+002  0.2207217E+02  0.7546771E-02  0.1504490E+00
          2   -1    0    0  503    0  0.00000000000E+00  0.00000000000E+00  0.27303062387E+03  0.27303062387E+03  0.00000000000E+00 0. -1.
         -2   -1    0    0    0  501 -0.00000000000E+00 -0.00000000000E+00 -0.30456014234E+01  0.30456014234E+01  0.00000000000E+00 0.  1.
         21    1    1    2  502  501  0.39553119843E+01  0.21714879661E+02  0.46161544734E+02  0.51167066594E+02  0.00000000000E+00 0.  1.
         21    1    1    2  503  502 -0.39553119843E+01 -0.21714879661E+02  0.22382347772E+03  0.22490915870E+03  0.00000000000E+00 0. -1.
</event>
<event>
 4    1  0.5722454E+002  0.2308907E+02  0.7546771E-02  0.1491383E+00
          2   -1    0    0  503    0  0.00000000000E+00  0.00000000000E+00  0.20695478482E+03  0.20695478482E+03  0.00000000000E+00 0. -1.
         -2   -1    0    0    0  501 -0.00000000000E+00 -0.00000000000E+00 -0.45048172886E+01  0.45048172886E+01  0.00000000000E+00 0.  1.
         21    1    1    2  502  501 -0.22904862748E+02  0.29107180220E+01  0.32040279942E+02  0.39492841828E+02  0.00000000000E+00 0.  1.
         21    1    1    2  503  502  0.22904862748E+02 -0.29107180220E+01  0.17040968759E+03  0.17196676028E+03  0.00000000000E+00 0. -1.
</event>
<event>
 4    1  0.5722454E+002  0.2337518E+02  0.7546771E-02  0.1487840E+00
          2   -1    0    0  503    0  0.00000000000E+00  0.00000000000E+00  0.11045066515E+02  0.11045066515E+02  0.00000000000E+00 0.  1.
         -2   -1    0    0    0  501 -0.00000000000E+00 -0.00000000000E+00 -0.20565756251E+03  0.20565756251E+03  0.00000000000E+00 0. -1.
         21    1    1    2  502  501  0.30097562878E+01  0.23180599261E+02 -0.19173084606E+03  0.19315050128E+03  0.00000000000E+00 0. -1.
         21    1    1    2  503  502 -0.30097562878E+01 -0.23180599261E+02 -0.28816499383E+01  0.23552127746E+02  0.00000000000E+00 0.  1.
</event>
<event>
 4    1  0.5722454E+002  0.3578738E+02  0.7546771E-02  0.1375111E+00
          2   -1    0    0  502    0  0.00000000000E+00  0.00000000000E+00  0.40689245085E+02  0.40689245085E+02  0.00000000000E+00 0. -1.
         -2   -1    0    0    0  501 -0.00000000000E+00 -0.00000000000E+00 -0.89014731740E+02  0.89014731740E+02  0.00000000000E+00 0.  1.
         21    1    1    2  502  503 -0.31253486854E+02  0.17434347117E+02  0.27977408228E+02  0.45425458403E+02  0.00000000000E+00 0. -1.
         21    1    1    2  503  501  0.31253486854E+02 -0.17434347117E+02 -0.76302894884E+02  0.84278518423E+02  0.00000000000E+00 0.  1.
</event>
<event>
 4    1  0.5722454E+002  0.4306322E+02  0.7546771E-02  0.1331414E+00
          2   -1    0    0  503    0  0.00000000000E+00  0.00000000000E+00  0.22930214179E+01  0.22930214179E+01  0.00000000000E+00 0. -1.
         -2   -1    0    0    0  501 -0.00000000000E+00 -0.00000000000E+00 -0.81410108119E+03  0.81410108119E+03  0.00000000000E+00 0.  1.
         21    1    1    2  502  501 -0.39306596826E+02  0.17590682204E+02 -0.43905265837E+03  0.44115946944E+03  0.00000000000E+00 0.  1.
         21    1    1    2  503  502  0.39306596826E+02 -0.17590682204E+02 -0.37275540140E+03  0.37523463317E+03  0.00000000000E+00 0. -1.
</event>
<event>
 4    1  0.5722454E+002  0.2201168E+02  0.7546771E-02  0.1505296E+00
          2   -1    0    0  503    0  0.00000000000E+00  0.00000000000E+00  0.31113475198E+02  0.31113475198E+02  0.00000000000E+00 0.  1.
         -2   -1    0    0    0  501 -0.00000000000E+00 -0.00000000000E+00 -0.53835009034E+02  0.53835009034E+02  0.00000000000E+00 0. -1.
         21    1    1    2  502  501 -0.76904530370E+01  0.20624523171E+02 -0.47168767300E+02  0.52051960890E+02  0.00000000000E+00 0. -1.
         21    1    1    2  503  502  0.76904530370E+01 -0.20624523171E+02  0.24447233464E+02  0.32896523342E+02  0.00000000000E+00 0.  1.
</event>
<event>
 4    1  0.5722454E+002  0.2844788E+02  0.7546771E-02  0.1433582E+00
          2   -1    0    0  503    0  0.00000000000E+00  0.00000000000E+00  0.18239990987E+02  0.18239990987E+02  0.00000000000E+00 0. -1.
         -2   -1    0    0    0  501 -0.00000000000E+00 -0.00000000000E+00 -0.53927710993E+02  0.53927710993E+02  0.00000000000E+00 0.  1.
         21    1    1    2  502  501 -0.54747368846E+01 -0.27916110872E+02 -0.33035922136E+02  0.43596492308E+02  0.00000000000E+00 0.  1.
         21    1    1    2  503  502  0.54747368846E+01  0.27916110872E+02 -0.26517978699E+01  0.28571209672E+02  0.00000000000E+00 0. -1.
</event>
<event>
 4    1  0.5722454E+002  0.2107934E+02  0.7546771E-02  0.1518135E+00
          2   -1    0    0  502    0  0.00000000000E+00  0.00000000000E+00  0.37846638050E+02  0.37846638050E+02  0.00000000000E+00 0.  1.
         -2   -1    0    0    0  501 -0.00000000000E+00 -0.00000000000E+00 -0.13680668673E+02  0.13680668673E+02  0.00000000000E+00 0. -1.
         21    1    1    2  502  503  0.68660677862E+01 -0.19929768333E+02  0.21785252027E+02  0.30313953199E+02  0.00000000000E+00 0.  1.
         21    1    1    2  503  501 -0.68660677862E+01  0.19929768333E+02  0.23807173494E+01  0.21213353524E+02  0.00000000000E+00 0. -1.
</event>
<event>
 4    1  0.5722454E+002  0.2589159E+02  0.7546771E-02  0.1459072E+00
          2   -1    0    0  502    0  0.00000000000E+00  0.00000000000E+00  0.20163980583E+03  0.20163980583E+03  0.00000000000E+00 0. -1.
         -2   -1    0    0    0  501 -0.00000000000E+00 -0.00000000000E+00 -0.34861331057E+01  0.34861331057E+01  0.00000000000E+00 0.  1.
         21    1    1    2  502  503  0.14784855979E+02  0.21255180900E+02  0.12115329905E+03  0.12388904936E+03  0.00000000000E+00 0.  1.
         21    1    1    2  503  501 -0.14784855979E+02 -0.21255180900E+02  0.77000373671E+02  0.81236889569E+02  0.00000000000E+00 0. -1.
</event>
<event>
 4    1  0.5722454E+002  0.2038127E+02  0.7546771E-02  0.1528285E+00
          2   -1    0    0  503    0  0.00000000000E+00  0.00000000000E+00  0.72930170896E+03  0.72930170896E+03  0.00000000000E+00 0.  1.
         -2   -1    0    0    0  501 -0.00000000000E+00 -0.00000000000E+00 -0.74675681018E+00  0.74675681018E+00  0.00000000000E+00 0. -1.
         21    1    1    2  502  501  0.19162546439E+02  0.69421056310E+01  0.18647616733E+03  0.18758666530E+03  0.00000000000E+00 0. -1.
         21    1    1    2  503  502 -0.19162546439E+02 -0.69421056310E+01  0.54207878482E+03  0.54246180047E+03  0.00000000000E+00 0.  1.
</event>
<event>
 4    1  0.5722454E+002  0.2213602E+02  0.7546771E-02  0.1503642E+00
          2   -1    0    0  503    0  0.00000000000E+00  0.00000000000E+00  0.45260512586E+03  0.45260512586E+03  0.00000000000E+00 0. -1.
         -2   -1    0    0    0  501 -0.00000000000E+00 -0.00000000000E+00 -0.24186687865E+01  0.24186687865E+01  0.00000000000E+00 0.  1.
         21    1    1    2  502  501 -0.15134465901E+01  0.22084221830E+02  0.56000228426E+02  0.60216517321E+02  0.00000000000E+00 0.  1.
         21    1    1    2  503  502  0.15134465901E+01 -0.22084221830E+02  0.39418622865E+03  0.39480727733E+03  0.00000000000E+00 0. -1.
</event>
<event>
 4    1  0.5722454E+002  0.2417425E+02  0.7546771E-02  0.1478257E+00
          2   -1    0    0  503    0  0.00000000000E+00  0.00000000000E+00  0.34177807163E+02  0.34177807163E+02  0.00000000000E+00 0. -1.
         -2   -1    0    0    0  501 -0.00000000000E+00 -0.00000000000E+00 -0.24390835149E+02  0.24390835149E+02  0.00000000000E+00 0.  1.
         21    1    1    2  502  501  0.19624169784E+02 -0.14116873956E+02 -0.11118707751E+02  0.26608642055E+02  0.00000000000E+00 0.  1.
         21    1    1    2  503  502 -0.19624169784E+02  0.14116873956E+02  0.20905679765E+02  0.31960000257E+02  0.00000000000E+00 0. -1.
</event>
<event>
 4    1  0.5722454E+002  0.2355638E+02  0.7546771E-02  0.1485627E+00
          2   -1    0    0  502    0  0.00000000000E+00  0.00000000000E+00  0.97428295349E+02  0.97428295349E+02  0.00000000000E+00 0. -1.
         -2   -1    0    0    0  501 -0.00000000000E+00 -0.00000000000E+00 -0.74181058223E+01  0.74181058223E+01  0.00000000000E+00 0.  1.
         21    1    1    2  502  503 -0.97027222301E+00 -0.23536387271E+02  0.19742971553E+02  0.30735775241E+02  0.00000000000E+00 0. -1.
         21    1    1    2  503  501  0.97027222301E+00  0.23536387271E+02  0.70267217974E+02  0.74110625930E+02  0.00000000000E+00 0.  1.
</event>
<event>
 4    1  0.5722454E+002  0.2169365E+02  0.7546771E-02  0.1509587E+00
          2   -1    0    0  502    0  0.00000000000E+00  0.00000000000E+00  0.11885847480E+04  0.11885847480E+04  0.00000000000E+00 0.  1.
         -2   -1    0    0    0  501 -0.00000000000E+00 -0.00000000000E+00 -0.46790148525E+00  0.46790148525E+00  0.00000000000E+00 0. -1.
         21    1    1    2  502  503 -0.21693044052E+02  0.16223770958E+00  0.82720449573E+03  0.82748890763E+03  0.00000000000E+00 0.  1.
         21    1    1    2  503  501  0.21693044052E+02 -0.16223770958E+00  0.36091235082E+03  0.36156374190E+03  0.00000000000E+00 0. -1.
</event>
<event>
 4    1  0.5722454E+002  0.2253144E+02  0.7546771E-02  0.1498467E+00
          2   -1    0    0  502    0  0.00000000000E+00  0.00000000000E+00  0.95622375145E+02  0.95622375145E+02  0.00000000000E+00 0.  1.
         -2   -1    0    0    0  501 -0.00000000000E+00 -0.00000000000E+00 -0.14167013565E+02  0.14167013565E+02  0.00000000000E+00 0. -1.
         21    1    1    2  502  503  0.21519507706E+02 -0.66765840657E+01  0.84134468209E+02  0.87099223461E+02  0.00000000000E+00 0.  1.
         21    1    1    2  503  501 -0.21519507706E+02  0.66765840657E+01 -0.26791066295E+01  0.22690165249E+02  0.00000000000E+00 0. -1.
</event>
<event>
 4    1  0.5722454E+002  0.2102472E+02  0.7546771E-02  0.1518912E+00
          2   -1    0    0  503    0  0.00000000000E+00  0.00000000000E+00  0.84065075252E+02  0.84065075252E+02  0.00000000000E+00 0. -1.
         -2   -1    0    0    0  501 -0.00000000000E+00 -0.00000000000E+00 -0.52682185702E+01  0.52682185702E+01  0.00000000000E+00 0.  1.
         21    1    1    2  502  501 -0.20865118816E+02  0.25856466405E+01  0.37459593128E+02  0.42956488091E+02  0.00000000000E+00 0.  1.
         21    1    1    2  503  502  0.20865118816E+02 -0.25856466405E+01  0.41337263553E+02  0.46376805731E+02  0.00000000000E+00 0. -1.
</event>
<event>
 4    1  0.5722454E+002  0.7432811E+02  0.7546771E-02  0.1217665E+00
          2   -1    0    0  502    0  0.00000000000E+00  0.00000000000E+00  0.37908178616E+03  0.37908178616E+03  0.00000000000E+00 0. -1.
         -2   -1    0    0    0  501 -0.00000000000E+00 -0.00000000000E+00 -0.14715460916E+02  0.14715460916E+02  0.00000000000E+00 0.  1.
         21    1    1    2  502  503 -0.39781318229E+02  0.62786257227E+02  0.20150104742E+03  0.21477276245E+03  0.00000000000E+00 0.  1.
         21    1    1    2  503  501  0.39781318229E+02 -0.62786257227E+02  0.16286527782E+03  0.17902448463E+03  0.00000000000E+00 0. -1.
</event>
<event>
 4    1  0.5722454E+002  0.2003722E+02  0.7546771E-02  0.1533467E+00
          2   -1    0    0  503    0  0.00000000000E+00  0.00000000000E+00  0.41920349992E+00  0.41920349992E+00  0.00000000000E+00 0.  1.
         -2   -1    0    0    0  501 -0.00000000000E+00 -0.00000000000E+00 -0.15649497401E+04  0.15649497401E+04  0.00000000000E+00 0. -1.
         21    1    1    2  502  501 -0.92494230797E+00 -0.20015863589E+02 -0.12697981111E+04  0.12699561934E+04  0.00000000000E+00 0. -1.
         21    1    1    2  503  502  0.92494230797E+00  0.20015863589E+02 -0.29473242545E+03  0.29541275010E+03  0.00000000000E+00 0.  1.
</event>
<event>
 4    1  0.5722454E+002  0.2764096E+02  0.7546771E-02  0.1441274E+00
          2   -1    0    0  502    0  0.00000000000E+00  0.00000000000E+00  0.22603874390E+03  0.22603874390E+03  0.00000000000E+00 0.  1.
         -2   -1    0    0    0  501 -0.00000000000E+00 -0.00000000000E+00 -0.11838343068E+02  0.11838343068E+02  0.00000000000E+00 0. -1.
         21    1    1    2  502  503 -0.71607716710E+01  0.26697306624E+02  0.20763547170E+03  0.20946720970E+03  0.00000000000E+00 0.  1.
         21    1    1    2  503  501  0.71607716710E+01 -0.26697306624E+02  0.65649291335E+01  0.28409877269E+02  0.00000000000E+00 0. -1.
</event>
<event>
 4    1  0.5722454E+002  0.2095857E+02  0.7546771E-02  0.1519857E+00
          2   -1    0    0  502    0  0.00000000000E+00  0.00000000000E+00  0.79503348426E+03  0.79503348426E+03  0.00000000000E+00 0. -1.
         -2   -1    0    0    0  501 -0.00000000000E+00 -0.00000000000E+00 -0.88167668390E+00  0.88167668390E+00  0.00000000000E+00 0.  1.
         21    1    1    2  502  503 -0.85309198741E+01 -0.19143797475E+02  0.64023583417E+03  0.64057878901E+03  0.00000000000E+00 0. -1.
         21    1    1    2  503  501  0.85309198741E+01  0.19143797475E+02  0.15391597341E+03  0.15533637194E+03  0.00000000000E+00 0.  1.
</event>
<event>
 4    1  0.5722454E+002  0.2016209E+02  0.7546771E-02  0.1531572E+00
          2   -1    0    0  503    0  0.00000000000E+00  0.00000000000E+00  0.71250632834E+03  0.71250632834E+03  0.00000000000E+00 0. -1.
         -2   -1    0    0    0  501 -0.00000000000E+00 -0.00000000000E+00 -0.14714769890E+01  0.14714769890E+01  0.00000000000E+00 0.  1.
         21    1    1    2  502  501 -0.14620959715E+02  0.13882994253E+02  0.76181800845E+02  0.78804674813E+02  0.00000000000E+00 0.  1.
         21    1    1    2  503  502  0.14620959715E+02 -0.13882994253E+02  0.63485305050E+03  0.63517313051E+03  0.00000000000E+00 0. -1.
</event>
<event>
 4    1  0.5722454E+002  0.2170130E+02  0.7546771E-02  0.1509483E+00
          2   -1    0    0  503    0  0.00000000000E+00  0.00000000000E+00  0.42733627526E+03  0.42733627526E+03  0.00000000000E+00 0.  1.
         -2   -1    0    0    0  501 -0.00000000000E+00 -0.00000000000E+00 -0.11197871940E+01  0.11197871940E+01  0.00000000000E+00 0. -1.
         21    1    1    2  502  501 -0.20311787712E+02  0.76405203564E+01  0.24006959038E+03  0.24104844845E+03  0.00000000000E+00 0.  1.
         21    1    1    2  503  502  0.20311787712E+02 -0.76405203564E+01  0.18614689768E+03  0.18740761400E+03  0.00000000000E+00 0. -1.
</event>
<event>
 4    1  0.5722454E+002  0.2189682E+02  0.7546771E-02  0.1506836E+00
          2   -1    0    0  502    0  0.00000000000E+00  0.00000000000E+00  0.51634740081E+03  0.51634740081E+03  0.00000000000E+00 0. -1.
         -2   -1    0    0    0  501 -0.00000000000E+00 -0.00000000000E+00 -0.11359107445E+01  0.11359107445E+01  0.00000000000E+00 0.  1.
         21    1    1    2  502  503 -0.20203257584E+02 -0.84438677721E+01  0.36814709992E+03  0.36879771921E+03  0.00000000000E+00 0. -1.
         21    1    1    2  503  501  0.20203257584E+02  0.84438677721E+01  0.14706439015E+03  0.14868559234E+03  0.00000000000E+00 0.  1.
</event>
<event>
 4    1  0.5722454E+002  0.2113806E+02  0.7546771E-02  0.1517303E+00
          2   -1    0    0  503    0  0.00000000000E+00  0.00000000000E+00  0.99915245242E+01  0.99915245242E+01  0.00000000000E+00 0. -1.
         -2   -1    0    0    0  501 -0.00000000000E+00 -0.00000000000E+00 -0.52954179576E+02  0.52954179576E+02  0.00000000000E+00 0.  1.
         21    1    1    2  502  501 -0.96155140131E+01  0.18824436671E+02 -0.90703710206E+01  0.23001938096E+02  0.00000000000E+00 0. -1.
         21    1    1    2  503  502  0.96155140131E+01 -0.18824436671E+02 -0.33892284031E+02  0.39943766004E+02  0.00000000000E+00 0.  1.
</event>
<event>
 4    1  0.5722454E+002  0.2961384E+02  0.7546771E-02  0.1422982E+00
          2   -1    0    0  503    0  0.00000000000E+00  0.00000000000E+00  0.21246027995E+02  0.21246027995E+02  0.00000000000E+00 0.  1.
         -2   -1    0    0    0  501 -0.00000000000E+00 -0.00000000000E+00 -0.98600415395E+02  0.98600415395E+02  0.00000000000E+00 0. -1.
         21    1    1    2  502  501 -0.40443805066E+01 -0.29336370012E+02 -0.84367125101E+02  0.89413597495E+02  0.00000000000E+00 0. -1.
         21    1    1    2  503  502  0.40443805066E+01  0.29336370012E+02  0.70127377010E+01  0.30432845895E+02  0.00000000000E+00 0.  1.
</event>
<event>
 4    1  0.5722454E+002  0.2007288E+02  0.7546771E-02  0.1532924E+00
          2   -1    0    0  503    0  0.00000000000E+00  0.00000000000E+00  0.50427457508E+02  0.50427457508E+02  0.00000000000E+00 0. -1.
         -2   -1    0    0    0  501 -0.00000000000E+00 -0.00000000000E+00 -0.13388115048E+02  0.13388115048E+02  0.00000000000E+00 0.  1.
         21    1    1    2  502  501 -0.21972942237E+01 -0.19952257046E+02 -0.17409993144E+01  0.20148244136E+02  0.00000000000E+00 0.  1.
         21    1    1    2  503  502  0.21972942237E+01  0.19952257046E+02  0.38780341775E+02  0.43667328420E+02  0.00000000000E+00 0. -1.
</event>
<event>
 4    1  0.5722454E+002  0.2425495E+02  0.7546771E-02  0.1477314E+00
          2   -1    0    0  503    0  0.00000000000E+00  0.00000000000E+00  0.67419837100E+01  0.67419837100E+01  0.00000000000E+00 0. -1.
         -2   -1    0    0    0  501 -0.00000000000E+00 -0.00000000000E+00 -0.12696735777E+03  0.12696735777E+03  0.00000000000E+00 0.  1.
         21    1    1    2  502  501  0.13468713565E+01 -0.24217523845E+02 -0.97499945537E+02  0.10047159750E+03  0.00000000000E+00 0.  1.
         21    1    1    2  503  502 -0.13468713565E+01  0.24217523845E+02 -0.22725428523E+02  0.33237743984E+02  0.00000000000E+00 0. -1.
</event>
<event>
 4    1  0.5722454E+002  0.2645306E+02  0.7546771E-02  0.1453181E+00
          2   -1    0    0  502    0  0.00000000000E+00  0.00000000000E+00  0.10260838575E+04  0.10260838575E+04  0.00000000000E+00 0. -1.
         -2   -1    0    0    0  501 -0.00000000000E+00 -0.00000000000E+00 -0.29663465288E+01  0.29663465288E+01  0.00000000000E+00 0.  1.
         21    1    1    2  502  503 -0.23901411691E+02 -0.11335212334E+02  0.96308074319E+03  0.96344396953E+03  0.00000000000E+00 0. -1.
         21    1    1    2  503  501  0.23901411691E+02  0.11335212334E+02  0.60036767772E+02  0.65606234490E+02  0.00000000000E+00 0.  1.
</event>
<event>
 4    1  0.5722454E+002  0.2176861E+02  0.7546771E-02  0.1508568E+00
          2   -1    0    0  503    0  0.00000000000E+00  0.00000000000E+00  0.17465865599E+02  0.17465865599E+02  0.00000000000E+00 0.  1.
         -2   -1    0    0    0  501 -0.00000000000E+00 -0.00000000000E+00 -0.81296279715E+02  0.81296279715E+02  0.00000000000E+00 0. -1.
         21    1    1    2  502  501  0.15315884179E+02  0.15469190777E+02 -0.72222567020E+02  0.75431898812E+02  0.00000000000E+00 0. -1.
         21    1    1    2  503  502 -0.15315884179E+02 -0.15469190777E+02  0.83921529034E+01  0.23330246501E+02  0.00000000000E+00 0.  1.
</event>
<event>
 4    1  0.5722454E+002  0.3962603E+02  0.7546771E-02  0.1350691E+00
          2   -1    0    0  503    0  0.00000000000E+00  0.00000000000E+00  0.56272183502E+03  0.56272183502E+03  0.00000000000E+00 0. -1.
         -2   -1    0    0    0  501 -0.00000000000E+00 -0.00000000000E+00 -0.11772198279E+02  0.11772198279E+02  0.00000000000E+00 0.  1.
         21    1    1    2  502  501 -0.27714990901E+02  0.28321401179E+02  0.24570438947E+02  0.46625411049E+02  0.00000000000E+00 0.  1.
         21    1    1    2  503  502  0.27714990901E+02 -0.28321401179E+02  0.52637919779E+03  0.52786862225E+03  0.00000000000E+00 0. -1.
</event>
<event>
 4    1  0.5722454E+002  0.2354390E+02  0.7546771E-02  0.1485779E+00
          2   -1    0    0  503    0  0.00000000000E+00  0.00000000000E+00  0.12203141602E+03  0.12203141602E+03  0.00000000000E+00 0. -1.
         -2   -1    0    0    0  501 -0.00000000000E+00 -0.00000000000E+00 -0.66586829105E+02  0.66586829105E+02  0.00000000000E+00 0.  1.
         21    1    1    2  502  501  0.26658676676E+01  0.23392488637E+02 -0.63313239131E+02  0.67549105282E+02  0.00000000000E+00 0.  1.
         21    1    1    2  503  502 -0.26658676676E+01 -0.23392488637E+02  0.11875782604E+03  0.12106913984E+03  0.00000000000E+00 0. -1.
</event>
<event>
 4    1  0.5722454E+002  0.3271209E+02  0.7546771E-02  0.1397403E+00
          2   -1    0    0  503    0  0.00000000000E+00  0.00000000000E+00  0.18901880959E+03  0.18901880959E+03  0.00000000000E+00 0. -1.
         -2   -1    0    0    0  501 -0.00000000000E+00 -0.00000000000E+00 -0.57021842070E+01  0.57021842070E+01  0.00000000000E+00 0.  1.
         21    1    1    2  502  501 -0.16879442436E+02  0.28020796127E+02  0.83408093379E+02  0.89593474280E+02  0.00000000000E+00 0. -1.
         21    1    1    2  503  502  0.16879442436E+02 -0.28020796127E+02  0.99908532008E+02  0.10512751952E+03  0.00000000000E+00 0.  1.
</event>
<event>
 4    1  0.5722454E+002  0.2989574E+02  0.7546771E-02  0.1420505E+00
          2   -1    0    0  502    0  0.00000000000E+00  0.00000000000E+00  0.21885134629E+03  0.21885134629E+03  0.00000000000E+00 0.  1.
         -2   -1    0    0    0  501 -0.00000000000E+00 -0.00000000000E+00 -0.45252053884E+01  0.45252053884E+01  0.00000000000E+00 0. -1.
         21    1    1    2  502  503 -0.11400897146E+02 -0.27636479313E+02  0.72282461142E+02  0.78220902790E+02  0.00000000000E+00 0. -1.
         21    1    1    2  503  501  0.11400897146E+02  0.27636479313E+02  0.14204367976E+03  0.14515564889E+03  0.00000000000E+00 0.  1.
</event>
<event>
 4    1  0.5722454E+002  0.2088590E+02  0.7546771E-02  0.1520900E+00
          2   -1    0    0  503    0  0.00000000000E+00  0.00000000000E+00  0.58151237094E+02  0.58151237094E+02  0.00000000000E+00 0.  1.
         -2   -1    0    0    0  501 -0.00000000000E+00 -0.00000000000E+00 -0.10449102309E+02  0.10449102309E+02  0.00000000000E+00 0. -1.
         21    1    1    2  502  501  0.20778048844E+02 -0.21198348949E+01  0.56334387705E+01  0.21632305613E+02  0.00000000000E+00 0. -1.
         21    1    1    2  503  502 -0.20778048844E+02  0.21198348949E+01  0.42068696015E+02  0.46968033790E+02  0.00000000000E+00 0.  1.
</event>
<event>
 4    1  0.5722454E+002  0.2174824E+02  0.7546771E-02  0.1508845E+00
          2   -1    0    0  502    0  0.00000000000E+00  0.00000000000E+00  0.28937039526E+02  0.28937039526E+02  0.00000000000E+00 0. -1.
         -2   -1    0    0    0  501 -0.00000000000E+00 -0.00000000000E+00 -0.26918629676E+02  0.26918629676E+02  0.00000000000E+00 0.  1.
         21    1    1    2  502  503 -0.13898512646E+02 -0.16727736198E+02  0.18512338652E+02  0.28560330783E+02  0.00000000000E+00 0. -1.
         21    1    1    2  503  501  0.13898512646E+02  0.16727736198E+02 -0.16493928801E+02  0.27295338419E+02  0.00000000000E+00 0.  1.
</event>
<event>
 4    1  0.5722454E+002  0.2265514E+02  0.7546771E-02  0.1496875E+00
          2   -1    0    0  502    0  0.00000000000E+00  0.00000000000E+00  0.10250197117E+04  0.10250197117E+04  0.00000000000E+00 0. -1.
         -2   -1    0    0    0  501 -0.00000000000E+00 -0.00000000000E+00 -0.79019171580E+00  0.79019171580E+00  0.00000000000E+00 0.  1.
         21    1    1    2  502  503  0.22633054769E+02  0.10001755111E+01  0.82254793404E+03  0.82285986614E+03  0.00000000000E+00 0. -1.
         21    1    1    2  503  501 -0.22633054769E+02 -0.10001755111E+01  0.20168158600E+03  0.20295003732E+03  0.00000000000E+00 0.  1.
</event>
<event>
 4    1  0.5722454E+002  0.4561850E+02  0.7546771E-02  0.1318375E+00
          2   -1    0    0  503    0  0.00000000000E+00  0.00000000000E+00  0.72319236351E+03  0.72319236351E+03  0.00000000000E+00 0. -1.
         -2   -1    0    0    0  501 -0.00000000000E+00 -0.00000000000E+00 -0.29197400734E+01  0.29197400734E+01  0.00000000000E+00 0.  1.
         21    1    1    2  502  501 -0.73484033277E+00 -0.45612585221E+02  0.40376011172E+03  0.40632902399E+03  0.00000000000E+00 0. -1.
         21    1    1    2  503  502  0.73484033277E+00  0.45612585221E+02  0.31651251171E+03  0.31978307959E+03  0.00000000000E+00 0.  1.
</event>
<event>
 4    1  0.5722454E+002  0.2104223E+02  0.7546771E-02  0.1518663E+00
          2   -1    0    0  502    0  0.00000000000E+00  0.00000000000E+00  0.47513884143E+03  0.47513884143E+03  0.00000000000E+00 0.  1.
         -2   -1    0    0    0  501 -0.00000000000E+00 -0.00000000000E+00 -0.41090210687E+01  0.41090210687E+01  0.00000000000E+00 0. -1.
         21    1    1    2  502  503 -0.17414359076E+02  0.11811675030E+02  0.44622182871E+03  0.44671769160E+03  0.00000000000E+00 0. -1.
         21    1    1    2  503  501  0.17414359076E+02 -0.11811675030E+02  0.24807991650E+02  0.32530170900E+02  0.00000000000E+00 0.  1.
</event>
<event>
 4    1  0.5722454E+002  0.2014727E+02  0.7546771E-02  0.1531796E+00
          2   -1    0    0  503    0  0.00000000000E+00  0.00000000000E+00  0.67331925605E+03  0.67331925605E+03  0.00000000000E+00 0.  1.
         -2   -1    0    0    0  501 -0.00000000000E+00 -0.00000000000E+00 -0.83287389124E+00  0.83287389124E+00  0.00000000000E+00 0. -1.
         21    1    1    2  502  501  0.30773799215E+01 -0.19910854486E+02  0.15910095261E+03  0.16037152339E+03  0.00000000000E+00 0. -1.
         21    1    1    2  503  502 -0.30773799215E+01  0.19910854486E+02  0.51338542954E+03  0.51378060654E+03  0.00000000000E+00 0.  1.
</event>
<event>
 4    1  0.5722454E+002  0.2125063E+02  0.7546771E-02  0.1515716E+00
          2   -1    0    0  502    0  0.00000000000E+00  0.00000000000E+00  0.36384270472E+03  0.36384270472E+03  0.00000000000E+00 0.  1.
         -2   -1    0    0    0  501 -0.00000000000E+00 -0.00000000000E+00 -0.10296930587E+02  0.10296930587E+02  0.00000000000E+00 0. -1.
         21    1    1    2  502  503 -0.46793988496E-01  0.21250579789E+02  0.35220632870E+03  0.35284683264E+03  0.00000000000E+00 0.  1.
         21    1    1    2  503  501  0.46793988496E-01 -0.21250579789E+02  0.13394454293E+01  0.21292802660E+02  0.00000000000E+00 0. -1.
</event>
<event>
 4    1  0.5722454E+002  0.2349225E+02  0.7546771E-02  0.1486408E+00
          2   -1    0    0  502    0  0.00000000000E+00  0.00000000000E+00  0.14678570560E+04  0.14678570560E+04  0.00000000000E+00 0. -1.
         -2   -1    0    0    0  501 -0.00000000000E+00 -0.00000000000E+00 -0.19412440257E+01  0.19412440257E+01  0.00000000000E+00 0.  1.
         21    1    1    2  502  503 -0.19364890424E+02 -0.13299873445E+02  0.13928628970E+04  0.13930609949E+04  0.00000000000E+00 0. -1.
         21    1    1    2  503  501  0.19364890424E+02  0.13299873445E+02  0.73052914964E+02  0.76737305137E+02  0.00000000000E+00 0.  1.
</event>
<event>
 4    1  0.5722454E+002  0.2496679E+02  0.7546771E-02  0.1469175E+00
          2   -1    0    0  503    0  0.00000000000E+00  0.00000000000E+00  0.11554858365E+04  0.11554858365E+04  0.00000000000E+00 0. -1.
         -2   -1    0    0    0  501 -0.00000000000E+00 -0.00000000000E+00 -0.55998188421E+00  0.55998188421E+00  0.00000000000E+00 0.  1.
         21    1    1    2  502  501  0.14146976603E+02 -0.20571918344E+02  0.68811125767E+03  0.68856404473E+03  0.00000000000E+00 0. -1.
         21    1    1    2  503  502 -0.14146976603E+02  0.20571918344E+02  0.46681459695E+03  0.46748177365E+03  0.00000000000E+00 0.  1.
</event>
<event>
 4    1  0.5722454E+002  0.2021401E+02  0.7546771E-02  0.1530789E+00
          2   -1    0    0  502    0  0.00000000000E+00  0.00000000000E+00  0.86407845036E+03  0.86407845036E+03  0.00000000000E+00 0.  1.
         -2   -1    0    0    0  501 -0.00000000000E+00 -0.00000000000E+00 -0.22401740145E+01  0.22401740145E+01  0.00000000000E+00 0. -1.
         21    1    1    2  502  503 -0.15200175868E+02 -0.13325190527E+02  0.81565360197E+03  0.81590404120E+03  0.00000000000E+00 0.  1.
         21    1    1    2  503  501  0.15200175868E+02  0.13325190527E+02  0.46184674382E+02  0.50414583176E+02  0.00000000000E+00 0. -1.
</event>
<event>
 4    1  0.5722454E+002  0.2791575E+02  0.7546771E-02  0.1438620E+00
          2   -1    0    0  502    0  0.00000000000E+00  0.00000000000E+00  0.14878146547E+04  0.14878146547E+04  0.00000000000E+00 0. -1.
         -2   -1    0    0    0  501 -0.00000000000E+00 -0.00000000000E+00 -0.54427194247E+00  0.54427194247E+00  0.00000000000E+00 0.  1.
         21    1    1    2  502  503  0.18108885161E+02 -0.21245175652E+02  0.88802931399E+03  0.88846798013E+03  0.00000000000E+00 0. -1.
         21    1    1    2  503  501 -0.18108885161E+02  0.21245175652E+02  0.59924106874E+03  0.59989094649E+03  0.00000000000E+00 0.  1.
</event>
<event>
 4    1  0.5722454E+002  0.2000294E+02  0.7546771E-02  0.1533991E+00
          2   -1    0    0  503    0  0.00000000000E+00  0.00000000000E+00  0.97121368778E+03  0.97121368778E+03  0.00000000000E+00 0.  1.
         -2   -1    0    0    0  501 -0.00000000000E+00 -0.00000000000E+00 -0.18436902903E+01  0.18436902903E+01  0.00000000000E+00 0. -1.
         21    1    1    2  502  501  0.19469151759E+02  0.45901729798E+01  0.55946462739E+02  0.59414848743E+02  0.00000000000E+00 0. -1.
         21    1    1    2  503  502 -0.19469151759E+02 -0.45901729798E+01  0.91342353475E+03  0.91364252933E+03  0.00000000000E+00 0.  1.
</event>
<event>
 4    1  0.5722454E+002  0.2428252E+02  0.7546771E-02  0.1476992E+00
          2   -1    0    0  502    0  0.00000000000E+00  0.00000000000E+00  0.78075456672E+02  0.78075456672E+02  0.00000000000E+00 0. -1.
         -2   -1    0    0    0  501 -0.00000000000E+00 -0.00000000000E+00 -0.78019683252E+01  0.78019683252E+01  0.00000000000E+00 0.  1.
         21    1    1    2  502  503  0.23141047577E+02 -0.73574882186E+01  0.27453866172E+02  0.36651814193E+02  0.00000000000E+00 0.  1.
         21    1    1    2  503  501 -0.23141047577E+02  0.73574882186E+01  0.42819622175E+02  0.49225610805E+02  0.00000000000E+00 0. -1.
</event>
<event>
 4    1  0.5722454E+002  0.1632061E+03  0.7546771E-02  0.1084802E+00
          2   -1    0    0  503    0  0.00000000000E+00  0.00000000000E+00  0.10551871693E+03  0.10551871693E+03  0.00000000000E+00 0. -1.
         -2   -1    0    0    0  501 -0.00000000000E+00 -0.00000000000E+00 -0.25352968624E+03  0.25352968624E+03  0.00000000000E+00 0.  1.
         21    1    1    2  502  501 -0.16105045548E+03  0.26438138900E+02 -0.85822037498E+02  0.18439535384E+03  0.00000000000E+00 0.  1.
         21    1    1    2  503  502  0.16105045548E+03 -0.26438138900E+02 -0.62188931819E+02  0.17465304933E+03  0.00000000000E+00 0. -1.
</event>
<event>
 4    1  0.5722454E+002  0.2334197E+02  0.7546771E-02  0.1488248E+00
          2   -1    0    0  503    0  0.00000000000E+00  0.00000000000E+00  0.72463614358E+02  0.72463614358E+02  0.00000000000E+00 0.  1.
         -2   -1    0    0    0  501 -0.00000000000E+00 -0.00000000000E+00 -0.77957484775E+01  0.77957484775E+01  0.00000000000E+00 0. -1.
         21    1    1    2  502  501 -0.49573312481E+01  0.22809478104E+02  0.24771706012E+02  0.34036522196E+02  0.00000000000E+00 0. -1.
         21    1    1    2  503  502  0.49573312481E+01 -0.22809478104E+02  0.39896159868E+02  0.46222840639E+02  0.00000000000E+00 0.  1.
</event>
<event>
 4    1  0.5722454E+002  0.2052635E+02  0.7546771E-02  0.1526136E+00
          2   -1    0    0  503    0  0.00000000000E+00  0.00000000000E+00  0.51240446799E+01  0.51240446799E+01  0.00000000000E+00 0.  1.
         -2   -1    0    0    0  501 -0.00000000000E+00 -0.00000000000E+00 -0.25733362144E+03  0.25733362144E+03  0.00000000000E+00 0. -1.
         21    1    1    2  502  501 -0.19984660432E+02  0.46844981037E+01 -0.23435610019E+03  0.23525329513E+03  0.00000000000E+00 0. -1.
         21    1    1    2  503  502  0.19984660432E+02 -0.46844981037E+01 -0.17853476567E+02  0.27204370983E+02  0.00000000000E+00 0.  1.
</event>
<event>
 4    1  0.5722454E+002  0.2115644E+02  0.7546771E-02  0.1517043E+00
          2   -1    0    0  503    0  0.00000000000E+00  0.00000000000E+00  0.45789409609E+03  0.45789409609E+03  0.00000000000E+00 0.  1.
         -2   -1    0    0    0  501 -0.00000000000E+00 -0.00000000000E+00 -0.21279360073E+01  0.21279360073E+01  0.00000000000E+00 0. -1.
         21    1    1    2  502  501 -0.27337628843E+01 -0.20979072279E+02  0.58761446871E+02  0.62454003647E+02  0.00000000000E+00 0. -1.
         21    1    1    2  503  502  0.27337628843E+01  0.20979072279E+02  0.39700471321E+03  0.39756802845E+03  0.00000000000E+00 0.  1.
</event>
<event>
 4    1  0.5722454E+002  0.3546835E+02  0.7546771E-02  0.1377300E+00
          2   -1    0    0  502    0  0.00000000000E+00  0.00000000000E+00  0.14995039015E+03  0.14995039015E+03  0.00000000000E+00 0. -1.
         -2   -1    0    0    0  501 -0.00000000000E+00 -0.00000000000E+00 -0.15543752888E+02  0.15543752888E+02  0.00000000000E+00 0.  1.
         21    1    1    2  502  503 -0.24966558707E+02 -0.25192752081E+02  0.12334143601E+03  0.12833983656E+03  0.00000000000E+00 0. -1.
         21    1    1    2  503  501  0.24966558707E+02  0.25192752081E+02  0.11065201251E+02  0.37154306477E+02  0.00000000000E+00 0.  1.
</event>
<event>
 4    1  0.5722454E+002  0.2249800E+02  0.7546771E-02  0.1498900E+00
          2   -1    0    0  503    0  0.00000000000E+00  0.00000000000E+00  0.78070222835E+03  0.78070222835E+03  0.00000000000E+00 0.  1.
         -2   -1    0    0    0  501 -0.00000000000E+00 -0.00000000000E+00 -0.69329215658E+00  0.69329215658E+00  0.00000000000E+00 0. -1.
         21    1    1    2  502  501  0.22493725468E+02  0.43837895171E+00  0.29051848689E+03  0.29138831666E+03  0.00000000000E+00 0. -1.
         21    1    1    2  503  502 -0.22493725468E+02 -0.43837895171E+00  0.48949044930E+03  0.49000720385E+03  0.00000000000E+00 0.  1.
</event>
<event>
 4    1  0.5722454E+002  0.3614540E+02  0.7546771E-02  0.1372685E+00
          2   -1    0    0  503    0  0.00000000000E+00  0.00000000000E+00  0.35365011730E+03  0.35365011730E+03  0.00000000000E+00 0. -1.
         -2   -1    0    0    0  501 -0.00000000000E+00 -0.00000000000E+00 -0.99136245282E+01  0.99136245282E+01  0.00000000000E+00 0.  1.
         21    1    1    2  502  501  0.18284461678E+02  0.31179609480E+02  0.27886993118E+02  0.45652754258E+02  0.00000000000E+00 0.  1.
         21    1    1    2  503  502 -0.18284461678E+02 -0.31179609480E+02  0.31584949965E+03  0.31791098757E+03  0.00000000000E+00 0. -1.
</event>
<event>
 4    1  0.5722454E+002  0.2322482E+02  0.7546771E-02  0.1489694E+00
          2   -1    0    0  502    0  0.00000000000E+00  0.00000000000E+00  0.25890096586E+02  0.25890096586E+02  0.00000000000E+00 0.  1.
         -2   -1    0    0    0  501 -0.00000000000E+00 -0.00000000000E+00 -0.48496874223E+02  0.48496874223E+02  0.00000000000E+00 0. -1.
         21    1    1    2  502  503  0.47276788100E+01  0.22738545505E+02  0.16787095251E+02  0.28656569327E+02  0.00000000000E+00 0.  1.
         21    1    1    2  503  501 -0.47276788100E+01 -0.22738545505E+02 -0.39393872888E+02  0.45730401482E+02  0.00000000000E+00 0. -1.
</event>
<event>
 4    1  0.5722454E+002  0.2239598E+02  0.7546771E-02  0.1500225E+00
          2   -1    0    0  503    0  0.00000000000E+00  0.00000000000E+00  0.10893987173E+04  0.10893987173E+04  0.00000000000E+00 0.  1.
         -2   -1    0    0    0  501 -0.00000000000E+00 -0.00000000000E+00 -0.31326600536E+01  0.31326600536E+01  0.00000000000E+00 0. -1.
         21    1    1    2  502  501  0.48959480394E+01  0.21854280777E+02  0.38605227481E+02  0.44631194072E+02  0.00000000000E+00 0. -1.
         21    1    1    2  503  502 -0.48959480394E+01 -0.21854280777E+02  0.10476608297E+04  0.10479001833E+04  0.00000000000E+00 0.  1.
</event>
<event>
 4    1  0.5722454E+002  0.2087539E+02  0.7546771E-02  0.1521051E+00
          2   -1    0    0  503    0  0.00000000000E+00  0.00000000000E+00  0.55647520911E+03  0.55647520911E+03  0.00000000000E+00 0.  1.
         -2   -1    0    0    0  501 -0.00000000000E+00 -0.00000000000E+00 -0.22309430257E+01  0.22309430257E+01  0.00000000000E+00 0. -1.
         21    1    1    2  502  501  0.74608491521E+01 -0.19496610806E+02  0.52077716929E+02  0.56105888315E+02  0.00000000000E+00 0. -1.
         21    1    1    2  503  502 -0.74608491521E+01  0.19496610806E+02  0.50216654916E+03  0.50260026382E+03  0.00000000000E+00 0.  1.
</event>
<event>
 4    1  0.5722454E+002  0.4250237E+02  0.7546771E-02  0.1334415E+00
          2   -1    0    0  503    0  0.00000000000E+00  0.00000000000E+00  0.12109907655E+04  0.12109907655E+04  0.00000000000E+00 0. -1.
         -2   -1    0    0    0  501 -0.00000000000E+00 -0.00000000000E+00 -0.24513177054E+01  0.24513177054E+01  0.00000000000E+00 0.  1.
         21    1    1    2  502  501  0.19554192367E+02  0.37737050480E+02  0.22466177305E+03  0.22864680992E+03  0.00000000000E+00 0.  1.
         21    1    1    2  503  502 -0.19554192367E+02 -0.37737050480E+02  0.98387767472E+03  0.98479527326E+03  0.00000000000E+00 0. -1.
</event>
<event>
 4    1  0.5722454E+002  0.2156433E+02  0.7546771E-02  0.1511358E+00
          2   -1    0    0  502    0  0.00000000000E+00  0.00000000000E+00  0.14472097943E+04  0.14472097943E+04  0.00000000000E+00 0.  1.
         -2   -1    0    0    0  501 -0.00000000000E+00 -0.00000000000E+00 -0.36006011769E+00  0.36006011769E+00  0.00000000000E+00 0. -1.
         21    1    1    2  502  503 -0.10972905229E+02  0.18563826329E+02  0.96083074624E+03  0.96107270444E+03  0.00000000000E+00 0. -1.
         21    1    1    2  503  501  0.10972905229E+02 -0.18563826329E+02  0.48601898791E+03  0.48649714994E+03  0.00000000000E+00 0.  1.
</event>
<event>
 4    1  0.5722454E+002  0.2278673E+02  0.7546771E-02  0.1495194E+00
          2   -1    0    0  503    0  0.00000000000E+00  0.00000000000E+00  0.26193642183E+02  0.26193642183E+02  0.00000000000E+00 0.  1.
         -2   -1    0    0    0  501 -0.00000000000E+00 -0.00000000000E+00 -0.27781955844E+02  0.27781955844E+02  0.00000000000E+00 0. -1.
         21    1    1    2  502  501  0.22198390317E+02 -0.51445658126E+01 -0.15239093658E+02  0.27412863141E+02  0.00000000000E+00 0. -1.
         21    1    1    2  503  502 -0.22198390317E+02  0.51445658126E+01  0.13650779997E+02  0.26562734886E+02  0.00000000000E+00 0.  1.
</event>
<event>
 4    1  0.5722454E+002  0.2020167E+02  0.7546771E-02  0.1530975E+00
          2   -1    0    0  502    0  0.00000000000E+00  0.00000000000E+00  0.98682212897E+03  0.98682212897E+03  0.00000000000E+00 0. -1.
         -2   -1    0    0    0  501 -0.00000000000E+00 -0.00000000000E+00 -0.41842896203E+00  0.41842896203E+00  0.00000000000E+00 0.  1.
         21    1    1    2  502  503  0.54908214634E+01 -0.19441155363E+02  0.54646343198E+03  0.54683671249E+03  0.00000000000E+00 0.  1.
         21    1    1    2  503  501 -0.54908214634E+01  0.19441155363E+02  0.43994026803E+03  0.44040384543E+03  0.00000000000E+00 0. -1.
</event>
<event>
 4    1  0.5722454E+002  0.2283440E+02  0.7546771E-02  0.1494588E+00
          2   -1    0    0  502    0  0.00000000000E+00  0.00000000000E+00  0.13175494432E+04  0.13175494432E+04  0.00000000000E+00 0.  1.
         -2   -1    0    0    0  501 -0.00000000000E+00 -0.00000000000E+00 -0.74874839396E+00  0.74874839396E+00  0.00000000000E+00 0. -1.
         21    1    1    2  502  503 -0.22379119784E+02  0.45370562970E+01  0.11109923620E+04  0.11112269967E+04  0.00000000000E+00 0. -1.
         21    1    1    2  503  501  0.22379119784E+02 -0.45370562970E+01  0.20580833286E+03  0.20707119490E+03  0.00000000000E+00 0.  1.
</event>
<event>
 4    1  0.5722454E+002  0.2755330E+02  0.7546771E-02  0.1442128E+00
          2   -1    0    0  502    0  0.00000000000E+00  0.00000000000E+00  0.46253959380E+03  0.46253959380E+03  0.00000000000E+00 0. -1.
         -2   -1    0    0    0  501 -0.00000000000E+00 -0.00000000000E+00 -0.28427653902E+01  0.28427653902E+01  0.00000000000E+00 0.  1.
         21    1    1    2  502  503  0.26737909563E+02 -0.66534667373E+01  0.38112020051E+03  0.38211489328E+03  0.00000000000E+00 0. -1.
         21    1    1    2  503  501 -0.26737909563E+02  0.66534667373E+01  0.78576627899E+02  0.83267465912E+02  0.00000000000E+00 0.  1.
</event>
<event>
 4    1  0.5722454E+002  0.2125853E+02  0.7546771E-02  0.1515606E+00
          2   -1    0    0  503    0  0.00000000000E+00  0.00000000000E+00  0.33237028417E+03  0.33237028417E+03  0.00000000000E+00 0.  1.
         -2   -1    0    0    0  501 -0.00000000000E+00 -0.00000000000E+00 -0.14828494437E+01  0.14828494437E+01  0.00000000000E+00 0. -1.
         21    1    1    2  502  501 -0.88868424897E+01  0.19311888571E+02  0.11733905820E+03  0.11924923307E+03  0.00000000000E+00 0. -1.
         21    1    1    2  503  502  0.88868424897E+01 -0.19311888571E+02  0.21354837653E+03  0.21460390054E+03  0.00000000000E+00 0.  1.
</event>
<event>
 4    1  0.5722454E+002  0.2985099E+02  0.7546771E-02  0.1420896E+00
          2   -1    0    0  503    0  0.00000000000E+00  0.00000000000E+00  0.34430696003E+03  0.34430696003E+03  0.00000000000E+00 0.  1.
         -2   -1    0    0    0  501 -0.00000000000E+00 -0.00000000000E+00 -0.78717043298E+01  0.78717043298E+01  0.00000000000E+00 0. -1.
         21    1    1    2  502  501 -0.82769480628E+01 -0.28680551075E+02  0.23950938001E+02  0.38271782169E+02  0.00000000000E+00 0. -1.
         21    1    1    2  503  502  0.82769480628E+01  0.28680551075E+02  0.31248431770E+03  0.31390688219E+03  0.00000000000E+00 0.  1.
</event>
<event>
 4    1  0.5722454E+002  0.3386389E+02  0.7546771E-02  0.1388731E+00
          2   -1    0    0  503    0  0.00000000000E+00  0.00000000000E+00  0.34518011605E+03  0.34518011605E+03  0.00000000000E+00 0.  1.
         -2   -1    0    0    0  501 -0.00000000000E+00 -0.00000000000E+00 -0.46837250067E+01  0.46837250067E+01  0.00000000000E+00 0. -1.
         21    1    1    2  502  501 -0.15242312211E+02  0.30239621929E+02  0.75932565519E+02  0.83141549915E+02  0.00000000000E+00 0. -1.
         21    1    1    2  503  502  0.15242312211E+02 -0.30239621929E+02  0.26456382552E+03  0.26672229114E+03  0.00000000000E+00 0.  1.
</event>
<event>
 4    1  0.5722454E+002  0.2475980E+02  0.7546771E-02  0.1471509E+00
          2   -1    0    0  502    0  0.00000000000E+00  0.00000000000E+00  0.28040720569E+02  0.28040720569E+02  0.00000000000E+00 0. -1.
         -2   -1    0    0    0  501 -0.00000000000E+00 -0.00000000000E+00 -0.21908160992E+02  0.21908160992E+02  0.00000000000E+00 0.  1.
         21    1    1    2  502  503  0.24512071488E+02  0.34937013597E+01  0.19293953889E+01  0.24834857849E+02  0.00000000000E+00 0.  1.
         21    1    1    2  503  501 -0.24512071488E+02 -0.34937013597E+01  0.42031641883E+01  0.25114023712E+02  0.00000000000E+00 0. -1.
</event>
<event>
 4    1  0.5722454E+002  0.6394971E+02  0.7546771E-02  0.1246973E+00
          2   -1    0    0  503    0  0.00000000000E+00  0.00000000000E+00  0.15250423140E+03  0.15250423140E+03  0.00000000000E+00 0. -1.
         -2   -1    0    0    0  501 -0.00000000000E+00 -0.00000000000E+00 -0.26820725086E+02  0.26820725086E+02  0.00000000000E+00 0.  1.
         21    1    1    2  502  501  0.11119352341E+02 -0.62975592820E+02  0.64022045099E+02  0.90489709615E+02  0.00000000000E+00 0.  1.
         21    1    1    2  503  502 -0.11119352341E+02  0.62975592820E+02  0.61661461218E+02  0.88835246873E+02  0.00000000000E+00 0. -1.
</event>
<event>
 4    1  0.5722454E+002  0.5421142E+02  0.7546771E-02  0.1280878E+00
          2   -1    0    0  503    0  0.00000000000E+00  0.00000000000E+00  0.36901843347E+04  0.36901843347E+04  0.00000000000E+00 0. -1.
         -2   -1    0    0    0  501 -0.00000000000E+00 -0.00000000000E+00 -0.55537492371E+01  0.55537492371E+01  0.00000000000E+00 0.  1.
         21    1    1    2  502  501  0.26345700537E+02 -0.47379130101E+02  0.13206219148E+03  0.14275608682E+03  0.00000000000E+00 0.  1.
         21    1    1    2  503  502 -0.26345700537E+02  0.47379130101E+02  0.35525683940E+04  0.35529819971E+04  0.00000000000E+00 0. -1.
</event>
<event>
 4    1  0.5722454E+002  0.2002811E+02  0.7546771E-02  0.1533606E+00
          2   -1    0    0  502    0  0.00000000000E+00  0.00000000000E+00  0.24570492893E+02  0.24570492893E+02  0.00000000000E+00 0.  1.
         -2   -1    0    0    0  501 -0.00000000000E+00 -0.00000000000E+00 -0.43132571494E+02  0.43132571494E+02  0.00000000000E+00 0. -1.
         21    1    1    2  502  503  0.70497097449E+01  0.18746381405E+02  0.17406003959E+02  0.26534773357E+02  0.00000000000E+00 0.  1.
         21    1    1    2  503  501 -0.70497097449E+01 -0.18746381405E+02 -0.35968082561E+02  0.41168291030E+02  0.00000000000E+00 0. -1.
</event>
<event>
 4    1  0.5722454E+002  0.2456302E+02  0.7546771E-02  0.1473752E+00
          2   -1    0    0  503    0  0.00000000000E+00  0.00000000000E+00  0.13508891670E+03  0.13508891670E+03  0.00000000000E+00 0.  1.
         -2   -1    0    0    0  501 -0.00000000000E+00 -0.00000000000E+00 -0.63182431979E+01  0.63182431979E+01  0.00000000000E+00 0. -1.
         21    1    1    2  502  501  0.12784503426E+02  0.20973752512E+02  0.26106202617E+02  0.35845161980E+02  0.00000000000E+00 0. -1.
         21    1    1    2  503  502 -0.12784503426E+02 -0.20973752512E+02  0.10266447089E+03  0.10556199792E+03  0.00000000000E+00 0.  1.
</event>
<event>
 4    1  0.5722454E+002  0.2483730E+02  0.7546771E-02  0.1470632E+00
          2   -1    0    0  502    0  0.00000000000E+00  0.00000000000E+00  0.78895132408E+01  0.78895132408E+01  0.00000000000E+00 0. -1.
         -2   -1    0    0    0  501 -0.00000000000E+00 -0.00000000000E+00 -0.80184462225E+02  0.80184462225E+02  0.00000000000E+00 0.  1.
         21    1    1    2  502  503  0.24718625311E+02  0.24251225705E+01 -0.43090341477E+02  0.49735994866E+02  0.00000000000E+00 0.  1.
         21    1    1    2  503  501 -0.24718625311E+02 -0.24251225705E+01 -0.29204607507E+02  0.38337980599E+02  0.00000000000E+00 0. -1.
</event>
<event>
 4    1  0.5722454E+002  0.2253437E+02  0.7546771E-02  0.1498429E+00
          2   -1    0    0  503    0  0.00000000000E+00  0.00000000000E+00  0.95048384263E+01  0.95048384263E+01  0.00000000000E+00 0.  1.
         -2   -1    0    0    0  501 -0.00000000000E+00 -0.00000000000E+00 -0.54640280600E+02  0.54640280600E+02  0.00000000000E+00 0. -1.
         21    1    1    2  502  501  0.19386463190E+02  0.11487513239E+02 -0.27350488900E+02  0.35437933891E+02  0.00000000000E+00 0.  1.
         21    1    1    2  503  502 -0.19386463190E+02 -0.11487513239E+02 -0.17784953274E+02  0.28707185135E+02  0.00000000000E+00 0. -1.
</event>
<event>
 4    1  0.5722454E+002  0.2200844E+02  0.7546771E-02  0.1505339E+00
          2   -1    0    0  502    0  0.00000000000E+00  0.00000000000E+00  0.15717638689E+04  0.15717638689E+04  0.00000000000E+00 0. -1.
         -2   -1    0    0    0  501 -0.00000000000E+00 -0.00000000000E+00 -0.83410189177E+00  0.83410189177E+00  0.00000000000E+00 0.  1.
         21    1    1    2  502  503  0.17612669779E+02  0.13197166429E+02  0.14098358324E+04  0.14100076048E+04  0.00000000000E+00 0. -1.
         21    1    1    2  503  501 -0.17612669779E+02 -0.13197166429E+02  0.16109393463E+03  0.16259036599E+03  0.00000000000E+00 0.  1.
</event>
<event>
 4    1  0.5722454E+002  0.2580407E+02  0.7546771E-02  0.1460006E+00
          2   -1    0    0  502    0  0.00000000000E+00  0.00000000000E+00  0.17989080221E+03  0.17989080221E+03  0.00000000000E+00 0. -1.
         -2   -1    0    0    0  501 -0.00000000000E+00 -0.00000000000E+00 -0.70261991685E+01  0.70261991685E+01  0.00000000000E+00 0.  1.
         21    1    1    2  502  503 -0.10985931105E+02  0.23348649869E+02  0.15072186080E+03  0.15291477841E+03  0.00000000000E+00 0. -1.
         21    1    1    2  503  501  0.10985931105E+02 -0.23348649869E+02  0.22142742244E+02  0.34002222971E+02  0.00000000000E+00 0.  1.
</event>
<event>
 4    1  0.5722454E+002  0.2635244E+02  0.7546771E-02  0.1454224E+00
          2   -1    0    0  502    0  0.00000000000E+00  0.00000000000E+00  0.28547014814E+03  0.28547014814E+03  0.00000000000E+00 0.  1.
         -2   -1    0    0    0  501 -0.00000000000E+00 -0.00000000000E+00 -0.31648653718E+01  0.31648653718E+01  0.00000000000E+00 0. -1.
         21    1    1    2  502  503 -0.88598079483E+01  0.24818443138E+02  0.21056844656E+03  0.21221103177E+03  0.00000000000E+00 0.  1.
         21    1    1    2  503  501  0.88598079483E+01 -0.24818443138E+02  0.71736836205E+02  0.76423981742E+02  0.00000000000E+00 0. -1.
</event>
<event>
 4    1  0.5722454E+002  0.2236429E+02  0.7546771E-02  0.1500639E+00
          2   -1    0    0  502    0  0.00000000000E+00  0.00000000000E+00  0.27506413573E+03  0.27506413573E+03  0.00000000000E+00 0.  1.
         -2   -1    0    0    0  501 -0.00000000000E+00 -0.00000000000E+00 -0.19993418858E+01  0.19993418858E+01  0.00000000000E+00 0. -1.
         21    1    1    2  502  503  0.33664294200E+01  0.22109465972E+02  0.17821376994E+03  0.17961155066E+03  0.00000000000E+00 0.  1.
         21    1    1    2  503  501 -0.33664294200E+01 -0.22109465972E+02  0.94851023901E+02  0.97451926957E+02  0.00000000000E+00 0. -1.
</event>
<event>
 4    1  0.5722454E+002  0.5223713E+02  0.7546771E-02  0.1288754E+00
          2   -1    0    0  502    0  0.00000000000E+00  0.00000000000E+00  0.10654089072E+04  0.10654089072E+04  0.00000000000E+00 0.  1.
         -2   -1    0    0    0  501 -0.00000000000E+00 -0.00000000000E+00 -0.39550186659E+01  0.39550186659E+01  0.00000000000E+00 0. -1.
         21    1    1    2  502  503  0.27097881549E+02  0.44658956706E+02  0.84814054252E+03  0.84974766694E+03  0.00000000000E+00 0.  1.
         21    1    1    2  503  501 -0.27097881549E+02 -0.44658956706E+02  0.21331334603E+03  0.21961625895E+03  0.00000000000E+00 0. -1.
</event>
<event>
 4    1  0.5722454E+002  0.2602550E+02  0.7546771E-02  0.1457651E+00
          2   -1    0    0  503    0  0.00000000000E+00  0.00000000000E+00  0.32864097901E+03  0.32864097901E+03  0.00000000000E+00 0. -1.
         -2   -1    0    0    0  501 -0.00000000000E+00 -0.00000000000E+00 -0.35850067941E+02  0.35850067941E+02  0.00000000000E+00 0.  1.
         21    1    1    2  502  501  0.14319278321E+02  0.21732117954E+02 -0.30533954937E+02  0.40120432282E+02  0.00000000000E+00 0.  1.
         21    1    1    2  503  502 -0.14319278321E+02 -0.21732117954E+02  0.32332486601E+03  0.32437061467E+03  0.00000000000E+00 0. -1.
</event>
<event>
 4    1  0.5722454E+002  0.3298538E+02  0.7546771E-02  0.1395308E+00
          2   -1    0    0  502    0  0.00000000000E+00  0.00000000000E+00  0.13566424128E+04  0.13566424128E+04  0.00000000000E+00 0. -1.
         -2   -1    0    0    0  501 -0.00000000000E+00 -0.00000000000E+00 -0.99810553349E+00  0.99810553349E+00  0.00000000000E+00 0.  1.
         21    1    1    2  502  503 -0.28791666332E+02  0.16095815999E+02  0.97871014403E+03  0.97926583795E+03  0.00000000000E+00 0. -1.
         21    1    1    2  503  501  0.28791666332E+02 -0.16095815999E+02  0.37693416326E+03  0.37837468041E+03  0.00000000000E+00 0.  1.
</event>
<event>
 4    1  0.5722454E+002  0.2700531E+02  0.7546771E-02  0.1447555E+00
          2   -1    0    0  503    0  0.00000000000E+00  0.00000000000E+00  0.39536659392E+03  0.39536659392E+03  0.00000000000E+00 0. -1.
         -2   -1    0    0    0  501 -0.00000000000E+00 -0.00000000000E+00 -0.19704245391E+01  0.19704245391E+01  0.00000000000E+00 0.  1.
         21    1    1    2  502  501  0.93353431928E+00  0.26989166518E+02  0.14649149610E+03  0.14895987724E+03  0.00000000000E+00 0.  1.
         21    1    1    2  503  502 -0.93353431928E+00 -0.26989166518E+02  0.24690467328E+03  0.24837714122E+03  0.00000000000E+00 0. -1.
</event>
<event>
 4    1  0.5722454E+002  0.8879824E+02  0.7546771E-02  0.1184776E+00
          2   -1    0    0  503    0  0.00000000000E+00  0.00000000000E+00  0.40465512991E+04  0.40465512991E+04  0.00000000000E+00 0. -1.
         -2   -1    0    0    0  501 -0.00000000000E+00 -0.00000000000E+00 -0.21994131094E+01  0.21994131094E+01  0.00000000000E+00 0.  1.
         21    1    1    2  502  501  0.55398200685E+02  0.69398606655E+02  0.13385649562E+04  0.13415070888E+04  0.00000000000E+00 0.  1.
         21    1    1    2  503  502 -0.55398200685E+02 -0.69398606655E+02  0.27057869297E+04  0.27072436234E+04  0.00000000000E+00 0. -1.
</event>
<event>
 4    1  0.5722454E+002  0.2253910E+02  0.7546771E-02  0.1498368E+00
          2   -1    0    0  502    0  0.00000000000E+00  0.00000000000E+00  0.62821631519E+02  0.62821631519E+02  0.00000000000E+00 0. -1.
         -2   -1    0    0    0  501 -0.00000000000E+00 -0.00000000000E+00 -0.20902111295E+02  0.20902111295E+02  0.00000000000E+00 0.  1.
         21    1    1    2  502  503  0.20050688262E+02 -0.10294696279E+02  0.53738496961E+02  0.58273809957E+02  0.00000000000E+00 0. -1.
         21    1    1    2  503  501 -0.20050688262E+02  0.10294696279E+02 -0.11818976737E+02  0.25449932856E+02  0.00000000000E+00 0.  1.
</event>
<event>
 4    1  0.5722454E+002  0.2836066E+02  0.7546771E-02  0.1434399E+00
          2   -1    0    0  503    0  0.00000000000E+00  0.00000000000E+00  0.25868673203E+04  0.25868673203E+04  0.00000000000E+00 0. -1.
         -2   -1    0    0    0  501 -0.00000000000E+00 -0.00000000000E+00 -0.31321262090E+00  0.31321262090E+00  0.00000000000E+00 0.  1.
         21    1    1    2  502  501  0.20301355981E+02  0.19803591655E+02  0.11827765002E+04  0.11831164680E+04  0.00000000000E+00 0. -1.
         21    1    1    2  503  502 -0.20301355981E+02 -0.19803591655E+02  0.14037776075E+04  0.14040640650E+04  0.00000000000E+00 0.  1.
</event>
<event>
 4    1  0.5722454E+002  0.2432625E+02  0.7546771E-02  0.1476484E+00
          2   -1    0    0  503    0  0.00000000000E+00  0.00000000000E+00  0.10265445351E+02  0.10265445351E+02  0.00000000000E+00 0.  1.
         -2   -1    0    0    0  501 -0.00000000000E+00 -0.00000000000E+00 -0.34251084448E+03  0.34251084448E+03  0.00000000000E+00 0. -1.
         21    1    1    2  502  501  0.65830358074E+01 -0.23418584786E+02 -0.32698390356E+03  0.32788754118E+03  0.00000000000E+00 0. -1.
         21    1    1    2  503  502 -0.65830358074E+01  0.23418584786E+02 -0.52614955689E+01  0.24888748651E+02  0.00000000000E+00 0.  1.
</event>
<event>
 4    1  0.5722454E+002  0.2642989E+02  0.7546771E-02  0.1453421E+00
          2   -1    0    0  502    0  0.00000000000E+00  0.00000000000E+00  0.11206206169E+02  0.11206206169E+02  0.00000000000E+00 0.  1.
         -2   -1    0    0    0  501 -0.00000000000E+00 -0.00000000000E+00 -0.70250108968E+02  0.70250108968E+02  0.00000000000E+00 0. -1.
         21    1    1    2  502  503 -0.24393056556E+02 -0.10174383381E+02 -0.43192900764E+02  0.50637594352E+02  0.00000000000E+00 0. -1.
         21    1    1    2  503  501  0.24393056556E+02  0.10174383381E+02 -0.15851002035E+02  0.30818720786E+02  0.00000000000E+00 0.  1.
</event>
<event>
 4    1  0.5722454E+002  0.4042171E+02  0.7546771E-02  0.1346032E+00
          2   -1    0    0  502    0  0.00000000000E+00  0.00000000000E+00  0.24405233568E+03  0.24405233568E+03  0.00000000000E+00 0. -1.
         -2   -1    0    0    0  501 -0.00000000000E+00 -0.00000000000E+00 -0.77685221301E+01  0.77685221301E+01  0.00000000000E+00 0.  1.
         21    1    1    2  502  503 -0.23321620453E+02  0.33015403465E+02  0.16494891475E+03  0.16982950075E+03  0.00000000000E+00 0.  1.
         21    1    1    2  503  501  0.23321620453E+02 -0.33015403465E+02  0.71334898804E+02  0.81991357068E+02  0.00000000000E+00 0. -1.
</event>
<event>
 4    1  0.5722454E+002  0.2050669E+02  0.7546771E-02  0.1526426E+00
          2   -1    0    0  503    0  0.00000000000E+00  0.00000000000E+00  0.78525654739E+01  0.78525654739E+01  0.00000000000E+00 0.  1.
         -2   -1    0    0    0  501 -0.00000000000E+00 -0.00000000000E+00 -0.72774567682E+02  0.72774567682E+02  0.00000000000E+00 0. -1.
         21    1    1    2  502  501  0.13916718005E+02 -0.15061510994E+02 -0.53179675858E+02  0.56996509348E+02  0.00000000000E+00 0. -1.
         21    1    1    2  503  502 -0.13916718005E+02  0.15061510994E+02 -0.11742326350E+02  0.23630623808E+02  0.00000000000E+00 0.  1.
</event>
<event>
 4    1  0.5722454E+002  0.4497624E+02  0.7546771E-02  0.1321558E+00
          2   -1    0    0  502    0  0.00000000000E+00  0.00000000000E+00  0.17863364818E+04  0.17863364818E+04  0.00000000000E+00 0.  1.
         -2   -1    0    0    0  501 -0.00000000000E+00 -0.00000000000E+00 -0.16097974154E+01  0.16097974154E+01  0.00000000000E+00 0. -1.
         21    1    1    2  502  503  0.17387984098E+02  0.41479152093E+02  0.13791909141E+04  0.13799240702E+04  0.00000000000E+00 0.  1.
         21    1    1    2  503  501 -0.17387984098E+02 -0.41479152093E+02  0.40553577030E+03  0.40802220900E+03  0.00000000000E+00 0. -1.
</event>
<event>
 4    1  0.5722454E+002  0.4236697E+02  0.7546771E-02  0.1335147E+00
          2   -1    0    0  503    0  0.00000000000E+00  0.00000000000E+00  0.21383890107E+02  0.21383890107E+02  0.00000000000E+00 0.  1.
         -2   -1    0    0    0  501 -0.00000000000E+00 -0.00000000000E+00 -0.16656119707E+03  0.16656119707E+03  0.00000000000E+00 0. -1.
         21    1    1    2  502  501  0.35770721142E+02 -0.22702775887E+02 -0.13877374927E+03  0.14509691248E+03  0.00000000000E+00 0. -1.
         21    1    1    2  503  502 -0.35770721142E+02  0.22702775887E+02 -0.64035576933E+01  0.42848174700E+02  0.00000000000E+00 0.  1.
</event>
<event>
 4    1  0.5722454E+002  0.3588464E+02  0.7546771E-02  0.1374448E+00
          2   -1    0    0  503    0  0.00000000000E+00  0.00000000000E+00  0.58542871498E+03  0.58542871498E+03  0.00000000000E+00 0.  1.
         -2   -1    0    0    0  501 -0.00000000000E+00 -0.00000000000E+00 -0.33957218530E+01  0.33957218530E+01  0.00000000000E+00 0. -1.
         21    1    1    2  502  501 -0.27920198389E+02 -0.22542628675E+02  0.11628229233E+03  0.12169338148E+03  0.00000000000E+00 0. -1.
         21    1    1    2  503  502  0.27920198389E+02  0.22542628675E+02  0.46575070080E+03  0.46713105536E+03  0.00000000000E+00 0.  1.
</event>
<event>
 4    1  0.5722454E+002  0.2722737E+02  0.7546771E-02  0.1445337E+00
          2   -1    0    0  503    0  0.00000000000E+00  0.00000000000E+00  0.16853155573E+04  0.16853155573E+04  0.00000000000E+00 0. -1.
         -2   -1    0    0    0  501 -0.00000000000E+00 -0.00000000000E+00 -0.48091534290E+00  0.48091534290E+00  0.00000000000E+00 0.  1.
         21    1    1    2  502  501  0.27221658975E+02 -0.55746768553E+00  0.10886480304E+04  0.10889884588E+04  0.00000000000E+00 0. -1.
         21    1    1    2  503  502 -0.27221658975E+02  0.55746768553E+00  0.59618661156E+03  0.59680801377E+03  0.00000000000E+00 0.  1.
</event>
<event>
 4    1  0.5722454E+002  0.2442974E+02  0.7546771E-02  0.1475285E+00
          2   -1    0    0  502    0  0.00000000000E+00  0.00000000000E+00  0.20878482823E+04  0.20878482823E+04  0.00000000000E+00 0.  1.
         -2   -1    0    0    0  501 -0.00000000000E+00 -0.00000000000E+00 -0.37290259729E+00  0.37290259729E+00  0.00000000000E+00 0. -1.
         21    1    1    2  502  503 -0.23917357410E+02 -0.49771696618E+01  0.53926374341E+03  0.53981681815E+03  0.00000000000E+00 0. -1.
         21    1    1    2  503  501  0.23917357410E+02  0.49771696618E+01  0.15482116363E+04  0.15484043667E+04  0.00000000000E+00 0.  1.
</event>
<event>
 4    1  0.5722454E+002  0.2399026E+02  0.7546771E-02  0.1480424E+00
          2   -1    0    0  503    0  0.00000000000E+00  0.00000000000E+00  0.10856931039E+04  0.10856931039E+04  0.00000000000E+00 0. -1.
         -2   -1    0    0    0  501 -0.00000000000E+00 -0.00000000000E+00 -0.12027446428E+02  0.12027446428E+02  0.00000000000E+00 0.  1.
         21    1    1    2  502  501  0.21611859859E+02 -0.10414428603E+02  0.20428167340E+00  0.23991134627E+02  0.00000000000E+00 0.  1.
         21    1    1    2  503  502 -0.21611859859E+02  0.10414428603E+02  0.10734613758E+04  0.10737294157E+04  0.00000000000E+00 0. -1.
</event>
<event>
 4    1  0.5722454E+002  0.3792146E+02  0.7546771E-02  0.1361116E+00
          2   -1    0    0  502    0  0.00000000000E+00  0.00000000000E+00  0.18123241574E+03  0.18123241574E+03  0.00000000000E+00 0.  1.
         -2   -1    0    0    0  501 -0.00000000000E+00 -0.00000000000E+00 -0.85661377116E+01  0.85661377116E+01  0.00000000000E+00 0. -1.
         21    1    1    2  502  503 -0.29575486294E+02 -0.23734528509E+02  0.11209707043E+03  0.11833761208E+03  0.00000000000E+00 0.  1.
         21    1    1    2  503  501  0.29575486294E+02  0.23734528509E+02  0.60569207597E+02  0.71460941374E+02  0.00000000000E+00 0. -1.
</event>
<event>
 4    1  0.5722454E+002  0.2556527E+02  0.7546771E-02  0.1462578E+00
          2   -1    0    0  503    0  0.00000000000E+00  0.00000000000E+00  0.48200486308E+03  0.48200486308E+03  0.00000000000E+00 0.  1.
         -2   -1    0    0    0  501 -0.00000000000E+00 -0.00000000000E+00 -0.15020874796E+01  0.15020874796E+01  0.00000000000E+00 0. -1.
         21    1    1    2  502  501  0.25514107437E+02 -0.16166231636E+01  0.16485001773E+03  0.16682059673E+03  0.00000000000E+00 0. -1.
         21    1    1    2  503  502 -0.25514107437E+02  0.16166231636E+01  0.31565275786E+03  0.31668635382E+03  0.00000000000E+00 0.  1.
</event>
<event>
 4    1  0.5722454E+002  0.2931631E+02  0.7546771E-02  0.1425632E+00
          2   -1    0    0  502    0  0.00000000000E+00  0.00000000000E+00  0.15798538736E+01  0.15798538736E+01  0.00000000000E+00 0.  1.
         -2   -1    0    0    0  501 -0.00000000000E+00 -0.00000000000E+00 -0.15016038828E+04  0.15016038828E+04  0.00000000000E+00 0. -1.
         21    1    1    2  502  503 -0.15649408533E+01 -0.29274512339E+02 -0.14981127517E+03  0.15265275720E+03  0.00000000000E+00 0.  1.
         21    1    1    2  503  501  0.15649408533E+01  0.29274512339E+02 -0.13502127538E+04  0.13505309795E+04  0.00000000000E+00 0. -1.
</event>
<event>
 4    1  0.5722454E+002  0.4203232E+02  0.7546771E-02  0.1336971E+00
          2   -1    0    0  503    0  0.00000000000E+00  0.00000000000E+00  0.14828828725E+04  0.14828828725E+04  0.00000000000E+00 0. -1.
         -2   -1    0    0    0  501 -0.00000000000E+00 -0.00000000000E+00 -0.16482440076E+01  0.16482440076E+01  0.00000000000E+00 0.  1.
         21    1    1    2  502  501  0.41977769654E+02  0.21406677793E+01  0.34983972050E+03  0.35235570897E+03  0.00000000000E+00 0.  1.
         21    1    1    2  503  502 -0.41977769654E+02 -0.21406677793E+01  0.11313949079E+04  0.11321754075E+04  0.00000000000E+00 0. -1.
</event>
<event>
 4    1  0.5722454E+002  0.2549231E+02  0.7546771E-02  0.1463371E+00
          2   -1    0    0  502    0  0.00000000000E+00  0.00000000000E+00  0.64021096408E+03  0.64021096408E+03  0.00000000000E+00 0.  1.
         -2   -1    0    0    0  501 -0.00000000000E+00 -0.00000000000E+00 -0.17437871440E+01  0.17437871440E+01  0.00000000000E+00 0. -1.
         21    1    1    2  502  503 -0.23216884795E+02 -0.10527774894E+02  0.52672862825E+03  0.52734514846E+03  0.00000000000E+00 0.  1.
         21    1    1    2  503  501  0.23216884795E+02  0.10527774894E+02  0.11173854869E+03  0.11460960277E+03  0.00000000000E+00 0. -1.
</event>
<event>
 4    1  0.5722454E+002  0.2447241E+02  0.7546771E-02  0.1474793E+00
          2   -1    0    0  502    0  0.00000000000E+00  0.00000000000E+00  0.56199407107E+02  0.56199407107E+02  0.00000000000E+00 0. -1.
         -2   -1    0    0    0  501 -0.00000000000E+00 -0.00000000000E+00 -0.11309226247E+02  0.11309226247E+02  0.00000000000E+00 0.  1.
         21    1    1    2  502  503  0.85309287569E+01 -0.22937353108E+02  0.14336980733E+02  0.28362791287E+02  0.00000000000E+00 0. -1.
         21    1    1    2  503  501 -0.85309287569E+01  0.22937353108E+02  0.30553200127E+02  0.39145842066E+02  0.00000000000E+00 0.  1.
</event>
<event>
 4    1  0.5722454E+002  0.2384470E+02  0.7546771E-02  0.1482155E+00
          2   -1    0    0  502    0  0.00000000000E+00  0.00000000000E+00  0.60258994040E+03  0.60258994040E+03  0.00000000000E+00 0.  1.
         -2   -1    0    0    0  501 -0.00000000000E+00 -0.00000000000E+00 -0.22711380641E+01  0.22711380641E+01  0.00000000000E+00 0. -1.
         21    1    1    2  502  503 -0.18520634325E+02 -0.15018517471E+02  0.53138537884E+03  0.53192009796E+03  0.00000000000E+00 0.  1.
         21    1    1    2  503  501  0.18520634325E+02  0.15018517471E+02  0.68933423491E+02  0.72940980504E+02  0.00000000000E+00 0. -1.
</event>
<event>
 4    1  0.5722454E+002  0.8307210E+02  0.7546771E-02  0.1196890E+00
          2   -1    0    0  502    0  0.00000000000E+00  0.00000000000E+00  0.23561752576E+04  0.23561752576E+04  0.00000000000E+00 0. -1.
         -2   -1    0    0    0  501 -0.00000000000E+00 -0.00000000000E+00 -0.93158134996E+01  0.93158134996E+01  0.00000000000E+00 0.  1.
         21    1    1    2  502  503 -0.37692756025E+02 -0.74028570553E+02  0.21527547520E+04  0.21543569796E+04  0.00000000000E+00 0. -1.
         21    1    1    2  503  501  0.37692756025E+02  0.74028570553E+02  0.19410469209E+03  0.21113409153E+03  0.00000000000E+00 0.  1.
</event>
<event>
 4    1  0.5722454E+002  0.3877457E+02  0.7546771E-02  0.1355820E+00
          2   -1    0    0  503    0  0.00000000000E+00  0.00000000000E+00  0.16885232489E+04  0.16885232489E+04  0.00000000000E+00 0. -1.
         -2   -1    0    0    0  501 -0.00000000000E+00 -0.00000000000E+00 -0.13269503420E+01  0.13269503420E+01  0.00000000000E+00 0.  1.
         21    1    1    2  502  501  0.27303529025E+02  0.27531516042E+02  0.35897262552E+03  0.36106067765E+03  0.00000000000E+00 0.  1.
         21    1    1    2  503  502 -0.27303529025E+02 -0.27531516042E+02  0.13282236730E+04  0.13287895216E+04  0.00000000000E+00 0. -1.
</event>
<event>
 4    1  0.5722454E+002  0.3306181E+02  0.7546771E-02  0.1394726E+00
          2   -1    0    0  502    0  0.00000000000E+00  0.00000000000E+00  0.10814948223E+04  0.10814948223E+04  0.00000000000E+00 0.  1.
         -2   -1    0    0    0  501 -0.00000000000E+00 -0.00000000000E+00 -0.87978231896E+01  0.87978231896E+01  0.00000000000E+00 0. -1.
         21    1    1    2  502  503 -0.23671627538E+02 -0.23081096202E+02  0.10492259189E+04  0.10497466894E+04  0.00000000000E+00 0.  1.
         21    1    1    2  503  501  0.23671627538E+02  0.23081096202E+02  0.23471080235E+02  0.40545956144E+02  0.00000000000E+00 0. -1.
</event>
<event>
 4    1  0.5722454E+002  0.2574813E+02  0.7546771E-02  0.1460605E+00
          2   -1    0    0  502    0  0.00000000000E+00  0.00000000000E+00  0.15199997804E+04  0.15199997804E+04  0.00000000000E+00 0.  1.
         -2   -1    0    0    0  501 -0.00000000000E+00 -0.00000000000E+00 -0.64267564843E+00  0.64267564843E+00  0.00000000000E+00 0. -1.
         21    1    1    2  502  503 -0.25747498529E+02 -0.18060546567E+00  0.11906767625E+04  0.11909551289E+04  0.00000000000E+00 0.  1.
         21    1    1    2  503  501  0.25747498529E+02  0.18060546567E+00  0.32868034226E+03  0.32968732715E+03  0.00000000000E+00 0. -1.
</event>
<event>
 4    1  0.5722454E+002  0.3960213E+02  0.7546771E-02  0.1350833E+00
          2   -1    0    0  502    0  0.00000000000E+00  0.00000000000E+00  0.77794535835E+03  0.77794535835E+03  0.00000000000E+00 0. -1.
         -2   -1    0    0    0  501 -0.00000000000E+00 -0.00000000000E+00 -0.22835374567E+01  0.22835374567E+01  0.00000000000E+00 0.  1.
         21    1    1    2  502  503  0.42011564676E+01 -0.39378662560E+02  0.52136425174E+03  0.52286615091E+03  0.00000000000E+00 0. -1.
         21    1    1    2  503  501 -0.42011564676E+01  0.39378662560E+02  0.25429756915E+03  0.25736274489E+03  0.00000000000E+00 0.  1.
</event>
<event>
 4    1  0.5722454E+002  0.2964380E+02  0.7546771E-02  0.1422717E+00
          2   -1    0    0  502    0  0.00000000000E+00  0.00000000000E+00  0.24031273288E+04  0.24031273288E+04  0.00000000000E+00 0.  1.
         -2   -1    0    0    0  501 -0.00000000000E+00 -0.00000000000E+00 -0.40378640359E+00  0.40378640359E+00  0.00000000000E+00 0. -1.
         21    1    1    2  502  503 -0.28936520950E+02  0.64368375941E+01  0.15705870642E+04  0.15708667931E+04  0.00000000000E+00 0.  1.
         21    1    1    2  503  501  0.28936520950E+02 -0.64368375941E+01  0.83213647817E+03  0.83266432217E+03  0.00000000000E+00 0. -1.
</event>
<event>
 4    1  0.5722454E+002  0.2321280E+02  0.7546771E-02  0.1489843E+00
          2   -1    0    0  503    0  0.00000000000E+00  0.00000000000E+00  0.67216905880E+03  0.67216905880E+03  0.00000000000E+00 0. -1.
         -2   -1    0    0    0  501 -0.00000000000E+00 -0.00000000000E+00 -0.81251708725E+00  0.81251708725E+00  0.00000000000E+00 0.  1.
         21    1    1    2  502  501  0.71503660858E+01  0.22084071104E+02  0.29673590928E+03  0.29764245965E+03  0.00000000000E+00 0. -1.
         21    1    1    2  503  502 -0.71503660858E+01 -0.22084071104E+02  0.37462063243E+03  0.37533911624E+03  0.00000000000E+00 0.  1.
</event>
<event>
 4    1  0.5722454E+002  0.2071767E+02  0.7546771E-02  0.1523334E+00
          2   -1    0    0  503    0  0.00000000000E+00  0.00000000000E+00  0.80134239048E+03  0.80134239048E+03  0.00000000000E+00 0. -1.
         -2   -1    0    0    0  501 -0.00000000000E+00 -0.00000000000E+00 -0.53762168943E+00  0.53762168943E+00  0.00000000000E+00 0.  1.
         21    1    1    2  502  501  0.19820290966E+02 -0.60314148591E+01  0.42481446962E+03  0.42531935707E+03  0.00000000000E+00 0. -1.
         21    1    1    2  503  502 -0.19820290966E+02  0.60314148591E+01  0.37599029917E+03  0.37656065510E+03  0.00000000000E+00 0.  1.
</event>
<event>
 4    1  0.5722454E+002  0.7379877E+02  0.7546771E-02  0.1219025E+00
          2   -1    0    0  503    0  0.00000000000E+00  0.00000000000E+00  0.16763880142E+03  0.16763880142E+03  0.00000000000E+00 0. -1.
         -2   -1    0    0    0  501 -0.00000000000E+00 -0.00000000000E+00 -0.12590924492E+03  0.12590924492E+03  0.00000000000E+00 0.  1.
         21    1    1    2  502  501  0.57014254460E+02  0.46857585497E+02 -0.10556316921E+03  0.12880155753E+03  0.00000000000E+00 0.  1.
         21    1    1    2  503  502 -0.57014254460E+02 -0.46857585497E+02  0.14729272570E+03  0.16474648881E+03  0.00000000000E+00 0. -1.
</event>
<event>
 4    1  0.5722454E+002  0.2356171E+02  0.7546771E-02  0.1485563E+00
          2   -1    0    0  502    0  0.00000000000E+00  0.00000000000E+00  0.16610817460E+03  0.16610817460E+03  0.00000000000E+00 0. -1.
         -2   -1    0    0    0  501 -0.00000000000E+00 -0.00000000000E+00 -0.21790297369E+02  0.21790297369E+02  0.00000000000E+00 0.  1.
         21    1    1    2  502  503 -0.13251536004E+02  0.19482062859E+02  0.15860363823E+03  0.16034421736E+03  0.00000000000E+00 0. -1.
         21    1    1    2  503  501  0.13251536004E+02 -0.19482062859E+02 -0.14285761003E+02  0.27554254610E+02  0.00000000000E+00 0.  1.
</event>
<event>
 4    1  0.5722454E+002  0.2010716E+02  0.7546771E-02  0.1532404E+00
          2   -1    0    0  503    0  0.00000000000E+00  0.00000000000E+00  0.13181043220E+04  0.13181043220E+04  0.00000000000E+00 0. -1.
         -2   -1    0    0    0  501 -0.00000000000E+00 -0.00000000000E+00 -0.64964645004E+00  0.64964645004E+00  0.00000000000E+00 0.  1.
         21    1    1    2  502  501 -0.64813868671E+00  0.20096706673E+02  0.17966554029E+03  0.18078717895E+03  0.00000000000E+00 0.  1.
         21    1    1    2  503  502  0.64813868671E+00 -0.20096706673E+02  0.11377891352E+04  0.11379667895E+04  0.00000000000E+00 0. -1.
</event>
<event>
 4    1  0.5722454E+002  0.2029501E+02  0.7546771E-02  0.1529573E+00
          2   -1    0    0  502    0  0.00000000000E+00  0.00000000000E+00  0.69256132317E+03  0.69256132317E+03  0.00000000000E+00 0. -1.
         -2   -1    0    0    0  501 -0.00000000000E+00 -0.00000000000E+00 -0.58123579255E+01  0.58123579255E+01  0.00000000000E+00 0.  1.
         21    1    1    2  502  503  0.17144807220E+02 -0.10860151292E+02  0.67421464703E+03  0.67452003496E+03  0.00000000000E+00 0. -1.
         21    1    1    2  503  501 -0.17144807220E+02  0.10860151292E+02  0.12534318221E+02  0.23853646136E+02  0.00000000000E+00 0.  1.
</event>
<event>
 4    1  0.5722454E+002  0.5551434E+02  0.7546771E-02  0.1275885E+00
          2   -1    0    0  503    0  0.00000000000E+00  0.00000000000E+00  0.17985187877E+03  0.17985187877E+03  0.00000000000E+00 0.  1.
         -2   -1    0    0    0  501 -0.00000000000E+00 -0.00000000000E+00 -0.17240368436E+02  0.17240368436E+02  0.00000000000E+00 0. -1.
         21    1    1    2  502  501  0.52340818265E+02  0.18500822364E+02  0.73617887749E+02  0.92203227066E+02  0.00000000000E+00 0.  1.
         21    1    1    2  503  502 -0.52340818265E+02 -0.18500822364E+02  0.88993622582E+02  0.10488902014E+03  0.00000000000E+00 0. -1.
</event>
<event>
 4    1  0.5722454E+002  0.2917575E+02  0.7546771E-02  0.1426897E+00
          2   -1    0    0  503    0  0.00000000000E+00  0.00000000000E+00  0.21836053870E+03  0.21836053870E+03  0.00000000000E+00 0. -1.
         -2   -1    0    0    0  501 -0.00000000000E+00 -0.00000000000E+00 -0.91263505353E+02  0.91263505353E+02  0.00000000000E+00 0.  1.
         21    1    1    2  502  501  0.23804488391E+02 -0.16869222790E+02 -0.87921084288E+02  0.92635529941E+02  0.00000000000E+00 0.  1.
         21    1    1    2  503  502 -0.23804488391E+02  0.16869222790E+02  0.21501811763E+03  0.21698851411E+03  0.00000000000E+00 0. -1.
</event>
<event>
 4    1  0.5722454E+002  0.2514925E+02  0.7546771E-02  0.1467141E+00
          2   -1    0    0  503    0  0.00000000000E+00  0.00000000000E+00  0.79448317973E+02  0.79448317973E+02  0.00000000000E+00 0.  1.
         -2   -1    0    0    0  501 -0.00000000000E+00 -0.00000000000E+00 -0.16112242667E+02  0.16112242667E+02  0.00000000000E+00 0. -1.
         21    1    1    2  502  501 -0.24978885379E+02  0.29222967843E+01 -0.23166896818E+01  0.25255723794E+02  0.00000000000E+00 0. -1.
         21    1    1    2  503  502  0.24978885379E+02 -0.29222967843E+01  0.65652764988E+02  0.70304836845E+02  0.00000000000E+00 0.  1.
</event>
<event>
 4    1  0.5722454E+002  0.2442922E+02  0.7546771E-02  0.1475291E+00
          2   -1    0    0  503    0  0.00000000000E+00  0.00000000000E+00  0.48001783190E+03  0.48001783190E+03  0.00000000000E+00 0.  1.
         -2   -1    0    0    0  501 -0.00000000000E+00 -0.00000000000E+00 -0.12481829266E+01  0.12481829266E+01  0.00000000000E+00 0. -1.
         21    1    1    2  502  501 -0.24179313349E+02 -0.34853664693E+01  0.25449701478E+03  0.25566680955E+03  0.00000000000E+00 0. -1.
         21    1    1    2  503  502  0.24179313349E+02  0.34853664693E+01  0.22427263420E+03  0.22559920529E+03  0.00000000000E+00 0.  1.
</event>
<event>
 4    1  0.5722454E+002  0.4136159E+02  0.7546771E-02  0.1340686E+00
          2   -1    0    0  503    0  0.00000000000E+00  0.00000000000E+00  0.21998339480E+04  0.21998339480E+04  0.00000000000E+00 0.  1.
         -2   -1    0    0    0  501 -0.00000000000E+00 -0.00000000000E+00 -0.21070529952E+01  0.21070529952E+01  0.00000000000E+00 0. -1.
         21    1    1    2  502  501 -0.35543506154E+02 -0.21152790093E+02  0.22436246223E+03  0.22814314764E+03  0.00000000000E+00 0. -1.
         21    1    1    2  503  502  0.35543506154E+02  0.21152790093E+02  0.19733644328E+04  0.19737978534E+04  0.00000000000E+00 0.  1.
</event>
<event>
 4    1  0.5722454E+002  0.2338634E+02  0.7546771E-02  0.1487703E+00
          2   -1    0    0  503    0  0.00000000000E+00  0.00000000000E+00  0.74099051202E+03  0.74099051202E+03  0.00000000000E+00 0.  1.
         -2   -1    0    0    0  501 -0.00000000000E+00 -0.00000000000E+00 -0.12084350791E+01  0.12084350791E+01  0.00000000000E+00 0. -1.
         21    1    1    2  502  501  0.22113171700E+02  0.76110737487E+01  0.13837289284E+03  0.14033523535E+03  0.00000000000E+00 0. -1.
         21    1    1    2  503  502 -0.22113171700E+02 -0.76110737487E+01  0.60140918410E+03  0.60186371175E+03  0.00000000000E+00 0.  1.
</event>
<event>
 4    1  0.5722454E+002  0.2936032E+02  0.7546771E-02  0.1425238E+00
          2   -1    0    0  503    0  0.00000000000E+00  0.00000000000E+00  0.16000826750E+04  0.16000826750E+04  0.00000000000E+00 0. -1.
         -2   -1    0    0    0  501 -0.00000000000E+00 -0.00000000000E+00 -0.14044969650E+01  0.14044969650E+01  0.00000000000E+00 0.  1.
         21    1    1    2  502  501 -0.17909553409E+02 -0.23265342469E+02  0.17065697258E+03  0.17316417225E+03  0.00000000000E+00 0.  1.
         21    1    1    2  503  502  0.17909553409E+02  0.23265342469E+02  0.14280212055E+04  0.14283229997E+04  0.00000000000E+00 0. -1.
</event>
<event>
 4    1  0.5722454E+002  0.3303702E+02  0.7546771E-02  0.1394915E+00
          2   -1    0    0  503    0  0.00000000000E+00  0.00000000000E+00  0.33425778042E+03  0.33425778042E+03  0.00000000000E+00 0.  1.
         -2   -1    0    0    0  501 -0.00000000000E+00 -0.00000000000E+00 -0.41184786822E+01  0.41184786822E+01  0.00000000000E+00 0. -1.
         21    1    1    2  502  501 -0.78714281370E+01 -0.32085592290E+02  0.88063210783E+02  0.94056226306E+02  0.00000000000E+00 0. -1.
         21    1    1    2  503  502  0.78714281370E+01  0.32085592290E+02  0.24207609096E+03  0.24432003280E+03  0.00000000000E+00 0.  1.
</event>
<event>
 4    1  0.5722454E+002  0.2067788E+02  0.7546771E-02  0.1523914E+00
          2   -1    0    0  502    0  0.00000000000E+00  0.00000000000E+00  0.13802049962E+04  0.13802049962E+04  0.00000000000E+00 0. -1.
         -2   -1    0    0    0  501 -0.00000000000E+00 -0.00000000000E+00 -0.12313345418E+01  0.12313345418E+01  0.00000000000E+00 0.  1.
         21    1    1    2  502  503 -0.20030307926E+02 -0.51343289234E+01  0.12870321720E+04  0.12871982700E+04  0.00000000000E+00 0. -1.
         21    1    1    2  503  501  0.20030307926E+02  0.51343289234E+01  0.91941489729E+02  0.94238060796E+02  0.00000000000E+00 0.  1.
</event>
<event>
 4    1  0.5722454E+002  0.2021664E+02  0.7546771E-02  0.1530749E+00
          2   -1    0    0  502    0  0.00000000000E+00  0.00000000000E+00  0.51702936122E+03  0.51702936122E+03  0.00000000000E+00 0.  1.
         -2   -1    0    0    0  501 -0.00000000000E+00 -0.00000000000E+00 -0.98947910169E+00  0.98947910169E+00  0.00000000000E+00 0. -1.
         21    1    1    2  502  503  0.51097686879E+01 -0.19560233872E+02  0.37416863843E+03  0.37471440120E+03  0.00000000000E+00 0.  1.
         21    1    1    2  503  501 -0.51097686879E+01  0.19560233872E+02  0.14187124369E+03  0.14330443912E+03  0.00000000000E+00 0. -1.
</event>
<event>
 4    1  0.5722454E+002  0.2189977E+02  0.7546771E-02  0.1506796E+00
          2   -1    0    0  503    0  0.00000000000E+00  0.00000000000E+00  0.11007615491E+04  0.11007615491E+04  0.00000000000E+00 0. -1.
         -2   -1    0    0    0  501 -0.00000000000E+00 -0.00000000000E+00 -0.70901208001E+00  0.70901208001E+00  0.00000000000E+00 0.  1.
         21    1    1    2  502  501  0.11880491755E+02 -0.18397113537E+02  0.20808864231E+03  0.20923786208E+03  0.00000000000E+00 0. -1.
         21    1    1    2  503  502 -0.11880491755E+02  0.18397113537E+02  0.89196389468E+03  0.89223269907E+03  0.00000000000E+00 0.  1.
</event>
<event>
 4    1  0.5722454E+002  0.2586639E+02  0.7546771E-02  0.1459340E+00
          2   -1    0    0  502    0  0.00000000000E+00  0.00000000000E+00  0.25085721702E+03  0.25085721702E+03  0.00000000000E+00 0.  1.
         -2   -1    0    0    0  501 -0.00000000000E+00 -0.00000000000E+00 -0.27417712294E+01  0.27417712294E+01  0.00000000000E+00 0. -1.
         21    1    1    2  502  503 -0.17022925555E+02 -0.19475372076E+02  0.14497842218E+03  0.14726782748E+03  0.00000000000E+00 0.  1.
         21    1    1    2  503  501  0.17022925555E+02  0.19475372076E+02  0.10313702360E+03  0.10633116077E+03  0.00000000000E+00 0. -1.
</event>
<event>
 4    1  0.5722454E+002  0.3007577E+02  0.7546771E-02  0.1418939E+00
          2   -1    0    0  502    0  0.00000000000E+00  0.00000000000E+00  0.36245884348E+03  0.36245884348E+03  0.00000000000E+00 0.  1.
         -2   -1    0    0    0  501 -0.00000000000E+00 -0.00000000000E+00 -0.69924678190E+01  0.69924678190E+01  0.00000000000E+00 0. -1.
         21    1    1    2  502  503  0.51255807195E+01 -0.29635794957E+02  0.32587139651E+03  0.32725635056E+03  0.00000000000E+00 0.  1.
         21    1    1    2  503  501 -0.51255807195E+01  0.29635794957E+02  0.29594979147E+02  0.42194960732E+02  0.00000000000E+00 0. -1.
</event>
<event>
 4    1  0.5722454E+002  0.2646815E+02  0.7546771E-02  0.1453025E+00
          2   -1    0    0  502    0  0.00000000000E+00  0.00000000000E+00  0.13677955775E+02  0.13677955775E+02  0.00000000000E+00 0. -1.
         -2   -1    0    0    0  501 -0.00000000000E+00 -0.00000000000E+00 -0.72759274247E+02  0.72759274247E+02  0.00000000000E+00 0.  1.
         21    1    1    2  502  503 -0.11899161260E+01 -0.26441387181E+02 -0.60249304872E+01  0.27145214013E+02  0.00000000000E+00 0.  1.
         21    1    1    2  503  501  0.11899161260E+01  0.26441387181E+02 -0.53056387985E+02  0.59292016009E+02  0.00000000000E+00 0. -1.
</event>
<event>
 4    1  0.5722454E+002  0.2258266E+02  0.7546771E-02  0.1497806E+00
          2   -1    0    0  502    0  0.00000000000E+00  0.00000000000E+00  0.17222220920E+04  0.17222220920E+04  0.00000000000E+00 0.  1.
         -2   -1    0    0    0  501 -0.00000000000E+00 -0.00000000000E+00 -0.63371589183E+00  0.63371589183E+00  0.00000000000E+00 0. -1.
         21    1    1    2  502  503 -0.16220026296E+01 -0.22524332805E+02  0.14895372133E+04  0.14897083896E+04  0.00000000000E+00 0.  1.
         21    1    1    2  503  501  0.16220026296E+01  0.22524332805E+02  0.23205116283E+03  0.23314741824E+03  0.00000000000E+00 0. -1.
</event>
<event>
 4    1  0.5722454E+002  0.4169723E+02  0.7546771E-02  0.1338817E+00
          2   -1    0    0  502    0  0.00000000000E+00  0.00000000000E+00  0.25748698240E+04  0.25748698240E+04  0.00000000000E+00 0.  1.
         -2   -1    0    0    0  501 -0.00000000000E+00 -0.00000000000E+00 -0.86086033081E+00  0.86086033081E+00  0.00000000000E+00 0. -1.
         21    1    1    2  502  503 -0.29020900092E+02 -0.29940719125E+02  0.18850234639E+04  0.18854845846E+04  0.00000000000E+00 0.  1.
         21    1    1    2  503  501  0.29020900092E+02  0.29940719125E+02  0.68898549977E+03  0.69024609973E+03  0.00000000000E+00 0. -1.
</event>
<event>
 4    1  0.5722454E+002  0.3159461E+02  0.7546771E-02  0.1406227E+00
          2   -1    0    0  503    0  0.00000000000E+00  0.00000000000E+00  0.18680637528E+04  0.18680637528E+04  0.00000000000E+00 0.  1.
         -2   -1    0    0    0  501 -0.00000000000E+00 -0.00000000000E+00 -0.90091156075E+00  0.90091156075E+00  0.00000000000E+00 0. -1.
         21    1    1    2  502  501  0.22649846111E+02  0.22027342600E+02  0.33751137682E+03  0.33898694493E+03  0.00000000000E+00 0. -1.
         21    1    1    2  503  502 -0.22649846111E+02 -0.22027342600E+02  0.15296514645E+04  0.15299777195E+04  0.00000000000E+00 0.  1.
</event>
<event>
 4    1  0.5722454E+002  0.2137859E+02  0.7546771E-02  0.1513928E+00
          2   -1    0    0  502    0  0.00000000000E+00  0.00000000000E+00  0.41701082747E+02  0.41701082747E+02  0.00000000000E+00 0. -1.
         -2   -1    0    0    0  501 -0.00000000000E+00 -0.00000000000E+00 -0.40347439942E+02  0.40347439942E+02  0.00000000000E+00 0.  1.
         21    1    1    2  502  503 -0.11562011428E+02  0.17982325759E+02  0.35688554232E+02  0.41601887591E+02  0.00000000000E+00 0. -1.
         21    1    1    2  503  501  0.11562011428E+02 -0.17982325759E+02 -0.34334911427E+02  0.40446635097E+02  0.00000000000E+00 0.  1.
</event>
<event>
 4    1  0.5722454E+002  0.2698686E+02  0.7546771E-02  0.1447740E+00
          2   -1    0    0  502    0  0.00000000000E+00  0.00000000000E+00  0.12896979510E+04  0.12896979510E+04  0.00000000000E+00 0. -1.
         -2   -1    0    0    0  501 -0.00000000000E+00 -0.00000000000E+00 -0.11669343406E+01  0.11669343406E+01  0.00000000000E+00 0.  1.
         21    1    1    2  502  503 -0.19430585854E+02  0.18728134780E+02  0.11079374585E+04  0.11082660794E+04  0.00000000000E+00 0. -1.
         21    1    1    2  503  501  0.19430585854E+02 -0.18728134780E+02  0.18059355813E+03  0.18259880596E+03  0.00000000000E+00 0.  1.
</event>
<event>
 4    1  0.5722454E+002  0.2278573E+02  0.7546771E-02  0.1495206E+00
          2   -1    0    0  503    0  0.00000000000E+00  0.00000000000E+00  0.52411272786E+01  0.52411272786E+01  0.00000000000E+00 0. -1.
         -2   -1    0    0    0  501 -0.00000000000E+00 -0.00000000000E+00 -0.22436040994E+03  0.22436040994E+03  0.00000000000E+00 0.  1.
         21    1    1    2  502  501 -0.11247759432E+02  0.19816087181E+02 -0.19535164808E+03  0.19667601737E+03  0.00000000000E+00 0.  1.
         21    1    1    2  503  502  0.11247759432E+02 -0.19816087181E+02 -0.23767634588E+02  0.32925519849E+02  0.00000000000E+00 0. -1.
</event>
<event>
 4    1  0.5722454E+002  0.2431818E+02  0.7546771E-02  0.1476577E+00
          2   -1    0    0  503    0  0.00000000000E+00  0.00000000000E+00  0.36809676911E+01  0.36809676911E+01  0.00000000000E+00 0. -1.
         -2   -1    0    0    0  501 -0.00000000000E+00 -0.00000000000E+00 -0.42854879661E+03  0.42854879661E+03  0.00000000000E+00 0.  1.
         21    1    1    2  502  501  0.42182540534E+01 -0.23949530803E+02 -0.38330325335E+03  0.38407389617E+03  0.00000000000E+00 0.  1.
         21    1    1    2  503  502 -0.42182540534E+01  0.23949530803E+02 -0.41564575569E+02  0.48155868128E+02  0.00000000000E+00 0. -1.
</event>
<event>
 4    1  0.5722454E+002  0.2369377E+02  0.7546771E-02  0.1483965E+00
          2   -1    0    0  503    0  0.00000000000E+00  0.00000000000E+00  0.72541161102E+03  0.72541161102E+03  0.00000000000E+00 0.  1.
         -2   -1    0    0    0  501 -0.00000000000E+00 -0.00000000000E+00 -0.45097324523E+01  0.45097324523E+01  0.00000000000E+00 0. -1.
         21    1    1    2  502  501  0.75746964374E+01 -0.22450361843E+02  0.28277826876E+02  0.36892143687E+02  0.00000000000E+00 0. -1.
         21    1    1    2  503  502 -0.75746964374E+01  0.22450361843E+02  0.69262405169E+03  0.69302919979E+03  0.00000000000E+00 0.  1.
</event>
<event>
 4    1  0.5722454E+002  0.5970786E+02  0.7546771E-02  0.1260828E+00
          2   -1    0    0  503    0  0.00000000000E+00  0.00000000000E+00  0.78967325285E+03  0.78967325285E+03  0.00000000000E+00 0.  1.
         -2   -1    0    0    0  501 -0.00000000000E+00 -0.00000000000E+00 -0.11454111223E+02  0.11454111223E+02  0.00000000000E+00 0. -1.
         21    1    1    2  502  501  0.41582689604E+02  0.42847507632E+02  0.77323651549E+02  0.97693275479E+02  0.00000000000E+00 0. -1.
         21    1    1    2  503  502 -0.41582689604E+02 -0.42847507632E+02  0.70089549008E+03  0.70343408859E+03  0.00000000000E+00 0.  1.
</event>
<event>
 4    1  0.5722454E+002  0.2145636E+02  0.7546771E-02  0.1512848E+00
          2   -1    0    0  502    0  0.00000000000E+00  0.00000000000E+00  0.10645441060E+04  0.10645441060E+04  0.00000000000E+00 0. -1.
         -2   -1    0    0    0  501 -0.00000000000E+00 -0.00000000000E+00 -0.75196592090E+00  0.75196592090E+00  0.00000000000E+00 0.  1.
         21    1    1    2  502  503 -0.21454661745E+02 -0.26956367366E+00  0.87909562016E+03  0.87935742708E+03  0.00000000000E+00 0. -1.
         21    1    1    2  503  501  0.21454661745E+02  0.26956367366E+00  0.18469651987E+03  0.18593864479E+03  0.00000000000E+00 0.  1.
</event>
<event>
 4    1  0.5722454E+002  0.2563617E+02  0.7546771E-02  0.1461811E+00
          2   -1    0    0  503    0  0.00000000000E+00  0.00000000000E+00  0.40131555095E+03  0.40131555095E+03  0.00000000000E+00 0.  1.
         -2   -1    0    0    0  501 -0.00000000000E+00 -0.00000000000E+00 -0.61607457024E+01  0.61607457024E+01  0.00000000000E+00 0. -1.
         21    1    1    2  502  501 -0.21718056610E+02 -0.13621269254E+02  0.23005728949E+02  0.34445268521E+02  0.00000000000E+00 0. -1.
         21    1    1    2  503  502  0.21718056610E+02  0.13621269254E+02  0.37214907630E+03  0.37303102813E+03  0.00000000000E+00 0.  1.
</event>
<event>
 4    1  0.5722454E+002  0.3929910E+02  0.7546771E-02  0.1352643E+00
          2   -1    0    0  502    0  0.00000000000E+00  0.00000000000E+00  0.12166226518E+04  0.12166226518E+04  0.00000000000E+00 0. -1.
         -2   -1    0    0    0  501 -0.00000000000E+00 -0.00000000000E+00 -0.17575492907E+01  0.17575492907E+01  0.00000000000E+00 0.  1.
         21    1    1    2  502  503 -0.15786967603E+02 -0.35988760105E+02  0.92847419399E+03  0.92930551925E+03  0.00000000000E+00 0. -1.
         21    1    1    2  503  501  0.15786967603E+02  0.35988760105E+02  0.28639090857E+03  0.28907468189E+03  0.00000000000E+00 0.  1.
</event>
<event>
 4    1  0.5722454E+002  0.2133200E+02  0.7546771E-02  0.1514577E+00
          2   -1    0    0  502    0  0.00000000000E+00  0.00000000000E+00  0.12516661188E+03  0.12516661188E+03  0.00000000000E+00 0. -1.
         -2   -1    0    0    0  501 -0.00000000000E+00 -0.00000000000E+00 -0.14187002000E+02  0.14187002000E+02  0.00000000000E+00 0.  1.
         21    1    1    2  502  503 -0.20279855222E+02 -0.66167674433E+01  0.11557926093E+03  0.11753135623E+03  0.00000000000E+00 0. -1.
         21    1    1    2  503  501  0.20279855222E+02  0.66167674433E+01 -0.45996510528E+01  0.21822257652E+02  0.00000000000E+00 0.  1.
</event>
<event>
 4    1  0.5722454E+002  0.3820891E+02  0.7546771E-02  0.1359314E+00
          2   -1    0    0  502    0  0.00000000000E+00  0.00000000000E+00  0.17238202495E+01  0.17238202495E+01  0.00000000000E+00 0.  1.
         -2   -1    0    0    0  501 -0.00000000000E+00 -0.00000000000E+00 -0.10747132310E+04  0.10747132310E+04  0.00000000000E+00 0. -1.
         21    1    1    2  502  503  0.37037617406E+02 -0.93880443190E+01 -0.28869981026E+03  0.29121727442E+03  0.00000000000E+00 0.  1.
         21    1    1    2  503  501 -0.37037617406E+02  0.93880443190E+01 -0.78428960051E+03  0.78521977684E+03  0.00000000000E+00 0. -1.
</event>
<event>
 4    1  0.5722454E+002  0.3474009E+02  0.7546771E-02  0.1382400E+00
          2   -1    0    0  502    0  0.00000000000E+00  0.00000000000E+00  0.69896974281E+03  0.69896974281E+03  0.00000000000E+00 0.  1.
         -2   -1    0    0    0  501 -0.00000000000E+00 -0.00000000000E+00 -0.18950478650E+01  0.18950478650E+01  0.00000000000E+00 0. -1.
         21    1    1    2  502  503 -0.26944066127E+02 -0.21929229319E+02  0.24407333467E+03  0.24653329693E+03  0.00000000000E+00 0. -1.
         21    1    1    2  503  501  0.26944066127E+02  0.21929229319E+02  0.45300136027E+03  0.45433149374E+03  0.00000000000E+00 0.  1.
</event>
<event>
 4    1  0.5722454E+002  0.4491369E+02  0.7546771E-02  0.1321872E+00
          2   -1    0    0  503    0  0.00000000000E+00  0.00000000000E+00  0.55190471115E+01  0.55190471115E+01  0.00000000000E+00 0. -1.
         -2   -1    0    0    0  501 -0.00000000000E+00 -0.00000000000E+00 -0.42462658756E+03  0.42462658756E+03  0.00000000000E+00 0.  1.
         21    1    1    2  502  501 -0.13665307359E+02 -0.42784331820E+02 -0.28980556179E+03  0.29326524397E+03  0.00000000000E+00 0.  1.
         21    1    1    2  503  502  0.13665307359E+02  0.42784331820E+02 -0.12930197866E+03  0.13688039070E+03  0.00000000000E+00 0. -1.
</event>
<event>
 4    1  0.5722454E+002  0.2953110E+02  0.7546771E-02  0.1423716E+00
          2   -1    0    0  503    0  0.00000000000E+00  0.00000000000E+00  0.13960863765E+03  0.13960863765E+03  0.00000000000E+00 0. -1.
         -2   -1    0    0    0  501 -0.00000000000E+00 -0.00000000000E+00 -0.16153745480E+02  0.16153745480E+02  0.00000000000E+00 0.  1.
         21    1    1    2  502  501  0.21059872845E+02 -0.20701873125E+02  0.73595897562E+00  0.29540267953E+02  0.00000000000E+00 0.  1.
         21    1    1    2  503  502 -0.21059872845E+02  0.20701873125E+02  0.12271893320E+03  0.12622211518E+03  0.00000000000E+00 0. -1.
</event>
<event>
 4    1  0.5722454E+002  0.2071748E+02  0.7546771E-02  0.1523337E+00
          2   -1    0    0  503    0  0.00000000000E+00  0.00000000000E+00  0.13176677631E+03  0.13176677631E+03  0.00000000000E+00 0. -1.
         -2   -1    0    0    0  501 -0.00000000000E+00 -0.00000000000E+00 -0.53080104038E+01  0.53080104038E+01  0.00000000000E+00 0.  1.
         21    1    1    2  502  501 -0.18631161280E+02  0.90605530052E+01  0.20629742335E+02  0.29236963936E+02  0.00000000000E+00 0.  1.
         21    1    1    2  503  502  0.18631161280E+02 -0.90605530052E+01  0.10582902357E+03  0.10783782278E+03  0.00000000000E+00 0. -1.
</event>
<event>
 4    1  0.5722454E+002  0.5861355E+02  0.7546771E-02  0.1264617E+00
          2   -1    0    0  503    0  0.00000000000E+00  0.00000000000E+00  0.13430257661E+04  0.13430257661E+04  0.00000000000E+00 0. -1.
         -2   -1    0    0    0  501 -0.00000000000E+00 -0.00000000000E+00 -0.27593596195E+01  0.27593596195E+01  0.00000000000E+00 0.  1.
         21    1    1    2  502  501  0.51888127717E+02 -0.27261153578E+02  0.48839058226E+03  0.49189522170E+03  0.00000000000E+00 0.  1.
         21    1    1    2  503  502 -0.51888127717E+02  0.27261153578E+02  0.85187582418E+03  0.85388990398E+03  0.00000000000E+00 0. -1.
</event>
<event>
 4    1  0.5722454E+002  0.2098290E+02  0.7546771E-02  0.1519509E+00
          2   -1    0    0  503    0  0.00000000000E+00  0.00000000000E+00  0.87268904178E+03  0.87268904178E+03  0.00000000000E+00 0. -1.
         -2   -1    0    0    0  501 -0.00000000000E+00 -0.00000000000E+00 -0.18104979328E+01  0.18104979328E+01  0.00000000000E+00 0.  1.
         21    1    1    2  502  501 -0.20877514471E+02 -0.21003371943E+01  0.64075242641E+02  0.67423428764E+02  0.00000000000E+00 0.  1.
         21    1    1    2  503  502  0.20877514471E+02  0.21003371943E+01  0.80680330121E+03  0.80707611095E+03  0.00000000000E+00 0. -1.
</event>
<event>
 4    1  0.5722454E+002  0.3209602E+02  0.7546771E-02  0.1402216E+00
          2   -1    0    0  503    0  0.00000000000E+00  0.00000000000E+00  0.15251720220E+02  0.15251720220E+02  0.00000000000E+00 0. -1.
         -2   -1    0    0    0  501 -0.00000000000E+00 -0.00000000000E+00 -0.10684543800E+03  0.10684543800E+03  0.00000000000E+00 0.  1.
         21    1    1    2  502  501 -0.30688400332E+02 -0.94008656851E+01 -0.82822679019E+02  0.88824266676E+02  0.00000000000E+00 0.  1.
         21    1    1    2  503  502  0.30688400332E+02  0.94008656851E+01 -0.87710387565E+01  0.33272891540E+02  0.00000000000E+00 0. -1.
</event>
<event>
 4    1  0.5722454E+002  0.2982006E+02  0.7546771E-02  0.1421167E+00
          2   -1    0    0  502    0  0.00000000000E+00  0.00000000000E+00  0.60952193170E+03  0.60952193170E+03  0.00000000000E+00 0. -1.
         -2   -1    0    0    0  501 -0.00000000000E+00 -0.00000000000E+00 -0.21524683107E+01  0.21524683107E+01  0.00000000000E+00 0.  1.
         21    1    1    2  502  503 -0.14327770666E+02  0.26152452588E+02  0.47729058650E+03  0.47822122470E+03  0.00000000000E+00 0. -1.
         21    1    1    2  503  501  0.14327770666E+02 -0.26152452588E+02  0.13007887689E+03  0.13345317531E+03  0.00000000000E+00 0.  1.
</event>
<event>
 4    1  0.5722454E+002  0.7242913E+02  0.7546771E-02  0.1222606E+00
          2   -1    0    0  502    0  0.00000000000E+00  0.00000000000E+00  0.13285265394E+04  0.13285265394E+04  0.00000000000E+00 0. -1.
         -2   -1    0    0    0  501 -0.00000000000E+00 -0.00000000000E+00 -0.52586778365E+01  0.52586778365E+01  0.00000000000E+00 0.  1.
         21    1    1    2  502  503 -0.70139328535E+02 -0.18068027609E+02  0.99448220988E+03  0.99711626443E+03  0.00000000000E+00 0. -1.
         21    1    1    2  503  501  0.70139328535E+02  0.18068027609E+02  0.32878565170E+03  0.33666895282E+03  0.00000000000E+00 0.  1.
</event>
<event>
 4    1  0.5722454E+002  0.2039818E+02  0.7546771E-02  0.1528033E+00
          2   -1    0    0  503    0  0.00000000000E+00  0.00000000000E+00  0.19337278301E+04  0.19337278301E+04  0.00000000000E+00 0. -1.
         -2   -1    0    0    0  501 -0.00000000000E+00 -0.00000000000E+00 -0.22688405641E+00  0.22688405641E+00  0.00000000000E+00 0.  1.
         21    1    1    2  502  501 -0.12389711811E+02  0.16204343575E+02  0.74705793075E+03  0.74733636176E+03  0.00000000000E+00 0.  1.
         21    1    1    2  503  502  0.12389711811E+02 -0.16204343575E+02  0.11864430153E+04  0.11866183524E+04  0.00000000000E+00 0. -1.
</event>
<event>
 4    1  0.5722454E+002  0.2407360E+02  0.7546771E-02  0.1479440E+00
          2   -1    0    0  503    0  0.00000000000E+00  0.00000000000E+00  0.53000148394E+03  0.53000148394E+03  0.00000000000E+00 0. -1.
         -2   -1    0    0    0  501 -0.00000000000E+00 -0.00000000000E+00 -0.11416180916E+01  0.11416180916E+01  0.00000000000E+00 0.  1.
         21    1    1    2  502  501 -0.16250346160E+02  0.17761316160E+02  0.20988769340E+03  0.21126377338E+03  0.00000000000E+00 0.  1.
         21    1    1    2  503  502  0.16250346160E+02 -0.17761316160E+02  0.31897217245E+03  0.31987932866E+03  0.00000000000E+00 0. -1.
</event>
<event>
 4    1  0.5722454E+002  0.2509651E+02  0.7546771E-02  0.1467727E+00
          2   -1    0    0  503    0  0.00000000000E+00  0.00000000000E+00  0.12892726880E+04  0.12892726880E+04  0.00000000000E+00 0.  1.
         -2   -1    0    0    0  501 -0.00000000000E+00 -0.00000000000E+00 -0.14512065286E+01  0.14512065286E+01  0.00000000000E+00 0. -1.
         21    1    1    2  502  501 -0.73691891572E+01 -0.23990202277E+02  0.11827931877E+03  0.12091249729E+03  0.00000000000E+00 0. -1.
         21    1    1    2  503  502  0.73691891572E+01  0.23990202277E+02  0.11695421628E+04  0.11698113973E+04  0.00000000000E+00 0.  1.
</event>
<event>
 4    1  0.5722454E+002  0.2117480E+02  0.7546771E-02  0.1516784E+00
          2   -1    0    0  503    0  0.00000000000E+00  0.00000000000E+00  0.43357797828E+01  0.43357797828E+01  0.00000000000E+00 0.  1.
         -2   -1    0    0    0  501 -0.00000000000E+00 -0.00000000000E+00 -0.10601315767E+03  0.10601315767E+03  0.00000000000E+00 0. -1.
         21    1    1    2  502  501  0.33463349972E+01  0.20908709497E+02 -0.59481067774E+02  0.63137702796E+02  0.00000000000E+00 0.  1.
         21    1    1    2  503  502 -0.33463349972E+01 -0.20908709497E+02 -0.42196310118E+02  0.47211234662E+02  0.00000000000E+00 0. -1.
</event>
<event>
 4    1  0.5722454E+002  0.4080068E+02  0.7546771E-02  0.1343857E+00
          2   -1    0    0  503    0  0.00000000000E+00  0.00000000000E+00  0.16148572257E+01  0.16148572257E+01  0.00000000000E+00 0. -1.
         -2   -1    0    0    0  501 -0.00000000000E+00 -0.00000000000E+00 -0.10532975405E+04  0.10532975405E+04  0.00000000000E+00 0.  1.
         21    1    1    2  502  501  0.31831098541E+02 -0.25524041968E+02 -0.60282091820E+03  0.60420009514E+03  0.00000000000E+00 0.  1.
         21    1    1    2  503  502 -0.31831098541E+02  0.25524041968E+02 -0.44886176504E+03  0.45071230254E+03  0.00000000000E+00 0. -1.
</event>
<event>
 4    1  0.5722454E+002  0.2322047E+02  0.7546771E-02  0.1489748E+00
          2   -1    0    0  502    0  0.00000000000E+00  0.00000000000E+00  0.34261990972E+03  0.34261990972E+03  0.00000000000E+00 0.  1.
         -2   -1    0    0    0  501 -0.00000000000E+00 -0.00000000000E+00 -0.15865216163E+01  0.15865216163E+01  0.00000000000E+00 0. -1.
         21    1    1    2  502  503 -0.12374138595E+02  0.19648688799E+02  0.18597193984E+03  0.18741598834E+03  0.00000000000E+00 0.  1.
         21    1    1    2  503  501  0.12374138595E+02 -0.19648688799E+02  0.15506144826E+03  0.15679044299E+03  0.00000000000E+00 0. -1.
</event>
<event>
 4    1  0.5722454E+002  0.2355095E+02  0.7546771E-02  0.1485693E+00
          2   -1    0    0  503    0  0.00000000000E+00  0.00000000000E+00  0.23778192257E+03  0.23778192257E+03  0.00000000000E+00 0.  1.
         -2   -1    0    0    0  501 -0.00000000000E+00 -0.00000000000E+00 -0.28468084397E+01  0.28468084397E+01  0.00000000000E+00 0. -1.
         21    1    1    2  502  501  0.23087249187E+02 -0.46504185177E+01  0.66333216374E+02  0.70389935800E+02  0.00000000000E+00 0. -1.
         21    1    1    2  503  502 -0.23087249187E+02  0.46504185177E+01  0.16860189776E+03  0.17023879521E+03  0.00000000000E+00 0.  1.
</event>
<event>
 4    1  0.5722454E+002  0.2507614E+02  0.7546771E-02  0.1467953E+00
          2   -1    0    0  502    0  0.00000000000E+00  0.00000000000E+00  0.64016044798E+03  0.64016044798E+03  0.00000000000E+00 0.  1.
         -2   -1    0    0    0  501 -0.00000000000E+00 -0.00000000000E+00 -0.31923223721E+01  0.31923223721E+01  0.00000000000E+00 0. -1.
         21    1    1    2  502  503 -0.26430130292E+01 -0.24936465306E+02  0.58613373807E+03  0.58666990013E+03  0.00000000000E+00 0.  1.
         21    1    1    2  503  501  0.26430130292E+01  0.24936465306E+02  0.50834387542E+02  0.56682870222E+02  0.00000000000E+00 0. -1.
</event>
<event>
 4    1  0.5722454E+002  0.5183062E+02  0.7546771E-02  0.1290425E+00
          2   -1    0    0  502    0  0.00000000000E+00  0.00000000000E+00  0.12383108787E+04  0.12383108787E+04  0.00000000000E+00 0. -1.
         -2   -1    0    0    0  501 -0.00000000000E+00 -0.00000000000E+00 -0.21769220749E+01  0.21769220749E+01  0.00000000000E+00 0.  1.
         21    1    1    2  502  503 -0.46604820959E+02  0.22680483805E+02  0.65448320609E+03  0.65653231507E+03  0.00000000000E+00 0.  1.
         21    1    1    2  503  501  0.46604820959E+02 -0.22680483805E+02  0.58165075053E+03  0.58395548570E+03  0.00000000000E+00 0. -1.
</event>
<event>
 4    1  0.5722454E+002  0.3004473E+02  0.7546771E-02  0.1419208E+00
          2   -1    0    0  503    0  0.00000000000E+00  0.00000000000E+00  0.88199106645E+02  0.88199106645E+02  0.00000000000E+00 0. -1.
         -2   -1    0    0    0  501 -0.00000000000E+00 -0.00000000000E+00 -0.15784051383E+02  0.15784051383E+02  0.00000000000E+00 0.  1.
         21    1    1    2  502  501  0.27265256500E+02  0.12621083314E+02  0.53793898907E+01  0.30522512865E+02  0.00000000000E+00 0.  1.
         21    1    1    2  503  502 -0.27265256500E+02 -0.12621083314E+02  0.67035665371E+02  0.73460645163E+02  0.00000000000E+00 0. -1.
</event>
<event>
 4    1  0.5722454E+002  0.2071280E+02  0.7546771E-02  0.1523405E+00
          2   -1    0    0  502    0  0.00000000000E+00  0.00000000000E+00  0.24199677464E+01  0.24199677464E+01  0.00000000000E+00 0.  1.
         -2   -1    0    0    0  501 -0.00000000000E+00 -0.00000000000E+00 -0.29269890754E+03  0.29269890754E+03  0.00000000000E+00 0. -1.
         21    1    1    2  502  503  0.19443350816E+02 -0.71397560048E+01 -0.52480257621E+02  0.56419832034E+02  0.00000000000E+00 0.  1.
         21    1    1    2  503  501 -0.19443350816E+02  0.71397560048E+01 -0.23779868217E+03  0.23869904325E+03  0.00000000000E+00 0. -1.
</event>
<event>
 4    1  0.5722454E+002  0.2336709E+02  0.7546771E-02  0.1487939E+00
          2   -1    0    0  503    0  0.00000000000E+00  0.00000000000E+00  0.64606579532E+03  0.64606579532E+03  0.00000000000E+00 0. -1.
         -2   -1    0    0    0  501 -0.00000000000E+00 -0.00000000000E+00 -0.12220311960E+01  0.12220311960E+01  0.00000000000E+00 0.  1.
         21    1    1    2  502  501 -0.17533215194E+02  0.15446921169E+02  0.14268803579E+03  0.14458871521E+03  0.00000000000E+00 0.  1.
         21    1    1    2  503  502  0.17533215194E+02 -0.15446921169E+02  0.50215572834E+03  0.50269911131E+03  0.00000000000E+00 0. -1.
</event>
<event>
 4    1  0.5722454E+002  0.2646878E+02  0.7546771E-02  0.1453019E+00
          2   -1    0    0  503    0  0.00000000000E+00  0.00000000000E+00  0.18891601825E+02  0.18891601825E+02  0.00000000000E+00 0.  1.
         -2   -1    0    0    0  501 -0.00000000000E+00 -0.00000000000E+00 -0.42845678340E+02  0.42845678340E+02  0.00000000000E+00 0. -1.
         21    1    1    2  502  501 -0.32062180468E+01  0.26273873709E+02 -0.65829096018E+00  0.26476963966E+02  0.00000000000E+00 0.  1.
         21    1    1    2  503  502  0.32062180468E+01 -0.26273873709E+02 -0.23295785555E+02  0.35260316199E+02  0.00000000000E+00 0. -1.
</event>
<event>
 4    1  0.5722454E+002  0.2049186E+02  0.7546771E-02  0.1526645E+00
          2   -1    0    0  502    0  0.00000000000E+00  0.00000000000E+00  0.18986471916E+04  0.18986471916E+04  0.00000000000E+00 0.  1.
         -2   -1    0    0    0  501 -0.00000000000E+00 -0.00000000000E+00 -0.25229595986E+00  0.25229595986E+00  0.00000000000E+00 0. -1.
         21    1    1    2  502  503  0.18989970192E+01 -0.20403684052E+02  0.61569042521E+03  0.61603134353E+03  0.00000000000E+00 0.  1.
         21    1    1    2  503  501 -0.18989970192E+01  0.20403684052E+02  0.12827044704E+04  0.12828681440E+04  0.00000000000E+00 0. -1.
</event>
<event>
 4    1  0.5722454E+002  0.3318271E+02  0.7546771E-02  0.1393810E+00
          2   -1    0    0  502    0  0.00000000000E+00  0.00000000000E+00  0.13438661507E+02  0.13438661507E+02  0.00000000000E+00 0.  1.
         -2   -1    0    0    0  501 -0.00000000000E+00 -0.00000000000E+00 -0.30024540382E+03  0.30024540382E+03  0.00000000000E+00 0. -1.
         21    1    1    2  502  503  0.19122740747E+02  0.27118498453E+02 -0.96632131290E+01  0.34561103281E+02  0.00000000000E+00 0.  1.
         21    1    1    2  503  501 -0.19122740747E+02 -0.27118498453E+02 -0.27714352918E+03  0.27912296204E+03  0.00000000000E+00 0. -1.
</event>
<event>
 4    1  0.5722454E+002  0.4541098E+02  0.7546771E-02  0.1319397E+00
          2   -1    0    0  502    0  0.00000000000E+00  0.00000000000E+00  0.10966446716E+03  0.10966446716E+03  0.00000000000E+00 0.  1.
         -2   -1    0    0    0  501 -0.00000000000E+00 -0.00000000000E+00 -0.28580384026E+02  0.28580384026E+02  0.00000000000E+00 0. -1.
         21    1    1    2  502  503 -0.42484951468E+02 -0.16037018411E+02  0.80968780959E+02  0.92833725287E+02  0.00000000000E+00 0.  1.
         21    1    1    2  503  501  0.42484951468E+02  0.16037018411E+02  0.11530217396E+00  0.45411125898E+02  0.00000000000E+00 0. -1.
</event>
<event>
 4    1  0.5722454E+002  0.2399581E+02  0.7546771E-02  0.1480358E+00
          2   -1    0    0  503    0  0.00000000000E+00  0.00000000000E+00  0.98543698148E+02  0.98543698148E+02  0.00000000000E+00 0. -1.
         -2   -1    0    0    0  501 -0.00000000000E+00 -0.00000000000E+00 -0.12735047248E+02  0.12735047248E+02  0.00000000000E+00 0.  1.
         21    1    1    2  502  501 -0.20605859109E+02  0.12296244058E+02  0.19732232335E+01  0.24076807461E+02  0.00000000000E+00 0.  1.
         21    1    1    2  503  502  0.20605859109E+02 -0.12296244058E+02  0.83835427667E+02  0.87201937935E+02  0.00000000000E+00 0. -1.
</event>
<event>
 4    1  0.5722454E+002  0.2298846E+02  0.7546771E-02  0.1492643E+00
          2   -1    0    0  503    0  0.00000000000E+00  0.00000000000E+00  0.38673208257E+01  0.38673208257E+01  0.00000000000E+00 0.  1.
         -2   -1    0    0    0  501 -0.00000000000E+00 -0.00000000000E+00 -0.14648543131E+03  0.14648543131E+03  0.00000000000E+00 0. -1.
         21    1    1    2  502  501 -0.51346177862E+01 -0.22407701880E+02 -0.90788689687E+02  0.93653913845E+02  0.00000000000E+00 0. -1.
         21    1    1    2  503  502  0.51346177862E+01  0.22407701880E+02 -0.51829420799E+02  0.56698838293E+02  0.00000000000E+00 0.  1.
</event>
<event>
 4    1  0.5722454E+002  0.2679475E+02  0.7546771E-02  0.1449681E+00
          2   -1    0    0  502    0  0.00000000000E+00  0.00000000000E+00  0.87081901890E+02  0.87081901890E+02  0.00000000000E+00 0.  1.
         -2   -1    0    0    0  501 -0.00000000000E+00 -0.00000000000E+00 -0.49107292166E+02  0.49107292166E+02  0.00000000000E+00 0. -1.
         21    1    1    2  502  503  0.26702848768E+02 -0.22172822255E+01  0.81103230865E+02  0.85414826169E+02  0.00000000000E+00 0.  1.
         21    1    1    2  503  501 -0.26702848768E+02  0.22172822255E+01 -0.43128621141E+02  0.50774367887E+02  0.00000000000E+00 0. -1.
</event>
<event>
 4    1  0.5722454E+002  0.3447879E+02  0.7546771E-02  0.1384265E+00
          2   -1    0    0  503    0  0.00000000000E+00  0.00000000000E+00  0.90012042401E+01  0.90012042401E+01  0.00000000000E+00 0.  1.
         -2   -1    0    0    0  501 -0.00000000000E+00 -0.00000000000E+00 -0.13830529478E+03  0.13830529478E+03  0.00000000000E+00 0. -1.
         21    1    1    2  502  501  0.23458011983E+01 -0.34398896431E+02 -0.80291062477E+02  0.87381013800E+02  0.00000000000E+00 0.  1.
         21    1    1    2  503  502 -0.23458011983E+01  0.34398896431E+02 -0.49013028059E+02  0.59925485217E+02  0.00000000000E+00 0. -1.
</event>
<event>
 4    1  0.5722454E+002  0.3892736E+02  0.7546771E-02  0.1354889E+00
          2   -1    0    0  502    0  0.00000000000E+00  0.00000000000E+00  0.68608817821E+02  0.68608817821E+02  0.00000000000E+00 0.  1.
         -2   -1    0    0    0  501 -0.00000000000E+00 -0.00000000000E+00 -0.68075338829E+02  0.68075338829E+02  0.00000000000E+00 0. -1.
         21    1    1    2  502  503 -0.22510845895E+01  0.38862220814E+02  0.56438591852E+02  0.68561317364E+02  0.00000000000E+00 0.  1.
         21    1    1    2  503  501  0.22510845895E+01 -0.38862220814E+02 -0.55905112860E+02  0.68122839286E+02  0.00000000000E+00 0. -1.
</event>
<event>
 4    1  0.5722454E+002  0.2090501E+02  0.7546771E-02  0.1520625E+00
          2   -1    0    0  503    0  0.00000000000E+00  0.00000000000E+00  0.96076828265E+00  0.96076828265E+00  0.00000000000E+00 0. -1.
         -2   -1    0    0    0  501 -0.00000000000E+00 -0.00000000000E+00 -0.81247190430E+03  0.81247190430E+03  0.00000000000E+00 0.  1.
         21    1    1    2  502  501 -0.39202202162E+01 -0.20534150298E+02 -0.67558582529E+03  0.67590918531E+03  0.00000000000E+00 0. -1.
         21    1    1    2  503  502  0.39202202162E+01  0.20534150298E+02 -0.13592531072E+03  0.13752348727E+03  0.00000000000E+00 0.  1.
</event>
<event>
 4    1  0.5722454E+002  0.2055630E+02  0.7546771E-02  0.1525695E+00
          2   -1    0    0  502    0  0.00000000000E+00  0.00000000000E+00  0.65572767313E+02  0.65572767313E+02  0.00000000000E+00 0. -1.
         -2   -1    0    0    0  501 -0.00000000000E+00 -0.00000000000E+00 -0.67409822535E+01  0.67409822535E+01  0.00000000000E+00 0.  1.
         21    1    1    2  502  503 -0.61019430947E+00 -0.20547245891E+02  0.37002974408E+02  0.42329443250E+02  0.00000000000E+00 0. -1.
         21    1    1    2  503  501  0.61019430947E+00  0.20547245891E+02  0.21828810651E+02  0.29984306316E+02  0.00000000000E+00 0.  1.
</event>
<event>
 4    1  0.5722454E+002  0.2673587E+02  0.7546771E-02  0.1450280E+00
          2   -1    0    0  502    0  0.00000000000E+00  0.00000000000E+00  0.54416302673E+02  0.54416302673E+02  0.00000000000E+00 0. -1.
         -2   -1    0    0    0  501 -0.00000000000E+00 -0.00000000000E+00 -0.13243856720E+03  0.13243856720E+03  0.00000000000E+00 0.  1.
         21    1    1    2  502  503  0.18182852258E+02 -0.19600777642E+02  0.49662047484E+02  0.56401467718E+02  0.00000000000E+00 0. -1.
         21    1    1    2  503  501 -0.18182852258E+02  0.19600777642E+02 -0.12768431201E+03  0.13045340216E+03  0.00000000000E+00 0.  1.
</event>
<event>
 4    1  0.5722454E+002  0.9017711E+02  0.7546771E-02  0.1182012E+00
          2   -1    0    0  502    0  0.00000000000E+00  0.00000000000E+00  0.12251852832E+03  0.12251852832E+03  0.00000000000E+00 0.  1.
         -2   -1    0    0    0  501 -0.00000000000E+00 -0.00000000000E+00 -0.71759455567E+02  0.71759455567E+02  0.00000000000E+00 0. -1.
         21    1    1    2  502  503 -0.24728830332E+02 -0.86720221386E+02  0.51993465655E+02  0.10409242200E+03  0.00000000000E+00 0.  1.
         21    1    1    2  503  501  0.24728830332E+02  0.86720221386E+02 -0.12343929037E+01  0.90185561886E+02  0.00000000000E+00 0. -1.
</event>
