<event>
 4    1  0.2216341E+005  0.2116021E+02  0.7546771E-02  0.1516990E+00
          2   -1    0    0  502    0  0.00000000000E+00  0.00000000000E+00  0.38014844093E+02  0.38014844093E+02  0.00000000000E+00 0.  1.
         21   -1    0    0  503  502 -0.00000000000E+00 -0.00000000000E+00 -0.60328693697E+02  0.60328693697E+02  0.00000000000E+00 0.  1.
          2    1    1    2  501    0  0.16999879861E+02  0.12599939455E+02  0.32954365399E+02  0.39163051317E+02  0.00000000000E+00 0.  1.
         21    1    1    2  503  501 -0.16999879861E+02 -0.12599939455E+02 -0.55268215004E+02  0.59180486474E+02  0.00000000000E+00 0.  1.
</event>
<event>
 4    1  0.2216341E+005  0.2419258E+02  0.7546771E-02  0.1478042E+00
          2   -1    0    0  503    0  0.00000000000E+00  0.00000000000E+00  0.47702128126E+03  0.47702128126E+03  0.00000000000E+00 0. -1.
         21   -1    0    0  501  502 -0.00000000000E+00 -0.00000000000E+00 -0.17581118175E+01  0.17581118175E+01  0.00000000000E+00 0.  1.
          2    1    1    2  501    0 -0.10411638621E+02 -0.21837547305E+02  0.36921347474E+03  0.37000523054E+03  0.00000000000E+00 0. -1.
         21    1    1    2  503  502  0.10411638621E+02  0.21837547305E+02  0.10604969470E+03  0.10877416255E+03  0.00000000000E+00 0.  1.
</event>
<event>
 4    1  0.2216341E+005  0.2196617E+02  0.7546771E-02  0.1505905E+00
          2   -1    0    0  502    0  0.00000000000E+00  0.00000000000E+00  0.13249732423E+04  0.13249732423E+04  0.00000000000E+00 0. -1.
         21   -1    0    0  503  502 -0.00000000000E+00 -0.00000000000E+00 -0.16912932520E+03  0.16912932520E+03  0.00000000000E+00 0.  1.
          2    1    1    2  501    0  0.20756682500E+01  0.21867882296E+02  0.13241685366E+04  0.13243507186E+04  0.00000000000E+00 0. -1.
         21    1    1    2  503  501 -0.20756682500E+01 -0.21867882296E+02 -0.16832461948E+03  0.16975184887E+03  0.00000000000E+00 0.  1.
</event>
<event>
 4    1  0.2216341E+005  0.4253789E+02  0.7546771E-02  0.1334223E+00
          2   -1    0    0  502    0  0.00000000000E+00  0.00000000000E+00  0.72726401909E+03  0.72726401909E+03  0.00000000000E+00 0. -1.
         21   -1    0    0  503  502 -0.00000000000E+00 -0.00000000000E+00 -0.24883796077E+01  0.24883796077E+01  0.00000000000E+00 0.  1.
          2    1    1    2  501    0  0.41011075065E+02 -0.11294426712E+02  0.35821576302E+03  0.36073259518E+03  0.00000000000E+00 0. -1.
         21    1    1    2  503  501 -0.41011075065E+02  0.11294426712E+02  0.36655987646E+03  0.36901980351E+03  0.00000000000E+00 0.  1.
</event>
<event>
 4    1  0.2216341E+005  0.2198855E+02  0.7546771E-02  0.1505605E+00
          2   -1    0    0  502    0  0.00000000000E+00  0.00000000000E+00  0.34940985075E+03  0.34940985075E+03  0.00000000000E+00 0. -1.
         21   -1    0    0  503  502 -0.00000000000E+00 -0.00000000000E+00 -0.11118126432E+02  0.11118126432E+02  0.00000000000E+00 0. -1.
          2    1    1    2  501    0 -0.21983539635E+02  0.46944761356E+00  0.33781949837E+03  0.33853435553E+03  0.00000000000E+00 0. -1.
         21    1    1    2  503  501  0.21983539635E+02 -0.46944761356E+00  0.47222594837E+00  0.21993621650E+02  0.00000000000E+00 0. -1.
</event>
<event>
 4    1  0.2216341E+005  0.2496642E+02  0.7546771E-02  0.1469179E+00
          2   -1    0    0  502    0  0.00000000000E+00  0.00000000000E+00  0.12437227577E+04  0.12437227577E+04  0.00000000000E+00 0. -1.
         21   -1    0    0  503  502 -0.00000000000E+00 -0.00000000000E+00 -0.50696965128E+01  0.50696965128E+01  0.00000000000E+00 0.  1.
          2    1    1    2  501    0 -0.21116123352E+02  0.13320336606E+02  0.12120568650E+04  0.12123139717E+04  0.00000000000E+00 0. -1.
         21    1    1    2  503  501  0.21116123352E+02 -0.13320336606E+02  0.26596196154E+02  0.36478482460E+02  0.00000000000E+00 0.  1.
</event>
<event>
 4    1  0.2216341E+005  0.4594962E+02  0.7546771E-02  0.1316758E+00
          2   -1    0    0  503    0  0.00000000000E+00  0.00000000000E+00  0.94136405459E+03  0.94136405459E+03  0.00000000000E+00 0. -1.
         21   -1    0    0  501  502 -0.00000000000E+00 -0.00000000000E+00 -0.17660316571E+02  0.17660316571E+02  0.00000000000E+00 0. -1.
          2    1    1    2  501    0  0.33019080108E+02 -0.31954775191E+02  0.90988123506E+03  0.91104073961E+03  0.00000000000E+00 0. -1.
         21    1    1    2  503  502 -0.33019080108E+02  0.31954775191E+02  0.13822502952E+02  0.47983631548E+02  0.00000000000E+00 0. -1.
</event>
<event>
 4    1  0.2216341E+005  0.3059456E+02  0.7546771E-02  0.1414499E+00
          2   -1    0    0  503    0  0.00000000000E+00  0.00000000000E+00  0.12011851760E+04  0.12011851760E+04  0.00000000000E+00 0. -1.
         21   -1    0    0  501  502 -0.00000000000E+00 -0.00000000000E+00 -0.89654986760E+00  0.89654986760E+00  0.00000000000E+00 0. -1.
          2    1    1    2  501    0  0.80837720354E+01 -0.29507280588E+02  0.38274395787E+03  0.38396479561E+03  0.00000000000E+00 0. -1.
         21    1    1    2  503  502 -0.80837720354E+01  0.29507280588E+02  0.81754466824E+03  0.81811693024E+03  0.00000000000E+00 0. -1.
</event>
<event>
 4    1  0.2216341E+005  0.2089371E+02  0.7546771E-02  0.1520788E+00
          2   -1    0    0  502    0  0.00000000000E+00  0.00000000000E+00  0.11991450204E+03  0.11991450204E+03  0.00000000000E+00 0. -1.
         21   -1    0    0  503  502 -0.00000000000E+00 -0.00000000000E+00 -0.29043045731E+02  0.29043045731E+02  0.00000000000E+00 0.  1.
          2    1    1    2  501    0 -0.46135384200E+01 -0.20377990802E+02  0.11509038658E+03  0.11697155350E+03  0.00000000000E+00 0. -1.
         21    1    1    2  503  501  0.46135384200E+01  0.20377990802E+02 -0.24218930270E+02  0.31985994268E+02  0.00000000000E+00 0.  1.
</event>
<event>
 4    1  0.2216341E+005  0.2059126E+02  0.7546771E-02  0.1525181E+00
          2   -1    0    0  502    0  0.00000000000E+00  0.00000000000E+00  0.15004505468E+04  0.15004505468E+04  0.00000000000E+00 0. -1.
         21   -1    0    0  503  502 -0.00000000000E+00 -0.00000000000E+00 -0.17942030238E+01  0.17942030238E+01  0.00000000000E+00 0.  1.
          2    1    1    2  501    0 -0.89285397497E+01 -0.18554818773E+02  0.14387680302E+04  0.14389153710E+04  0.00000000000E+00 0. -1.
         21    1    1    2  503  501  0.89285397497E+01  0.18554818773E+02  0.59888313610E+02  0.63329378876E+02  0.00000000000E+00 0.  1.
</event>
<event>
 4    1  0.2216341E+005  0.4096486E+02  0.7546771E-02  0.1342923E+00
          2   -1    0    0  502    0  0.00000000000E+00  0.00000000000E+00  0.16636758051E+04  0.16636758051E+04  0.00000000000E+00 0.  1.
         21   -1    0    0  503  502 -0.00000000000E+00 -0.00000000000E+00 -0.11706541849E+01  0.11706541849E+01  0.00000000000E+00 0. -1.
          2    1    1    2  501    0 -0.36810146072E+02  0.17975895235E+02  0.11408877151E+04  0.11416229229E+04  0.00000000000E+00 0.  1.
         21    1    1    2  503  501  0.36810146072E+02 -0.17975895235E+02  0.52161743588E+03  0.52322353644E+03  0.00000000000E+00 0. -1.
</event>
<event>
 4    1  0.2216341E+005  0.2063930E+02  0.7546771E-02  0.1524478E+00
          2   -1    0    0  502    0  0.00000000000E+00  0.00000000000E+00  0.97950097102E+03  0.97950097102E+03  0.00000000000E+00 0. -1.
         21   -1    0    0  503  502 -0.00000000000E+00 -0.00000000000E+00 -0.16220402995E+02  0.16220402995E+02  0.00000000000E+00 0. -1.
          2    1    1    2  501    0  0.20595920739E+02  0.13373679923E+01  0.97278139612E+03  0.97300032125E+03  0.00000000000E+00 0. -1.
         21    1    1    2  503  501 -0.20595920739E+02 -0.13373679923E+01 -0.95008280995E+01  0.22721052766E+02  0.00000000000E+00 0. -1.
</event>
<event>
 4    1  0.2216341E+005  0.3509551E+02  0.7546771E-02  0.1379893E+00
          2   -1    0    0  502    0  0.00000000000E+00  0.00000000000E+00  0.90141611177E+03  0.90141611177E+03  0.00000000000E+00 0.  1.
         21   -1    0    0  503  502 -0.00000000000E+00 -0.00000000000E+00 -0.39877775678E+02  0.39877775678E+02  0.00000000000E+00 0. -1.
          2    1    1    2  501    0 -0.29076680064E+02 -0.19653034179E+02  0.89328254219E+03  0.89397169712E+03  0.00000000000E+00 0.  1.
         21    1    1    2  503  501  0.29076680064E+02  0.19653034179E+02 -0.31744206100E+02  0.47322190323E+02  0.00000000000E+00 0. -1.
</event>
<event>
 4    1  0.2216341E+005  0.4416647E+02  0.7546771E-02  0.1325660E+00
          2   -1    0    0  503    0  0.00000000000E+00  0.00000000000E+00  0.93912081225E+03  0.93912081225E+03  0.00000000000E+00 0. -1.
         21   -1    0    0  501  502 -0.00000000000E+00 -0.00000000000E+00 -0.13931835364E+02  0.13931835364E+02  0.00000000000E+00 0.  1.
          2    1    1    2  501    0  0.37536201334E+02  0.23274684016E+02  0.90216453046E+03  0.90324499298E+03  0.00000000000E+00 0. -1.
         21    1    1    2  503  502 -0.37536201334E+02 -0.23274684016E+02  0.23024446423E+02  0.49807654630E+02  0.00000000000E+00 0.  1.
</event>
<event>
 4    1  0.2216341E+005  0.2334486E+02  0.7546771E-02  0.1488213E+00
          2   -1    0    0  502    0  0.00000000000E+00  0.00000000000E+00  0.70952370906E+03  0.70952370906E+03  0.00000000000E+00 0.  1.
         21   -1    0    0  503  502 -0.00000000000E+00 -0.00000000000E+00 -0.59116872984E+01  0.59116872984E+01  0.00000000000E+00 0.  1.
          2    1    1    2  501    0  0.21872889914E+02 -0.81583709280E+01  0.68547659891E+03  0.68587400445E+03  0.00000000000E+00 0.  1.
         21    1    1    2  503  501 -0.21872889914E+02  0.81583709280E+01  0.18135422849E+02  0.29561391904E+02  0.00000000000E+00 0.  1.
</event>
<event>
 4    1  0.2216341E+005  0.2338317E+02  0.7546771E-02  0.1487742E+00
          2   -1    0    0  502    0  0.00000000000E+00  0.00000000000E+00  0.73111562283E+02  0.73111562283E+02  0.00000000000E+00 0.  1.
         21   -1    0    0  503  502 -0.00000000000E+00 -0.00000000000E+00 -0.51176836923E+02  0.51176836923E+02  0.00000000000E+00 0. -1.
          2    1    1    2  501    0  0.15995285455E+02  0.17056481493E+02  0.68391674114E+02  0.72278584697E+02  0.00000000000E+00 0.  1.
         21    1    1    2  503  501 -0.15995285455E+02 -0.17056481493E+02 -0.46456948754E+02  0.52009814509E+02  0.00000000000E+00 0. -1.
</event>
<event>
 4    1  0.2216341E+005  0.2136568E+02  0.7546771E-02  0.1514107E+00
          2   -1    0    0  502    0  0.00000000000E+00  0.00000000000E+00  0.20846191771E+02  0.20846191771E+02  0.00000000000E+00 0.  1.
         21   -1    0    0  503  502 -0.00000000000E+00 -0.00000000000E+00 -0.99501975937E+02  0.99501975937E+02  0.00000000000E+00 0.  1.
          2    1    1    2  501    0  0.11953265451E+02  0.17709083602E+02  0.13813791986E+02  0.25442347494E+02  0.00000000000E+00 0.  1.
         21    1    1    2  503  501 -0.11953265451E+02 -0.17709083602E+02 -0.92469576152E+02  0.94905820215E+02  0.00000000000E+00 0.  1.
</event>
<event>
 4    1  0.2216341E+005  0.2260496E+02  0.7546771E-02  0.1497519E+00
          2   -1    0    0  502    0  0.00000000000E+00  0.00000000000E+00  0.57793671751E+03  0.57793671751E+03  0.00000000000E+00 0. -1.
         21   -1    0    0  503  502 -0.00000000000E+00 -0.00000000000E+00 -0.12084278102E+02  0.12084278102E+02  0.00000000000E+00 0. -1.
          2    1    1    2  501    0 -0.13115750824E+02  0.18410904393E+02  0.56693944056E+03  0.56738991319E+03  0.00000000000E+00 0. -1.
         21    1    1    2  503  501  0.13115750824E+02 -0.18410904393E+02 -0.10870011548E+01  0.22631082426E+02  0.00000000000E+00 0. -1.
</event>
<event>
 4    1  0.2216341E+005  0.2412422E+02  0.7546771E-02  0.1478844E+00
          2   -1    0    0  502    0  0.00000000000E+00  0.00000000000E+00  0.64280917204E+03  0.64280917204E+03  0.00000000000E+00 0. -1.
         21   -1    0    0  503  502 -0.00000000000E+00 -0.00000000000E+00 -0.11465877145E+01  0.11465877145E+01  0.00000000000E+00 0.  1.
          2    1    1    2  501    0  0.65135752520E+01 -0.23228248069E+02  0.46851403549E+03  0.46913471373E+03  0.00000000000E+00 0. -1.
         21    1    1    2  503  501 -0.65135752520E+01  0.23228248069E+02  0.17314854883E+03  0.17482104603E+03  0.00000000000E+00 0.  1.
</event>
<event>
 4    1  0.2216341E+005  0.2878046E+02  0.7546771E-02  0.1430499E+00
          2   -1    0    0  502    0  0.00000000000E+00  0.00000000000E+00  0.10135343359E+04  0.10135343359E+04  0.00000000000E+00 0. -1.
         21   -1    0    0  503  502 -0.00000000000E+00 -0.00000000000E+00 -0.30277029679E+01  0.30277029679E+01  0.00000000000E+00 0.  1.
          2    1    1    2  501    0 -0.18490844030E+02 -0.22054554594E+02  0.93955102148E+03  0.93999172159E+03  0.00000000000E+00 0. -1.
         21    1    1    2  503  501  0.18490844030E+02  0.22054554594E+02  0.70955611418E+02  0.76570317244E+02  0.00000000000E+00 0.  1.
</event>
<event>
 4    1  0.2216341E+005  0.2801583E+02  0.7546771E-02  0.1437662E+00
          2   -1    0    0  503    0  0.00000000000E+00  0.00000000000E+00  0.34859474619E+02  0.34859474619E+02  0.00000000000E+00 0.  1.
         21   -1    0    0  501  502 -0.00000000000E+00 -0.00000000000E+00 -0.60374928068E+02  0.60374928068E+02  0.00000000000E+00 0.  1.
          2    1    1    2  501    0  0.15009464958E+02  0.23655927951E+02  0.24949204177E+02  0.37514660529E+02  0.00000000000E+00 0.  1.
         21    1    1    2  503  502 -0.15009464958E+02 -0.23655927951E+02 -0.50464657626E+02  0.57719742158E+02  0.00000000000E+00 0.  1.
</event>
<event>
 4    1  0.2216341E+005  0.2162055E+02  0.7546771E-02  0.1510587E+00
          2   -1    0    0  503    0  0.00000000000E+00  0.00000000000E+00  0.12491818869E+04  0.12491818869E+04  0.00000000000E+00 0. -1.
         21   -1    0    0  501  502 -0.00000000000E+00 -0.00000000000E+00 -0.16450976157E+01  0.16450976157E+01  0.00000000000E+00 0. -1.
          2    1    1    2  501    0  0.83017658481E+01  0.19963185728E+02  0.11734688699E+04  0.11736680266E+04  0.00000000000E+00 0. -1.
         21    1    1    2  503  502 -0.83017658481E+01 -0.19963185728E+02  0.74067919379E+02  0.77158957884E+02  0.00000000000E+00 0. -1.
</event>
<event>
 4    1  0.2216341E+005  0.2388677E+02  0.7546771E-02  0.1481653E+00
          2   -1    0    0  502    0  0.00000000000E+00  0.00000000000E+00  0.31460892437E+02  0.31460892437E+02  0.00000000000E+00 0. -1.
         21   -1    0    0  503  502 -0.00000000000E+00 -0.00000000000E+00 -0.10408934543E+03  0.10408934543E+03  0.00000000000E+00 0. -1.
          2    1    1    2  501    0 -0.23875345337E+02 -0.73864756202E+00  0.25274085830E+02  0.34775812424E+02  0.00000000000E+00 0. -1.
         21    1    1    2  503  501  0.23875345337E+02  0.73864756202E+00 -0.97902538822E+02  0.10077442544E+03  0.00000000000E+00 0. -1.
</event>
<event>
 4    1  0.2216341E+005  0.3836280E+02  0.7546771E-02  0.1358356E+00
          2   -1    0    0  503    0  0.00000000000E+00  0.00000000000E+00  0.16216833235E+03  0.16216833235E+03  0.00000000000E+00 0.  1.
         21   -1    0    0  501  502 -0.00000000000E+00 -0.00000000000E+00 -0.14413210959E+03  0.14413210959E+03  0.00000000000E+00 0.  1.
          2    1    1    2  501    0  0.30383409892E+02  0.23421198903E+02  0.15726845836E+03  0.16187980773E+03  0.00000000000E+00 0.  1.
         21    1    1    2  503  502 -0.30383409892E+02 -0.23421198903E+02 -0.13923223560E+03  0.14442063421E+03  0.00000000000E+00 0.  1.
</event>
<event>
 4    1  0.2216341E+005  0.2044208E+02  0.7546771E-02  0.1527382E+00
          2   -1    0    0  502    0  0.00000000000E+00  0.00000000000E+00  0.37187726975E+03  0.37187726975E+03  0.00000000000E+00 0.  1.
         21   -1    0    0  503  502 -0.00000000000E+00 -0.00000000000E+00 -0.41166919655E+01  0.41166919655E+01  0.00000000000E+00 0. -1.
          2    1    1    2  501    0  0.19994055067E+02  0.42563558754E+01  0.34417876836E+03  0.34478530043E+03  0.00000000000E+00 0.  1.
         21    1    1    2  503  501 -0.19994055067E+02 -0.42563558754E+01  0.23581809420E+02  0.31208661280E+02  0.00000000000E+00 0. -1.
</event>
<event>
 4    1  0.2216341E+005  0.2983080E+02  0.7546771E-02  0.1421073E+00
          2   -1    0    0  502    0  0.00000000000E+00  0.00000000000E+00  0.16339974618E+04  0.16339974618E+04  0.00000000000E+00 0.  1.
         21   -1    0    0  503  502 -0.00000000000E+00 -0.00000000000E+00 -0.15563875674E+02  0.15563875674E+02  0.00000000000E+00 0.  1.
          2    1    1    2  501    0  0.84452176681E+01  0.28610396253E+02  0.16194388806E+04  0.16197136057E+04  0.00000000000E+00 0.  1.
         21    1    1    2  503  501 -0.84452176681E+01 -0.28610396253E+02 -0.10052944764E+01  0.29847731777E+02  0.00000000000E+00 0.  1.
</event>
<event>
 4    1  0.2216341E+005  0.2050622E+02  0.7546771E-02  0.1526433E+00
          2   -1    0    0  502    0  0.00000000000E+00  0.00000000000E+00  0.80571272399E+03  0.80571272399E+03  0.00000000000E+00 0.  1.
         21   -1    0    0  503  502 -0.00000000000E+00 -0.00000000000E+00 -0.56897433059E+01  0.56897433059E+01  0.00000000000E+00 0.  1.
          2    1    1    2  501    0  0.97038287258E+01  0.18064904115E+02  0.78665833754E+03  0.78692556514E+03  0.00000000000E+00 0.  1.
         21    1    1    2  503  501 -0.97038287258E+01 -0.18064904115E+02  0.13364643142E+02  0.24476902152E+02  0.00000000000E+00 0.  1.
</event>
<event>
 4    1  0.2216341E+005  0.2066347E+02  0.7546771E-02  0.1524124E+00
          2   -1    0    0  502    0  0.00000000000E+00  0.00000000000E+00  0.60937969302E+02  0.60937969302E+02  0.00000000000E+00 0.  1.
         21   -1    0    0  503  502 -0.00000000000E+00 -0.00000000000E+00 -0.57253073426E+02  0.57253073426E+02  0.00000000000E+00 0. -1.
          2    1    1    2  501    0 -0.19534852449E+02 -0.67356193919E+01  0.57203862070E+02  0.60821549343E+02  0.00000000000E+00 0.  1.
         21    1    1    2  503  501  0.19534852449E+02  0.67356193919E+01 -0.53518966194E+02  0.57369493385E+02  0.00000000000E+00 0. -1.
</event>
<event>
 4    1  0.2216341E+005  0.2651821E+02  0.7546771E-02  0.1452509E+00
          2   -1    0    0  502    0  0.00000000000E+00  0.00000000000E+00  0.16703808898E+02  0.16703808898E+02  0.00000000000E+00 0. -1.
         21   -1    0    0  503  502 -0.00000000000E+00 -0.00000000000E+00 -0.89829988047E+02  0.89829988047E+02  0.00000000000E+00 0.  1.
          2    1    1    2  501    0 -0.23716691752E+02 -0.11863141910E+02  0.22650354762E+01  0.26614770136E+02  0.00000000000E+00 0. -1.
         21    1    1    2  503  501  0.23716691752E+02  0.11863141910E+02 -0.75391214624E+02  0.79919026810E+02  0.00000000000E+00 0.  1.
</event>
<event>
 4    1  0.2216341E+005  0.2203746E+02  0.7546771E-02  0.1504952E+00
          2   -1    0    0  503    0  0.00000000000E+00  0.00000000000E+00  0.13155988840E+02  0.13155988840E+02  0.00000000000E+00 0. -1.
         21   -1    0    0  501  502 -0.00000000000E+00 -0.00000000000E+00 -0.11288270920E+04  0.11288270920E+04  0.00000000000E+00 0.  1.
          2    1    1    2  501    0 -0.21146270756E+02  0.62036045264E+01  0.37421537180E+01  0.22352923533E+02  0.00000000000E+00 0. -1.
         21    1    1    2  503  502  0.21146270756E+02 -0.62036045264E+01 -0.11194132569E+04  0.11196301573E+04  0.00000000000E+00 0.  1.
</event>
<event>
 4    1  0.2216341E+005  0.2700153E+02  0.7546771E-02  0.1447593E+00
          2   -1    0    0  503    0  0.00000000000E+00  0.00000000000E+00  0.93629029200E+02  0.93629029200E+02  0.00000000000E+00 0. -1.
         21   -1    0    0  501  502 -0.00000000000E+00 -0.00000000000E+00 -0.24480767284E+02  0.24480767284E+02  0.00000000000E+00 0. -1.
          2    1    1    2  501    0 -0.13990995112E+02  0.23094042000E+02  0.83340620893E+02  0.87605603764E+02  0.00000000000E+00 0. -1.
         21    1    1    2  503  502  0.13990995112E+02 -0.23094042000E+02 -0.14192358977E+02  0.30504192719E+02  0.00000000000E+00 0. -1.
</event>
<event>
 4    1  0.2216341E+005  0.2579693E+02  0.7546771E-02  0.1460082E+00
          2   -1    0    0  503    0  0.00000000000E+00  0.00000000000E+00  0.80271980541E+03  0.80271980541E+03  0.00000000000E+00 0.  1.
         21   -1    0    0  501  502 -0.00000000000E+00 -0.00000000000E+00 -0.13678171982E+01  0.13678171982E+01  0.00000000000E+00 0. -1.
          2    1    1    2  501    0 -0.95620369065E+01  0.23959323884E+02  0.65300460918E+03  0.65351396417E+03  0.00000000000E+00 0.  1.
         21    1    1    2  503  502  0.95620369065E+01 -0.23959323884E+02  0.14834737903E+03  0.15057365844E+03  0.00000000000E+00 0. -1.
</event>
<event>
 4    1  0.2216341E+005  0.2648968E+02  0.7546771E-02  0.1452803E+00
          2   -1    0    0  503    0  0.00000000000E+00  0.00000000000E+00  0.60815857938E+03  0.60815857938E+03  0.00000000000E+00 0. -1.
         21   -1    0    0  501  502 -0.00000000000E+00 -0.00000000000E+00 -0.18480855669E+02  0.18480855669E+02  0.00000000000E+00 0. -1.
          2    1    1    2  501    0 -0.99702062098E+01 -0.24541760541E+02  0.59822020875E+03  0.59880641378E+03  0.00000000000E+00 0. -1.
         21    1    1    2  503  502  0.99702062098E+01  0.24541760541E+02 -0.85424850413E+01  0.27833021270E+02  0.00000000000E+00 0. -1.
</event>
<event>
 4    1  0.2216341E+005  0.2848713E+02  0.7546771E-02  0.1433216E+00
          2   -1    0    0  503    0  0.00000000000E+00  0.00000000000E+00  0.19257361873E+03  0.19257361873E+03  0.00000000000E+00 0. -1.
         21   -1    0    0  501  502 -0.00000000000E+00 -0.00000000000E+00 -0.65990568991E+01  0.65990568991E+01  0.00000000000E+00 0. -1.
          2    1    1    2  501    0  0.15237607481E+02 -0.24069310724E+02  0.15285640661E+03  0.15548825500E+03  0.00000000000E+00 0. -1.
         21    1    1    2  503  502 -0.15237607481E+02  0.24069310724E+02  0.33118155212E+02  0.43684420623E+02  0.00000000000E+00 0. -1.
</event>
<event>
 4    1  0.2216341E+005  0.7067923E+02  0.7546771E-02  0.1227314E+00
          2   -1    0    0  503    0  0.00000000000E+00  0.00000000000E+00  0.22781163013E+04  0.22781163013E+04  0.00000000000E+00 0. -1.
         21   -1    0    0  501  502 -0.00000000000E+00 -0.00000000000E+00 -0.30025847408E+01  0.30025847408E+01  0.00000000000E+00 0. -1.
          2    1    1    2  501    0 -0.53051812914E+02 -0.46701807209E+02  0.17298589751E+04  0.17313022923E+04  0.00000000000E+00 0. -1.
         21    1    1    2  503  502  0.53051812914E+02  0.46701807209E+02  0.54525474149E+03  0.54981659376E+03  0.00000000000E+00 0. -1.
</event>
<event>
 4    1  0.2216341E+005  0.2810004E+02  0.7546771E-02  0.1436860E+00
          2   -1    0    0  503    0  0.00000000000E+00  0.00000000000E+00  0.20235788905E+04  0.20235788905E+04  0.00000000000E+00 0. -1.
         21   -1    0    0  501  502 -0.00000000000E+00 -0.00000000000E+00 -0.33802097298E+02  0.33802097298E+02  0.00000000000E+00 0.  1.
          2    1    1    2  501    0 -0.72632339979E+01 -0.27145123957E+02  0.20176241385E+04  0.20178198077E+04  0.00000000000E+00 0. -1.
         21    1    1    2  503  502  0.72632339979E+01  0.27145123957E+02 -0.27847345323E+02  0.39561180016E+02  0.00000000000E+00 0.  1.
</event>
<event>
 4    1  0.2216341E+005  0.2531635E+02  0.7546771E-02  0.1465295E+00
          2   -1    0    0  503    0  0.00000000000E+00  0.00000000000E+00  0.17226433182E+04  0.17226433182E+04  0.00000000000E+00 0. -1.
         21   -1    0    0  501  502 -0.00000000000E+00 -0.00000000000E+00 -0.29264452573E+02  0.29264452573E+02  0.00000000000E+00 0. -1.
          2    1    1    2  501    0  0.12809492892E+02  0.21836543091E+02  0.17170572691E+04  0.17172438916E+04  0.00000000000E+00 0. -1.
         21    1    1    2  503  502 -0.12809492892E+02 -0.21836543091E+02 -0.23678403549E+02  0.34663879139E+02  0.00000000000E+00 0. -1.
</event>
<event>
 4    1  0.2216341E+005  0.2004606E+02  0.7546771E-02  0.1533333E+00
          2   -1    0    0  502    0  0.00000000000E+00  0.00000000000E+00  0.51428533210E+03  0.51428533210E+03  0.00000000000E+00 0. -1.
         21   -1    0    0  503  502 -0.00000000000E+00 -0.00000000000E+00 -0.49082063216E+03  0.49082063216E+03  0.00000000000E+00 0. -1.
          2    1    1    2  501    0 -0.19332385612E+02  0.53012513678E+01  0.51388515174E+03  0.51427598969E+03  0.00000000000E+00 0. -1.
         21    1    1    2  503  501  0.19332385612E+02 -0.53012513678E+01 -0.49042045179E+03  0.49082997457E+03  0.00000000000E+00 0. -1.
</event>
<event>
 4    1  0.2216341E+005  0.3272605E+02  0.7546771E-02  0.1397295E+00
          2   -1    0    0  503    0  0.00000000000E+00  0.00000000000E+00  0.97683705798E+01  0.97683705798E+01  0.00000000000E+00 0. -1.
         21   -1    0    0  501  502 -0.00000000000E+00 -0.00000000000E+00 -0.13768212871E+03  0.13768212871E+03  0.00000000000E+00 0.  1.
          2    1    1    2  501    0 -0.22710379588E+02  0.23563385950E+02 -0.30683982791E+02  0.44860910583E+02  0.00000000000E+00 0. -1.
         21    1    1    2  503  502  0.22710379588E+02 -0.23563385950E+02 -0.97229775338E+02  0.10258958870E+03  0.00000000000E+00 0.  1.
</event>
<event>
 4    1  0.2216341E+005  0.2058890E+02  0.7546771E-02  0.1525216E+00
          2   -1    0    0  503    0  0.00000000000E+00  0.00000000000E+00  0.80766421471E+03  0.80766421471E+03  0.00000000000E+00 0.  1.
         21   -1    0    0  501  502 -0.00000000000E+00 -0.00000000000E+00 -0.12300282105E+01  0.12300282105E+01  0.00000000000E+00 0. -1.
          2    1    1    2  501    0 -0.19513826592E+02 -0.65660688495E+01  0.70945123437E+03  0.70974992542E+03  0.00000000000E+00 0.  1.
         21    1    1    2  503  502  0.19513826592E+02  0.65660688495E+01  0.96982952134E+02  0.99144317502E+02  0.00000000000E+00 0. -1.
</event>
<event>
 4    1  0.2216341E+005  0.7128014E+02  0.7546771E-02  0.1225680E+00
          2   -1    0    0  503    0  0.00000000000E+00  0.00000000000E+00  0.30821939191E+03  0.30821939191E+03  0.00000000000E+00 0.  1.
         21   -1    0    0  501  502 -0.00000000000E+00 -0.00000000000E+00 -0.29398968243E+02  0.29398968243E+02  0.00000000000E+00 0. -1.
          2    1    1    2  501    0  0.65109807546E+02  0.29009844651E+02  0.25129406933E+03  0.26120790073E+03  0.00000000000E+00 0.  1.
         21    1    1    2  503  502 -0.65109807546E+02 -0.29009844651E+02  0.27526354335E+02  0.76410459417E+02  0.00000000000E+00 0. -1.
</event>
<event>
 4    1  0.2216341E+005  0.2515700E+02  0.7546771E-02  0.1467055E+00
          2   -1    0    0  503    0  0.00000000000E+00  0.00000000000E+00  0.71721401902E+03  0.71721401902E+03  0.00000000000E+00 0.  1.
         21   -1    0    0  501  502 -0.00000000000E+00 -0.00000000000E+00 -0.91168940176E+00  0.91168940176E+00  0.00000000000E+00 0. -1.
          2    1    1    2  501    0 -0.22193275923E+02 -0.11846228281E+02  0.42250151168E+03  0.42324981038E+03  0.00000000000E+00 0.  1.
         21    1    1    2  503  502  0.22193275923E+02  0.11846228281E+02  0.29380081794E+03  0.29487589804E+03  0.00000000000E+00 0. -1.
</event>
<event>
 4    1  0.2216341E+005  0.3457639E+02  0.7546771E-02  0.1383566E+00
          2   -1    0    0  502    0  0.00000000000E+00  0.00000000000E+00  0.43300004918E+02  0.43300004918E+02  0.00000000000E+00 0.  1.
         21   -1    0    0  503  502 -0.00000000000E+00 -0.00000000000E+00 -0.11564897396E+03  0.11564897396E+03  0.00000000000E+00 0. -1.
          2    1    1    2  501    0 -0.33082315300E+02  0.10054206994E+02  0.33167069461E+02  0.47912223498E+02  0.00000000000E+00 0.  1.
         21    1    1    2  503  501  0.33082315300E+02 -0.10054206994E+02 -0.10551603850E+03  0.11103675538E+03  0.00000000000E+00 0. -1.
</event>
<event>
 4    1  0.2216341E+005  0.2535507E+02  0.7546771E-02  0.1464870E+00
          2   -1    0    0  503    0  0.00000000000E+00  0.00000000000E+00  0.78976022717E+01  0.78976022717E+01  0.00000000000E+00 0. -1.
         21   -1    0    0  501  502 -0.00000000000E+00 -0.00000000000E+00 -0.14348294820E+04  0.14348294820E+04  0.00000000000E+00 0. -1.
          2    1    1    2  501    0  0.88267256625E+01 -0.23769064013E+02 -0.12863635058E+02  0.28431542288E+02  0.00000000000E+00 0. -1.
         21    1    1    2  503  502 -0.88267256625E+01  0.23769064013E+02 -0.14140682446E+04  0.14142955420E+04  0.00000000000E+00 0. -1.
</event>
<event>
 4    1  0.2216341E+005  0.2352265E+02  0.7546771E-02  0.1486037E+00
          2   -1    0    0  502    0  0.00000000000E+00  0.00000000000E+00  0.17832047873E+04  0.17832047873E+04  0.00000000000E+00 0. -1.
         21   -1    0    0  503  502 -0.00000000000E+00 -0.00000000000E+00 -0.26953346003E+01  0.26953346003E+01  0.00000000000E+00 0.  1.
          2    1    1    2  501    0 -0.10019174229E+01  0.23501303137E+02  0.17302345453E+04  0.17303944339E+04  0.00000000000E+00 0. -1.
         21    1    1    2  503  501  0.10019174229E+01 -0.23501303137E+02  0.50274907419E+02  0.55505688030E+02  0.00000000000E+00 0.  1.
</event>
<event>
 4    1  0.2216341E+005  0.2253788E+02  0.7546771E-02  0.1498384E+00
          2   -1    0    0  503    0  0.00000000000E+00  0.00000000000E+00  0.42401121791E+02  0.42401121791E+02  0.00000000000E+00 0.  1.
         21   -1    0    0  501  502 -0.00000000000E+00 -0.00000000000E+00 -0.14091346140E+02  0.14091346140E+02  0.00000000000E+00 0.  1.
          2    1    1    2  501    0  0.21227755812E+02 -0.75722202277E+01  0.25089077268E+02  0.33725627261E+02  0.00000000000E+00 0.  1.
         21    1    1    2  503  502 -0.21227755812E+02  0.75722202277E+01  0.32206983832E+01  0.22766840670E+02  0.00000000000E+00 0.  1.
</event>
<event>
 4    1  0.2216341E+005  0.2050539E+02  0.7546771E-02  0.1526445E+00
          2   -1    0    0  503    0  0.00000000000E+00  0.00000000000E+00  0.75261734201E+02  0.75261734201E+02  0.00000000000E+00 0.  1.
         21   -1    0    0  501  502 -0.00000000000E+00 -0.00000000000E+00 -0.10365878968E+02  0.10365878968E+02  0.00000000000E+00 0.  1.
          2    1    1    2  501    0 -0.13999465136E+02  0.14982851427E+02  0.61518509303E+02  0.64845954753E+02  0.00000000000E+00 0.  1.
         21    1    1    2  503  502  0.13999465136E+02 -0.14982851427E+02  0.33773459300E+01  0.20781658416E+02  0.00000000000E+00 0.  1.
</event>
<event>
 4    1  0.2216341E+005  0.5686758E+02  0.7546771E-02  0.1270864E+00
          2   -1    0    0  503    0  0.00000000000E+00  0.00000000000E+00  0.44588880982E+03  0.44588880982E+03  0.00000000000E+00 0.  1.
         21   -1    0    0  501  502 -0.00000000000E+00 -0.00000000000E+00 -0.13798127162E+02  0.13798127162E+02  0.00000000000E+00 0.  1.
          2    1    1    2  501    0 -0.49649666401E+02 -0.27727833248E+02  0.37434839101E+03  0.37864315650E+03  0.00000000000E+00 0.  1.
         21    1    1    2  503  502  0.49649666401E+02  0.27727833248E+02  0.57742291644E+02  0.81043780481E+02  0.00000000000E+00 0.  1.
</event>
<event>
 4    1  0.2216341E+005  0.2285521E+02  0.7546771E-02  0.1494324E+00
          2   -1    0    0  502    0  0.00000000000E+00  0.00000000000E+00  0.65011881377E+02  0.65011881377E+02  0.00000000000E+00 0. -1.
         21   -1    0    0  503  502 -0.00000000000E+00 -0.00000000000E+00 -0.47167519318E+03  0.47167519318E+03  0.00000000000E+00 0. -1.
          2    1    1    2  501    0 -0.20872059107E+02 -0.93122348129E+01  0.62716487558E+02  0.66751167632E+02  0.00000000000E+00 0. -1.
         21    1    1    2  503  501  0.20872059107E+02  0.93122348129E+01 -0.46937979936E+03  0.46993590692E+03  0.00000000000E+00 0. -1.
</event>
<event>
 4    1  0.2216341E+005  0.3564292E+02  0.7546771E-02  0.1376099E+00
          2   -1    0    0  502    0  0.00000000000E+00  0.00000000000E+00  0.24453178694E+04  0.24453178694E+04  0.00000000000E+00 0. -1.
         21   -1    0    0  503  502 -0.00000000000E+00 -0.00000000000E+00 -0.18362089095E+01  0.18362089095E+01  0.00000000000E+00 0.  1.
          2    1    1    2  501    0  0.30060812465E+02  0.19151120585E+02  0.22578609016E+04  0.22581422163E+04  0.00000000000E+00 0. -1.
         21    1    1    2  503  501 -0.30060812465E+02 -0.19151120585E+02  0.18562075889E+03  0.18901186206E+03  0.00000000000E+00 0.  1.
</event>
<event>
 4    1  0.2216341E+005  0.2259266E+02  0.7546771E-02  0.1497677E+00
          2   -1    0    0  502    0  0.00000000000E+00  0.00000000000E+00  0.23693651305E+02  0.23693651305E+02  0.00000000000E+00 0.  1.
         21   -1    0    0  503  502 -0.00000000000E+00 -0.00000000000E+00 -0.50461565914E+02  0.50461565914E+02  0.00000000000E+00 0.  1.
          2    1    1    2  501    0  0.41996071293E+01  0.22198909911E+02  0.14684659207E+02  0.26945640042E+02  0.00000000000E+00 0.  1.
         21    1    1    2  503  501 -0.41996071293E+01 -0.22198909911E+02 -0.41452573816E+02  0.47209577177E+02  0.00000000000E+00 0.  1.
</event>
<event>
 4    1  0.2216341E+005  0.2376287E+02  0.7546771E-02  0.1483135E+00
          2   -1    0    0  503    0  0.00000000000E+00  0.00000000000E+00  0.26755602501E+03  0.26755602501E+03  0.00000000000E+00 0. -1.
         21   -1    0    0  501  502 -0.00000000000E+00 -0.00000000000E+00 -0.86217264079E+01  0.86217264079E+01  0.00000000000E+00 0.  1.
          2    1    1    2  501    0  0.18403185374E+02  0.15033185541E+02  0.24947049622E+03  0.25059968552E+03  0.00000000000E+00 0. -1.
         21    1    1    2  503  502 -0.18403185374E+02 -0.15033185541E+02  0.94638023808E+01  0.25578065895E+02  0.00000000000E+00 0.  1.
</event>
<event>
 4    1  0.2216341E+005  0.2125983E+02  0.7546771E-02  0.1515587E+00
          2   -1    0    0  503    0  0.00000000000E+00  0.00000000000E+00  0.83664430048E+02  0.83664430048E+02  0.00000000000E+00 0. -1.
         21   -1    0    0  501  502 -0.00000000000E+00 -0.00000000000E+00 -0.15678642612E+02  0.15678642612E+02  0.00000000000E+00 0. -1.
          2    1    1    2  501    0  0.21236480839E+02 -0.99621824496E+00  0.74206460486E+02  0.77191834717E+02  0.00000000000E+00 0. -1.
         21    1    1    2  503  502 -0.21236480839E+02  0.99621824496E+00 -0.62206730497E+01  0.22151237943E+02  0.00000000000E+00 0. -1.
</event>
<event>
 4    1  0.2216341E+005  0.2019382E+02  0.7546771E-02  0.1531093E+00
          2   -1    0    0  503    0  0.00000000000E+00  0.00000000000E+00  0.20331397557E+02  0.20331397557E+02  0.00000000000E+00 0. -1.
         21   -1    0    0  501  502 -0.00000000000E+00 -0.00000000000E+00 -0.16544193955E+03  0.16544193955E+03  0.00000000000E+00 0. -1.
          2    1    1    2  501    0  0.14068281301E+02  0.14487028641E+02  0.14519034451E+02  0.24871527878E+02  0.00000000000E+00 0. -1.
         21    1    1    2  503  502 -0.14068281301E+02 -0.14487028641E+02 -0.15962957644E+03  0.16090180923E+03  0.00000000000E+00 0. -1.
</event>
<event>
 4    1  0.2216341E+005  0.2288469E+02  0.7546771E-02  0.1493951E+00
          2   -1    0    0  503    0  0.00000000000E+00  0.00000000000E+00  0.64289542813E+03  0.64289542813E+03  0.00000000000E+00 0.  1.
         21   -1    0    0  501  502 -0.00000000000E+00 -0.00000000000E+00 -0.90585386436E+00  0.90585386436E+00  0.00000000000E+00 0.  1.
          2    1    1    2  501    0  0.12156152783E+02  0.19389099679E+02  0.42315784764E+03  0.42377620657E+03  0.00000000000E+00 0.  1.
         21    1    1    2  503  502 -0.12156152783E+02 -0.19389099679E+02  0.21883172662E+03  0.22002507542E+03  0.00000000000E+00 0.  1.
</event>
<event>
 4    1  0.2216341E+005  0.2549914E+02  0.7546771E-02  0.1463296E+00
          2   -1    0    0  502    0  0.00000000000E+00  0.00000000000E+00  0.11253605989E+04  0.11253605989E+04  0.00000000000E+00 0. -1.
         21   -1    0    0  503  502 -0.00000000000E+00 -0.00000000000E+00 -0.13779047653E+01  0.13779047653E+01  0.00000000000E+00 0.  1.
          2    1    1    2  501    0 -0.76913010907E+01  0.24311516286E+02  0.99129400706E+03  0.99162191099E+03  0.00000000000E+00 0. -1.
         21    1    1    2  503  501  0.76913010907E+01 -0.24311516286E+02  0.13268868706E+03  0.13511659265E+03  0.00000000000E+00 0.  1.
</event>
<event>
 4    1  0.2216341E+005  0.2529023E+02  0.7546771E-02  0.1465583E+00
          2   -1    0    0  503    0  0.00000000000E+00  0.00000000000E+00  0.12891801109E+03  0.12891801109E+03  0.00000000000E+00 0. -1.
         21   -1    0    0  501  502 -0.00000000000E+00 -0.00000000000E+00 -0.74389279186E+02  0.74389279186E+02  0.00000000000E+00 0. -1.
          2    1    1    2  501    0  0.98155766068E+01  0.23307729623E+02  0.12546972045E+03  0.12799315042E+03  0.00000000000E+00 0. -1.
         21    1    1    2  503  502 -0.98155766068E+01 -0.23307729623E+02 -0.70940988554E+02  0.75314139850E+02  0.00000000000E+00 0. -1.
</event>
<event>
 4    1  0.2216341E+005  0.3001615E+02  0.7546771E-02  0.1419456E+00
          2   -1    0    0  502    0  0.00000000000E+00  0.00000000000E+00  0.20561335898E+03  0.20561335898E+03  0.00000000000E+00 0.  1.
         21   -1    0    0  503  502 -0.00000000000E+00 -0.00000000000E+00 -0.89031304865E+01  0.89031304865E+01  0.00000000000E+00 0.  1.
          2    1    1    2  501    0 -0.27306044385E+02  0.12463912763E+02  0.17478962812E+03  0.17734819784E+03  0.00000000000E+00 0.  1.
         21    1    1    2  503  501  0.27306044385E+02 -0.12463912763E+02  0.21920600379E+02  0.37168291624E+02  0.00000000000E+00 0.  1.
</event>
<event>
 4    1  0.2216341E+005  0.2940539E+02  0.7546771E-02  0.1424835E+00
          2   -1    0    0  503    0  0.00000000000E+00  0.00000000000E+00  0.11737765795E+04  0.11737765795E+04  0.00000000000E+00 0. -1.
         21   -1    0    0  501  502 -0.00000000000E+00 -0.00000000000E+00 -0.66141549819E+01  0.66141549819E+01  0.00000000000E+00 0.  1.
          2    1    1    2  501    0  0.26678619898E+02  0.12366424139E+02  0.11399396171E+04  0.11403188185E+04  0.00000000000E+00 0. -1.
         21    1    1    2  503  502 -0.26678619898E+02 -0.12366424139E+02  0.27222807396E+02  0.40071915953E+02  0.00000000000E+00 0.  1.
</event>
<event>
 4    1  0.2216341E+005  0.2526609E+02  0.7546771E-02  0.1465849E+00
          2   -1    0    0  502    0  0.00000000000E+00  0.00000000000E+00  0.48616641770E+03  0.48616641770E+03  0.00000000000E+00 0.  1.
         21   -1    0    0  503  502 -0.00000000000E+00 -0.00000000000E+00 -0.10071594275E+03  0.10071594275E+03  0.00000000000E+00 0.  1.
          2    1    1    2  501    0 -0.24979271624E+02 -0.37962003546E+01  0.48424727905E+03  0.48490597276E+03  0.00000000000E+00 0.  1.
         21    1    1    2  503  501  0.24979271624E+02  0.37962003546E+01 -0.98796804096E+02  0.10197638770E+03  0.00000000000E+00 0.  1.
</event>
<event>
 4    1  0.2216341E+005  0.2098943E+02  0.7546771E-02  0.1519416E+00
          2   -1    0    0  503    0  0.00000000000E+00  0.00000000000E+00  0.92138958391E+01  0.92138958391E+01  0.00000000000E+00 0. -1.
         21   -1    0    0  501  502 -0.00000000000E+00 -0.00000000000E+00 -0.74365303252E+02  0.74365303252E+02  0.00000000000E+00 0.  1.
          2    1    1    2  501    0 -0.20063650970E+02 -0.61649012026E+01 -0.76054246008E+01  0.22324842227E+02  0.00000000000E+00 0. -1.
         21    1    1    2  503  502  0.20063650970E+02  0.61649012026E+01 -0.57545982812E+02  0.61254356865E+02  0.00000000000E+00 0.  1.
</event>
<event>
 4    1  0.2216341E+005  0.2169712E+02  0.7546771E-02  0.1509540E+00
          2   -1    0    0  503    0  0.00000000000E+00  0.00000000000E+00  0.12952397385E+03  0.12952397385E+03  0.00000000000E+00 0. -1.
         21   -1    0    0  501  502 -0.00000000000E+00 -0.00000000000E+00 -0.10619077433E+02  0.10619077433E+02  0.00000000000E+00 0. -1.
          2    1    1    2  501    0  0.23093449591E+01 -0.21573868937E+02  0.11628090262E+03  0.11828784049E+03  0.00000000000E+00 0. -1.
         21    1    1    2  503  502 -0.23093449591E+01  0.21573868937E+02  0.26239937958E+01  0.21855210786E+02  0.00000000000E+00 0. -1.
</event>
<event>
 4    1  0.2216341E+005  0.3905025E+02  0.7546771E-02  0.1354143E+00
          2   -1    0    0  502    0  0.00000000000E+00  0.00000000000E+00  0.22360976247E+04  0.22360976247E+04  0.00000000000E+00 0.  1.
         21   -1    0    0  503  502 -0.00000000000E+00 -0.00000000000E+00 -0.72609003205E+00  0.72609003205E+00  0.00000000000E+00 0.  1.
          2    1    1    2  501    0 -0.28695963810E+02 -0.26485152691E+02  0.13934196368E+04  0.13939667162E+04  0.00000000000E+00 0.  1.
         21    1    1    2  503  501  0.28695963810E+02  0.26485152691E+02  0.84195189791E+03  0.84285699858E+03  0.00000000000E+00 0.  1.
</event>
<event>
 4    1  0.2216341E+005  0.2927758E+02  0.7546771E-02  0.1425980E+00
          2   -1    0    0  503    0  0.00000000000E+00  0.00000000000E+00  0.20460001074E+04  0.20460001074E+04  0.00000000000E+00 0.  1.
         21   -1    0    0  501  502 -0.00000000000E+00 -0.00000000000E+00 -0.26403423848E+01  0.26403423848E+01  0.00000000000E+00 0. -1.
          2    1    1    2  501    0 -0.44079447703E+01  0.28943849830E+02  0.19612258656E+04  0.19614443842E+04  0.00000000000E+00 0.  1.
         21    1    1    2  503  502  0.44079447703E+01 -0.28943849830E+02  0.82133899428E+02  0.87196065595E+02  0.00000000000E+00 0. -1.
</event>
<event>
 4    1  0.2216341E+005  0.2335771E+02  0.7546771E-02  0.1488055E+00
          2   -1    0    0  502    0  0.00000000000E+00  0.00000000000E+00  0.53582750880E+03  0.53582750880E+03  0.00000000000E+00 0. -1.
         21   -1    0    0  503  502 -0.00000000000E+00 -0.00000000000E+00 -0.28442528788E+03  0.28442528788E+03  0.00000000000E+00 0.  1.
          2    1    1    2  501    0 -0.71942493468E+01  0.22222180522E+02  0.53509275106E+03  0.53560231027E+03  0.00000000000E+00 0. -1.
         21    1    1    2  503  501  0.71942493468E+01 -0.22222180522E+02 -0.28369053013E+03  0.28465048641E+03  0.00000000000E+00 0.  1.
</event>
<event>
 4    1  0.2216341E+005  0.2251319E+02  0.7546771E-02  0.1498703E+00
          2   -1    0    0  503    0  0.00000000000E+00  0.00000000000E+00  0.14726284317E+02  0.14726284317E+02  0.00000000000E+00 0.  1.
         21   -1    0    0  501  502 -0.00000000000E+00 -0.00000000000E+00 -0.72588699810E+02  0.72588699810E+02  0.00000000000E+00 0. -1.
          2    1    1    2  501    0  0.16570485441E+02 -0.15240163844E+02  0.27273792416E+01  0.22677790441E+02  0.00000000000E+00 0.  1.
         21    1    1    2  503  502 -0.16570485441E+02  0.15240163844E+02 -0.60589794735E+02  0.64637193687E+02  0.00000000000E+00 0. -1.
</event>
<event>
 4    1  0.2216341E+005  0.4789075E+02  0.7546771E-02  0.1307586E+00
          2   -1    0    0  503    0  0.00000000000E+00  0.00000000000E+00  0.63931910858E+03  0.63931910858E+03  0.00000000000E+00 0. -1.
         21   -1    0    0  501  502 -0.00000000000E+00 -0.00000000000E+00 -0.11454038393E+02  0.11454038393E+02  0.00000000000E+00 0. -1.
          2    1    1    2  501    0 -0.13244851194E+02 -0.46022800832E+02  0.58359069734E+03  0.58555241123E+03  0.00000000000E+00 0. -1.
         21    1    1    2  503  502  0.13244851194E+02  0.46022800832E+02  0.44274372851E+02  0.65220735744E+02  0.00000000000E+00 0. -1.
</event>
<event>
 4    1  0.2216341E+005  0.2009580E+02  0.7546771E-02  0.1532576E+00
          2   -1    0    0  503    0  0.00000000000E+00  0.00000000000E+00  0.21697327427E+03  0.21697327427E+03  0.00000000000E+00 0. -1.
         21   -1    0    0  501  502 -0.00000000000E+00 -0.00000000000E+00 -0.18799787061E+01  0.18799787061E+01  0.00000000000E+00 0. -1.
          2    1    1    2  501    0  0.13202759618E+02 -0.15150192310E+02  0.96624263955E+02  0.98691892137E+02  0.00000000000E+00 0. -1.
         21    1    1    2  503  502 -0.13202759618E+02  0.15150192310E+02  0.11846903161E+03  0.12016136084E+03  0.00000000000E+00 0. -1.
</event>
<event>
 4    1  0.2216341E+005  0.2775279E+02  0.7546771E-02  0.1440189E+00
          2   -1    0    0  502    0  0.00000000000E+00  0.00000000000E+00  0.22619292386E+03  0.22619292386E+03  0.00000000000E+00 0.  1.
         21   -1    0    0  503  502 -0.00000000000E+00 -0.00000000000E+00 -0.64719211043E+02  0.64719211043E+02  0.00000000000E+00 0. -1.
          2    1    1    2  501    0 -0.27311817600E+02 -0.49276575068E+01  0.22231471287E+03  0.22404028376E+03  0.00000000000E+00 0.  1.
         21    1    1    2  503  501  0.27311817600E+02  0.49276575068E+01 -0.60841000048E+02  0.66871851148E+02  0.00000000000E+00 0. -1.
</event>
<event>
 4    1  0.2216341E+005  0.2082162E+02  0.7546771E-02  0.1521827E+00
          2   -1    0    0  502    0  0.00000000000E+00  0.00000000000E+00  0.32197871226E+02  0.32197871226E+02  0.00000000000E+00 0. -1.
         21   -1    0    0  503  502 -0.00000000000E+00 -0.00000000000E+00 -0.11320106512E+03  0.11320106512E+03  0.00000000000E+00 0.  1.
          2    1    1    2  501    0 -0.16603874179E+02  0.12563880384E+02  0.27737363763E+02  0.34682864308E+02  0.00000000000E+00 0. -1.
         21    1    1    2  503  501  0.16603874179E+02 -0.12563880384E+02 -0.10874055766E+03  0.11071607204E+03  0.00000000000E+00 0.  1.
</event>
<event>
 4    1  0.2216341E+005  0.3096234E+02  0.7546771E-02  0.1411414E+00
          2   -1    0    0  502    0  0.00000000000E+00  0.00000000000E+00  0.15712760378E+04  0.15712760378E+04  0.00000000000E+00 0.  1.
         21   -1    0    0  503  502 -0.00000000000E+00 -0.00000000000E+00 -0.83043907927E+02  0.83043907927E+02  0.00000000000E+00 0. -1.
          2    1    1    2  501    0  0.22104358918E+02 -0.21680954495E+02  0.15682318834E+04  0.15685375056E+04  0.00000000000E+00 0.  1.
         21    1    1    2  503  501 -0.22104358918E+02  0.21680954495E+02 -0.79999753505E+02  0.85782440114E+02  0.00000000000E+00 0. -1.
</event>
<event>
 4    1  0.2216341E+005  0.2354481E+02  0.7546771E-02  0.1485768E+00
          2   -1    0    0  502    0  0.00000000000E+00  0.00000000000E+00  0.15696871933E+03  0.15696871933E+03  0.00000000000E+00 0.  1.
         21   -1    0    0  503  502 -0.00000000000E+00 -0.00000000000E+00 -0.21528466019E+02  0.21528466019E+02  0.00000000000E+00 0.  1.
          2    1    1    2  501    0  0.48808293566E+01 -0.23033360739E+02  0.14932060433E+03  0.15116547582E+03  0.00000000000E+00 0.  1.
         21    1    1    2  503  501 -0.48808293566E+01  0.23033360739E+02 -0.13880351010E+02  0.27331709539E+02  0.00000000000E+00 0.  1.
</event>
<event>
 4    1  0.2216341E+005  0.2656561E+02  0.7546771E-02  0.1452021E+00
          2   -1    0    0  503    0  0.00000000000E+00  0.00000000000E+00  0.27564587624E+02  0.27564587624E+02  0.00000000000E+00 0.  1.
         21   -1    0    0  501  502 -0.00000000000E+00 -0.00000000000E+00 -0.84080376697E+02  0.84080376697E+02  0.00000000000E+00 0.  1.
          2    1    1    2  501    0 -0.61520205431E+01  0.25843457519E+02  0.18296037065E+02  0.32256419912E+02  0.00000000000E+00 0.  1.
         21    1    1    2  503  502  0.61520205431E+01 -0.25843457519E+02 -0.74811826137E+02  0.79388544409E+02  0.00000000000E+00 0.  1.
</event>
<event>
 4    1  0.2216341E+005  0.2860395E+02  0.7546771E-02  0.1432129E+00
          2   -1    0    0  503    0  0.00000000000E+00  0.00000000000E+00  0.26524639393E+01  0.26524639393E+01  0.00000000000E+00 0.  1.
         21   -1    0    0  501  502 -0.00000000000E+00 -0.00000000000E+00 -0.30892142226E+03  0.30892142226E+03  0.00000000000E+00 0.  1.
          2    1    1    2  501    0  0.20204598308E+02 -0.20247473931E+02 -0.15913814828E+03  0.16168839239E+03  0.00000000000E+00 0.  1.
         21    1    1    2  503  502 -0.20204598308E+02  0.20247473931E+02 -0.14713081003E+03  0.14988549381E+03  0.00000000000E+00 0.  1.
</event>
<event>
 4    1  0.2216341E+005  0.4576599E+02  0.7546771E-02  0.1317653E+00
          2   -1    0    0  502    0  0.00000000000E+00  0.00000000000E+00  0.13698416928E+04  0.13698416928E+04  0.00000000000E+00 0.  1.
         21   -1    0    0  503  502 -0.00000000000E+00 -0.00000000000E+00 -0.14058919945E+03  0.14058919945E+03  0.00000000000E+00 0. -1.
          2    1    1    2  501    0  0.84377469025E+01 -0.44981446454E+02  0.13657236583E+04  0.13664902623E+04  0.00000000000E+00 0.  1.
         21    1    1    2  503  501 -0.84377469025E+01  0.44981446454E+02 -0.13647116493E+03  0.14394062997E+03  0.00000000000E+00 0. -1.
</event>
<event>
 4    1  0.2216341E+005  0.2192999E+02  0.7546771E-02  0.1506390E+00
          2   -1    0    0  502    0  0.00000000000E+00  0.00000000000E+00  0.21462149720E+01  0.21462149720E+01  0.00000000000E+00 0. -1.
         21   -1    0    0  503  502 -0.00000000000E+00 -0.00000000000E+00 -0.37070059195E+03  0.37070059195E+03  0.00000000000E+00 0.  1.
          2    1    1    2  501    0 -0.20740603157E+02  0.71240195164E+01 -0.67034441475E+02  0.70530423345E+02  0.00000000000E+00 0. -1.
         21    1    1    2  503  501  0.20740603157E+02 -0.71240195164E+01 -0.30151993550E+03  0.30231638358E+03  0.00000000000E+00 0.  1.
</event>
<event>
 4    1  0.2216341E+005  0.3008724E+02  0.7546771E-02  0.1418840E+00
          2   -1    0    0  502    0  0.00000000000E+00  0.00000000000E+00  0.51813207179E+03  0.51813207179E+03  0.00000000000E+00 0.  1.
         21   -1    0    0  503  502 -0.00000000000E+00 -0.00000000000E+00 -0.31039142999E+01  0.31039142999E+01  0.00000000000E+00 0.  1.
          2    1    1    2  501    0 -0.28979801029E+02 -0.80878545238E+01  0.42982210377E+03  0.43087385991E+03  0.00000000000E+00 0.  1.
         21    1    1    2  503  501  0.28979801029E+02  0.80878545238E+01  0.85206053718E+02  0.90362126185E+02  0.00000000000E+00 0.  1.
</event>
<event>
 4    1  0.2216341E+005  0.2175774E+02  0.7546771E-02  0.1508716E+00
          2   -1    0    0  502    0  0.00000000000E+00  0.00000000000E+00  0.10048286193E+04  0.10048286193E+04  0.00000000000E+00 0. -1.
         21   -1    0    0  503  502 -0.00000000000E+00 -0.00000000000E+00 -0.11925810789E+01  0.11925810789E+01  0.00000000000E+00 0. -1.
          2    1    1    2  501    0  0.96827460370E+01  0.19484442186E+02  0.89305362776E+03  0.89331863359E+03  0.00000000000E+00 0. -1.
         21    1    1    2  503  501 -0.96827460370E+01 -0.19484442186E+02  0.11058241046E+03  0.11270256679E+03  0.00000000000E+00 0. -1.
</event>
<event>
 4    1  0.2216341E+005  0.2726363E+02  0.7546771E-02  0.1444978E+00
          2   -1    0    0  502    0  0.00000000000E+00  0.00000000000E+00  0.20175751689E+03  0.20175751689E+03  0.00000000000E+00 0.  1.
         21   -1    0    0  503  502 -0.00000000000E+00 -0.00000000000E+00 -0.17239881421E+02  0.17239881421E+02  0.00000000000E+00 0.  1.
          2    1    1    2  501    0  0.22293456411E+02  0.15694179133E+02  0.18935524736E+03  0.19130790669E+03  0.00000000000E+00 0.  1.
         21    1    1    2  503  501 -0.22293456411E+02 -0.15694179133E+02 -0.48376118950E+01  0.27689491622E+02  0.00000000000E+00 0.  1.
</event>
<event>
 4    1  0.2216341E+005  0.5718360E+02  0.7546771E-02  0.1269714E+00
          2   -1    0    0  502    0  0.00000000000E+00  0.00000000000E+00  0.65341635911E+03  0.65341635911E+03  0.00000000000E+00 0. -1.
         21   -1    0    0  503  502 -0.00000000000E+00 -0.00000000000E+00 -0.74514983151E+01  0.74514983151E+01  0.00000000000E+00 0. -1.
          2    1    1    2  501    0 -0.27863761999E+02  0.49935712318E+02  0.51234209863E+03  0.51552341423E+03  0.00000000000E+00 0. -1.
         21    1    1    2  503  501  0.27863761999E+02 -0.49935712318E+02  0.13362276217E+03  0.14534444320E+03  0.00000000000E+00 0. -1.
</event>
<event>
 4    1  0.2216341E+005  0.2006160E+02  0.7546771E-02  0.1533096E+00
          2   -1    0    0  502    0  0.00000000000E+00  0.00000000000E+00  0.56593294299E+03  0.56593294299E+03  0.00000000000E+00 0.  1.
         21   -1    0    0  503  502 -0.00000000000E+00 -0.00000000000E+00 -0.99896794680E+01  0.99896794680E+01  0.00000000000E+00 0.  1.
          2    1    1    2  501    0  0.11174383892E+02 -0.16661360761E+02  0.55549384590E+03  0.55585598911E+03  0.00000000000E+00 0.  1.
         21    1    1    2  503  501 -0.11174383892E+02  0.16661360761E+02  0.44941762423E+00  0.20066633349E+02  0.00000000000E+00 0.  1.
</event>
<event>
 4    1  0.2216341E+005  0.2126163E+02  0.7546771E-02  0.1515562E+00
          2   -1    0    0  502    0  0.00000000000E+00  0.00000000000E+00  0.36847075120E+03  0.36847075120E+03  0.00000000000E+00 0. -1.
         21   -1    0    0  503  502 -0.00000000000E+00 -0.00000000000E+00 -0.12284970545E+01  0.12284970545E+01  0.00000000000E+00 0. -1.
          2    1    1    2  501    0  0.42437292373E+00  0.21257395220E+02  0.17684494861E+03  0.17811847965E+03  0.00000000000E+00 0. -1.
         21    1    1    2  503  501 -0.42437292373E+00 -0.21257395220E+02  0.19039730554E+03  0.19158076861E+03  0.00000000000E+00 0. -1.
</event>
<event>
 4    1  0.2216341E+005  0.2206955E+02  0.7546771E-02  0.1504524E+00
          2   -1    0    0  503    0  0.00000000000E+00  0.00000000000E+00  0.36087960939E+03  0.36087960939E+03  0.00000000000E+00 0. -1.
         21   -1    0    0  501  502 -0.00000000000E+00 -0.00000000000E+00 -0.43701498838E+01  0.43701498838E+01  0.00000000000E+00 0. -1.
          2    1    1    2  501    0  0.20187968363E+02 -0.89168873258E+01  0.33008222765E+03  0.33081919829E+03  0.00000000000E+00 0. -1.
         21    1    1    2  503  502 -0.20187968363E+02  0.89168873258E+01  0.26427231861E+02  0.34430560990E+02  0.00000000000E+00 0. -1.
</event>
<event>
 4    1  0.2216341E+005  0.2368847E+02  0.7546771E-02  0.1484029E+00
          2   -1    0    0  502    0  0.00000000000E+00  0.00000000000E+00  0.32014979905E+03  0.32014979905E+03  0.00000000000E+00 0.  1.
         21   -1    0    0  503  502 -0.00000000000E+00 -0.00000000000E+00 -0.47098855502E+02  0.47098855502E+02  0.00000000000E+00 0. -1.
          2    1    1    2  501    0 -0.22300801466E+02 -0.79886191257E+01  0.31670067457E+03  0.31758536027E+03  0.00000000000E+00 0.  1.
         21    1    1    2  503  501  0.22300801466E+02  0.79886191257E+01 -0.43649731020E+02  0.49663294289E+02  0.00000000000E+00 0. -1.
</event>
<event>
 4    1  0.2216341E+005  0.2058204E+02  0.7546771E-02  0.1525317E+00
          2   -1    0    0  503    0  0.00000000000E+00  0.00000000000E+00  0.25939674297E+03  0.25939674297E+03  0.00000000000E+00 0. -1.
         21   -1    0    0  501  502 -0.00000000000E+00 -0.00000000000E+00 -0.19542440827E+01  0.19542440827E+01  0.00000000000E+00 0.  1.
          2    1    1    2  501    0 -0.46934463673E+01 -0.20039754006E+02  0.18169447041E+03  0.18285650319E+03  0.00000000000E+00 0. -1.
         21    1    1    2  503  502  0.46934463673E+01  0.20039754006E+02  0.75748028469E+02  0.78494483859E+02  0.00000000000E+00 0.  1.
</event>
<event>
 4    1  0.2216341E+005  0.2134241E+02  0.7546771E-02  0.1514432E+00
          2   -1    0    0  503    0  0.00000000000E+00  0.00000000000E+00  0.21314762509E+03  0.21314762509E+03  0.00000000000E+00 0.  1.
         21   -1    0    0  501  502 -0.00000000000E+00 -0.00000000000E+00 -0.33471733735E+01  0.33471733735E+01  0.00000000000E+00 0.  1.
          2    1    1    2  501    0  0.97793216816E+01  0.18970064687E+02  0.16998815731E+03  0.17132271336E+03  0.00000000000E+00 0.  1.
         21    1    1    2  503  502 -0.97793216816E+01 -0.18970064687E+02  0.39812294400E+02  0.45172085099E+02  0.00000000000E+00 0.  1.
</event>
<event>
 4    1  0.2216341E+005  0.2814573E+02  0.7546771E-02  0.1436426E+00
          2   -1    0    0  503    0  0.00000000000E+00  0.00000000000E+00  0.12615328924E+04  0.12615328924E+04  0.00000000000E+00 0. -1.
         21   -1    0    0  501  502 -0.00000000000E+00 -0.00000000000E+00 -0.24118538898E+01  0.24118538898E+01  0.00000000000E+00 0.  1.
          2    1    1    2  501    0 -0.28145030730E+02  0.19898732567E+00  0.11730711648E+04  0.11734087694E+04  0.00000000000E+00 0. -1.
         21    1    1    2  503  502  0.28145030730E+02 -0.19898732567E+00  0.86049873665E+02  0.90535976874E+02  0.00000000000E+00 0.  1.
</event>
<event>
 4    1  0.2216341E+005  0.4985811E+02  0.7546771E-02  0.1298789E+00
          2   -1    0    0  502    0  0.00000000000E+00  0.00000000000E+00  0.13599254764E+04  0.13599254764E+04  0.00000000000E+00 0. -1.
         21   -1    0    0  503  502 -0.00000000000E+00 -0.00000000000E+00 -0.23859369019E+01  0.23859369019E+01  0.00000000000E+00 0. -1.
          2    1    1    2  501    0  0.39156978549E+02  0.30863602596E+02  0.10081835446E+04  0.10094156184E+04  0.00000000000E+00 0. -1.
         21    1    1    2  503  501 -0.39156978549E+02 -0.30863602596E+02  0.34935599482E+03  0.35289579489E+03  0.00000000000E+00 0. -1.
</event>
<event>
 4    1  0.2216341E+005  0.2698972E+02  0.7546771E-02  0.1447711E+00
          2   -1    0    0  503    0  0.00000000000E+00  0.00000000000E+00  0.27587937654E+03  0.27587937654E+03  0.00000000000E+00 0. -1.
         21   -1    0    0  501  502 -0.00000000000E+00 -0.00000000000E+00 -0.36944700321E+01  0.36944700321E+01  0.00000000000E+00 0.  1.
          2    1    1    2  501    0 -0.22877509165E+01 -0.26892584035E+02  0.21075718627E+03  0.21247831995E+03  0.00000000000E+00 0. -1.
         21    1    1    2  503  502  0.22877509165E+01  0.26892584035E+02  0.61427720236E+02  0.67095526630E+02  0.00000000000E+00 0.  1.
</event>
<event>
 4    1  0.2216341E+005  0.6653406E+02  0.7546771E-02  0.1239114E+00
          2   -1    0    0  503    0  0.00000000000E+00  0.00000000000E+00  0.60102754763E+03  0.60102754763E+03  0.00000000000E+00 0. -1.
         21   -1    0    0  501  502 -0.00000000000E+00 -0.00000000000E+00 -0.17266141176E+02  0.17266141176E+02  0.00000000000E+00 0.  1.
          2    1    1    2  501    0 -0.66391480620E+02 -0.43533940809E+01  0.52598103730E+03  0.53017245528E+03  0.00000000000E+00 0. -1.
         21    1    1    2  503  502  0.66391480620E+02  0.43533940809E+01  0.57780369160E+02  0.88121233532E+02  0.00000000000E+00 0.  1.
</event>
<event>
 4    1  0.2216341E+005  0.2512784E+02  0.7546771E-02  0.1467378E+00
          2   -1    0    0  503    0  0.00000000000E+00  0.00000000000E+00  0.17227943118E+02  0.17227943118E+02  0.00000000000E+00 0. -1.
         21   -1    0    0  501  502 -0.00000000000E+00 -0.00000000000E+00 -0.80387345367E+03  0.80387345367E+03  0.00000000000E+00 0.  1.
          2    1    1    2  501    0 -0.93562914854E+01  0.23320984864E+02  0.77598381759E+01  0.26298737877E+02  0.00000000000E+00 0. -1.
         21    1    1    2  503  502  0.93562914854E+01 -0.23320984864E+02 -0.79440534872E+03  0.79480265891E+03  0.00000000000E+00 0.  1.
</event>
<event>
 4    1  0.2216341E+005  0.4449942E+02  0.7546771E-02  0.1323962E+00
          2   -1    0    0  502    0  0.00000000000E+00  0.00000000000E+00  0.17296987604E+04  0.17296987604E+04  0.00000000000E+00 0. -1.
         21   -1    0    0  503  502 -0.00000000000E+00 -0.00000000000E+00 -0.38125071194E+01  0.38125071194E+01  0.00000000000E+00 0.  1.
          2    1    1    2  501    0  0.34809642227E+02 -0.27721595177E+02  0.15879774810E+04  0.15886008555E+04  0.00000000000E+00 0. -1.
         21    1    1    2  503  501 -0.34809642227E+02  0.27721595177E+02  0.13790877231E+03  0.14491041202E+03  0.00000000000E+00 0.  1.
</event>
<event>
 4    1  0.2216341E+005  0.2759448E+02  0.7546771E-02  0.1441726E+00
          2   -1    0    0  503    0  0.00000000000E+00  0.00000000000E+00  0.11087209733E+04  0.11087209733E+04  0.00000000000E+00 0.  1.
         21   -1    0    0  501  502 -0.00000000000E+00 -0.00000000000E+00 -0.13264694172E+01  0.13264694172E+01  0.00000000000E+00 0.  1.
          2    1    1    2  501    0 -0.27292768822E+02  0.40694346735E+01  0.93912680862E+03  0.93953212728E+03  0.00000000000E+00 0.  1.
         21    1    1    2  503  502  0.27292768822E+02 -0.40694346735E+01  0.16826769526E+03  0.17051531544E+03  0.00000000000E+00 0.  1.
</event>
<event>
 4    1  0.2216341E+005  0.2035044E+02  0.7546771E-02  0.1528744E+00
          2   -1    0    0  503    0  0.00000000000E+00  0.00000000000E+00  0.40966882467E+03  0.40966882467E+03  0.00000000000E+00 0.  1.
         21   -1    0    0  501  502 -0.00000000000E+00 -0.00000000000E+00 -0.43515508603E+01  0.43515508603E+01  0.00000000000E+00 0.  1.
          2    1    1    2  501    0  0.17380076685E+02  0.10586465465E+02  0.38403649276E+03  0.38457530873E+03  0.00000000000E+00 0.  1.
         21    1    1    2  503  502 -0.17380076685E+02 -0.10586465465E+02  0.21280781054E+02  0.29445066800E+02  0.00000000000E+00 0.  1.
</event>
<event>
 4    1  0.2216341E+005  0.4480925E+02  0.7546771E-02  0.1322396E+00
          2   -1    0    0  503    0  0.00000000000E+00  0.00000000000E+00  0.41417239586E+03  0.41417239586E+03  0.00000000000E+00 0.  1.
         21   -1    0    0  501  502 -0.00000000000E+00 -0.00000000000E+00 -0.19038030158E+02  0.19038030158E+02  0.00000000000E+00 0.  1.
          2    1    1    2  501    0  0.26724855646E+02 -0.35967357066E+02  0.38457122881E+03  0.38717295710E+03  0.00000000000E+00 0.  1.
         21    1    1    2  503  502 -0.26724855646E+02  0.35967357066E+02  0.10563136901E+02  0.46037468923E+02  0.00000000000E+00 0.  1.
</event>
<event>
 4    1  0.2216341E+005  0.2715569E+02  0.7546771E-02  0.1446050E+00
          2   -1    0    0  503    0  0.00000000000E+00  0.00000000000E+00  0.60963458626E+03  0.60963458626E+03  0.00000000000E+00 0. -1.
         21   -1    0    0  501  502 -0.00000000000E+00 -0.00000000000E+00 -0.16669835881E+01  0.16669835881E+01  0.00000000000E+00 0.  1.
          2    1    1    2  501    0  0.73901375281E+01  0.26130772082E+02  0.46408205746E+03  0.46487588391E+03  0.00000000000E+00 0. -1.
         21    1    1    2  503  502 -0.73901375281E+01 -0.26130772082E+02  0.14388554521E+03  0.14642568594E+03  0.00000000000E+00 0.  1.
</event>
<event>
 4    1  0.2216341E+005  0.2582824E+02  0.7546771E-02  0.1459747E+00
          2   -1    0    0  503    0  0.00000000000E+00  0.00000000000E+00  0.17351042937E+03  0.17351042937E+03  0.00000000000E+00 0. -1.
         21   -1    0    0  501  502 -0.00000000000E+00 -0.00000000000E+00 -0.50267230987E+02  0.50267230987E+02  0.00000000000E+00 0. -1.
          2    1    1    2  501    0 -0.13817779646E+02  0.21821244055E+02  0.16914638861E+03  0.17110697971E+03  0.00000000000E+00 0. -1.
         21    1    1    2  503  502  0.13817779646E+02 -0.21821244055E+02 -0.45903190228E+02  0.52670680645E+02  0.00000000000E+00 0. -1.
</event>
<event>
 4    1  0.2216341E+005  0.2782847E+02  0.7546771E-02  0.1439459E+00
          2   -1    0    0  502    0  0.00000000000E+00  0.00000000000E+00  0.13555762810E+04  0.13555762810E+04  0.00000000000E+00 0.  1.
         21   -1    0    0  503  502 -0.00000000000E+00 -0.00000000000E+00 -0.79616547002E+00  0.79616547002E+00  0.00000000000E+00 0. -1.
          2    1    1    2  501    0 -0.24636418267E+02  0.12941044942E+02  0.10378199280E+04  0.10381929622E+04  0.00000000000E+00 0.  1.
         21    1    1    2  503  501  0.24636418267E+02 -0.12941044942E+02  0.31696018752E+03  0.31817948429E+03  0.00000000000E+00 0. -1.
</event>
<event>
 4    1  0.2216341E+005  0.2585277E+02  0.7546771E-02  0.1459485E+00
          2   -1    0    0  502    0  0.00000000000E+00  0.00000000000E+00  0.39309484658E+03  0.39309484658E+03  0.00000000000E+00 0.  1.
         21   -1    0    0  503  502 -0.00000000000E+00 -0.00000000000E+00 -0.45043938656E+01  0.45043938656E+01  0.00000000000E+00 0. -1.
          2    1    1    2  501    0  0.44009230023E+01  0.25475431416E+02  0.35114947700E+03  0.35209987351E+03  0.00000000000E+00 0.  1.
         21    1    1    2  503  501 -0.44009230023E+01 -0.25475431416E+02  0.37440975720E+02  0.45499366941E+02  0.00000000000E+00 0. -1.
</event>
<event>
 4    1  0.2216341E+005  0.4839459E+02  0.7546771E-02  0.1305287E+00
          2   -1    0    0  503    0  0.00000000000E+00  0.00000000000E+00  0.54956596130E+03  0.54956596130E+03  0.00000000000E+00 0. -1.
         21   -1    0    0  501  502 -0.00000000000E+00 -0.00000000000E+00 -0.44836444179E+01  0.44836444179E+01  0.00000000000E+00 0.  1.
          2    1    1    2  501    0 -0.10460465206E+02 -0.47250558701E+02  0.33418812905E+03  0.33767401770E+03  0.00000000000E+00 0. -1.
         21    1    1    2  503  502  0.10460465206E+02  0.47250558701E+02  0.21089418783E+03  0.21637558802E+03  0.00000000000E+00 0.  1.
</event>
<event>
 4    1  0.2216341E+005  0.3092835E+02  0.7546771E-02  0.1411697E+00
          2   -1    0    0  502    0  0.00000000000E+00  0.00000000000E+00  0.71767255928E+03  0.71767255928E+03  0.00000000000E+00 0. -1.
         21   -1    0    0  503  502 -0.00000000000E+00 -0.00000000000E+00 -0.49725110959E+02  0.49725110959E+02  0.00000000000E+00 0.  1.
          2    1    1    2  501    0  0.30118990923E+02  0.70291510865E+01  0.71249515888E+03  0.71316611950E+03  0.00000000000E+00 0. -1.
         21    1    1    2  503  501 -0.30118990923E+02 -0.70291510865E+01 -0.44547710560E+02  0.54231550737E+02  0.00000000000E+00 0.  1.
</event>
<event>
 4    1  0.2216341E+005  0.2759753E+02  0.7546771E-02  0.1441696E+00
          2   -1    0    0  503    0  0.00000000000E+00  0.00000000000E+00  0.10576744687E+02  0.10576744687E+02  0.00000000000E+00 0.  1.
         21   -1    0    0  501  502 -0.00000000000E+00 -0.00000000000E+00 -0.99187033594E+02  0.99187033594E+02  0.00000000000E+00 0.  1.
          2    1    1    2  501    0  0.24365083862E+02 -0.12960188910E+02 -0.15576948754E+02  0.31690142642E+02  0.00000000000E+00 0.  1.
         21    1    1    2  503  502 -0.24365083862E+02  0.12960188910E+02 -0.73033340153E+02  0.78073635640E+02  0.00000000000E+00 0.  1.
</event>
<event>
 4    1  0.2216341E+005  0.3381068E+02  0.7546771E-02  0.1389123E+00
          2   -1    0    0  502    0  0.00000000000E+00  0.00000000000E+00  0.44999943261E+02  0.44999943261E+02  0.00000000000E+00 0. -1.
         21   -1    0    0  503  502 -0.00000000000E+00 -0.00000000000E+00 -0.36082353463E+02  0.36082353463E+02  0.00000000000E+00 0.  1.
          2    1    1    2  501    0  0.33773988448E+02 -0.15747391116E+01  0.26513852790E+02  0.42966806825E+02  0.00000000000E+00 0. -1.
         21    1    1    2  503  501 -0.33773988448E+02  0.15747391116E+01 -0.17596262992E+02  0.38115489899E+02  0.00000000000E+00 0.  1.
</event>
<event>
 4    1  0.2216341E+005  0.2584944E+02  0.7546771E-02  0.1459521E+00
          2   -1    0    0  502    0  0.00000000000E+00  0.00000000000E+00  0.11241732774E+04  0.11241732774E+04  0.00000000000E+00 0. -1.
         21   -1    0    0  503  502 -0.00000000000E+00 -0.00000000000E+00 -0.13612649644E+01  0.13612649644E+01  0.00000000000E+00 0. -1.
          2    1    1    2  501    0 -0.67826173449E+01  0.24943728634E+02  0.98380293373E+03  0.98414247236E+03  0.00000000000E+00 0. -1.
         21    1    1    2  503  501  0.67826173449E+01 -0.24943728634E+02  0.13900907870E+03  0.14139206999E+03  0.00000000000E+00 0. -1.
</event>
<event>
 4    1  0.2216341E+005  0.2105348E+02  0.7546771E-02  0.1518502E+00
          2   -1    0    0  503    0  0.00000000000E+00  0.00000000000E+00  0.17600114950E+04  0.17600114950E+04  0.00000000000E+00 0.  1.
         21   -1    0    0  501  502 -0.00000000000E+00 -0.00000000000E+00 -0.60517590654E+00  0.60517590654E+00  0.00000000000E+00 0. -1.
          2    1    1    2  501    0 -0.38250811681E+01  0.20703091160E+02  0.15523469161E+04  0.15524896770E+04  0.00000000000E+00 0.  1.
         21    1    1    2  503  502  0.38250811681E+01 -0.20703091160E+02  0.20705940300E+03  0.20812699393E+03  0.00000000000E+00 0. -1.
</event>
<event>
 4    1  0.2216341E+005  0.3349330E+02  0.7546771E-02  0.1391477E+00
          2   -1    0    0  502    0  0.00000000000E+00  0.00000000000E+00  0.18747447476E+02  0.18747447476E+02  0.00000000000E+00 0. -1.
         21   -1    0    0  503  502 -0.00000000000E+00 -0.00000000000E+00 -0.53703107406E+03  0.53703107406E+03  0.00000000000E+00 0.  1.
          2    1    1    2  501    0 -0.30191357142E+02  0.14501149795E+02  0.28087427042E+01  0.33610867692E+02  0.00000000000E+00 0. -1.
         21    1    1    2  503  501  0.30191357142E+02 -0.14501149795E+02 -0.52109236929E+03  0.52216765385E+03  0.00000000000E+00 0.  1.
</event>
<event>
 4    1  0.2216341E+005  0.2610402E+02  0.7546771E-02  0.1456822E+00
          2   -1    0    0  503    0  0.00000000000E+00  0.00000000000E+00  0.18401895999E+04  0.18401895999E+04  0.00000000000E+00 0.  1.
         21   -1    0    0  501  502 -0.00000000000E+00 -0.00000000000E+00 -0.35431790598E+01  0.35431790598E+01  0.00000000000E+00 0.  1.
          2    1    1    2  501    0  0.19939904897E+02 -0.16846966207E+02  0.17906882836E+04  0.17908785411E+04  0.00000000000E+00 0.  1.
         21    1    1    2  503  502 -0.19939904897E+02  0.16846966207E+02  0.45958137262E+02  0.52854237846E+02  0.00000000000E+00 0.  1.
</event>
<event>
 4    1  0.2216341E+005  0.2298992E+02  0.7546771E-02  0.1492625E+00
          2   -1    0    0  502    0  0.00000000000E+00  0.00000000000E+00  0.94761464456E+03  0.94761464456E+03  0.00000000000E+00 0.  1.
         21   -1    0    0  503  502 -0.00000000000E+00 -0.00000000000E+00 -0.11170441438E+01  0.11170441438E+01  0.00000000000E+00 0. -1.
          2    1    1    2  501    0 -0.22924912414E+02 -0.17277232420E+01  0.80890641733E+03  0.80923304964E+03  0.00000000000E+00 0.  1.
         21    1    1    2  503  501  0.22924912414E+02  0.17277232420E+01  0.13759118309E+03  0.13949863907E+03  0.00000000000E+00 0. -1.
</event>
<event>
 4    1  0.2216341E+005  0.3331078E+02  0.7546771E-02  0.1392844E+00
          2   -1    0    0  502    0  0.00000000000E+00  0.00000000000E+00  0.10296277782E+02  0.10296277782E+02  0.00000000000E+00 0.  1.
         21   -1    0    0  503  502 -0.00000000000E+00 -0.00000000000E+00 -0.13851881319E+03  0.13851881319E+03  0.00000000000E+00 0. -1.
          2    1    1    2  501    0  0.20799807524E+02 -0.26018761011E+02 -0.29052889369E+02  0.44200433236E+02  0.00000000000E+00 0.  1.
         21    1    1    2  503  501 -0.20799807524E+02  0.26018761011E+02 -0.99169646038E+02  0.10461465773E+03  0.00000000000E+00 0. -1.
</event>
<event>
 4    1  0.2216341E+005  0.3884259E+02  0.7546771E-02  0.1355405E+00
          2   -1    0    0  503    0  0.00000000000E+00  0.00000000000E+00  0.10067372124E+03  0.10067372124E+03  0.00000000000E+00 0. -1.
         21   -1    0    0  501  502 -0.00000000000E+00 -0.00000000000E+00 -0.15182116883E+02  0.15182116883E+02  0.00000000000E+00 0. -1.
          2    1    1    2  501    0 -0.26975841330E+02  0.27947292589E+02  0.49321167861E+02  0.62779971151E+02  0.00000000000E+00 0. -1.
         21    1    1    2  503  502  0.26975841330E+02 -0.27947292589E+02  0.36170436495E+02  0.53075866971E+02  0.00000000000E+00 0. -1.
</event>
<event>
 4    1  0.2216341E+005  0.2507843E+02  0.7546771E-02  0.1467928E+00
          2   -1    0    0  502    0  0.00000000000E+00  0.00000000000E+00  0.28084997850E+03  0.28084997850E+03  0.00000000000E+00 0.  1.
         21   -1    0    0  503  502 -0.00000000000E+00 -0.00000000000E+00 -0.28918779568E+01  0.28918779568E+01  0.00000000000E+00 0. -1.
          2    1    1    2  501    0  0.22912168704E+02  0.10196080179E+02  0.20636909306E+03  0.20788730143E+03  0.00000000000E+00 0.  1.
         21    1    1    2  503  501 -0.22912168704E+02 -0.10196080179E+02  0.71589007477E+02  0.75854555020E+02  0.00000000000E+00 0. -1.
</event>
<event>
 4    1  0.2216341E+005  0.4218632E+02  0.7546771E-02  0.1336129E+00
          2   -1    0    0  503    0  0.00000000000E+00  0.00000000000E+00  0.59622085649E+02  0.59622085649E+02  0.00000000000E+00 0.  1.
         21   -1    0    0  501  502 -0.00000000000E+00 -0.00000000000E+00 -0.32973554197E+02  0.32973554197E+02  0.00000000000E+00 0.  1.
          2    1    1    2  501    0 -0.32933702966E+02  0.26363936638E+02  0.27575123964E+02  0.50399140942E+02  0.00000000000E+00 0.  1.
         21    1    1    2  503  502  0.32933702966E+02 -0.26363936638E+02 -0.92659251219E+00  0.42196498904E+02  0.00000000000E+00 0.  1.
</event>
<event>
 4    1  0.2216341E+005  0.2402712E+02  0.7546771E-02  0.1479988E+00
          2   -1    0    0  503    0  0.00000000000E+00  0.00000000000E+00  0.11977415125E+03  0.11977415125E+03  0.00000000000E+00 0.  1.
         21   -1    0    0  501  502 -0.00000000000E+00 -0.00000000000E+00 -0.14468517136E+02  0.14468517136E+02  0.00000000000E+00 0. -1.
          2    1    1    2  501    0  0.12889174427E+02 -0.20277371293E+02  0.10746543053E+03  0.11011866946E+03  0.00000000000E+00 0.  1.
         21    1    1    2  503  502 -0.12889174427E+02  0.20277371293E+02 -0.21597964117E+01  0.24123998933E+02  0.00000000000E+00 0. -1.
</event>
<event>
 4    1  0.2216341E+005  0.2248160E+02  0.7546771E-02  0.1499112E+00
          2   -1    0    0  503    0  0.00000000000E+00  0.00000000000E+00  0.94445836813E+03  0.94445836813E+03  0.00000000000E+00 0. -1.
         21   -1    0    0  501  502 -0.00000000000E+00 -0.00000000000E+00 -0.59274537658E+00  0.59274537658E+00  0.00000000000E+00 0. -1.
          2    1    1    2  501    0  0.88238133920E+01 -0.20677592935E+02  0.61923270851E+03  0.61964067799E+03  0.00000000000E+00 0. -1.
         21    1    1    2  503  502 -0.88238133920E+01  0.20677592935E+02  0.32463291425E+03  0.32541043552E+03  0.00000000000E+00 0. -1.
</event>
<event>
 4    1  0.2216341E+005  0.2041619E+02  0.7546771E-02  0.1527766E+00
          2   -1    0    0  503    0  0.00000000000E+00  0.00000000000E+00  0.89257901011E+03  0.89257901011E+03  0.00000000000E+00 0. -1.
         21   -1    0    0  501  502 -0.00000000000E+00 -0.00000000000E+00 -0.61702323053E+00  0.61702323053E+00  0.00000000000E+00 0.  1.
          2    1    1    2  501    0  0.17129116366E+02 -0.11109186739E+02  0.66620647549E+03  0.66651923351E+03  0.00000000000E+00 0. -1.
         21    1    1    2  503  502 -0.17129116366E+02  0.11109186739E+02  0.22575551139E+03  0.22667679983E+03  0.00000000000E+00 0.  1.
</event>
<event>
 4    1  0.2216341E+005  0.2355498E+02  0.7546771E-02  0.1485644E+00
          2   -1    0    0  503    0  0.00000000000E+00  0.00000000000E+00  0.56153051143E+03  0.56153051143E+03  0.00000000000E+00 0. -1.
         21   -1    0    0  501  502 -0.00000000000E+00 -0.00000000000E+00 -0.99255468122E+00  0.99255468122E+00  0.00000000000E+00 0. -1.
          2    1    1    2  501    0  0.54848745456E+01  0.22907491988E+02  0.29915396767E+03  0.30007987839E+03  0.00000000000E+00 0. -1.
         21    1    1    2  503  502 -0.54848745456E+01 -0.22907491988E+02  0.26138398907E+03  0.26244318772E+03  0.00000000000E+00 0. -1.
</event>
<event>
 4    1  0.2216341E+005  0.2075188E+02  0.7546771E-02  0.1522837E+00
          2   -1    0    0  502    0  0.00000000000E+00  0.00000000000E+00  0.42308198613E+03  0.42308198613E+03  0.00000000000E+00 0.  1.
         21   -1    0    0  503  502 -0.00000000000E+00 -0.00000000000E+00 -0.17272023056E+02  0.17272023056E+02  0.00000000000E+00 0. -1.
          2    1    1    2  501    0  0.98347151354E+01 -0.18273447483E+02  0.41649580435E+03  0.41701246449E+03  0.00000000000E+00 0.  1.
         21    1    1    2  503  501 -0.98347151354E+01  0.18273447483E+02 -0.10685841276E+02  0.23341544689E+02  0.00000000000E+00 0. -1.
</event>
<event>
 4    1  0.2216341E+005  0.4100801E+02  0.7546771E-02  0.1342678E+00
          2   -1    0    0  503    0  0.00000000000E+00  0.00000000000E+00  0.56309936777E+03  0.56309936777E+03  0.00000000000E+00 0. -1.
         21   -1    0    0  501  502 -0.00000000000E+00 -0.00000000000E+00 -0.71123781704E+02  0.71123781704E+02  0.00000000000E+00 0.  1.
          2    1    1    2  501    0 -0.49853722018E+01  0.40703846014E+02  0.55637034392E+03  0.55787957178E+03  0.00000000000E+00 0. -1.
         21    1    1    2  503  502  0.49853722018E+01 -0.40703846014E+02 -0.64394757852E+02  0.76343577694E+02  0.00000000000E+00 0.  1.
</event>
<event>
 4    1  0.2216341E+005  0.2143564E+02  0.7546771E-02  0.1513135E+00
          2   -1    0    0  502    0  0.00000000000E+00  0.00000000000E+00  0.92633266306E+03  0.92633266306E+03  0.00000000000E+00 0. -1.
         21   -1    0    0  503  502 -0.00000000000E+00 -0.00000000000E+00 -0.16709710510E+01  0.16709710510E+01  0.00000000000E+00 0.  1.
          2    1    1    2  501    0  0.15648559716E+02 -0.14649549360E+02  0.85141511371E+03  0.85168490803E+03  0.00000000000E+00 0. -1.
         21    1    1    2  503  501 -0.15648559716E+02  0.14649549360E+02  0.73246578299E+02  0.76318726078E+02  0.00000000000E+00 0.  1.
</event>
<event>
 4    1  0.2216341E+005  0.2870252E+02  0.7546771E-02  0.1431217E+00
          2   -1    0    0  503    0  0.00000000000E+00  0.00000000000E+00  0.38387178995E+02  0.38387178995E+02  0.00000000000E+00 0. -1.
         21   -1    0    0  501  502 -0.00000000000E+00 -0.00000000000E+00 -0.99848412974E+02  0.99848412974E+02  0.00000000000E+00 0.  1.
          2    1    1    2  501    0  0.23190860781E+02 -0.16912091226E+02  0.30510332405E+02  0.41889321275E+02  0.00000000000E+00 0. -1.
         21    1    1    2  503  502 -0.23190860781E+02  0.16912091226E+02 -0.91971566384E+02  0.96346270694E+02  0.00000000000E+00 0.  1.
</event>
<event>
 4    1  0.2216341E+005  0.2329820E+02  0.7546771E-02  0.1488787E+00
          2   -1    0    0  502    0  0.00000000000E+00  0.00000000000E+00  0.16793392877E+04  0.16793392877E+04  0.00000000000E+00 0.  1.
         21   -1    0    0  503  502 -0.00000000000E+00 -0.00000000000E+00 -0.54368512660E+00  0.54368512660E+00  0.00000000000E+00 0. -1.
          2    1    1    2  501    0  0.12177379965E+02 -0.19862468894E+02  0.13742567541E+04  0.13744542308E+04  0.00000000000E+00 0.  1.
         21    1    1    2  503  501 -0.12177379965E+02  0.19862468894E+02  0.30453884847E+03  0.30542874207E+03  0.00000000000E+00 0. -1.
</event>
<event>
 4    1  0.2216341E+005  0.2930725E+02  0.7546771E-02  0.1425713E+00
          2   -1    0    0  503    0  0.00000000000E+00  0.00000000000E+00  0.19083260591E+04  0.19083260591E+04  0.00000000000E+00 0. -1.
         21   -1    0    0  501  502 -0.00000000000E+00 -0.00000000000E+00 -0.77402240374E+00  0.77402240374E+00  0.00000000000E+00 0.  1.
          2    1    1    2  501    0  0.19926571409E+02 -0.21490615806E+02  0.15712951503E+04  0.15715684408E+04  0.00000000000E+00 0. -1.
         21    1    1    2  503  502 -0.19926571409E+02  0.21490615806E+02  0.33625688645E+03  0.33753164074E+03  0.00000000000E+00 0.  1.
</event>
<event>
 4    1  0.2216341E+005  0.3580863E+02  0.7546771E-02  0.1374966E+00
          2   -1    0    0  503    0  0.00000000000E+00  0.00000000000E+00  0.87148794026E+00  0.87148794026E+00  0.00000000000E+00 0.  1.
         21   -1    0    0  501  502 -0.00000000000E+00 -0.00000000000E+00 -0.15768386087E+04  0.15768386087E+04  0.00000000000E+00 0.  1.
          2    1    1    2  501    0 -0.28350945395E+02 -0.21874229179E+02 -0.58394135602E+03  0.58503825967E+03  0.00000000000E+00 0.  1.
         21    1    1    2  503  502  0.28350945395E+02  0.21874229179E+02 -0.99202576477E+03  0.99267183700E+03  0.00000000000E+00 0.  1.
</event>
<event>
 4    1  0.2216341E+005  0.3052140E+02  0.7546771E-02  0.1415119E+00
          2   -1    0    0  503    0  0.00000000000E+00  0.00000000000E+00  0.21348033637E+03  0.21348033637E+03  0.00000000000E+00 0.  1.
         21   -1    0    0  501  502 -0.00000000000E+00 -0.00000000000E+00 -0.13277038781E+02  0.13277038781E+02  0.00000000000E+00 0.  1.
          2    1    1    2  501    0  0.96521057681E+01 -0.28955011922E+02  0.19299870792E+03  0.19539717787E+03  0.00000000000E+00 0.  1.
         21    1    1    2  503  502 -0.96521057681E+01  0.28955011922E+02  0.72045896699E+01  0.31360197281E+02  0.00000000000E+00 0.  1.
</event>
<event>
 4    1  0.2216341E+005  0.3505739E+02  0.7546771E-02  0.1380160E+00
          2   -1    0    0  502    0  0.00000000000E+00  0.00000000000E+00  0.32308419592E+03  0.32308419592E+03  0.00000000000E+00 0. -1.
         21   -1    0    0  503  502 -0.00000000000E+00 -0.00000000000E+00 -0.21241226720E+02  0.21241226720E+02  0.00000000000E+00 0. -1.
          2    1    1    2  501    0  0.34857248790E+02 -0.37407243325E+01  0.30690822207E+03  0.30890399412E+03  0.00000000000E+00 0. -1.
         21    1    1    2  503  501 -0.34857248790E+02  0.37407243325E+01 -0.50652528666E+01  0.35421428519E+02  0.00000000000E+00 0. -1.
</event>
<event>
 4    1  0.2216341E+005  0.2515493E+02  0.7546771E-02  0.1467078E+00
          2   -1    0    0  503    0  0.00000000000E+00  0.00000000000E+00  0.16113670258E+03  0.16113670258E+03  0.00000000000E+00 0.  1.
         21   -1    0    0  501  502 -0.00000000000E+00 -0.00000000000E+00 -0.49700518407E+01  0.49700518407E+01  0.00000000000E+00 0. -1.
          2    1    1    2  501    0 -0.15867774852E+02 -0.19518814179E+02  0.11613266772E+03  0.11882578380E+03  0.00000000000E+00 0.  1.
         21    1    1    2  503  502  0.15867774852E+02  0.19518814179E+02  0.40033983020E+02  0.47280970613E+02  0.00000000000E+00 0. -1.
</event>
<event>
 4    1  0.2216341E+005  0.4675896E+02  0.7546771E-02  0.1312871E+00
          2   -1    0    0  502    0  0.00000000000E+00  0.00000000000E+00  0.94481162359E+01  0.94481162359E+01  0.00000000000E+00 0.  1.
         21   -1    0    0  503  502 -0.00000000000E+00 -0.00000000000E+00 -0.49126273077E+03  0.49126273077E+03  0.00000000000E+00 0. -1.
          2    1    1    2  501    0  0.46100489967E+02 -0.78195588070E+01 -0.58827129938E+02  0.75146735737E+02  0.00000000000E+00 0.  1.
         21    1    1    2  503  501 -0.46100489967E+02  0.78195588070E+01 -0.42298748460E+03  0.42556411127E+03  0.00000000000E+00 0. -1.
</event>
<event>
 4    1  0.2216341E+005  0.2836846E+02  0.7546771E-02  0.1434326E+00
          2   -1    0    0  503    0  0.00000000000E+00  0.00000000000E+00  0.15549080470E+02  0.15549080470E+02  0.00000000000E+00 0.  1.
         21   -1    0    0  501  502 -0.00000000000E+00 -0.00000000000E+00 -0.12608254869E+03  0.12608254869E+03  0.00000000000E+00 0.  1.
          2    1    1    2  501    0 -0.23006475265E+01 -0.28275011463E+02 -0.89506390011E+00  0.28382571971E+02  0.00000000000E+00 0.  1.
         21    1    1    2  503  502  0.23006475265E+01  0.28275011463E+02 -0.10963840432E+03  0.11324905719E+03  0.00000000000E+00 0.  1.
</event>
<event>
 4    1  0.2216341E+005  0.2380826E+02  0.7546771E-02  0.1482591E+00
          2   -1    0    0  503    0  0.00000000000E+00  0.00000000000E+00  0.23418316701E+03  0.23418316701E+03  0.00000000000E+00 0.  1.
         21   -1    0    0  501  502 -0.00000000000E+00 -0.00000000000E+00 -0.63936184829E+01  0.63936184829E+01  0.00000000000E+00 0.  1.
          2    1    1    2  501    0 -0.22131143427E+02 -0.87775564937E+01  0.20871867928E+03  0.21007217828E+03  0.00000000000E+00 0.  1.
         21    1    1    2  503  502  0.22131143427E+02  0.87775564937E+01  0.19070869250E+02  0.30504607215E+02  0.00000000000E+00 0.  1.
</event>
<event>
 4    1  0.2216341E+005  0.2517304E+02  0.7546771E-02  0.1466877E+00
          2   -1    0    0  502    0  0.00000000000E+00  0.00000000000E+00  0.73055340509E+03  0.73055340509E+03  0.00000000000E+00 0.  1.
         21   -1    0    0  503  502 -0.00000000000E+00 -0.00000000000E+00 -0.88595751318E+00  0.88595751318E+00  0.00000000000E+00 0.  1.
          2    1    1    2  501    0  0.15802690777E+02 -0.19594823417E+02  0.31190396672E+03  0.31291814680E+03  0.00000000000E+00 0.  1.
         21    1    1    2  503  501 -0.15802690777E+02  0.19594823417E+02  0.41776348086E+03  0.41852121581E+03  0.00000000000E+00 0.  1.
</event>
<event>
 4    1  0.2216341E+005  0.3184048E+02  0.7546771E-02  0.1404249E+00
          2   -1    0    0  502    0  0.00000000000E+00  0.00000000000E+00  0.33745441333E+03  0.33745441333E+03  0.00000000000E+00 0. -1.
         21   -1    0    0  503  502 -0.00000000000E+00 -0.00000000000E+00 -0.70962729304E+01  0.70962729304E+01  0.00000000000E+00 0. -1.
          2    1    1    2  501    0 -0.31729956987E+02  0.26506688607E+01  0.29599903927E+03  0.29770664666E+03  0.00000000000E+00 0. -1.
         21    1    1    2  503  501  0.31729956987E+02 -0.26506688607E+01  0.34359101129E+02  0.46844039602E+02  0.00000000000E+00 0. -1.
</event>
<event>
 4    1  0.2216341E+005  0.2031752E+02  0.7546771E-02  0.1529236E+00
          2   -1    0    0  503    0  0.00000000000E+00  0.00000000000E+00  0.23234087508E+03  0.23234087508E+03  0.00000000000E+00 0. -1.
         21   -1    0    0  501  502 -0.00000000000E+00 -0.00000000000E+00 -0.56500135477E+01  0.56500135477E+01  0.00000000000E+00 0. -1.
          2    1    1    2  501    0  0.15135081209E+02 -0.13554740906E+02  0.21187044795E+03  0.21284240273E+03  0.00000000000E+00 0. -1.
         21    1    1    2  503  502 -0.15135081209E+02  0.13554740906E+02  0.14820413578E+02  0.25148485896E+02  0.00000000000E+00 0. -1.
</event>
<event>
 4    1  0.2216341E+005  0.3805288E+02  0.7546771E-02  0.1360290E+00
          2   -1    0    0  503    0  0.00000000000E+00  0.00000000000E+00  0.70220475221E+02  0.70220475221E+02  0.00000000000E+00 0. -1.
         21   -1    0    0  501  502 -0.00000000000E+00 -0.00000000000E+00 -0.39717530793E+02  0.39717530793E+02  0.00000000000E+00 0. -1.
          2    1    1    2  501    0  0.30108330236E+02 -0.23270377853E+02  0.53367099278E+02  0.65544407240E+02  0.00000000000E+00 0. -1.
         21    1    1    2  503  502 -0.30108330236E+02  0.23270377853E+02 -0.22864154850E+02  0.44393598774E+02  0.00000000000E+00 0. -1.
</event>
<event>
 4    1  0.2216341E+005  0.3077031E+02  0.7546771E-02  0.1413018E+00
          2   -1    0    0  503    0  0.00000000000E+00  0.00000000000E+00  0.70582098264E+03  0.70582098264E+03  0.00000000000E+00 0. -1.
         21   -1    0    0  501  502 -0.00000000000E+00 -0.00000000000E+00 -0.49946793814E+01  0.49946793814E+01  0.00000000000E+00 0.  1.
          2    1    1    2  501    0 -0.76611459401E+01 -0.29801317942E+02  0.65437050470E+03  0.65509355754E+03  0.00000000000E+00 0. -1.
         21    1    1    2  503  502  0.76611459401E+01  0.29801317942E+02  0.46455798558E+02  0.55722104481E+02  0.00000000000E+00 0.  1.
</event>
<event>
 4    1  0.2216341E+005  0.2116415E+02  0.7546771E-02  0.1516934E+00
          2   -1    0    0  503    0  0.00000000000E+00  0.00000000000E+00  0.15083281240E+04  0.15083281240E+04  0.00000000000E+00 0.  1.
         21   -1    0    0  501  502 -0.00000000000E+00 -0.00000000000E+00 -0.14032199788E+01  0.14032199788E+01  0.00000000000E+00 0. -1.
          2    1    1    2  501    0 -0.17917422943E+02 -0.11264421750E+02  0.14237086202E+04  0.14238659194E+04  0.00000000000E+00 0.  1.
         21    1    1    2  503  502  0.17917422943E+02  0.11264421750E+02  0.83216283805E+02  0.85865424547E+02  0.00000000000E+00 0. -1.
</event>
<event>
 4    1  0.2216341E+005  0.2078877E+02  0.7546771E-02  0.1522302E+00
          2   -1    0    0  502    0  0.00000000000E+00  0.00000000000E+00  0.15804355612E+04  0.15804355612E+04  0.00000000000E+00 0. -1.
         21   -1    0    0  503  502 -0.00000000000E+00 -0.00000000000E+00 -0.59512882809E+00  0.59512882809E+00  0.00000000000E+00 0.  1.
          2    1    1    2  501    0  0.17986092563E+02  0.10424655135E+02  0.13711057953E+04  0.13712633864E+04  0.00000000000E+00 0. -1.
         21    1    1    2  503  501 -0.17986092563E+02 -0.10424655135E+02  0.20873463713E+03  0.20976730369E+03  0.00000000000E+00 0.  1.
</event>
<event>
 4    1  0.2216341E+005  0.2168280E+02  0.7546771E-02  0.1509735E+00
          2   -1    0    0  502    0  0.00000000000E+00  0.00000000000E+00  0.12362081662E+04  0.12362081662E+04  0.00000000000E+00 0. -1.
         21   -1    0    0  503  502 -0.00000000000E+00 -0.00000000000E+00 -0.63281717366E+01  0.63281717366E+01  0.00000000000E+00 0. -1.
          2    1    1    2  501    0  0.20572097498E+02 -0.68507519158E+01  0.12172503907E+04  0.12174434926E+04  0.00000000000E+00 0. -1.
         21    1    1    2  503  501 -0.20572097498E+02  0.68507519158E+01  0.12629603806E+02  0.25092845387E+02  0.00000000000E+00 0. -1.
</event>
<event>
 4    1  0.2216341E+005  0.3170681E+02  0.7546771E-02  0.1405322E+00
          2   -1    0    0  503    0  0.00000000000E+00  0.00000000000E+00  0.12143033356E+04  0.12143033356E+04  0.00000000000E+00 0.  1.
         21   -1    0    0  501  502 -0.00000000000E+00 -0.00000000000E+00 -0.16209190824E+01  0.16209190824E+01  0.00000000000E+00 0. -1.
          2    1    1    2  501    0 -0.31654634660E+02  0.18182014800E+01  0.10315846973E+04  0.10320718528E+04  0.00000000000E+00 0.  1.
         21    1    1    2  503  502  0.31654634660E+02 -0.18182014800E+01  0.18109771926E+03  0.18385240187E+03  0.00000000000E+00 0. -1.
</event>
<event>
 4    1  0.2216341E+005  0.3180817E+02  0.7546771E-02  0.1404508E+00
          2   -1    0    0  502    0  0.00000000000E+00  0.00000000000E+00  0.98482356067E+03  0.98482356067E+03  0.00000000000E+00 0.  1.
         21   -1    0    0  503  502 -0.00000000000E+00 -0.00000000000E+00 -0.19311080063E+01  0.19311080063E+01  0.00000000000E+00 0. -1.
          2    1    1    2  501    0  0.81422803864E+01  0.30748381988E+02  0.82896791746E+03  0.82957794565E+03  0.00000000000E+00 0.  1.
         21    1    1    2  503  501 -0.81422803864E+01 -0.30748381988E+02  0.15392453521E+03  0.15717672303E+03  0.00000000000E+00 0. -1.
</event>
<event>
 4    1  0.2216341E+005  0.2239345E+02  0.7546771E-02  0.1500258E+00
          2   -1    0    0  503    0  0.00000000000E+00  0.00000000000E+00  0.23001587002E+02  0.23001587002E+02  0.00000000000E+00 0.  1.
         21   -1    0    0  501  502 -0.00000000000E+00 -0.00000000000E+00 -0.22612928332E+03  0.22612928332E+03  0.00000000000E+00 0.  1.
          2    1    1    2  501    0 -0.20804742057E+02  0.82842876208E+01  0.16844676067E+02  0.28021595694E+02  0.00000000000E+00 0.  1.
         21    1    1    2  503  502  0.20804742057E+02 -0.82842876208E+01 -0.21997237238E+03  0.22110927462E+03  0.00000000000E+00 0.  1.
</event>
<event>
 4    1  0.2216341E+005  0.4035463E+02  0.7546771E-02  0.1346420E+00
          2   -1    0    0  503    0  0.00000000000E+00  0.00000000000E+00  0.17194012349E+04  0.17194012349E+04  0.00000000000E+00 0.  1.
         21   -1    0    0  501  502 -0.00000000000E+00 -0.00000000000E+00 -0.24598539092E+01  0.24598539092E+01  0.00000000000E+00 0.  1.
          2    1    1    2  501    0 -0.36516239343E+02 -0.17177320931E+02  0.15336098951E+04  0.15341407388E+04  0.00000000000E+00 0.  1.
         21    1    1    2  503  502  0.36516239343E+02  0.17177320931E+02  0.18333148597E+03  0.18772035009E+03  0.00000000000E+00 0.  1.
</event>
<event>
 4    1  0.2216341E+005  0.2288074E+02  0.7546771E-02  0.1494001E+00
          2   -1    0    0  502    0  0.00000000000E+00  0.00000000000E+00  0.18303608521E+03  0.18303608521E+03  0.00000000000E+00 0.  1.
         21   -1    0    0  503  502 -0.00000000000E+00 -0.00000000000E+00 -0.71595888214E+02  0.71595888214E+02  0.00000000000E+00 0.  1.
          2    1    1    2  501    0  0.51461825654E+01 -0.22294506711E+02  0.18046703727E+03  0.18191173619E+03  0.00000000000E+00 0.  1.
         21    1    1    2  503  501 -0.51461825654E+01  0.22294506711E+02 -0.69026840273E+02  0.72720237229E+02  0.00000000000E+00 0.  1.
</event>
<event>
 4    1  0.2216341E+005  0.3982229E+02  0.7546771E-02  0.1349530E+00
          2   -1    0    0  503    0  0.00000000000E+00  0.00000000000E+00  0.89596527115E+03  0.89596527115E+03  0.00000000000E+00 0.  1.
         21   -1    0    0  501  502 -0.00000000000E+00 -0.00000000000E+00 -0.77413940301E+01  0.77413940301E+01  0.00000000000E+00 0. -1.
          2    1    1    2  501    0 -0.39463818894E+02  0.53311765107E+01  0.84096301002E+03  0.84190533830E+03  0.00000000000E+00 0.  1.
         21    1    1    2  503  502  0.39463818894E+02 -0.53311765107E+01  0.47260867106E+02  0.61801326881E+02  0.00000000000E+00 0. -1.
</event>
<event>
 4    1  0.2216341E+005  0.2466130E+02  0.7546771E-02  0.1472628E+00
          2   -1    0    0  502    0  0.00000000000E+00  0.00000000000E+00  0.11246559528E+04  0.11246559528E+04  0.00000000000E+00 0.  1.
         21   -1    0    0  503  502 -0.00000000000E+00 -0.00000000000E+00 -0.23320480021E+02  0.23320480021E+02  0.00000000000E+00 0.  1.
          2    1    1    2  501    0 -0.90358828384E+00 -0.24644743623E+02  0.11179619221E+04  0.11182338929E+04  0.00000000000E+00 0.  1.
         21    1    1    2  503  501  0.90358828384E+00  0.24644743623E+02 -0.16626449393E+02  0.29742539896E+02  0.00000000000E+00 0.  1.
</event>
<event>
 4    1  0.2216341E+005  0.4439600E+02  0.7546771E-02  0.1324487E+00
          2   -1    0    0  502    0  0.00000000000E+00  0.00000000000E+00  0.54930114070E+03  0.54930114070E+03  0.00000000000E+00 0. -1.
         21   -1    0    0  503  502 -0.00000000000E+00 -0.00000000000E+00 -0.37472608900E+01  0.37472608900E+01  0.00000000000E+00 0. -1.
          2    1    1    2  501    0 -0.32914195434E+02 -0.29793633445E+02  0.32974765449E+03  0.33272288845E+03  0.00000000000E+00 0. -1.
         21    1    1    2  503  501  0.32914195434E+02  0.29793633445E+02  0.21580622532E+03  0.22032551314E+03  0.00000000000E+00 0. -1.
</event>
<event>
 4    1  0.2216341E+005  0.2045385E+02  0.7546771E-02  0.1527207E+00
          2   -1    0    0  502    0  0.00000000000E+00  0.00000000000E+00  0.16287592633E+03  0.16287592633E+03  0.00000000000E+00 0.  1.
         21   -1    0    0  503  502 -0.00000000000E+00 -0.00000000000E+00 -0.10338787954E+03  0.10338787954E+03  0.00000000000E+00 0.  1.
          2    1    1    2  501    0 -0.20451356107E+02  0.31914821885E+00  0.16121175328E+03  0.16250412062E+03  0.00000000000E+00 0.  1.
         21    1    1    2  503  501  0.20451356107E+02 -0.31914821885E+00 -0.10172370649E+03  0.10375968525E+03  0.00000000000E+00 0.  1.
</event>
<event>
 4    1  0.2216341E+005  0.3623627E+02  0.7546771E-02  0.1372074E+00
          2   -1    0    0  502    0  0.00000000000E+00  0.00000000000E+00  0.48958692666E+03  0.48958692666E+03  0.00000000000E+00 0.  1.
         21   -1    0    0  503  502 -0.00000000000E+00 -0.00000000000E+00 -0.90260934686E+01  0.90260934686E+01  0.00000000000E+00 0.  1.
          2    1    1    2  501    0 -0.34746538549E+02  0.10283248287E+02  0.44929127171E+03  0.45075016802E+03  0.00000000000E+00 0.  1.
         21    1    1    2  503  501  0.34746538549E+02 -0.10283248287E+02  0.31269561477E+02  0.47862852103E+02  0.00000000000E+00 0.  1.
</event>
<event>
 4    1  0.2216341E+005  0.3234246E+02  0.7546771E-02  0.1400275E+00
          2   -1    0    0  503    0  0.00000000000E+00  0.00000000000E+00  0.20936297113E+04  0.20936297113E+04  0.00000000000E+00 0.  1.
         21   -1    0    0  501  502 -0.00000000000E+00 -0.00000000000E+00 -0.54489591301E+02  0.54489591301E+02  0.00000000000E+00 0.  1.
          2    1    1    2  501    0 -0.21491943658E+02 -0.24168805238E+02  0.20886942234E+04  0.20889446124E+04  0.00000000000E+00 0.  1.
         21    1    1    2  503  502  0.21491943658E+02  0.24168805238E+02 -0.49554103439E+02  0.59174690168E+02  0.00000000000E+00 0.  1.
</event>
<event>
 4    1  0.2216341E+005  0.2385508E+02  0.7546771E-02  0.1482031E+00
          2   -1    0    0  502    0  0.00000000000E+00  0.00000000000E+00  0.13968223062E+03  0.13968223062E+03  0.00000000000E+00 0.  1.
         21   -1    0    0  503  502 -0.00000000000E+00 -0.00000000000E+00 -0.67245440682E+01  0.67245440682E+01  0.00000000000E+00 0.  1.
          2    1    1    2  501    0  0.18743524544E+02 -0.14756194190E+02  0.11243752061E+03  0.11494024979E+03  0.00000000000E+00 0.  1.
         21    1    1    2  503  501 -0.18743524544E+02  0.14756194190E+02  0.20520165942E+02  0.31466524905E+02  0.00000000000E+00 0.  1.
</event>
<event>
 4    1  0.2216341E+005  0.9762713E+02  0.7546771E-02  0.1167984E+00
          2   -1    0    0  503    0  0.00000000000E+00  0.00000000000E+00  0.49244636045E+03  0.49244636045E+03  0.00000000000E+00 0. -1.
         21   -1    0    0  501  502 -0.00000000000E+00 -0.00000000000E+00 -0.34543143760E+02  0.34543143760E+02  0.00000000000E+00 0.  1.
          2    1    1    2  501    0  0.30760593897E+02 -0.92654424612E+02  0.40367475312E+03  0.41531236779E+03  0.00000000000E+00 0. -1.
         21    1    1    2  503  502 -0.30760593897E+02  0.92654424612E+02  0.54228463574E+02  0.11167713642E+03  0.00000000000E+00 0.  1.
</event>
<event>
 4    1  0.2216341E+005  0.4175549E+02  0.7546771E-02  0.1338495E+00
          2   -1    0    0  503    0  0.00000000000E+00  0.00000000000E+00  0.45683233803E+02  0.45683233803E+02  0.00000000000E+00 0.  1.
         21   -1    0    0  501  502 -0.00000000000E+00 -0.00000000000E+00 -0.38296626304E+02  0.38296626304E+02  0.00000000000E+00 0.  1.
          2    1    1    2  501    0  0.27492036356E+02  0.31427837458E+02  0.12357792789E+01  0.41773773839E+02  0.00000000000E+00 0.  1.
         21    1    1    2  503  502 -0.27492036356E+02 -0.31427837458E+02  0.61508282201E+01  0.42206086268E+02  0.00000000000E+00 0.  1.
</event>
<event>
 4    1  0.2216341E+005  0.3228752E+02  0.7546771E-02  0.1400706E+00
          2   -1    0    0  503    0  0.00000000000E+00  0.00000000000E+00  0.81626354137E+03  0.81626354137E+03  0.00000000000E+00 0.  1.
         21   -1    0    0  501  502 -0.00000000000E+00 -0.00000000000E+00 -0.11855124447E+04  0.11855124447E+04  0.00000000000E+00 0.  1.
          2    1    1    2  501    0 -0.11802927407E+02 -0.30052866768E+02  0.81572427252E+03  0.81636301525E+03  0.00000000000E+00 0.  1.
         21    1    1    2  503  502  0.11802927407E+02  0.30052866768E+02 -0.11849731758E+04  0.11854129708E+04  0.00000000000E+00 0.  1.
</event>
<event>
 4    1  0.2216341E+005  0.2345628E+02  0.7546771E-02  0.1486847E+00
          2   -1    0    0  503    0  0.00000000000E+00  0.00000000000E+00  0.14760153522E+04  0.14760153522E+04  0.00000000000E+00 0.  1.
         21   -1    0    0  501  502 -0.00000000000E+00 -0.00000000000E+00 -0.22751051398E+01  0.22751051398E+01  0.00000000000E+00 0.  1.
          2    1    1    2  501    0 -0.60056744841E+01 -0.22674416136E+02  0.14127567752E+04  0.14129514865E+04  0.00000000000E+00 0.  1.
         21    1    1    2  503  502  0.60056744841E+01  0.22674416136E+02  0.60983471887E+02  0.65338970886E+02  0.00000000000E+00 0.  1.
</event>
<event>
 4    1  0.2216341E+005  0.3751892E+02  0.7546771E-02  0.1363672E+00
          2   -1    0    0  503    0  0.00000000000E+00  0.00000000000E+00  0.19000958449E+03  0.19000958449E+03  0.00000000000E+00 0. -1.
         21   -1    0    0  501  502 -0.00000000000E+00 -0.00000000000E+00 -0.82719705068E+01  0.82719705068E+01  0.00000000000E+00 0. -1.
          2    1    1    2  501    0  0.35499998125E+02 -0.12141655012E+02  0.12290148356E+03  0.12850075609E+03  0.00000000000E+00 0. -1.
         21    1    1    2  503  502 -0.35499998125E+02  0.12141655012E+02  0.58836130414E+02  0.69780798902E+02  0.00000000000E+00 0. -1.
</event>
<event>
 4    1  0.2216341E+005  0.2854348E+02  0.7546771E-02  0.1432691E+00
          2   -1    0    0  503    0  0.00000000000E+00  0.00000000000E+00  0.86437742651E+03  0.86437742651E+03  0.00000000000E+00 0. -1.
         21   -1    0    0  501  502 -0.00000000000E+00 -0.00000000000E+00 -0.27019617631E+02  0.27019617631E+02  0.00000000000E+00 0. -1.
          2    1    1    2  501    0 -0.99157616603E-02 -0.28543474934E+02  0.85653445970E+03  0.85700992452E+03  0.00000000000E+00 0. -1.
         21    1    1    2  503  502  0.99157616603E-02  0.28543474934E+02 -0.19176650821E+02  0.34387119629E+02  0.00000000000E+00 0. -1.
</event>
<event>
 4    1  0.2216341E+005  0.2023565E+02  0.7546771E-02  0.1530463E+00
          2   -1    0    0  503    0  0.00000000000E+00  0.00000000000E+00  0.37952529920E+03  0.37952529920E+03  0.00000000000E+00 0.  1.
         21   -1    0    0  501  502 -0.00000000000E+00 -0.00000000000E+00 -0.51135703314E+01  0.51135703314E+01  0.00000000000E+00 0.  1.
          2    1    1    2  501    0  0.14674704704E+02  0.13933218104E+02  0.35803558411E+03  0.35860697291E+03  0.00000000000E+00 0.  1.
         21    1    1    2  503  502 -0.14674704704E+02 -0.13933218104E+02  0.16376144753E+02  0.26031896624E+02  0.00000000000E+00 0.  1.
</event>
<event>
 4    1  0.2216341E+005  0.2870508E+02  0.7546771E-02  0.1431193E+00
          2   -1    0    0  503    0  0.00000000000E+00  0.00000000000E+00  0.25751909765E+02  0.25751909765E+02  0.00000000000E+00 0.  1.
         21   -1    0    0  501  502 -0.00000000000E+00 -0.00000000000E+00 -0.94598946658E+02  0.94598946658E+02  0.00000000000E+00 0. -1.
          2    1    1    2  501    0 -0.24318371335E+02  0.15251169669E+02  0.14528465121E+02  0.32172312000E+02  0.00000000000E+00 0.  1.
         21    1    1    2  503  502  0.24318371335E+02 -0.15251169669E+02 -0.83375502013E+02  0.88178544423E+02  0.00000000000E+00 0. -1.
</event>
<event>
 4    1  0.2216341E+005  0.2495645E+02  0.7546771E-02  0.1469291E+00
          2   -1    0    0  503    0  0.00000000000E+00  0.00000000000E+00  0.15210392912E+03  0.15210392912E+03  0.00000000000E+00 0.  1.
         21   -1    0    0  501  502 -0.00000000000E+00 -0.00000000000E+00 -0.87536828453E+01  0.87536828453E+01  0.00000000000E+00 0.  1.
          2    1    1    2  501    0  0.19470154100E+02 -0.15612097986E+02  0.13035110698E+03  0.13271863319E+03  0.00000000000E+00 0.  1.
         21    1    1    2  503  502 -0.19470154100E+02  0.15612097986E+02  0.12999139292E+02  0.28138978775E+02  0.00000000000E+00 0.  1.
</event>
<event>
 4    1  0.2216341E+005  0.2716093E+02  0.7546771E-02  0.1445998E+00
          2   -1    0    0  502    0  0.00000000000E+00  0.00000000000E+00  0.12163702826E+03  0.12163702826E+03  0.00000000000E+00 0.  1.
         21   -1    0    0  503  502 -0.00000000000E+00 -0.00000000000E+00 -0.41392633781E+02  0.41392633781E+02  0.00000000000E+00 0. -1.
          2    1    1    2  501    0  0.18933362298E+02 -0.19474191068E+02  0.11542878957E+03  0.11858128767E+03  0.00000000000E+00 0.  1.
         21    1    1    2  503  501 -0.18933362298E+02  0.19474191068E+02 -0.35184395090E+02  0.44448374363E+02  0.00000000000E+00 0. -1.
</event>
<event>
 4    1  0.2216341E+005  0.3950668E+02  0.7546771E-02  0.1351401E+00
          2   -1    0    0  503    0  0.00000000000E+00  0.00000000000E+00  0.68455124476E+02  0.68455124476E+02  0.00000000000E+00 0.  1.
         21   -1    0    0  501  502 -0.00000000000E+00 -0.00000000000E+00 -0.17815530440E+03  0.17815530440E+03  0.00000000000E+00 0. -1.
          2    1    1    2  501    0 -0.35110918910E+01 -0.39350345877E+02  0.60294912630E+02  0.72085046826E+02  0.00000000000E+00 0.  1.
         21    1    1    2  503  502  0.35110918910E+01  0.39350345877E+02 -0.16999509255E+03  0.17452538205E+03  0.00000000000E+00 0. -1.
</event>
<event>
 4    1  0.2216341E+005  0.5287418E+02  0.7546771E-02  0.1286170E+00
          2   -1    0    0  502    0  0.00000000000E+00  0.00000000000E+00  0.15601249536E+04  0.15601249536E+04  0.00000000000E+00 0.  1.
         21   -1    0    0  503  502 -0.00000000000E+00 -0.00000000000E+00 -0.19292417309E+01  0.19292417309E+01  0.00000000000E+00 0.  1.
          2    1    1    2  501    0 -0.31015010162E+02 -0.42822285807E+02  0.98744218343E+03  0.98885678671E+03  0.00000000000E+00 0.  1.
         21    1    1    2  503  501  0.31015010162E+02  0.42822285807E+02  0.57075352841E+03  0.57319740859E+03  0.00000000000E+00 0.  1.
</event>
<event>
 4    1  0.2216341E+005  0.2413440E+02  0.7546771E-02  0.1478724E+00
          2   -1    0    0  502    0  0.00000000000E+00  0.00000000000E+00  0.31630059332E+03  0.31630059332E+03  0.00000000000E+00 0.  1.
         21   -1    0    0  503  502 -0.00000000000E+00 -0.00000000000E+00 -0.19037471588E+01  0.19037471588E+01  0.00000000000E+00 0.  1.
          2    1    1    2  501    0  0.95415225210E+00  0.24115535323E+02  0.18596645776E+03  0.18752597917E+03  0.00000000000E+00 0.  1.
         21    1    1    2  503  501 -0.95415225210E+00 -0.24115535323E+02  0.12843038840E+03  0.13067836131E+03  0.00000000000E+00 0.  1.
</event>
<event>
 4    1  0.2216341E+005  0.3484026E+02  0.7546771E-02  0.1381690E+00
          2   -1    0    0  502    0  0.00000000000E+00  0.00000000000E+00  0.79427336342E+03  0.79427336342E+03  0.00000000000E+00 0. -1.
         21   -1    0    0  503  502 -0.00000000000E+00 -0.00000000000E+00 -0.17287283244E+02  0.17287283244E+02  0.00000000000E+00 0. -1.
          2    1    1    2  501    0  0.53891409018E+01  0.34420936009E+02  0.77592235222E+03  0.77670415239E+03  0.00000000000E+00 0. -1.
         21    1    1    2  503  501 -0.53891409018E+01 -0.34420936009E+02  0.10637279559E+01  0.34856494267E+02  0.00000000000E+00 0. -1.
</event>
<event>
 4    1  0.2216341E+005  0.2219137E+02  0.7546771E-02  0.1502910E+00
          2   -1    0    0  502    0  0.00000000000E+00  0.00000000000E+00  0.38225209762E+02  0.38225209762E+02  0.00000000000E+00 0. -1.
         21   -1    0    0  503  502 -0.00000000000E+00 -0.00000000000E+00 -0.19809956312E+02  0.19809956312E+02  0.00000000000E+00 0. -1.
          2    1    1    2  501    0 -0.20467308378E+02  0.85759114219E+01  0.26366524860E+02  0.34462306977E+02  0.00000000000E+00 0. -1.
         21    1    1    2  503  501  0.20467308378E+02 -0.85759114219E+01 -0.79512714111E+01  0.23572859097E+02  0.00000000000E+00 0. -1.
</event>
<event>
 4    1  0.2216341E+005  0.8992716E+02  0.7546771E-02  0.1182509E+00
          2   -1    0    0  503    0  0.00000000000E+00  0.00000000000E+00  0.84246133963E+03  0.84246133963E+03  0.00000000000E+00 0. -1.
         21   -1    0    0  501  502 -0.00000000000E+00 -0.00000000000E+00 -0.14478115715E+02  0.14478115715E+02  0.00000000000E+00 0. -1.
          2    1    1    2  501    0  0.93649174924E+01 -0.89438205498E+02  0.66272207683E+03  0.66879551837E+03  0.00000000000E+00 0. -1.
         21    1    1    2  503  502 -0.93649174924E+01  0.89438205498E+02  0.16526114709E+03  0.18814393698E+03  0.00000000000E+00 0. -1.
</event>
<event>
 4    1  0.2216341E+005  0.2109417E+02  0.7546771E-02  0.1517925E+00
          2   -1    0    0  503    0  0.00000000000E+00  0.00000000000E+00  0.63704378185E+03  0.63704378185E+03  0.00000000000E+00 0. -1.
         21   -1    0    0  501  502 -0.00000000000E+00 -0.00000000000E+00 -0.23123262097E+01  0.23123262097E+01  0.00000000000E+00 0.  1.
          2    1    1    2  501    0  0.13889353341E+02 -0.15876072090E+02  0.58443199531E+03  0.58481255198E+03  0.00000000000E+00 0. -1.
         21    1    1    2  503  502 -0.13889353341E+02  0.15876072090E+02  0.50299460328E+02  0.54543556086E+02  0.00000000000E+00 0.  1.
</event>
<event>
 4    1  0.2216341E+005  0.3297373E+02  0.7546771E-02  0.1395397E+00
          2   -1    0    0  503    0  0.00000000000E+00  0.00000000000E+00  0.24461247199E+03  0.24461247199E+03  0.00000000000E+00 0. -1.
         21   -1    0    0  501  502 -0.00000000000E+00 -0.00000000000E+00 -0.32820027496E+02  0.32820027496E+02  0.00000000000E+00 0. -1.
          2    1    1    2  501    0  0.13928042588E+02  0.29887735967E+02  0.23487763180E+03  0.23718087835E+03  0.00000000000E+00 0. -1.
         21    1    1    2  503  502 -0.13928042588E+02 -0.29887735967E+02 -0.23085187307E+02  0.40251621142E+02  0.00000000000E+00 0. -1.
</event>
<event>
 4    1  0.2216341E+005  0.2527549E+02  0.7546771E-02  0.1465745E+00
          2   -1    0    0  502    0  0.00000000000E+00  0.00000000000E+00  0.13647916158E+03  0.13647916158E+03  0.00000000000E+00 0.  1.
         21   -1    0    0  503  502 -0.00000000000E+00 -0.00000000000E+00 -0.17681442257E+02  0.17681442257E+02  0.00000000000E+00 0.  1.
          2    1    1    2  501    0  0.18147982142E+02 -0.17592644796E+02  0.12549326098E+03  0.12801331555E+03  0.00000000000E+00 0.  1.
         21    1    1    2  503  501 -0.18147982142E+02  0.17592644796E+02 -0.66955416554E+01  0.26147288288E+02  0.00000000000E+00 0.  1.
</event>
<event>
 4    1  0.2216341E+005  0.2968813E+02  0.7546771E-02  0.1422326E+00
          2   -1    0    0  502    0  0.00000000000E+00  0.00000000000E+00  0.28088487271E+03  0.28088487271E+03  0.00000000000E+00 0. -1.
         21   -1    0    0  503  502 -0.00000000000E+00 -0.00000000000E+00 -0.19928902344E+02  0.19928902344E+02  0.00000000000E+00 0. -1.
          2    1    1    2  501    0 -0.27106887629E+02 -0.12107917007E+02  0.26853691831E+03  0.27017302142E+03  0.00000000000E+00 0. -1.
         21    1    1    2  503  501  0.27106887629E+02  0.12107917007E+02 -0.75809479436E+01  0.30640753628E+02  0.00000000000E+00 0. -1.
</event>
<event>
 4    1  0.2216341E+005  0.2816649E+02  0.7546771E-02  0.1436230E+00
          2   -1    0    0  502    0  0.00000000000E+00  0.00000000000E+00  0.42987351561E+02  0.42987351561E+02  0.00000000000E+00 0.  1.
         21   -1    0    0  503  502 -0.00000000000E+00 -0.00000000000E+00 -0.79303527820E+02  0.79303527820E+02  0.00000000000E+00 0.  1.
          2    1    1    2  501    0 -0.12602351212E+02  0.25189919251E+02  0.35401992190E+02  0.45239941854E+02  0.00000000000E+00 0.  1.
         21    1    1    2  503  501  0.12602351212E+02 -0.25189919251E+02 -0.71718168450E+02  0.77050937526E+02  0.00000000000E+00 0.  1.
</event>
<event>
 4    1  0.2216341E+005  0.2806445E+02  0.7546771E-02  0.1437199E+00
          2   -1    0    0  503    0  0.00000000000E+00  0.00000000000E+00  0.54367378180E+03  0.54367378180E+03  0.00000000000E+00 0.  1.
         21   -1    0    0  501  502 -0.00000000000E+00 -0.00000000000E+00 -0.17572024191E+01  0.17572024191E+01  0.00000000000E+00 0.  1.
          2    1    1    2  501    0  0.40844417786E+01 -0.27765638135E+02  0.38522957439E+03  0.38625048649E+03  0.00000000000E+00 0.  1.
         21    1    1    2  503  502 -0.40844417786E+01  0.27765638135E+02  0.15668700499E+03  0.15918049773E+03  0.00000000000E+00 0.  1.
</event>
<event>
 4    1  0.2216341E+005  0.2273513E+02  0.7546771E-02  0.1495851E+00
          2   -1    0    0  503    0  0.00000000000E+00  0.00000000000E+00  0.63141285952E+03  0.63141285952E+03  0.00000000000E+00 0. -1.
         21   -1    0    0  501  502 -0.00000000000E+00 -0.00000000000E+00 -0.82721125695E+00  0.82721125695E+00  0.00000000000E+00 0. -1.
          2    1    1    2  501    0 -0.28200633529E+00  0.22733381303E+02  0.34751195835E+03  0.34825485976E+03  0.00000000000E+00 0. -1.
         21    1    1    2  503  502  0.28200633529E+00 -0.22733381303E+02  0.28307368992E+03  0.28398521102E+03  0.00000000000E+00 0. -1.
</event>
<event>
 4    1  0.2216341E+005  0.2788523E+02  0.7546771E-02  0.1438913E+00
          2   -1    0    0  503    0  0.00000000000E+00  0.00000000000E+00  0.22935674343E+04  0.22935674343E+04  0.00000000000E+00 0.  1.
         21   -1    0    0  501  502 -0.00000000000E+00 -0.00000000000E+00 -0.39408771753E+00  0.39408771753E+00  0.00000000000E+00 0.  1.
          2    1    1    2  501    0  0.36171507337E+01  0.27649631012E+02  0.15753056700E+04  0.15755524554E+04  0.00000000000E+00 0.  1.
         21    1    1    2  503  502 -0.36171507337E+01 -0.27649631012E+02  0.71786767661E+03  0.71840906662E+03  0.00000000000E+00 0.  1.
</event>
<event>
 4    1  0.2216341E+005  0.2450986E+02  0.7546771E-02  0.1474362E+00
          2   -1    0    0  502    0  0.00000000000E+00  0.00000000000E+00  0.75645441972E+03  0.75645441972E+03  0.00000000000E+00 0.  1.
         21   -1    0    0  503  502 -0.00000000000E+00 -0.00000000000E+00 -0.92313630788E+00  0.92313630788E+00  0.00000000000E+00 0.  1.
          2    1    1    2  501    0  0.20446931943E+02 -0.13515044724E+02  0.51932286868E+03  0.51990092844E+03  0.00000000000E+00 0.  1.
         21    1    1    2  503  501 -0.20446931943E+02  0.13515044724E+02  0.23620841473E+03  0.23747662759E+03  0.00000000000E+00 0.  1.
</event>
<event>
 4    1  0.2216341E+005  0.3256387E+02  0.7546771E-02  0.1398549E+00
          2   -1    0    0  502    0  0.00000000000E+00  0.00000000000E+00  0.67390602183E+02  0.67390602183E+02  0.00000000000E+00 0. -1.
         21   -1    0    0  503  502 -0.00000000000E+00 -0.00000000000E+00 -0.61772429088E+02  0.61772429088E+02  0.00000000000E+00 0.  1.
          2    1    1    2  501    0 -0.17353136063E+02 -0.27554936513E+02  0.58561720992E+02  0.67006574476E+02  0.00000000000E+00 0. -1.
         21    1    1    2  503  501  0.17353136063E+02  0.27554936513E+02 -0.52943547896E+02  0.62156456795E+02  0.00000000000E+00 0.  1.
</event>
<event>
 4    1  0.2216341E+005  0.2352854E+02  0.7546771E-02  0.1485966E+00
          2   -1    0    0  503    0  0.00000000000E+00  0.00000000000E+00  0.59949763592E+03  0.59949763592E+03  0.00000000000E+00 0. -1.
         21   -1    0    0  501  502 -0.00000000000E+00 -0.00000000000E+00 -0.92523350355E+00  0.92523350355E+00  0.00000000000E+00 0.  1.
          2    1    1    2  501    0  0.21245893440E+02 -0.10109610013E+02  0.28602016534E+03  0.28698628397E+03  0.00000000000E+00 0. -1.
         21    1    1    2  503  502 -0.21245893440E+02  0.10109610013E+02  0.31255223708E+03  0.31343658546E+03  0.00000000000E+00 0.  1.
</event>
<event>
 4    1  0.2216341E+005  0.2170385E+02  0.7546771E-02  0.1509448E+00
          2   -1    0    0  503    0  0.00000000000E+00  0.00000000000E+00  0.70341367841E+03  0.70341367841E+03  0.00000000000E+00 0. -1.
         21   -1    0    0  501  502 -0.00000000000E+00 -0.00000000000E+00 -0.10112711627E+01  0.10112711627E+01  0.00000000000E+00 0.  1.
          2    1    1    2  501    0  0.98931300735E+01 -0.19317949608E+02  0.55590629237E+03  0.55632981504E+03  0.00000000000E+00 0. -1.
         21    1    1    2  503  502 -0.98931300735E+01  0.19317949608E+02  0.14649611487E+03  0.14809513453E+03  0.00000000000E+00 0.  1.
</event>
<event>
 4    1  0.2216341E+005  0.2166776E+02  0.7546771E-02  0.1509941E+00
          2   -1    0    0  502    0  0.00000000000E+00  0.00000000000E+00  0.59119421529E+01  0.59119421529E+01  0.00000000000E+00 0. -1.
         21   -1    0    0  503  502 -0.00000000000E+00 -0.00000000000E+00 -0.15866121109E+03  0.15866121109E+03  0.00000000000E+00 0. -1.
          2    1    1    2  501    0  0.17784192645E+02  0.12377985045E+02 -0.18219894227E+02  0.28310008256E+02  0.00000000000E+00 0. -1.
         21    1    1    2  503  501 -0.17784192645E+02 -0.12377985045E+02 -0.13452937471E+03  0.13626314499E+03  0.00000000000E+00 0. -1.
</event>
<event>
 4    1  0.2216341E+005  0.2993204E+02  0.7546771E-02  0.1420188E+00
          2   -1    0    0  503    0  0.00000000000E+00  0.00000000000E+00  0.20962004858E+04  0.20962004858E+04  0.00000000000E+00 0. -1.
         21   -1    0    0  501  502 -0.00000000000E+00 -0.00000000000E+00 -0.43562335480E+00  0.43562335480E+00  0.00000000000E+00 0. -1.
          2    1    1    2  501    0 -0.14424577502E+02 -0.26227058663E+02  0.11918696563E+04  0.11922454464E+04  0.00000000000E+00 0. -1.
         21    1    1    2  503  502  0.14424577502E+02  0.26227058663E+02  0.90389520620E+03  0.90439066273E+03  0.00000000000E+00 0. -1.
</event>
<event>
 4    1  0.2216341E+005  0.2332816E+02  0.7546771E-02  0.1488418E+00
          2   -1    0    0  503    0  0.00000000000E+00  0.00000000000E+00  0.40469440837E+03  0.40469440837E+03  0.00000000000E+00 0. -1.
         21   -1    0    0  501  502 -0.00000000000E+00 -0.00000000000E+00 -0.20805462700E+02  0.20805462700E+02  0.00000000000E+00 0.  1.
          2    1    1    2  501    0 -0.20423275285E+02  0.11273545850E+02  0.39770420622E+03  0.39838779933E+03  0.00000000000E+00 0. -1.
         21    1    1    2  503  502  0.20423275285E+02 -0.11273545850E+02 -0.13815260557E+02  0.27112071733E+02  0.00000000000E+00 0.  1.
</event>
<event>
 4    1  0.2216341E+005  0.3834011E+02  0.7546771E-02  0.1358497E+00
          2   -1    0    0  502    0  0.00000000000E+00  0.00000000000E+00  0.27677086250E+03  0.27677086250E+03  0.00000000000E+00 0. -1.
         21   -1    0    0  503  502 -0.00000000000E+00 -0.00000000000E+00 -0.84853371965E+02  0.84853371965E+02  0.00000000000E+00 0. -1.
          2    1    1    2  501    0 -0.38024107400E+02  0.49123780155E+01  0.27102075540E+03  0.27371922486E+03  0.00000000000E+00 0. -1.
         21    1    1    2  503  501  0.38024107400E+02 -0.49123780155E+01 -0.79103264864E+02  0.87905009604E+02  0.00000000000E+00 0. -1.
</event>
<event>
 4    1  0.2216341E+005  0.2363306E+02  0.7546771E-02  0.1484698E+00
          2   -1    0    0  502    0  0.00000000000E+00  0.00000000000E+00  0.25365977454E+02  0.25365977454E+02  0.00000000000E+00 0. -1.
         21   -1    0    0  503  502 -0.00000000000E+00 -0.00000000000E+00 -0.35322958364E+02  0.35322958364E+02  0.00000000000E+00 0. -1.
          2    1    1    2  501    0  0.16038226748E+02 -0.17357897372E+02  0.13644492307E+02  0.27289072698E+02  0.00000000000E+00 0. -1.
         21    1    1    2  503  501 -0.16038226748E+02  0.17357897372E+02 -0.23601473217E+02  0.33399863120E+02  0.00000000000E+00 0. -1.
</event>
<event>
 4    1  0.2216341E+005  0.2048915E+02  0.7546771E-02  0.1526685E+00
          2   -1    0    0  502    0  0.00000000000E+00  0.00000000000E+00  0.47832408689E+03  0.47832408689E+03  0.00000000000E+00 0.  1.
         21   -1    0    0  503  502 -0.00000000000E+00 -0.00000000000E+00 -0.87929954187E+00  0.87929954187E+00  0.00000000000E+00 0.  1.
          2    1    1    2  501    0 -0.66742362096E+00 -0.20478277827E+02  0.24907260154E+03  0.24991391749E+03  0.00000000000E+00 0.  1.
         21    1    1    2  503  501  0.66742362096E+00  0.20478277827E+02  0.22837218580E+03  0.22928946894E+03  0.00000000000E+00 0.  1.
</event>
<event>
 4    1  0.2216341E+005  0.2580754E+02  0.7546771E-02  0.1459969E+00
          2   -1    0    0  502    0  0.00000000000E+00  0.00000000000E+00  0.34186768925E+02  0.34186768925E+02  0.00000000000E+00 0. -1.
         21   -1    0    0  503  502 -0.00000000000E+00 -0.00000000000E+00 -0.19168391835E+03  0.19168391835E+03  0.00000000000E+00 0.  1.
          2    1    1    2  501    0  0.24416157154E+02 -0.83594543124E+01  0.28293849490E+02  0.38295836922E+02  0.00000000000E+00 0. -1.
         21    1    1    2  503  501 -0.24416157154E+02  0.83594543124E+01 -0.18579099891E+03  0.18757485035E+03  0.00000000000E+00 0.  1.
</event>
<event>
 4    1  0.2216341E+005  0.2885759E+02  0.7546771E-02  0.1429791E+00
          2   -1    0    0  502    0  0.00000000000E+00  0.00000000000E+00  0.94199402062E+03  0.94199402062E+03  0.00000000000E+00 0. -1.
         21   -1    0    0  503  502 -0.00000000000E+00 -0.00000000000E+00 -0.13898031946E+01  0.13898031946E+01  0.00000000000E+00 0.  1.
          2    1    1    2  501    0  0.28402586554E+02  0.51042521715E+01  0.75485003461E+03  0.75540143968E+03  0.00000000000E+00 0. -1.
         21    1    1    2  503  501 -0.28402586554E+02 -0.51042521715E+01  0.18575418281E+03  0.18798238414E+03  0.00000000000E+00 0.  1.
</event>
<event>
 4    1  0.2216341E+005  0.2052194E+02  0.7546771E-02  0.1526201E+00
          2   -1    0    0  503    0  0.00000000000E+00  0.00000000000E+00  0.18451882131E+04  0.18451882131E+04  0.00000000000E+00 0. -1.
         21   -1    0    0  501  502 -0.00000000000E+00 -0.00000000000E+00 -0.26317420499E+00  0.26317420499E+00  0.00000000000E+00 0. -1.
          2    1    1    2  501    0  0.12549425132E+02 -0.16237673164E+02  0.12586346874E+04  0.12588019806E+04  0.00000000000E+00 0. -1.
         21    1    1    2  503  502 -0.12549425132E+02  0.16237673164E+02  0.58629035149E+03  0.58664940668E+03  0.00000000000E+00 0. -1.
</event>
<event>
 4    1  0.2216341E+005  0.3638502E+02  0.7546771E-02  0.1371079E+00
          2   -1    0    0  503    0  0.00000000000E+00  0.00000000000E+00  0.17266688055E+03  0.17266688055E+03  0.00000000000E+00 0.  1.
         21   -1    0    0  501  502 -0.00000000000E+00 -0.00000000000E+00 -0.12647615632E+02  0.12647615632E+02  0.00000000000E+00 0.  1.
          2    1    1    2  501    0  0.29920421319E+02  0.20703579516E+02  0.13815408540E+03  0.14286504516E+03  0.00000000000E+00 0.  1.
         21    1    1    2  503  502 -0.29920421319E+02 -0.20703579516E+02  0.21865179524E+02  0.42449451025E+02  0.00000000000E+00 0.  1.
</event>
<event>
 4    1  0.2216341E+005  0.2032473E+02  0.7546771E-02  0.1529128E+00
          2   -1    0    0  503    0  0.00000000000E+00  0.00000000000E+00  0.29434711686E+02  0.29434711686E+02  0.00000000000E+00 0. -1.
         21   -1    0    0  501  502 -0.00000000000E+00 -0.00000000000E+00 -0.28014097664E+03  0.28014097664E+03  0.00000000000E+00 0.  1.
          2    1    1    2  501    0 -0.20294670753E+02 -0.11049457843E+01  0.25507681246E+02  0.32614971542E+02  0.00000000000E+00 0. -1.
         21    1    1    2  503  502  0.20294670753E+02  0.11049457843E+01 -0.27621394620E+03  0.27696071678E+03  0.00000000000E+00 0.  1.
</event>
<event>
 4    1  0.2216341E+005  0.2409876E+02  0.7546771E-02  0.1479143E+00
          2   -1    0    0  503    0  0.00000000000E+00  0.00000000000E+00  0.15752648411E+03  0.15752648411E+03  0.00000000000E+00 0.  1.
         21   -1    0    0  501  502 -0.00000000000E+00 -0.00000000000E+00 -0.14838099448E+03  0.14838099448E+03  0.00000000000E+00 0.  1.
          2    1    1    2  501    0 -0.17075360683E+02 -0.17005354967E+02  0.15561438408E+03  0.15746931947E+03  0.00000000000E+00 0.  1.
         21    1    1    2  503  502  0.17075360683E+02  0.17005354967E+02 -0.14646889445E+03  0.14843815912E+03  0.00000000000E+00 0.  1.
</event>
<event>
 4    1  0.2216341E+005  0.2037105E+02  0.7546771E-02  0.1528437E+00
          2   -1    0    0  503    0  0.00000000000E+00  0.00000000000E+00  0.16188221246E+03  0.16188221246E+03  0.00000000000E+00 0.  1.
         21   -1    0    0  501  502 -0.00000000000E+00 -0.00000000000E+00 -0.35808355857E+02  0.35808355857E+02  0.00000000000E+00 0. -1.
          2    1    1    2  501    0  0.15853341938E+02 -0.12792619245E+02  0.15827842522E+03  0.15958395737E+03  0.00000000000E+00 0.  1.
         21    1    1    2  503  502 -0.15853341938E+02  0.12792619245E+02 -0.32204568622E+02  0.38106610947E+02  0.00000000000E+00 0. -1.
</event>
<event>
 4    1  0.2216341E+005  0.3274787E+02  0.7546771E-02  0.1397127E+00
          2   -1    0    0  502    0  0.00000000000E+00  0.00000000000E+00  0.68690468623E+03  0.68690468623E+03  0.00000000000E+00 0.  1.
         21   -1    0    0  503  502 -0.00000000000E+00 -0.00000000000E+00 -0.21160382003E+01  0.21160382003E+01  0.00000000000E+00 0.  1.
          2    1    1    2  501    0  0.21371167009E+02 -0.24813230947E+02  0.51879814223E+03  0.51983067973E+03  0.00000000000E+00 0.  1.
         21    1    1    2  503  501 -0.21371167009E+02  0.24813230947E+02  0.16599050580E+03  0.16919004470E+03  0.00000000000E+00 0.  1.
</event>
<event>
 4    1  0.2216341E+005  0.3330450E+02  0.7546771E-02  0.1392892E+00
          2   -1    0    0  502    0  0.00000000000E+00  0.00000000000E+00  0.71388819163E+03  0.71388819163E+03  0.00000000000E+00 0. -1.
         21   -1    0    0  503  502 -0.00000000000E+00 -0.00000000000E+00 -0.28846709827E+02  0.28846709827E+02  0.00000000000E+00 0.  1.
          2    1    1    2  501    0  0.35382311457E+01  0.33116015062E+02  0.70374854429E+03  0.70453616169E+03  0.00000000000E+00 0. -1.
         21    1    1    2  503  501 -0.35382311457E+01 -0.33116015062E+02 -0.18707062487E+02  0.38198739771E+02  0.00000000000E+00 0.  1.
</event>
<event>
 4    1  0.2216341E+005  0.3372557E+02  0.7546771E-02  0.1389751E+00
          2   -1    0    0  502    0  0.00000000000E+00  0.00000000000E+00  0.14847272086E+02  0.14847272086E+02  0.00000000000E+00 0.  1.
         21   -1    0    0  503  502 -0.00000000000E+00 -0.00000000000E+00 -0.22270843074E+03  0.22270843074E+03  0.00000000000E+00 0.  1.
          2    1    1    2  501    0 -0.58509252181E+01 -0.33214162555E+02 -0.77265028489E+01  0.34599317427E+02  0.00000000000E+00 0.  1.
         21    1    1    2  503  501  0.58509252181E+01  0.33214162555E+02 -0.20013465580E+03  0.20295638540E+03  0.00000000000E+00 0.  1.
</event>
<event>
 4    1  0.2216341E+005  0.2274622E+02  0.7546771E-02  0.1495710E+00
          2   -1    0    0  502    0  0.00000000000E+00  0.00000000000E+00  0.24254200463E+03  0.24254200463E+03  0.00000000000E+00 0. -1.
         21   -1    0    0  503  502 -0.00000000000E+00 -0.00000000000E+00 -0.17616069991E+02  0.17616069991E+02  0.00000000000E+00 0. -1.
          2    1    1    2  501    0  0.16460602554E+02  0.15698383811E+02  0.23441204755E+03  0.23551305426E+03  0.00000000000E+00 0. -1.
         21    1    1    2  503  501 -0.16460602554E+02 -0.15698383811E+02 -0.94861129055E+01  0.24645020365E+02  0.00000000000E+00 0. -1.
</event>
<event>
 4    1  0.2216341E+005  0.2085622E+02  0.7546771E-02  0.1521328E+00
          2   -1    0    0  502    0  0.00000000000E+00  0.00000000000E+00  0.54246968182E+02  0.54246968182E+02  0.00000000000E+00 0. -1.
         21   -1    0    0  503  502 -0.00000000000E+00 -0.00000000000E+00 -0.25593796944E+02  0.25593796944E+02  0.00000000000E+00 0.  1.
          2    1    1    2  501    0 -0.15357460442E+02  0.14111347527E+02  0.47407546998E+02  0.51792443779E+02  0.00000000000E+00 0. -1.
         21    1    1    2  503  501  0.15357460442E+02 -0.14111347527E+02 -0.18754375760E+02  0.28048321347E+02  0.00000000000E+00 0.  1.
</event>
<event>
 4    1  0.2216341E+005  0.2369841E+02  0.7546771E-02  0.1483910E+00
          2   -1    0    0  502    0  0.00000000000E+00  0.00000000000E+00  0.94189091782E+03  0.94189091782E+03  0.00000000000E+00 0.  1.
         21   -1    0    0  503  502 -0.00000000000E+00 -0.00000000000E+00 -0.11785508084E+02  0.11785508084E+02  0.00000000000E+00 0.  1.
          2    1    1    2  501    0  0.20501422770E+02  0.11887238149E+02  0.92967205031E+03  0.92997405119E+03  0.00000000000E+00 0.  1.
         21    1    1    2  503  501 -0.20501422770E+02 -0.11887238149E+02  0.43335942321E+00  0.23702374708E+02  0.00000000000E+00 0.  1.
</event>
<event>
 4    1  0.2216341E+005  0.3484698E+02  0.7546771E-02  0.1381642E+00
          2   -1    0    0  503    0  0.00000000000E+00  0.00000000000E+00  0.22529878737E+03  0.22529878737E+03  0.00000000000E+00 0.  1.
         21   -1    0    0  501  502 -0.00000000000E+00 -0.00000000000E+00 -0.42610105119E+02  0.42610105119E+02  0.00000000000E+00 0.  1.
          2    1    1    2  501    0 -0.17512843267E+02 -0.30126600529E+02  0.21654046698E+03  0.21932643611E+03  0.00000000000E+00 0.  1.
         21    1    1    2  503  502  0.17512843267E+02  0.30126600529E+02 -0.33851784725E+02  0.48582456379E+02  0.00000000000E+00 0.  1.
</event>
<event>
 4    1  0.2216341E+005  0.2913847E+02  0.7546771E-02  0.1427234E+00
          2   -1    0    0  502    0  0.00000000000E+00  0.00000000000E+00  0.31928524206E+03  0.31928524206E+03  0.00000000000E+00 0. -1.
         21   -1    0    0  503  502 -0.00000000000E+00 -0.00000000000E+00 -0.93902320918E+01  0.93902320918E+01  0.00000000000E+00 0. -1.
          2    1    1    2  501    0  0.29122498449E+02  0.96450491851E+00  0.29408342870E+03  0.29552345630E+03  0.00000000000E+00 0. -1.
         21    1    1    2  503  501 -0.29122498449E+02 -0.96450491851E+00  0.15811581268E+02  0.33152017855E+02  0.00000000000E+00 0. -1.
</event>
<event>
 4    1  0.2216341E+005  0.3557881E+02  0.7546771E-02  0.1376539E+00
          2   -1    0    0  503    0  0.00000000000E+00  0.00000000000E+00  0.17393711812E+04  0.17393711812E+04  0.00000000000E+00 0.  1.
         21   -1    0    0  501  502 -0.00000000000E+00 -0.00000000000E+00 -0.39730139067E+01  0.39730139067E+01  0.00000000000E+00 0.  1.
          2    1    1    2  501    0  0.21169693184E+02  0.28595377373E+02  0.16555012721E+04  0.16558835446E+04  0.00000000000E+00 0.  1.
         21    1    1    2  503  502 -0.21169693184E+02 -0.28595377373E+02  0.79896895177E+02  0.87460650441E+02  0.00000000000E+00 0.  1.
</event>
<event>
 4    1  0.2216341E+005  0.2007076E+02  0.7546771E-02  0.1532957E+00
          2   -1    0    0  503    0  0.00000000000E+00  0.00000000000E+00  0.39423422105E+02  0.39423422105E+02  0.00000000000E+00 0.  1.
         21   -1    0    0  501  502 -0.00000000000E+00 -0.00000000000E+00 -0.96857909301E+02  0.96857909301E+02  0.00000000000E+00 0. -1.
          2    1    1    2  501    0 -0.18319808606E+02  0.81987707596E+01  0.35728968352E+02  0.40980414942E+02  0.00000000000E+00 0.  1.
         21    1    1    2  503  502  0.18319808606E+02 -0.81987707596E+01 -0.93163455548E+02  0.95300916464E+02  0.00000000000E+00 0. -1.
</event>
<event>
 4    1  0.2216341E+005  0.2424291E+02  0.7546771E-02  0.1477454E+00
          2   -1    0    0  502    0  0.00000000000E+00  0.00000000000E+00  0.12348703609E+04  0.12348703609E+04  0.00000000000E+00 0.  1.
         21   -1    0    0  503  502 -0.00000000000E+00 -0.00000000000E+00 -0.27699552010E+01  0.27699552010E+01  0.00000000000E+00 0. -1.
          2    1    1    2  501    0  0.19495503662E+02  0.14409855243E+02  0.11792035314E+04  0.11794527066E+04  0.00000000000E+00 0.  1.
         21    1    1    2  503  501 -0.19495503662E+02 -0.14409855243E+02  0.52896874289E+02  0.58187609512E+02  0.00000000000E+00 0. -1.
</event>
<event>
 4    1  0.2216341E+005  0.2588783E+02  0.7546771E-02  0.1459112E+00
          2   -1    0    0  502    0  0.00000000000E+00  0.00000000000E+00  0.20271318337E+02  0.20271318337E+02  0.00000000000E+00 0.  1.
         21   -1    0    0  503  502 -0.00000000000E+00 -0.00000000000E+00 -0.58814509916E+02  0.58814509916E+02  0.00000000000E+00 0. -1.
          2    1    1    2  501    0 -0.15934912718E+02 -0.20402410471E+02  0.68951015449E+01  0.26790338215E+02  0.00000000000E+00 0.  1.
         21    1    1    2  503  501  0.15934912718E+02  0.20402410471E+02 -0.45438293124E+02  0.52295490039E+02  0.00000000000E+00 0. -1.
</event>
<event>
 4    1  0.2216341E+005  0.3275476E+02  0.7546771E-02  0.1397074E+00
          2   -1    0    0  502    0  0.00000000000E+00  0.00000000000E+00  0.24901673258E+03  0.24901673258E+03  0.00000000000E+00 0.  1.
         21   -1    0    0  503  502 -0.00000000000E+00 -0.00000000000E+00 -0.43516544179E+01  0.43516544179E+01  0.00000000000E+00 0.  1.
          2    1    1    2  501    0  0.13411307718E+02 -0.29883290717E+02  0.13495656012E+03  0.13887457420E+03  0.00000000000E+00 0.  1.
         21    1    1    2  503  501 -0.13411307718E+02  0.29883290717E+02  0.10970851804E+03  0.11449381280E+03  0.00000000000E+00 0.  1.
</event>
<event>
 4    1  0.2216341E+005  0.2116427E+02  0.7546771E-02  0.1516932E+00
          2   -1    0    0  503    0  0.00000000000E+00  0.00000000000E+00  0.47443318044E+03  0.47443318044E+03  0.00000000000E+00 0. -1.
         21   -1    0    0  501  502 -0.00000000000E+00 -0.00000000000E+00 -0.14258723847E+02  0.14258723847E+02  0.00000000000E+00 0. -1.
          2    1    1    2  501    0 -0.17957618854E+02 -0.11200464665E+02  0.46620505945E+03  0.46668520861E+03  0.00000000000E+00 0. -1.
         21    1    1    2  503  502  0.17957618854E+02  0.11200464665E+02 -0.60306028560E+01  0.22006695672E+02  0.00000000000E+00 0. -1.
</event>
<event>
 4    1  0.2216341E+005  0.2554889E+02  0.7546771E-02  0.1462756E+00
          2   -1    0    0  503    0  0.00000000000E+00  0.00000000000E+00  0.19760159560E+03  0.19760159560E+03  0.00000000000E+00 0. -1.
         21   -1    0    0  501  502 -0.00000000000E+00 -0.00000000000E+00 -0.63454450495E+01  0.63454450495E+01  0.00000000000E+00 0. -1.
          2    1    1    2  501    0  0.33728631262E+01  0.25325274346E+02  0.16623435056E+03  0.16818622129E+03  0.00000000000E+00 0. -1.
         21    1    1    2  503  502 -0.33728631262E+01 -0.25325274346E+02  0.25021799990E+02  0.35760819357E+02  0.00000000000E+00 0. -1.
</event>
<event>
 4    1  0.2216341E+005  0.2018486E+02  0.7546771E-02  0.1531228E+00
          2   -1    0    0  502    0  0.00000000000E+00  0.00000000000E+00  0.84140618803E+01  0.84140618803E+01  0.00000000000E+00 0.  1.
         21   -1    0    0  503  502 -0.00000000000E+00 -0.00000000000E+00 -0.17294164026E+03  0.17294164026E+03  0.00000000000E+00 0. -1.
          2    1    1    2  501    0  0.17925204357E+02  0.92798571708E+01 -0.53206784760E+01  0.20874345973E+02  0.00000000000E+00 0.  1.
         21    1    1    2  503  501 -0.17925204357E+02 -0.92798571708E+01 -0.15920689990E+03  0.16048135617E+03  0.00000000000E+00 0. -1.
</event>
<event>
 4    1  0.2216341E+005  0.4209092E+02  0.7546771E-02  0.1336650E+00
          2   -1    0    0  503    0  0.00000000000E+00  0.00000000000E+00  0.21911004447E+03  0.21911004447E+03  0.00000000000E+00 0.  1.
         21   -1    0    0  501  502 -0.00000000000E+00 -0.00000000000E+00 -0.34995416477E+02  0.34995416477E+02  0.00000000000E+00 0. -1.
          2    1    1    2  501    0 -0.41298894050E+02  0.81269283252E+01  0.20346969099E+03  0.20777767148E+03  0.00000000000E+00 0.  1.
         21    1    1    2  503  502  0.41298894050E+02 -0.81269283252E+01 -0.19355062995E+02  0.46327789471E+02  0.00000000000E+00 0. -1.
</event>
<event>
 4    1  0.2216341E+005  0.2913466E+02  0.7546771E-02  0.1427268E+00
          2   -1    0    0  502    0  0.00000000000E+00  0.00000000000E+00  0.14583001226E+04  0.14583001226E+04  0.00000000000E+00 0. -1.
         21   -1    0    0  503  502 -0.00000000000E+00 -0.00000000000E+00 -0.92224036771E+00  0.92224036771E+00  0.00000000000E+00 0. -1.
          2    1    1    2  501    0  0.57772609878E+01 -0.28556118150E+02  0.11718070126E+04  0.11721691446E+04  0.00000000000E+00 0. -1.
         21    1    1    2  503  501 -0.57772609878E+01  0.28556118150E+02  0.28557086963E+03  0.28705321843E+03  0.00000000000E+00 0. -1.
</event>
<event>
 4    1  0.2216341E+005  0.2424321E+02  0.7546771E-02  0.1477450E+00
          2   -1    0    0  502    0  0.00000000000E+00  0.00000000000E+00  0.93029327538E+03  0.93029327538E+03  0.00000000000E+00 0.  1.
         21   -1    0    0  503  502 -0.00000000000E+00 -0.00000000000E+00 -0.47275277786E+01  0.47275277786E+01  0.00000000000E+00 0. -1.
          2    1    1    2  501    0  0.10989214218E+02  0.21609500797E+02  0.89793514361E+03  0.89826235337E+03  0.00000000000E+00 0.  1.
         21    1    1    2  503  501 -0.10989214218E+02 -0.21609500797E+02  0.27630603988E+02  0.36758449785E+02  0.00000000000E+00 0. -1.
</event>
<event>
 4    1  0.2216341E+005  0.3114463E+02  0.7546771E-02  0.1409904E+00
          2   -1    0    0  503    0  0.00000000000E+00  0.00000000000E+00  0.73471055399E+03  0.73471055399E+03  0.00000000000E+00 0.  1.
         21   -1    0    0  501  502 -0.00000000000E+00 -0.00000000000E+00 -0.15813968716E+01  0.15813968716E+01  0.00000000000E+00 0.  1.
          2    1    1    2  501    0 -0.69337116206E+01 -0.30362994216E+02  0.51617356813E+03  0.51711230908E+03  0.00000000000E+00 0.  1.
         21    1    1    2  503  502  0.69337116206E+01  0.30362994216E+02  0.21695558899E+03  0.21917964178E+03  0.00000000000E+00 0.  1.
</event>
<event>
 4    1  0.2216341E+005  0.2611201E+02  0.7546771E-02  0.1456738E+00
          2   -1    0    0  503    0  0.00000000000E+00  0.00000000000E+00  0.14127166239E+04  0.14127166239E+04  0.00000000000E+00 0.  1.
         21   -1    0    0  501  502 -0.00000000000E+00 -0.00000000000E+00 -0.52412220643E+00  0.52412220643E+00  0.00000000000E+00 0.  1.
          2    1    1    2  501    0 -0.11131053418E+02  0.23620687020E+02  0.90488292060E+03  0.90525959658E+03  0.00000000000E+00 0.  1.
         21    1    1    2  503  502  0.11131053418E+02 -0.23620687020E+02  0.50730958111E+03  0.50798114954E+03  0.00000000000E+00 0.  1.
</event>
<event>
 4    1  0.2216341E+005  0.7718158E+02  0.7546771E-02  0.1210546E+00
          2   -1    0    0  502    0  0.00000000000E+00  0.00000000000E+00  0.79501535761E+03  0.79501535761E+03  0.00000000000E+00 0. -1.
         21   -1    0    0  503  502 -0.00000000000E+00 -0.00000000000E+00 -0.20499541673E+03  0.20499541673E+03  0.00000000000E+00 0. -1.
          2    1    1    2  501    0 -0.39989451532E+02 -0.66013941689E+02  0.78579226733E+03  0.78957360906E+03  0.00000000000E+00 0. -1.
         21    1    1    2  503  501  0.39989451532E+02  0.66013941689E+02 -0.19577232644E+03  0.21043716528E+03  0.00000000000E+00 0. -1.
</event>
<event>
 4    1  0.2216341E+005  0.3988920E+02  0.7546771E-02  0.1349136E+00
          2   -1    0    0  503    0  0.00000000000E+00  0.00000000000E+00  0.23172551514E+03  0.23172551514E+03  0.00000000000E+00 0. -1.
         21   -1    0    0  501  502 -0.00000000000E+00 -0.00000000000E+00 -0.79466237584E+01  0.79466237584E+01  0.00000000000E+00 0. -1.
          2    1    1    2  501    0 -0.39775914036E+02 -0.30041162223E+01  0.15606976228E+03  0.16108668086E+03  0.00000000000E+00 0. -1.
         21    1    1    2  503  502  0.39775914036E+02  0.30041162223E+01  0.67709129101E+02  0.78585458039E+02  0.00000000000E+00 0. -1.
</event>
<event>
 4    1  0.2216341E+005  0.2159882E+02  0.7546771E-02  0.1510884E+00
          2   -1    0    0  503    0  0.00000000000E+00  0.00000000000E+00  0.11884490640E+04  0.11884490640E+04  0.00000000000E+00 0.  1.
         21   -1    0    0  501  502 -0.00000000000E+00 -0.00000000000E+00 -0.44107696950E+00  0.44107696950E+00  0.00000000000E+00 0.  1.
          2    1    1    2  501    0  0.19658801932E+01 -0.21509167423E+02  0.79120495998E+03  0.79149971425E+03  0.00000000000E+00 0.  1.
         21    1    1    2  503  502 -0.19658801932E+01  0.21509167423E+02  0.39680302703E+03  0.39739042670E+03  0.00000000000E+00 0.  1.
</event>
<event>
 4    1  0.2216341E+005  0.2000440E+02  0.7546771E-02  0.1533968E+00
          2   -1    0    0  503    0  0.00000000000E+00  0.00000000000E+00  0.54675116476E+01  0.54675116476E+01  0.00000000000E+00 0. -1.
         21   -1    0    0  501  502 -0.00000000000E+00 -0.00000000000E+00 -0.16951120800E+03  0.16951120800E+03  0.00000000000E+00 0.  1.
          2    1    1    2  501    0  0.20000505027E+02  0.39480490822E+00 -0.16072072598E+02  0.25661013032E+02  0.00000000000E+00 0. -1.
         21    1    1    2  503  502 -0.20000505027E+02 -0.39480490822E+00 -0.14797162376E+03  0.14931770662E+03  0.00000000000E+00 0.  1.
</event>
<event>
 4    1  0.2216341E+005  0.6933649E+02  0.7546771E-02  0.1231034E+00
          2   -1    0    0  503    0  0.00000000000E+00  0.00000000000E+00  0.24610572773E+03  0.24610572773E+03  0.00000000000E+00 0.  1.
         21   -1    0    0  501  502 -0.00000000000E+00 -0.00000000000E+00 -0.24364935766E+02  0.24364935766E+02  0.00000000000E+00 0.  1.
          2    1    1    2  501    0  0.68190746978E+02  0.12552710370E+02  0.17108493836E+03  0.18460120434E+03  0.00000000000E+00 0.  1.
         21    1    1    2  503  502 -0.68190746978E+02 -0.12552710370E+02  0.50655853603E+02  0.85869459154E+02  0.00000000000E+00 0.  1.
</event>
<event>
 4    1  0.2216341E+005  0.3202061E+02  0.7546771E-02  0.1402813E+00
          2   -1    0    0  503    0  0.00000000000E+00  0.00000000000E+00  0.20242722623E+04  0.20242722623E+04  0.00000000000E+00 0.  1.
         21   -1    0    0  501  502 -0.00000000000E+00 -0.00000000000E+00 -0.11730360964E+02  0.11730360964E+02  0.00000000000E+00 0. -1.
          2    1    1    2  501    0  0.30716618186E+02  0.90448410568E+01  0.20020512759E+04  0.20023073268E+04  0.00000000000E+00 0.  1.
         21    1    1    2  503  502 -0.30716618186E+02 -0.90448410568E+01  0.10490625510E+02  0.33695296498E+02  0.00000000000E+00 0. -1.
</event>
<event>
 4    1  0.2216341E+005  0.3100286E+02  0.7546771E-02  0.1411077E+00
          2   -1    0    0  503    0  0.00000000000E+00  0.00000000000E+00  0.79124140943E+03  0.79124140943E+03  0.00000000000E+00 0. -1.
         21   -1    0    0  501  502 -0.00000000000E+00 -0.00000000000E+00 -0.14511610112E+01  0.14511610112E+01  0.00000000000E+00 0. -1.
          2    1    1    2  501    0 -0.18464707548E+02 -0.24904458427E+02  0.55486239611E+03  0.55572786154E+03  0.00000000000E+00 0. -1.
         21    1    1    2  503  502  0.18464707548E+02  0.24904458427E+02  0.23492785230E+03  0.23696470889E+03  0.00000000000E+00 0. -1.
</event>
<event>
 4    1  0.2216341E+005  0.2315103E+02  0.7546771E-02  0.1490610E+00
          2   -1    0    0  503    0  0.00000000000E+00  0.00000000000E+00  0.88280792352E+03  0.88280792352E+03  0.00000000000E+00 0.  1.
         21   -1    0    0  501  502 -0.00000000000E+00 -0.00000000000E+00 -0.13968013742E+01  0.13968013742E+01  0.00000000000E+00 0. -1.
          2    1    1    2  501    0 -0.15385200200E+02  0.17299294561E+02  0.77312129457E+03  0.77346784425E+03  0.00000000000E+00 0.  1.
         21    1    1    2  503  502  0.15385200200E+02 -0.17299294561E+02  0.10828982758E+03  0.11073688064E+03  0.00000000000E+00 0. -1.
</event>
<event>
 4    1  0.2216341E+005  0.3030428E+02  0.7546771E-02  0.1416970E+00
          2   -1    0    0  503    0  0.00000000000E+00  0.00000000000E+00  0.26056996043E+04  0.26056996043E+04  0.00000000000E+00 0.  1.
         21   -1    0    0  501  502 -0.00000000000E+00 -0.00000000000E+00 -0.49061730662E+00  0.49061730662E+00  0.00000000000E+00 0.  1.
          2    1    1    2  501    0  0.14986734953E+02  0.26339085999E+02  0.19941566024E+04  0.19943868493E+04  0.00000000000E+00 0.  1.
         21    1    1    2  503  502 -0.14986734953E+02 -0.26339085999E+02  0.61105238453E+03  0.61180337227E+03  0.00000000000E+00 0.  1.
</event>
<event>
 4    1  0.2216341E+005  0.4456931E+02  0.7546771E-02  0.1323607E+00
          2   -1    0    0  503    0  0.00000000000E+00  0.00000000000E+00  0.62839100027E+03  0.62839100027E+03  0.00000000000E+00 0. -1.
         21   -1    0    0  501  502 -0.00000000000E+00 -0.00000000000E+00 -0.75427234697E+02  0.75427234697E+02  0.00000000000E+00 0. -1.
          2    1    1    2  501    0 -0.43166810959E+02  0.11092763251E+02  0.62093788890E+03  0.62253536835E+03  0.00000000000E+00 0. -1.
         21    1    1    2  503  502  0.43166810959E+02 -0.11092763251E+02 -0.67974123326E+02  0.81282866625E+02  0.00000000000E+00 0. -1.
</event>
<event>
 4    1  0.2216341E+005  0.2872908E+02  0.7546771E-02  0.1430972E+00
          2   -1    0    0  503    0  0.00000000000E+00  0.00000000000E+00  0.44019516804E+02  0.44019516804E+02  0.00000000000E+00 0. -1.
         21   -1    0    0  501  502 -0.00000000000E+00 -0.00000000000E+00 -0.39964223895E+02  0.39964223895E+02  0.00000000000E+00 0.  1.
          2    1    1    2  501    0  0.28549369523E+02  0.32083848270E+01  0.32622221706E+02  0.43469179684E+02  0.00000000000E+00 0. -1.
         21    1    1    2  503  502 -0.28549369523E+02 -0.32083848270E+01 -0.28566928796E+02  0.40514561015E+02  0.00000000000E+00 0.  1.
</event>
<event>
 4    1  0.2216341E+005  0.2751327E+02  0.7546771E-02  0.1442519E+00
          2   -1    0    0  502    0  0.00000000000E+00  0.00000000000E+00  0.47204278131E+03  0.47204278131E+03  0.00000000000E+00 0. -1.
         21   -1    0    0  503  502 -0.00000000000E+00 -0.00000000000E+00 -0.11314299915E+02  0.11314299915E+02  0.00000000000E+00 0. -1.
          2    1    1    2  501    0 -0.27448311885E+02  0.18895262379E+01  0.45426157815E+03  0.45509401394E+03  0.00000000000E+00 0. -1.
         21    1    1    2  503  501  0.27448311885E+02 -0.18895262379E+01  0.64669032356E+01  0.28263067282E+02  0.00000000000E+00 0. -1.
</event>
<event>
 4    1  0.2216341E+005  0.2041969E+02  0.7546771E-02  0.1527714E+00
          2   -1    0    0  503    0  0.00000000000E+00  0.00000000000E+00  0.30523770078E+03  0.30523770078E+03  0.00000000000E+00 0. -1.
         21   -1    0    0  501  502 -0.00000000000E+00 -0.00000000000E+00 -0.43093271104E+01  0.43093271104E+01  0.00000000000E+00 0.  1.
          2    1    1    2  501    0  0.16175262272E+02  0.12462927608E+02  0.27837551490E+03  0.27912343322E+03  0.00000000000E+00 0. -1.
         21    1    1    2  503  502 -0.16175262272E+02 -0.12462927608E+02  0.22552858761E+02  0.30423594667E+02  0.00000000000E+00 0.  1.
</event>
<event>
 4    1  0.2216341E+005  0.2037443E+02  0.7546771E-02  0.1528387E+00
          2   -1    0    0  503    0  0.00000000000E+00  0.00000000000E+00  0.50199164961E+02  0.50199164961E+02  0.00000000000E+00 0.  1.
         21   -1    0    0  501  502 -0.00000000000E+00 -0.00000000000E+00 -0.18999739941E+02  0.18999739941E+02  0.00000000000E+00 0. -1.
          2    1    1    2  501    0 -0.31561978412E+01  0.20128482121E+02  0.41601426435E+02  0.46322738031E+02  0.00000000000E+00 0.  1.
         21    1    1    2  503  502  0.31561978412E+01 -0.20128482121E+02 -0.10402001414E+02  0.22876166871E+02  0.00000000000E+00 0. -1.
</event>
<event>
 4    1  0.2216341E+005  0.2265346E+02  0.7546771E-02  0.1496896E+00
          2   -1    0    0  502    0  0.00000000000E+00  0.00000000000E+00  0.12806829903E+04  0.12806829903E+04  0.00000000000E+00 0.  1.
         21   -1    0    0  503  502 -0.00000000000E+00 -0.00000000000E+00 -0.14275401737E+01  0.14275401737E+01  0.00000000000E+00 0.  1.
          2    1    1    2  501    0  0.13438161251E+02  0.18237187305E+02  0.11833174913E+04  0.11835343106E+04  0.00000000000E+00 0.  1.
         21    1    1    2  503  501 -0.13438161251E+02 -0.18237187305E+02  0.95937958843E+02  0.98576219879E+02  0.00000000000E+00 0.  1.
</event>
<event>
 4    1  0.2216341E+005  0.4477066E+02  0.7546771E-02  0.1322590E+00
          2   -1    0    0  502    0  0.00000000000E+00  0.00000000000E+00  0.99021993642E+02  0.99021993642E+02  0.00000000000E+00 0.  1.
         21   -1    0    0  503  502 -0.00000000000E+00 -0.00000000000E+00 -0.71408432951E+02  0.71408432951E+02  0.00000000000E+00 0.  1.
          2    1    1    2  501    0 -0.29029751864E+01  0.44676448150E+02  0.85939875085E+02  0.96902396327E+02  0.00000000000E+00 0.  1.
         21    1    1    2  503  501  0.29029751864E+01 -0.44676448150E+02 -0.58326314393E+02  0.73528030267E+02  0.00000000000E+00 0.  1.
</event>
<event>
 4    1  0.2216341E+005  0.2193214E+02  0.7546771E-02  0.1506361E+00
          2   -1    0    0  503    0  0.00000000000E+00  0.00000000000E+00  0.56311911909E+02  0.56311911909E+02  0.00000000000E+00 0.  1.
         21   -1    0    0  501  502 -0.00000000000E+00 -0.00000000000E+00 -0.12873323393E+02  0.12873323393E+02  0.00000000000E+00 0.  1.
          2    1    1    2  501    0  0.11034858170E+02 -0.18953911649E+02  0.41784617377E+02  0.47190815960E+02  0.00000000000E+00 0.  1.
         21    1    1    2  503  502 -0.11034858170E+02  0.18953911649E+02  0.16539711388E+01  0.21994419341E+02  0.00000000000E+00 0.  1.
</event>
<event>
 4    1  0.2216341E+005  0.2980154E+02  0.7546771E-02  0.1421329E+00
          2   -1    0    0  502    0  0.00000000000E+00  0.00000000000E+00  0.22156589830E+03  0.22156589830E+03  0.00000000000E+00 0. -1.
         21   -1    0    0  503  502 -0.00000000000E+00 -0.00000000000E+00 -0.84277195287E+02  0.84277195287E+02  0.00000000000E+00 0. -1.
          2    1    1    2  501    0  0.29749617237E+02  0.17583805793E+01  0.21788493339E+03  0.21991356444E+03  0.00000000000E+00 0. -1.
         21    1    1    2  503  501 -0.29749617237E+02 -0.17583805793E+01 -0.80596230377E+02  0.85929529144E+02  0.00000000000E+00 0. -1.
</event>
<event>
 4    1  0.2216341E+005  0.2069748E+02  0.7546771E-02  0.1523628E+00
          2   -1    0    0  503    0  0.00000000000E+00  0.00000000000E+00  0.54372032136E+03  0.54372032136E+03  0.00000000000E+00 0.  1.
         21   -1    0    0  501  502 -0.00000000000E+00 -0.00000000000E+00 -0.39957410114E+01  0.39957410114E+01  0.00000000000E+00 0.  1.
          2    1    1    2  501    0  0.20669054909E+02 -0.10842939276E+01  0.51523976481E+03  0.51565531197E+03  0.00000000000E+00 0.  1.
         21    1    1    2  503  502 -0.20669054909E+02  0.10842939276E+01  0.24484815537E+02  0.32060750398E+02  0.00000000000E+00 0.  1.
</event>
<event>
 4    1  0.2216341E+005  0.2322358E+02  0.7546771E-02  0.1489710E+00
          2   -1    0    0  503    0  0.00000000000E+00  0.00000000000E+00  0.68556420723E+01  0.68556420723E+01  0.00000000000E+00 0.  1.
         21   -1    0    0  501  502 -0.00000000000E+00 -0.00000000000E+00 -0.20715349247E+03  0.20715349247E+03  0.00000000000E+00 0. -1.
          2    1    1    2  501    0 -0.35228587492E+01 -0.22954829175E+02 -0.15877659273E+02  0.28132450661E+02  0.00000000000E+00 0.  1.
         21    1    1    2  503  502  0.35228587492E+01  0.22954829175E+02 -0.18442019113E+03  0.18587668388E+03  0.00000000000E+00 0. -1.
</event>
<event>
 4    1  0.2216341E+005  0.2131721E+02  0.7546771E-02  0.1514784E+00
          2   -1    0    0  503    0  0.00000000000E+00  0.00000000000E+00  0.50729698833E+03  0.50729698833E+03  0.00000000000E+00 0. -1.
         21   -1    0    0  501  502 -0.00000000000E+00 -0.00000000000E+00 -0.24936569844E+01  0.24936569844E+01  0.00000000000E+00 0.  1.
          2    1    1    2  501    0  0.12817913820E+02 -0.17033039285E+02  0.45644199928E+03  0.45693951684E+03  0.00000000000E+00 0. -1.
         21    1    1    2  503  502 -0.12817913820E+02  0.17033039285E+02  0.48361332059E+02  0.52851128470E+02  0.00000000000E+00 0.  1.
</event>
<event>
 4    1  0.2216341E+005  0.2307384E+02  0.7546771E-02  0.1491573E+00
          2   -1    0    0  502    0  0.00000000000E+00  0.00000000000E+00  0.19422832648E+04  0.19422832648E+04  0.00000000000E+00 0.  1.
         21   -1    0    0  503  502 -0.00000000000E+00 -0.00000000000E+00 -0.41889694958E+00  0.41889694958E+00  0.00000000000E+00 0.  1.
          2    1    1    2  501    0  0.22553517649E+02 -0.48724718142E+01  0.15419966253E+04  0.15421692496E+04  0.00000000000E+00 0.  1.
         21    1    1    2  503  501 -0.22553517649E+02  0.48724718142E+01  0.39986774259E+03  0.40053291214E+03  0.00000000000E+00 0.  1.
</event>
<event>
 4    1  0.2216341E+005  0.2002887E+02  0.7546771E-02  0.1533595E+00
          2   -1    0    0  502    0  0.00000000000E+00  0.00000000000E+00  0.58077488739E+03  0.58077488739E+03  0.00000000000E+00 0.  1.
         21   -1    0    0  503  502 -0.00000000000E+00 -0.00000000000E+00 -0.63891570995E+01  0.63891570995E+01  0.00000000000E+00 0. -1.
          2    1    1    2  501    0 -0.19987338500E+02 -0.12892349967E+01  0.56445167646E+03  0.56480691469E+03  0.00000000000E+00 0.  1.
         21    1    1    2  503  501  0.19987338500E+02  0.12892349967E+01  0.99340538298E+01  0.22357129795E+02  0.00000000000E+00 0. -1.
</event>
<event>
 4    1  0.2216341E+005  0.2427379E+02  0.7546771E-02  0.1477094E+00
          2   -1    0    0  503    0  0.00000000000E+00  0.00000000000E+00  0.38818237602E+03  0.38818237602E+03  0.00000000000E+00 0.  1.
         21   -1    0    0  501  502 -0.00000000000E+00 -0.00000000000E+00 -0.15609444462E+01  0.15609444462E+01  0.00000000000E+00 0.  1.
          2    1    1    2  501    0  0.25992448933E+01  0.24134225524E+02  0.16094539171E+03  0.16276558613E+03  0.00000000000E+00 0.  1.
         21    1    1    2  503  502 -0.25992448933E+01 -0.24134225524E+02  0.22567603987E+03  0.22697773434E+03  0.00000000000E+00 0.  1.
</event>
<event>
 4    1  0.2216341E+005  0.4491337E+02  0.7546771E-02  0.1321873E+00
          2   -1    0    0  503    0  0.00000000000E+00  0.00000000000E+00  0.17275758273E+04  0.17275758273E+04  0.00000000000E+00 0.  1.
         21   -1    0    0  501  502 -0.00000000000E+00 -0.00000000000E+00 -0.48909500181E+01  0.48909500181E+01  0.00000000000E+00 0.  1.
          2    1    1    2  501    0  0.91186236478E+01 -0.43977969909E+02  0.16171340714E+04  0.16177576506E+04  0.00000000000E+00 0.  1.
         21    1    1    2  503  502 -0.91186236478E+01  0.43977969909E+02  0.10555080590E+03  0.11470912675E+03  0.00000000000E+00 0.  1.
</event>
<event>
 4    1  0.2216341E+005  0.2636302E+02  0.7546771E-02  0.1454114E+00
          2   -1    0    0  503    0  0.00000000000E+00  0.00000000000E+00  0.10316730827E+04  0.10316730827E+04  0.00000000000E+00 0.  1.
         21   -1    0    0  501  502 -0.00000000000E+00 -0.00000000000E+00 -0.22424925490E+02  0.22424925490E+02  0.00000000000E+00 0. -1.
          2    1    1    2  501    0  0.18993791642E+02 -0.18282363056E+02  0.10236961244E+04  0.10240355287E+04  0.00000000000E+00 0.  1.
         21    1    1    2  503  502 -0.18993791642E+02  0.18282363056E+02 -0.14447967163E+02  0.30062479522E+02  0.00000000000E+00 0. -1.
</event>
<event>
 4    1  0.2216341E+005  0.2218319E+02  0.7546771E-02  0.1503018E+00
          2   -1    0    0  503    0  0.00000000000E+00  0.00000000000E+00  0.13385119427E+04  0.13385119427E+04  0.00000000000E+00 0. -1.
         21   -1    0    0  501  502 -0.00000000000E+00 -0.00000000000E+00 -0.41046951589E+00  0.41046951589E+00  0.00000000000E+00 0.  1.
          2    1    1    2  501    0 -0.19860458828E+02  0.98821015075E+01  0.88529486783E+03  0.88557275069E+03  0.00000000000E+00 0. -1.
         21    1    1    2  503  502  0.19860458828E+02 -0.98821015075E+01  0.45280660532E+03  0.45334966149E+03  0.00000000000E+00 0.  1.
</event>
<event>
 4    1  0.2216341E+005  0.2034257E+02  0.7546771E-02  0.1528862E+00
          2   -1    0    0  503    0  0.00000000000E+00  0.00000000000E+00  0.29955705837E+03  0.29955705837E+03  0.00000000000E+00 0.  1.
         21   -1    0    0  501  502 -0.00000000000E+00 -0.00000000000E+00 -0.26104469657E+01  0.26104469657E+01  0.00000000000E+00 0.  1.
          2    1    1    2  501    0  0.11805828055E+02 -0.16566313633E+02  0.44807060606E+02  0.49208667972E+02  0.00000000000E+00 0.  1.
         21    1    1    2  503  502 -0.11805828055E+02  0.16566313633E+02  0.25213955080E+03  0.25295883737E+03  0.00000000000E+00 0.  1.
</event>
<event>
 4    1  0.2216341E+005  0.2444988E+02  0.7546771E-02  0.1475053E+00
          2   -1    0    0  503    0  0.00000000000E+00  0.00000000000E+00  0.11442602797E+04  0.11442602797E+04  0.00000000000E+00 0. -1.
         21   -1    0    0  501  502 -0.00000000000E+00 -0.00000000000E+00 -0.99390011284E+00  0.99390011284E+00  0.00000000000E+00 0. -1.
          2    1    1    2  501    0  0.17866366239E+02  0.16691003446E+02  0.96602447102E+03  0.96633383220E+03  0.00000000000E+00 0. -1.
         21    1    1    2  503  502 -0.17866366239E+02 -0.16691003446E+02  0.17724190860E+03  0.17892034765E+03  0.00000000000E+00 0. -1.
</event>
<event>
 4    1  0.2216341E+005  0.4256661E+02  0.7546771E-02  0.1334068E+00
          2   -1    0    0  502    0  0.00000000000E+00  0.00000000000E+00  0.27081745895E+04  0.27081745895E+04  0.00000000000E+00 0.  1.
         21   -1    0    0  503  502 -0.00000000000E+00 -0.00000000000E+00 -0.67244198937E+01  0.67244198937E+01  0.00000000000E+00 0.  1.
          2    1    1    2  501    0 -0.78268305319E+01  0.41840849867E+02  0.26388751321E+04  0.26392184220E+04  0.00000000000E+00 0.  1.
         21    1    1    2  503  501  0.78268305319E+01 -0.41840849867E+02  0.62575037440E+02  0.75680587368E+02  0.00000000000E+00 0.  1.
</event>
<event>
 4    1  0.2216341E+005  0.2314839E+02  0.7546771E-02  0.1490643E+00
          2   -1    0    0  503    0  0.00000000000E+00  0.00000000000E+00  0.16304142654E+04  0.16304142654E+04  0.00000000000E+00 0.  1.
         21   -1    0    0  501  502 -0.00000000000E+00 -0.00000000000E+00 -0.49230867354E+00  0.49230867354E+00  0.00000000000E+00 0.  1.
          2    1    1    2  501    0 -0.80478835007E+01  0.21704367087E+02  0.12851146393E+04  0.12853231049E+04  0.00000000000E+00 0.  1.
         21    1    1    2  503  502  0.80478835007E+01 -0.21704367087E+02  0.34480731743E+03  0.34558346913E+03  0.00000000000E+00 0.  1.
</event>
<event>
 4    1  0.2216341E+005  0.3884565E+02  0.7546771E-02  0.1355386E+00
          2   -1    0    0  502    0  0.00000000000E+00  0.00000000000E+00  0.63112944950E+02  0.63112944950E+02  0.00000000000E+00 0. -1.
         21   -1    0    0  503  502 -0.00000000000E+00 -0.00000000000E+00 -0.39220410968E+03  0.39220410968E+03  0.00000000000E+00 0. -1.
          2    1    1    2  501    0 -0.30093501561E+02  0.24563510881E+02  0.56064656425E+02  0.68207262099E+02  0.00000000000E+00 0. -1.
         21    1    1    2  503  501  0.30093501561E+02 -0.24563510881E+02 -0.38515582115E+03  0.38710979253E+03  0.00000000000E+00 0. -1.
</event>
<event>
 4    1  0.2216341E+005  0.2297245E+02  0.7546771E-02  0.1492844E+00
          2   -1    0    0  503    0  0.00000000000E+00  0.00000000000E+00  0.25335121593E+02  0.25335121593E+02  0.00000000000E+00 0. -1.
         21   -1    0    0  501  502 -0.00000000000E+00 -0.00000000000E+00 -0.27078093237E+02  0.27078093237E+02  0.00000000000E+00 0. -1.
          2    1    1    2  501    0 -0.22883678480E+02  0.20176320774E+01  0.11716939344E+02  0.25787986497E+02  0.00000000000E+00 0. -1.
         21    1    1    2  503  502  0.22883678480E+02 -0.20176320774E+01 -0.13459910988E+02  0.26625228333E+02  0.00000000000E+00 0. -1.
</event>
<event>
 4    1  0.2216341E+005  0.2638622E+02  0.7546771E-02  0.1453873E+00
          2   -1    0    0  503    0  0.00000000000E+00  0.00000000000E+00  0.19007512634E+03  0.19007512634E+03  0.00000000000E+00 0. -1.
         21   -1    0    0  501  502 -0.00000000000E+00 -0.00000000000E+00 -0.23977449225E+02  0.23977449225E+02  0.00000000000E+00 0. -1.
          2    1    1    2  501    0 -0.55779829356E+01 -0.25789893075E+02  0.18156153644E+03  0.18346886383E+03  0.00000000000E+00 0. -1.
         21    1    1    2  503  502  0.55779829356E+01  0.25789893075E+02 -0.15463859328E+02  0.30583711739E+02  0.00000000000E+00 0. -1.
</event>
<event>
 4    1  0.2216341E+005  0.3179360E+02  0.7546771E-02  0.1404625E+00
          2   -1    0    0  502    0  0.00000000000E+00  0.00000000000E+00  0.25967555875E+03  0.25967555875E+03  0.00000000000E+00 0. -1.
         21   -1    0    0  503  502 -0.00000000000E+00 -0.00000000000E+00 -0.96297834149E+02  0.96297834149E+02  0.00000000000E+00 0. -1.
          2    1    1    2  501    0  0.16799624457E+02  0.26992693432E+02  0.25604104529E+03  0.25800746065E+03  0.00000000000E+00 0. -1.
         21    1    1    2  503  501 -0.16799624457E+02 -0.26992693432E+02 -0.92663320685E+02  0.97965932247E+02  0.00000000000E+00 0. -1.
</event>
<event>
 4    1  0.2216341E+005  0.2863184E+02  0.7546771E-02  0.1431870E+00
          2   -1    0    0  503    0  0.00000000000E+00  0.00000000000E+00  0.23594957540E+03  0.23594957540E+03  0.00000000000E+00 0.  1.
         21   -1    0    0  501  502 -0.00000000000E+00 -0.00000000000E+00 -0.56538853907E+01  0.56538853907E+01  0.00000000000E+00 0. -1.
          2    1    1    2  501    0  0.22934421452E+01  0.28539841032E+02  0.19015055828E+03  0.19229409044E+03  0.00000000000E+00 0.  1.
         21    1    1    2  503  502 -0.22934421452E+01 -0.28539841032E+02  0.40145131725E+02  0.49309370349E+02  0.00000000000E+00 0. -1.
</event>
<event>
 4    1  0.2216341E+005  0.2349391E+02  0.7546771E-02  0.1486387E+00
          2   -1    0    0  502    0  0.00000000000E+00  0.00000000000E+00  0.12752300734E+03  0.12752300734E+03  0.00000000000E+00 0.  1.
         21   -1    0    0  503  502 -0.00000000000E+00 -0.00000000000E+00 -0.10007411562E+02  0.10007411562E+02  0.00000000000E+00 0. -1.
          2    1    1    2  501    0 -0.23489807450E+02 -0.43910610005E+00  0.11055976837E+03  0.11302843116E+03  0.00000000000E+00 0.  1.
         21    1    1    2  503  501  0.23489807450E+02  0.43910610005E+00  0.69558274010E+01  0.24501987737E+02  0.00000000000E+00 0. -1.
</event>
<event>
 4    1  0.2216341E+005  0.2527396E+02  0.7546771E-02  0.1465762E+00
          2   -1    0    0  502    0  0.00000000000E+00  0.00000000000E+00  0.75168504513E+01  0.75168504513E+01  0.00000000000E+00 0. -1.
         21   -1    0    0  503  502 -0.00000000000E+00 -0.00000000000E+00 -0.86171347153E+02  0.86171347153E+02  0.00000000000E+00 0. -1.
          2    1    1    2  501    0 -0.38388903060E+01  0.24980717065E+02 -0.33816606345E+02  0.42217723394E+02  0.00000000000E+00 0. -1.
         21    1    1    2  503  501  0.38388903060E+01 -0.24980717065E+02 -0.44837890356E+02  0.51470474210E+02  0.00000000000E+00 0. -1.
</event>
<event>
 4    1  0.2216341E+005  0.3668638E+02  0.7546771E-02  0.1369080E+00
          2   -1    0    0  502    0  0.00000000000E+00  0.00000000000E+00  0.65251998919E+03  0.65251998919E+03  0.00000000000E+00 0. -1.
         21   -1    0    0  503  502 -0.00000000000E+00 -0.00000000000E+00 -0.14935983682E+02  0.14935983682E+02  0.00000000000E+00 0.  1.
          2    1    1    2  501    0 -0.27504126566E+02 -0.24277845911E+02  0.62862094952E+03  0.62969055016E+03  0.00000000000E+00 0. -1.
         21    1    1    2  503  501  0.27504126566E+02  0.24277845911E+02  0.89630559884E+01  0.37765422716E+02  0.00000000000E+00 0.  1.
</event>
<event>
 4    1  0.2216341E+005  0.2819939E+02  0.7546771E-02  0.1435918E+00
          2   -1    0    0  502    0  0.00000000000E+00  0.00000000000E+00  0.94893733311E+03  0.94893733311E+03  0.00000000000E+00 0. -1.
         21   -1    0    0  503  502 -0.00000000000E+00 -0.00000000000E+00 -0.35994093540E+01  0.35994093540E+01  0.00000000000E+00 0. -1.
          2    1    1    2  501    0 -0.11808624365E+02  0.25607849944E+02  0.88982817487E+03  0.89027489371E+03  0.00000000000E+00 0. -1.
         21    1    1    2  503  501  0.11808624365E+02 -0.25607849944E+02  0.55509748885E+02  0.62261848747E+02  0.00000000000E+00 0. -1.
</event>
<event>
 4    1  0.2216341E+005  0.2115585E+02  0.7546771E-02  0.1517051E+00
          2   -1    0    0  503    0  0.00000000000E+00  0.00000000000E+00  0.33180292858E+02  0.33180292858E+02  0.00000000000E+00 0.  1.
         21   -1    0    0  501  502 -0.00000000000E+00 -0.00000000000E+00 -0.36378779576E+02  0.36378779576E+02  0.00000000000E+00 0. -1.
          2    1    1    2  501    0 -0.50231462016E+01  0.20550863116E+02  0.25988758236E+02  0.33510976221E+02  0.00000000000E+00 0.  1.
         21    1    1    2  503  502  0.50231462016E+01 -0.20550863116E+02 -0.29187244954E+02  0.36048096213E+02  0.00000000000E+00 0. -1.
</event>
<event>
 4    1  0.2216341E+005  0.2204025E+02  0.7546771E-02  0.1504915E+00
          2   -1    0    0  503    0  0.00000000000E+00  0.00000000000E+00  0.72997584287E+03  0.72997584287E+03  0.00000000000E+00 0.  1.
         21   -1    0    0  501  502 -0.00000000000E+00 -0.00000000000E+00 -0.68345986233E+00  0.68345986233E+00  0.00000000000E+00 0.  1.
          2    1    1    2  501    0  0.52712176626E+01  0.21400629263E+02  0.42392703108E+03  0.42449958817E+03  0.00000000000E+00 0.  1.
         21    1    1    2  503  502 -0.52712176626E+01 -0.21400629263E+02  0.30536535192E+03  0.30615971457E+03  0.00000000000E+00 0.  1.
</event>
<event>
 4    1  0.2216341E+005  0.2104941E+02  0.7546771E-02  0.1518560E+00
          2   -1    0    0  503    0  0.00000000000E+00  0.00000000000E+00  0.13030934188E+02  0.13030934188E+02  0.00000000000E+00 0.  1.
         21   -1    0    0  501  502 -0.00000000000E+00 -0.00000000000E+00 -0.37305191769E+02  0.37305191769E+02  0.00000000000E+00 0.  1.
          2    1    1    2  501    0  0.17743467270E+02  0.11324624380E+02 -0.46479804734E+01  0.21556471664E+02  0.00000000000E+00 0.  1.
         21    1    1    2  503  502 -0.17743467270E+02 -0.11324624380E+02 -0.19626277108E+02  0.28779654293E+02  0.00000000000E+00 0.  1.
</event>
<event>
 4    1  0.2216341E+005  0.2383410E+02  0.7546771E-02  0.1482282E+00
          2   -1    0    0  503    0  0.00000000000E+00  0.00000000000E+00  0.53886995292E+02  0.53886995292E+02  0.00000000000E+00 0. -1.
         21   -1    0    0  501  502 -0.00000000000E+00 -0.00000000000E+00 -0.26019373546E+02  0.26019373546E+02  0.00000000000E+00 0. -1.
          2    1    1    2  501    0 -0.15004148219E+02 -0.18518633534E+02  0.44748291788E+02  0.50699840924E+02  0.00000000000E+00 0. -1.
         21    1    1    2  503  502  0.15004148219E+02  0.18518633534E+02 -0.16880670043E+02  0.29206527914E+02  0.00000000000E+00 0. -1.
</event>
<event>
 4    1  0.2216341E+005  0.3022796E+02  0.7546771E-02  0.1417626E+00
          2   -1    0    0  502    0  0.00000000000E+00  0.00000000000E+00  0.11839436927E+04  0.11839436927E+04  0.00000000000E+00 0. -1.
         21   -1    0    0  503  502 -0.00000000000E+00 -0.00000000000E+00 -0.58593094311E+02  0.58593094311E+02  0.00000000000E+00 0. -1.
          2    1    1    2  501    0  0.53375211042E+01 -0.29752991301E+02  0.11798385648E+04  0.11802257278E+04  0.00000000000E+00 0. -1.
         21    1    1    2  503  501 -0.53375211042E+01  0.29752991301E+02 -0.54487966371E+02  0.62311059229E+02  0.00000000000E+00 0. -1.
</event>
<event>
 4    1  0.2216341E+005  0.2776836E+02  0.7546771E-02  0.1440039E+00
          2   -1    0    0  503    0  0.00000000000E+00  0.00000000000E+00  0.17464269544E+04  0.17464269544E+04  0.00000000000E+00 0. -1.
         21   -1    0    0  501  502 -0.00000000000E+00 -0.00000000000E+00 -0.91604435509E+00  0.91604435509E+00  0.00000000000E+00 0.  1.
          2    1    1    2  501    0  0.45953889624E+01  0.27385474012E+02  0.15015653095E+04  0.15018220469E+04  0.00000000000E+00 0. -1.
         21    1    1    2  503  502 -0.45953889624E+01 -0.27385474012E+02  0.24394560047E+03  0.24552095181E+03  0.00000000000E+00 0.  1.
</event>
<event>
 4    1  0.2216341E+005  0.2077645E+02  0.7546771E-02  0.1522481E+00
          2   -1    0    0  503    0  0.00000000000E+00  0.00000000000E+00  0.46474978980E+03  0.46474978980E+03  0.00000000000E+00 0. -1.
         21   -1    0    0  501  502 -0.00000000000E+00 -0.00000000000E+00 -0.14892855675E+01  0.14892855675E+01  0.00000000000E+00 0. -1.
          2    1    1    2  501    0 -0.42749176392E+01 -0.20331890634E+02  0.37464176098E+03  0.37521741666E+03  0.00000000000E+00 0. -1.
         21    1    1    2  503  502  0.42749176392E+01  0.20331890634E+02  0.88618743258E+02  0.91021658709E+02  0.00000000000E+00 0. -1.
</event>
<event>
 4    1  0.2216341E+005  0.4257935E+02  0.7546771E-02  0.1334000E+00
          2   -1    0    0  502    0  0.00000000000E+00  0.00000000000E+00  0.15251237248E+03  0.15251237248E+03  0.00000000000E+00 0. -1.
         21   -1    0    0  503  502 -0.00000000000E+00 -0.00000000000E+00 -0.25201601841E+02  0.25201601841E+02  0.00000000000E+00 0.  1.
          2    1    1    2  501    0 -0.31078051286E+02 -0.29105941130E+02  0.12824048758E+03  0.13512447497E+03  0.00000000000E+00 0. -1.
         21    1    1    2  503  501  0.31078051286E+02  0.29105941130E+02 -0.92971694997E+00  0.42589499345E+02  0.00000000000E+00 0.  1.
</event>
<event>
 4    1  0.2216341E+005  0.2325408E+02  0.7546771E-02  0.1489332E+00
          2   -1    0    0  503    0  0.00000000000E+00  0.00000000000E+00  0.87167897525E+03  0.87167897525E+03  0.00000000000E+00 0. -1.
         21   -1    0    0  501  502 -0.00000000000E+00 -0.00000000000E+00 -0.33658772448E+01  0.33658772448E+01  0.00000000000E+00 0.  1.
          2    1    1    2  501    0  0.16407594686E+02 -0.16478562300E+02  0.82930793101E+03  0.82963389312E+03  0.00000000000E+00 0. -1.
         21    1    1    2  503  502 -0.16407594686E+02  0.16478562300E+02  0.39005166990E+02  0.45410959369E+02  0.00000000000E+00 0.  1.
</event>
<event>
 4    1  0.2216341E+005  0.8388096E+02  0.7546771E-02  0.1195113E+00
          2   -1    0    0  502    0  0.00000000000E+00  0.00000000000E+00  0.10898092982E+04  0.10898092982E+04  0.00000000000E+00 0. -1.
         21   -1    0    0  503  502 -0.00000000000E+00 -0.00000000000E+00 -0.23389346399E+03  0.23389346399E+03  0.00000000000E+00 0. -1.
          2    1    1    2  501    0 -0.77644738855E+02 -0.31738145580E+02  0.10806107954E+04  0.10838614794E+04  0.00000000000E+00 0. -1.
         21    1    1    2  503  501  0.77644738855E+02  0.31738145580E+02 -0.22469496119E+03  0.23984128281E+03  0.00000000000E+00 0. -1.
</event>
<event>
 4    1  0.2216341E+005  0.2426487E+02  0.7546771E-02  0.1477198E+00
          2   -1    0    0  502    0  0.00000000000E+00  0.00000000000E+00  0.38124486079E+03  0.38124486079E+03  0.00000000000E+00 0. -1.
         21   -1    0    0  503  502 -0.00000000000E+00 -0.00000000000E+00 -0.10118860078E+02  0.10118860078E+02  0.00000000000E+00 0. -1.
          2    1    1    2  501    0 -0.22307425603E+02 -0.95479135962E+01  0.36569417192E+03  0.36649831005E+03  0.00000000000E+00 0. -1.
         21    1    1    2  503  501  0.22307425603E+02  0.95479135962E+01  0.54318287859E+01  0.24865410816E+02  0.00000000000E+00 0. -1.
</event>
<event>
 4    1  0.2216341E+005  0.6752107E+02  0.7546771E-02  0.1236218E+00
          2   -1    0    0  503    0  0.00000000000E+00  0.00000000000E+00  0.74862894664E+03  0.74862894664E+03  0.00000000000E+00 0. -1.
         21   -1    0    0  501  502 -0.00000000000E+00 -0.00000000000E+00 -0.78815648059E+02  0.78815648059E+02  0.00000000000E+00 0. -1.
          2    1    1    2  501    0 -0.59125287197E+02  0.32608203559E+02  0.73232390906E+03  0.73543007982E+03  0.00000000000E+00 0. -1.
         21    1    1    2  503  502  0.59125287197E+02 -0.32608203559E+02 -0.62510610480E+02  0.92014514877E+02  0.00000000000E+00 0. -1.
</event>
<event>
 4    1  0.2216341E+005  0.2504606E+02  0.7546771E-02  0.1468289E+00
          2   -1    0    0  503    0  0.00000000000E+00  0.00000000000E+00  0.13594916371E+03  0.13594916371E+03  0.00000000000E+00 0. -1.
         21   -1    0    0  501  502 -0.00000000000E+00 -0.00000000000E+00 -0.39287493939E+03  0.39287493939E+03  0.00000000000E+00 0.  1.
          2    1    1    2  501    0  0.18374509331E+02  0.17020061572E+02  0.13439183593E+03  0.13670578135E+03  0.00000000000E+00 0. -1.
         21    1    1    2  503  502 -0.18374509331E+02 -0.17020061572E+02 -0.39131761162E+03  0.39211832175E+03  0.00000000000E+00 0.  1.
</event>
<event>
 4    1  0.2216341E+005  0.3484233E+02  0.7546771E-02  0.1381675E+00
          2   -1    0    0  503    0  0.00000000000E+00  0.00000000000E+00  0.14536803799E+02  0.14536803799E+02  0.00000000000E+00 0.  1.
         21   -1    0    0  501  502 -0.00000000000E+00 -0.00000000000E+00 -0.86843876098E+02  0.86843876098E+02  0.00000000000E+00 0. -1.
          2    1    1    2  501    0  0.34223599939E+02 -0.65370554750E+01 -0.26223670264E+02  0.43608127330E+02  0.00000000000E+00 0.  1.
         21    1    1    2  503  502 -0.34223599939E+02  0.65370554750E+01 -0.46083402035E+02  0.57772552568E+02  0.00000000000E+00 0. -1.
</event>
<event>
 4    1  0.2216341E+005  0.2428742E+02  0.7546771E-02  0.1476935E+00
          2   -1    0    0  503    0  0.00000000000E+00  0.00000000000E+00  0.97168647945E+01  0.97168647945E+01  0.00000000000E+00 0. -1.
         21   -1    0    0  501  502 -0.00000000000E+00 -0.00000000000E+00 -0.60924822150E+02  0.60924822150E+02  0.00000000000E+00 0. -1.
          2    1    1    2  501    0 -0.21361306648E+02  0.11557397398E+02 -0.23490598464E+02  0.33788860184E+02  0.00000000000E+00 0. -1.
         21    1    1    2  503  502  0.21361306648E+02 -0.11557397398E+02 -0.27717358892E+02  0.36852826761E+02  0.00000000000E+00 0. -1.
</event>
<event>
 4    1  0.2216341E+005  0.2126932E+02  0.7546771E-02  0.1515454E+00
          2   -1    0    0  502    0  0.00000000000E+00  0.00000000000E+00  0.95424165937E+03  0.95424165937E+03  0.00000000000E+00 0.  1.
         21   -1    0    0  503  502 -0.00000000000E+00 -0.00000000000E+00 -0.29398354899E+01  0.29398354899E+01  0.00000000000E+00 0. -1.
          2    1    1    2  501    0 -0.93726725517E+01  0.19092852226E+02  0.91395755700E+03  0.91420500983E+03  0.00000000000E+00 0.  1.
         21    1    1    2  503  501  0.93726725517E+01 -0.19092852226E+02  0.37344266879E+02  0.42976485031E+02  0.00000000000E+00 0. -1.
</event>
<event>
 4    1  0.2216341E+005  0.2209238E+02  0.7546771E-02  0.1504221E+00
          2   -1    0    0  503    0  0.00000000000E+00  0.00000000000E+00  0.11013252563E+04  0.11013252563E+04  0.00000000000E+00 0.  1.
         21   -1    0    0  501  502 -0.00000000000E+00 -0.00000000000E+00 -0.38572840429E+03  0.38572840429E+03  0.00000000000E+00 0. -1.
          2    1    1    2  501    0  0.18906597541E+02  0.11428640335E+02  0.11008980091E+04  0.11011196573E+04  0.00000000000E+00 0.  1.
         21    1    1    2  503  502 -0.18906597541E+02 -0.11428640335E+02 -0.38530115708E+03  0.38593400329E+03  0.00000000000E+00 0. -1.
</event>
<event>
 4    1  0.2216341E+005  0.2959714E+02  0.7546771E-02  0.1423130E+00
          2   -1    0    0  503    0  0.00000000000E+00  0.00000000000E+00  0.62996967706E+03  0.62996967706E+03  0.00000000000E+00 0. -1.
         21   -1    0    0  501  502 -0.00000000000E+00 -0.00000000000E+00 -0.15847644241E+01  0.15847644241E+01  0.00000000000E+00 0. -1.
          2    1    1    2  501    0 -0.13172108768E+02 -0.26504456394E+02  0.42474365442E+03  0.42577360490E+03  0.00000000000E+00 0. -1.
         21    1    1    2  503  502  0.13172108768E+02  0.26504456394E+02  0.20364125822E+03  0.20578083658E+03  0.00000000000E+00 0. -1.
</event>
<event>
 4    1  0.2216341E+005  0.8959344E+02  0.7546771E-02  0.1183175E+00
          2   -1    0    0  502    0  0.00000000000E+00  0.00000000000E+00  0.13029573680E+04  0.13029573680E+04  0.00000000000E+00 0. -1.
         21   -1    0    0  503  502 -0.00000000000E+00 -0.00000000000E+00 -0.11895217836E+02  0.11895217836E+02  0.00000000000E+00 0.  1.
          2    1    1    2  501    0  0.54812040001E+02  0.70870483413E+02  0.11020024172E+04  0.11056384186E+04  0.00000000000E+00 0. -1.
         21    1    1    2  503  501 -0.54812040001E+02 -0.70870483413E+02  0.18905973298E+03  0.20921416726E+03  0.00000000000E+00 0.  1.
</event>
<event>
 4    1  0.2216341E+005  0.3204575E+02  0.7546771E-02  0.1402614E+00
          2   -1    0    0  502    0  0.00000000000E+00  0.00000000000E+00  0.46346611093E+03  0.46346611093E+03  0.00000000000E+00 0. -1.
         21   -1    0    0  503  502 -0.00000000000E+00 -0.00000000000E+00 -0.28189980637E+02  0.28189980637E+02  0.00000000000E+00 0.  1.
          2    1    1    2  501    0  0.31232057810E+02 -0.71755417494E+01  0.45360725399E+03  0.45473780435E+03  0.00000000000E+00 0. -1.
         21    1    1    2  503  501 -0.31232057810E+02  0.71755417494E+01 -0.18331123701E+02  0.36918287211E+02  0.00000000000E+00 0.  1.
</event>
<event>
 4    1  0.2216341E+005  0.2117319E+02  0.7546771E-02  0.1516806E+00
          2   -1    0    0  503    0  0.00000000000E+00  0.00000000000E+00  0.45159137297E+03  0.45159137297E+03  0.00000000000E+00 0.  1.
         21   -1    0    0  501  502 -0.00000000000E+00 -0.00000000000E+00 -0.11176832560E+02  0.11176832560E+02  0.00000000000E+00 0. -1.
          2    1    1    2  501    0  0.12061663654E+02 -0.17401726668E+02  0.44107676553E+03  0.44158466562E+03  0.00000000000E+00 0.  1.
         21    1    1    2  503  502 -0.12061663654E+02  0.17401726668E+02 -0.66222511630E+00  0.21183539913E+02  0.00000000000E+00 0. -1.
</event>
<event>
 4    1  0.2216341E+005  0.2562599E+02  0.7546771E-02  0.1461921E+00
          2   -1    0    0  503    0  0.00000000000E+00  0.00000000000E+00  0.11689592475E+04  0.11689592475E+04  0.00000000000E+00 0. -1.
         21   -1    0    0  501  502 -0.00000000000E+00 -0.00000000000E+00 -0.62217213748E+00  0.62217213748E+00  0.00000000000E+00 0. -1.
          2    1    1    2  501    0  0.22079517212E+02 -0.13007156183E+02  0.40196529684E+03  0.40278131915E+03  0.00000000000E+00 0. -1.
         21    1    1    2  503  502 -0.22079517212E+02  0.13007156183E+02  0.76637177851E+03  0.76680010047E+03  0.00000000000E+00 0. -1.
</event>
<event>
 4    1  0.2216341E+005  0.3723083E+02  0.7546771E-02  0.1365524E+00
          2   -1    0    0  502    0  0.00000000000E+00  0.00000000000E+00  0.15859070955E+04  0.15859070955E+04  0.00000000000E+00 0. -1.
         21   -1    0    0  503  502 -0.00000000000E+00 -0.00000000000E+00 -0.10321862226E+02  0.10321862226E+02  0.00000000000E+00 0. -1.
          2    1    1    2  501    0  0.26867447275E+02  0.25773533276E+02  0.15513684655E+04  0.15518151470E+04  0.00000000000E+00 0. -1.
         21    1    1    2  503  501 -0.26867447275E+02 -0.25773533276E+02  0.24216767767E+02  0.44413810709E+02  0.00000000000E+00 0. -1.
</event>
<event>
 4    1  0.2216341E+005  0.2069230E+02  0.7546771E-02  0.1523704E+00
          2   -1    0    0  503    0  0.00000000000E+00  0.00000000000E+00  0.38742522393E+03  0.38742522393E+03  0.00000000000E+00 0. -1.
         21   -1    0    0  501  502 -0.00000000000E+00 -0.00000000000E+00 -0.21812335835E+02  0.21812335835E+02  0.00000000000E+00 0.  1.
          2    1    1    2  501    0 -0.10635726726E+02  0.17749726270E+02  0.38217410511E+03  0.38273387371E+03  0.00000000000E+00 0. -1.
         21    1    1    2  503  502  0.10635726726E+02 -0.17749726270E+02 -0.16561217015E+02  0.26503686058E+02  0.00000000000E+00 0.  1.
</event>
<event>
 4    1  0.2216341E+005  0.4091465E+02  0.7546771E-02  0.1343208E+00
          2   -1    0    0  503    0  0.00000000000E+00  0.00000000000E+00  0.89689906824E+03  0.89689906824E+03  0.00000000000E+00 0.  1.
         21   -1    0    0  501  502 -0.00000000000E+00 -0.00000000000E+00 -0.22073204532E+01  0.22073204532E+01  0.00000000000E+00 0. -1.
          2    1    1    2  501    0  0.40684593163E+02  0.43327051098E+01  0.62401039140E+03  0.62535028346E+03  0.00000000000E+00 0.  1.
         21    1    1    2  503  502 -0.40684593163E+02 -0.43327051098E+01  0.27068135639E+03  0.27375610523E+03  0.00000000000E+00 0. -1.
</event>
<event>
 4    1  0.2216341E+005  0.2177988E+02  0.7546771E-02  0.1508415E+00
          2   -1    0    0  503    0  0.00000000000E+00  0.00000000000E+00  0.38310776796E+03  0.38310776796E+03  0.00000000000E+00 0. -1.
         21   -1    0    0  501  502 -0.00000000000E+00 -0.00000000000E+00 -0.54818524312E+01  0.54818524312E+01  0.00000000000E+00 0.  1.
          2    1    1    2  501    0  0.19639002133E+02 -0.94166311541E+01  0.35976233608E+03  0.36042100634E+03  0.00000000000E+00 0. -1.
         21    1    1    2  503  502 -0.19639002133E+02  0.94166311541E+01  0.17863579451E+02  0.28168614057E+02  0.00000000000E+00 0.  1.
</event>
<event>
 4    1  0.2216341E+005  0.3109413E+02  0.7546771E-02  0.1410321E+00
          2   -1    0    0  503    0  0.00000000000E+00  0.00000000000E+00  0.28618112688E+02  0.28618112688E+02  0.00000000000E+00 0.  1.
         21   -1    0    0  501  502 -0.00000000000E+00 -0.00000000000E+00 -0.77581541941E+02  0.77581541941E+02  0.00000000000E+00 0.  1.
          2    1    1    2  501    0  0.21827997901E+02 -0.22144597897E+02  0.15414985262E+02  0.34705424345E+02  0.00000000000E+00 0.  1.
         21    1    1    2  503  502 -0.21827997901E+02  0.22144597897E+02 -0.64378414515E+02  0.71494230283E+02  0.00000000000E+00 0.  1.
</event>
<event>
 4    1  0.2216341E+005  0.2109462E+02  0.7546771E-02  0.1517918E+00
          2   -1    0    0  503    0  0.00000000000E+00  0.00000000000E+00  0.73224564201E+03  0.73224564201E+03  0.00000000000E+00 0. -1.
         21   -1    0    0  501  502 -0.00000000000E+00 -0.00000000000E+00 -0.35301736725E+01  0.35301736725E+01  0.00000000000E+00 0. -1.
          2    1    1    2  501    0 -0.17622965362E+02  0.11593707248E+02  0.69908651609E+03  0.69940470397E+03  0.00000000000E+00 0. -1.
         21    1    1    2  503  502  0.17622965362E+02 -0.11593707248E+02  0.29628952242E+02  0.36371111707E+02  0.00000000000E+00 0. -1.
</event>
<event>
 4    1  0.2216341E+005  0.8968562E+02  0.7546771E-02  0.1182991E+00
          2   -1    0    0  502    0  0.00000000000E+00  0.00000000000E+00  0.31961362959E+03  0.31961362959E+03  0.00000000000E+00 0.  1.
         21   -1    0    0  503  502 -0.00000000000E+00 -0.00000000000E+00 -0.19028657211E+03  0.19028657211E+03  0.00000000000E+00 0.  1.
          2    1    1    2  501    0  0.39402806659E+01 -0.89599021208E+02  0.30215676241E+03  0.31518600776E+03  0.00000000000E+00 0.  1.
         21    1    1    2  503  501 -0.39402806659E+01  0.89599021208E+02 -0.17282970494E+03  0.19471419394E+03  0.00000000000E+00 0.  1.
</event>
<event>
 4    1  0.2216341E+005  0.2137950E+02  0.7546771E-02  0.1513915E+00
          2   -1    0    0  503    0  0.00000000000E+00  0.00000000000E+00  0.10566399554E+04  0.10566399554E+04  0.00000000000E+00 0. -1.
         21   -1    0    0  501  502 -0.00000000000E+00 -0.00000000000E+00 -0.10053632619E+03  0.10053632619E+03  0.00000000000E+00 0.  1.
          2    1    1    2  501    0  0.10640551720E+02 -0.18543509265E+02  0.10553938564E+04  0.10556103804E+04  0.00000000000E+00 0. -1.
         21    1    1    2  503  502 -0.10640551720E+02  0.18543509265E+02 -0.99290227173E+02  0.10156590121E+03  0.00000000000E+00 0.  1.
</event>
<event>
 4    1  0.2216341E+005  0.5758267E+02  0.7546771E-02  0.1268275E+00
          2   -1    0    0  503    0  0.00000000000E+00  0.00000000000E+00  0.42101667825E+03  0.42101667825E+03  0.00000000000E+00 0.  1.
         21   -1    0    0  501  502 -0.00000000000E+00 -0.00000000000E+00 -0.16690990830E+02  0.16690990830E+02  0.00000000000E+00 0.  1.
          2    1    1    2  501    0  0.56605561125E+02 -0.10562885416E+02  0.36121281154E+03  0.36577378162E+03  0.00000000000E+00 0.  1.
         21    1    1    2  503  502 -0.56605561125E+02  0.10562885416E+02  0.43112875880E+02  0.71933887461E+02  0.00000000000E+00 0.  1.
</event>
<event>
 4    1  0.2216341E+005  0.2128546E+02  0.7546771E-02  0.1515228E+00
          2   -1    0    0  503    0  0.00000000000E+00  0.00000000000E+00  0.42756300736E+03  0.42756300736E+03  0.00000000000E+00 0. -1.
         21   -1    0    0  501  502 -0.00000000000E+00 -0.00000000000E+00 -0.24301667824E+01  0.24301667824E+01  0.00000000000E+00 0.  1.
          2    1    1    2  501    0 -0.11474498287E+02 -0.17927815037E+02  0.37402249859E+03  0.37462768200E+03  0.00000000000E+00 0. -1.
         21    1    1    2  503  502  0.11474498287E+02  0.17927815037E+02  0.51110341980E+02  0.55365492143E+02  0.00000000000E+00 0.  1.
</event>
<event>
 4    1  0.2216341E+005  0.2164944E+02  0.7546771E-02  0.1510191E+00
          2   -1    0    0  503    0  0.00000000000E+00  0.00000000000E+00  0.74205561401E+03  0.74205561401E+03  0.00000000000E+00 0. -1.
         21   -1    0    0  501  502 -0.00000000000E+00 -0.00000000000E+00 -0.30476100877E+01  0.30476100877E+01  0.00000000000E+00 0.  1.
          2    1    1    2  501    0 -0.17221817562E+02 -0.13118967476E+02  0.70121065452E+03  0.70154478140E+03  0.00000000000E+00 0. -1.
         21    1    1    2  503  502  0.17221817562E+02  0.13118967476E+02  0.37797349404E+02  0.43558442692E+02  0.00000000000E+00 0.  1.
</event>
<event>
 4    1  0.2216341E+005  0.2160197E+02  0.7546771E-02  0.1510841E+00
          2   -1    0    0  502    0  0.00000000000E+00  0.00000000000E+00  0.15625151210E+04  0.15625151210E+04  0.00000000000E+00 0.  1.
         21   -1    0    0  503  502 -0.00000000000E+00 -0.00000000000E+00 -0.29020769584E+01  0.29020769584E+01  0.00000000000E+00 0.  1.
          2    1    1    2  501    0 -0.10048259393E+02 -0.19122698306E+02  0.15211480745E+04  0.15213014525E+04  0.00000000000E+00 0.  1.
         21    1    1    2  503  501  0.10048259393E+02  0.19122698306E+02  0.38464969544E+02  0.44115745368E+02  0.00000000000E+00 0.  1.
</event>
<event>
 4    1  0.2216341E+005  0.2095306E+02  0.7546771E-02  0.1519936E+00
          2   -1    0    0  502    0  0.00000000000E+00  0.00000000000E+00  0.12189758806E+04  0.12189758806E+04  0.00000000000E+00 0. -1.
         21   -1    0    0  503  502 -0.00000000000E+00 -0.00000000000E+00 -0.86696171812E+00  0.86696171812E+00  0.00000000000E+00 0. -1.
          2    1    1    2  501    0 -0.20297949362E+02  0.51984639204E+01  0.10753823715E+04  0.10755864799E+04  0.00000000000E+00 0. -1.
         21    1    1    2  503  501  0.20297949362E+02 -0.51984639204E+01  0.14272654743E+03  0.14425636249E+03  0.00000000000E+00 0. -1.
</event>
<event>
 4    1  0.2216341E+005  0.2159693E+02  0.7546771E-02  0.1510910E+00
          2   -1    0    0  503    0  0.00000000000E+00  0.00000000000E+00  0.98273787985E+02  0.98273787985E+02  0.00000000000E+00 0. -1.
         21   -1    0    0  501  502 -0.00000000000E+00 -0.00000000000E+00 -0.10686439159E+02  0.10686439159E+02  0.00000000000E+00 0. -1.
          2    1    1    2  501    0  0.11553777338E+02 -0.18246574073E+02  0.84412128685E+02  0.87131135108E+02  0.00000000000E+00 0. -1.
         21    1    1    2  503  502 -0.11553777338E+02  0.18246574073E+02  0.31752201408E+01  0.21829092036E+02  0.00000000000E+00 0. -1.
</event>
<event>
 4    1  0.2216341E+005  0.3256763E+02  0.7546771E-02  0.1398520E+00
          2   -1    0    0  502    0  0.00000000000E+00  0.00000000000E+00  0.85003904578E+03  0.85003904578E+03  0.00000000000E+00 0. -1.
         21   -1    0    0  503  502 -0.00000000000E+00 -0.00000000000E+00 -0.31276818160E+02  0.31276818160E+02  0.00000000000E+00 0. -1.
          2    1    1    2  501    0  0.18151007925E+02  0.27040546875E+02  0.84115971770E+03  0.84178995060E+03  0.00000000000E+00 0. -1.
         21    1    1    2  503  501 -0.18151007925E+02 -0.27040546875E+02 -0.22397490070E+02  0.39525913341E+02  0.00000000000E+00 0. -1.
</event>
<event>
 4    1  0.2216341E+005  0.2005973E+02  0.7546771E-02  0.1533125E+00
          2   -1    0    0  503    0  0.00000000000E+00  0.00000000000E+00  0.47904671091E+03  0.47904671091E+03  0.00000000000E+00 0.  1.
         21   -1    0    0  501  502 -0.00000000000E+00 -0.00000000000E+00 -0.43706108252E+02  0.43706108252E+02  0.00000000000E+00 0.  1.
          2    1    1    2  501    0  0.19811997523E+02  0.31428294345E+01  0.47652283338E+03  0.47694486406E+03  0.00000000000E+00 0.  1.
         21    1    1    2  503  502 -0.19811997523E+02 -0.31428294345E+01 -0.41182230724E+02  0.45807955097E+02  0.00000000000E+00 0.  1.
</event>
<event>
 4    1  0.2216341E+005  0.2038574E+02  0.7546771E-02  0.1528218E+00
          2   -1    0    0  503    0  0.00000000000E+00  0.00000000000E+00  0.64857709757E+03  0.64857709757E+03  0.00000000000E+00 0. -1.
         21   -1    0    0  501  502 -0.00000000000E+00 -0.00000000000E+00 -0.10248852532E+01  0.10248852532E+01  0.00000000000E+00 0.  1.
          2    1    1    2  501    0  0.19983725303E+02 -0.40285240978E+01  0.52262337062E+03  0.52302080819E+03  0.00000000000E+00 0. -1.
         21    1    1    2  503  502 -0.19983725303E+02  0.40285240978E+01  0.12492884170E+03  0.12658117463E+03  0.00000000000E+00 0.  1.
</event>
<event>
 4    1  0.2216341E+005  0.2190929E+02  0.7546771E-02  0.1506668E+00
          2   -1    0    0  503    0  0.00000000000E+00  0.00000000000E+00  0.46869095346E+03  0.46869095346E+03  0.00000000000E+00 0. -1.
         21   -1    0    0  501  502 -0.00000000000E+00 -0.00000000000E+00 -0.11529013722E+03  0.11529013722E+03  0.00000000000E+00 0. -1.
          2    1    1    2  501    0  0.82811501246E+00  0.21893636575E+02  0.46739112961E+03  0.46790435469E+03  0.00000000000E+00 0. -1.
         21    1    1    2  503  502 -0.82811501246E+00 -0.21893636575E+02 -0.11399031337E+03  0.11607673600E+03  0.00000000000E+00 0. -1.
</event>
<event>
 4    1  0.2216341E+005  0.3244784E+02  0.7546771E-02  0.1399452E+00
          2   -1    0    0  503    0  0.00000000000E+00  0.00000000000E+00  0.16650191078E+04  0.16650191078E+04  0.00000000000E+00 0. -1.
         21   -1    0    0  501  502 -0.00000000000E+00 -0.00000000000E+00 -0.10500216157E+03  0.10500216157E+03  0.00000000000E+00 0.  1.
          2    1    1    2  501    0  0.13485844112E+02  0.29512608686E+02  0.16623502352E+04  0.16626668838E+04  0.00000000000E+00 0. -1.
         21    1    1    2  503  502 -0.13485844112E+02 -0.29512608686E+02 -0.10233328898E+03  0.10735438555E+03  0.00000000000E+00 0.  1.
</event>
<event>
 4    1  0.2216341E+005  0.2507940E+02  0.7546771E-02  0.1467917E+00
          2   -1    0    0  502    0  0.00000000000E+00  0.00000000000E+00  0.43786774201E+02  0.43786774201E+02  0.00000000000E+00 0.  1.
         21   -1    0    0  503  502 -0.00000000000E+00 -0.00000000000E+00 -0.32573773904E+02  0.32573773904E+02  0.00000000000E+00 0. -1.
          2    1    1    2  501    0  0.22879524039E+02 -0.10271489678E+02  0.34152880227E+02  0.42372105780E+02  0.00000000000E+00 0.  1.
         21    1    1    2  503  501 -0.22879524039E+02  0.10271489678E+02 -0.22939879930E+02  0.33988442324E+02  0.00000000000E+00 0. -1.
</event>
<event>
 4    1  0.2216341E+005  0.2794865E+02  0.7546771E-02  0.1438305E+00
          2   -1    0    0  503    0  0.00000000000E+00  0.00000000000E+00  0.13003316939E+03  0.13003316939E+03  0.00000000000E+00 0. -1.
         21   -1    0    0  501  502 -0.00000000000E+00 -0.00000000000E+00 -0.82498880134E+01  0.82498880134E+01  0.00000000000E+00 0. -1.
          2    1    1    2  501    0 -0.16079631638E+02 -0.22859841081E+02  0.96941669161E+02  0.10089010907E+03  0.00000000000E+00 0. -1.
         21    1    1    2  503  502  0.16079631638E+02  0.22859841081E+02  0.24841612219E+02  0.37392948340E+02  0.00000000000E+00 0. -1.
</event>
<event>
 4    1  0.2216341E+005  0.2049389E+02  0.7546771E-02  0.1526615E+00
          2   -1    0    0  503    0  0.00000000000E+00  0.00000000000E+00  0.14219502619E+04  0.14219502619E+04  0.00000000000E+00 0.  1.
         21   -1    0    0  501  502 -0.00000000000E+00 -0.00000000000E+00 -0.29938776027E+00  0.29938776027E+00  0.00000000000E+00 0. -1.
          2    1    1    2  501    0  0.12022838426E+02  0.16596713326E+02  0.62843183628E+03  0.62876591223E+03  0.00000000000E+00 0.  1.
         21    1    1    2  503  502 -0.12022838426E+02 -0.16596713326E+02  0.79321903789E+03  0.79348373746E+03  0.00000000000E+00 0. -1.
</event>
<event>
 4    1  0.2216341E+005  0.3019072E+02  0.7546771E-02  0.1417946E+00
          2   -1    0    0  502    0  0.00000000000E+00  0.00000000000E+00  0.77469994976E+02  0.77469994976E+02  0.00000000000E+00 0. -1.
         21   -1    0    0  503  502 -0.00000000000E+00 -0.00000000000E+00 -0.22127082456E+02  0.22127082456E+02  0.00000000000E+00 0. -1.
          2    1    1    2  501    0  0.85303700194E+01 -0.28960529860E+02  0.61748810410E+02  0.68734235207E+02  0.00000000000E+00 0. -1.
         21    1    1    2  503  501 -0.85303700194E+01  0.28960529860E+02 -0.64058978901E+01  0.30862842225E+02  0.00000000000E+00 0. -1.
</event>
<event>
 4    1  0.2216341E+005  0.2049233E+02  0.7546771E-02  0.1526638E+00
          2   -1    0    0  503    0  0.00000000000E+00  0.00000000000E+00  0.25640310343E+03  0.25640310343E+03  0.00000000000E+00 0.  1.
         21   -1    0    0  501  502 -0.00000000000E+00 -0.00000000000E+00 -0.33275725059E+01  0.33275725059E+01  0.00000000000E+00 0.  1.
          2    1    1    2  501    0 -0.10450740127E+02 -0.17627182384E+02  0.21908092980E+03  0.22003724533E+03  0.00000000000E+00 0.  1.
         21    1    1    2  503  502  0.10450740127E+02  0.17627182384E+02  0.33994601117E+02  0.39693430604E+02  0.00000000000E+00 0.  1.
</event>
<event>
 4    1  0.2216341E+005  0.3480745E+02  0.7546771E-02  0.1381922E+00
          2   -1    0    0  502    0  0.00000000000E+00  0.00000000000E+00  0.36470365987E+03  0.36470365987E+03  0.00000000000E+00 0.  1.
         21   -1    0    0  503  502 -0.00000000000E+00 -0.00000000000E+00 -0.16228892676E+03  0.16228892676E+03  0.00000000000E+00 0. -1.
          2    1    1    2  501    0  0.12859182331E+02 -0.32345017209E+02  0.36199284590E+03  0.36366245227E+03  0.00000000000E+00 0.  1.
         21    1    1    2  503  501 -0.12859182331E+02  0.32345017209E+02 -0.15957811279E+03  0.16333013436E+03  0.00000000000E+00 0. -1.
</event>
<event>
 4    1  0.2216341E+005  0.2004668E+02  0.7546771E-02  0.1533323E+00
          2   -1    0    0  503    0  0.00000000000E+00  0.00000000000E+00  0.13659089052E+04  0.13659089052E+04  0.00000000000E+00 0. -1.
         21   -1    0    0  501  502 -0.00000000000E+00 -0.00000000000E+00 -0.18666362457E+02  0.18666362457E+02  0.00000000000E+00 0.  1.
          2    1    1    2  501    0  0.37192684115E+01  0.19698642226E+02  0.13604314143E+04  0.13605791056E+04  0.00000000000E+00 0. -1.
         21    1    1    2  503  502 -0.37192684115E+01 -0.19698642226E+02 -0.13188871552E+02  0.23996162107E+02  0.00000000000E+00 0.  1.
</event>
<event>
 4    1  0.2216341E+005  0.2490156E+02  0.7546771E-02  0.1469908E+00
          2   -1    0    0  503    0  0.00000000000E+00  0.00000000000E+00  0.18096102994E+03  0.18096102994E+03  0.00000000000E+00 0.  1.
         21   -1    0    0  501  502 -0.00000000000E+00 -0.00000000000E+00 -0.63556560588E+01  0.63556560588E+01  0.00000000000E+00 0.  1.
          2    1    1    2  501    0 -0.12140086136E+02  0.21741800497E+02  0.15088370086E+03  0.15292474870E+03  0.00000000000E+00 0.  1.
         21    1    1    2  503  502  0.12140086136E+02 -0.21741800497E+02  0.23721673026E+02  0.34391937302E+02  0.00000000000E+00 0.  1.
</event>
<event>
 4    1  0.2216341E+005  0.2573492E+02  0.7546771E-02  0.1460747E+00
          2   -1    0    0  502    0  0.00000000000E+00  0.00000000000E+00  0.43204667331E+02  0.43204667331E+02  0.00000000000E+00 0. -1.
         21   -1    0    0  503  502 -0.00000000000E+00 -0.00000000000E+00 -0.29955964841E+02  0.29955964841E+02  0.00000000000E+00 0. -1.
          2    1    1    2  501    0  0.25534642091E+02  0.32043647585E+01  0.32185617981E+02  0.41209221116E+02  0.00000000000E+00 0. -1.
         21    1    1    2  503  501 -0.25534642091E+02 -0.32043647585E+01 -0.18936915490E+02  0.31951411056E+02  0.00000000000E+00 0. -1.
</event>
<event>
 4    1  0.2216341E+005  0.5967659E+02  0.7546771E-02  0.1260935E+00
          2   -1    0    0  502    0  0.00000000000E+00  0.00000000000E+00  0.15792664694E+04  0.15792664694E+04  0.00000000000E+00 0.  1.
         21   -1    0    0  503  502 -0.00000000000E+00 -0.00000000000E+00 -0.48298652238E+02  0.48298652238E+02  0.00000000000E+00 0.  1.
          2    1    1    2  501    0 -0.40298997793E+02  0.44014617587E+02  0.15600419115E+04  0.15611829046E+04  0.00000000000E+00 0.  1.
         21    1    1    2  503  501  0.40298997793E+02 -0.44014617587E+02 -0.29074094344E+02  0.66382217095E+02  0.00000000000E+00 0.  1.
</event>
<event>
 4    1  0.2216341E+005  0.2492371E+02  0.7546771E-02  0.1469659E+00
          2   -1    0    0  503    0  0.00000000000E+00  0.00000000000E+00  0.20389510279E+03  0.20389510279E+03  0.00000000000E+00 0.  1.
         21   -1    0    0  501  502 -0.00000000000E+00 -0.00000000000E+00 -0.31332922584E+01  0.31332922584E+01  0.00000000000E+00 0.  1.
          2    1    1    2  501    0 -0.20927925257E+02 -0.13535624741E+02  0.83164760615E+02  0.86819171851E+02  0.00000000000E+00 0.  1.
         21    1    1    2  503  502  0.20927925257E+02  0.13535624741E+02  0.11759704991E+03  0.12020922320E+03  0.00000000000E+00 0.  1.
</event>
<event>
 4    1  0.2216341E+005  0.2877355E+02  0.7546771E-02  0.1430562E+00
          2   -1    0    0  502    0  0.00000000000E+00  0.00000000000E+00  0.14052127155E+04  0.14052127155E+04  0.00000000000E+00 0.  1.
         21   -1    0    0  503  502 -0.00000000000E+00 -0.00000000000E+00 -0.70040779544E+01  0.70040779544E+01  0.00000000000E+00 0.  1.
          2    1    1    2  501    0  0.28520603863E+02 -0.38068630711E+01  0.13748618823E+04  0.13751629403E+04  0.00000000000E+00 0.  1.
         21    1    1    2  503  501 -0.28520603863E+02  0.38068630711E+01  0.23346755253E+02  0.37053853133E+02  0.00000000000E+00 0.  1.
</event>
<event>
 4    1  0.2216341E+005  0.2723807E+02  0.7546771E-02  0.1445231E+00
          2   -1    0    0  502    0  0.00000000000E+00  0.00000000000E+00  0.81953525761E+02  0.81953525761E+02  0.00000000000E+00 0. -1.
         21   -1    0    0  503  502 -0.00000000000E+00 -0.00000000000E+00 -0.23484651196E+02  0.23484651196E+02  0.00000000000E+00 0. -1.
          2    1    1    2  501    0 -0.14179094523E+02  0.23256516404E+02  0.70561661139E+02  0.75636368894E+02  0.00000000000E+00 0. -1.
         21    1    1    2  503  501  0.14179094523E+02 -0.23256516404E+02 -0.12092786574E+02  0.29801808064E+02  0.00000000000E+00 0. -1.
</event>
<event>
 4    1  0.2216341E+005  0.2732238E+02  0.7546771E-02  0.1444396E+00
          2   -1    0    0  503    0  0.00000000000E+00  0.00000000000E+00  0.17271321730E+04  0.17271321730E+04  0.00000000000E+00 0.  1.
         21   -1    0    0  501  502 -0.00000000000E+00 -0.00000000000E+00 -0.30238002032E+01  0.30238002032E+01  0.00000000000E+00 0.  1.
          2    1    1    2  501    0 -0.14774650077E+02 -0.22983087153E+02  0.16629213421E+04  0.16631457851E+04  0.00000000000E+00 0.  1.
         21    1    1    2  503  502  0.14774650077E+02  0.22983087153E+02  0.61187030670E+02  0.67010188047E+02  0.00000000000E+00 0.  1.
</event>
<event>
 4    1  0.2216341E+005  0.2121374E+02  0.7546771E-02  0.1516235E+00
          2   -1    0    0  502    0  0.00000000000E+00  0.00000000000E+00  0.81643194845E+03  0.81643194845E+03  0.00000000000E+00 0.  1.
         21   -1    0    0  503  502 -0.00000000000E+00 -0.00000000000E+00 -0.22578778036E+01  0.22578778036E+01  0.00000000000E+00 0.  1.
          2    1    1    2  501    0 -0.15066980172E+02 -0.14933486705E+02  0.76297563312E+03  0.76327048918E+03  0.00000000000E+00 0.  1.
         21    1    1    2  503  501  0.15066980172E+02  0.14933486705E+02  0.51198437531E+02  0.55419337079E+02  0.00000000000E+00 0.  1.
</event>
<event>
 4    1  0.2216341E+005  0.3194156E+02  0.7546771E-02  0.1403442E+00
          2   -1    0    0  502    0  0.00000000000E+00  0.00000000000E+00  0.35564643781E+03  0.35564643781E+03  0.00000000000E+00 0. -1.
         21   -1    0    0  503  502 -0.00000000000E+00 -0.00000000000E+00 -0.36048023338E+01  0.36048023338E+01  0.00000000000E+00 0. -1.
          2    1    1    2  501    0 -0.16691650152E+02 -0.27233283976E+02  0.25718792270E+03  0.25916382951E+03  0.00000000000E+00 0. -1.
         21    1    1    2  503  501  0.16691650152E+02  0.27233283976E+02  0.94853712771E+02  0.10008741063E+03  0.00000000000E+00 0. -1.
</event>
<event>
 4    1  0.2216341E+005  0.3011561E+02  0.7546771E-02  0.1418594E+00
          2   -1    0    0  503    0  0.00000000000E+00  0.00000000000E+00  0.31926863882E+03  0.31926863882E+03  0.00000000000E+00 0.  1.
         21   -1    0    0  501  502 -0.00000000000E+00 -0.00000000000E+00 -0.38522938113E+01  0.38522938113E+01  0.00000000000E+00 0. -1.
          2    1    1    2  501    0  0.16718756240E+02  0.25048612217E+02  0.24049785518E+03  0.24237608820E+03  0.00000000000E+00 0.  1.
         21    1    1    2  503  502 -0.16718756240E+02 -0.25048612217E+02  0.74918489826E+02  0.80744844430E+02  0.00000000000E+00 0. -1.
</event>
<event>
 4    1  0.2216341E+005  0.2195880E+02  0.7546771E-02  0.1506003E+00
          2   -1    0    0  503    0  0.00000000000E+00  0.00000000000E+00  0.10852609466E+04  0.10852609466E+04  0.00000000000E+00 0. -1.
         21   -1    0    0  501  502 -0.00000000000E+00 -0.00000000000E+00 -0.65575752067E+01  0.65575752067E+01  0.00000000000E+00 0. -1.
          2    1    1    2  501    0 -0.78604862377E+01  0.20503696693E+02  0.10664426286E+04  0.10666686782E+04  0.00000000000E+00 0. -1.
         21    1    1    2  503  502  0.78604862377E+01 -0.20503696693E+02  0.12260742761E+02  0.25149843638E+02  0.00000000000E+00 0. -1.
</event>
<event>
 4    1  0.2216341E+005  0.4527457E+02  0.7546771E-02  0.1320072E+00
          2   -1    0    0  502    0  0.00000000000E+00  0.00000000000E+00  0.21273728141E+03  0.21273728141E+03  0.00000000000E+00 0.  1.
         21   -1    0    0  503  502 -0.00000000000E+00 -0.00000000000E+00 -0.79536801185E+02  0.79536801185E+02  0.00000000000E+00 0. -1.
          2    1    1    2  501    0  0.10559344215E-01  0.45274571200E+02  0.20359990676E+03  0.20857303024E+03  0.00000000000E+00 0.  1.
         21    1    1    2  503  501 -0.10559344215E-01 -0.45274571200E+02 -0.70399426538E+02  0.83701052357E+02  0.00000000000E+00 0. -1.
</event>
<event>
 4    1  0.2216341E+005  0.3352445E+02  0.7546771E-02  0.1391244E+00
          2   -1    0    0  502    0  0.00000000000E+00  0.00000000000E+00  0.61464420753E+03  0.61464420753E+03  0.00000000000E+00 0.  1.
         21   -1    0    0  503  502 -0.00000000000E+00 -0.00000000000E+00 -0.13230168067E+02  0.13230168067E+02  0.00000000000E+00 0. -1.
          2    1    1    2  501    0  0.33005193942E+02  0.58776039074E+01  0.59214349389E+03  0.59309173524E+03  0.00000000000E+00 0.  1.
         21    1    1    2  503  501 -0.33005193942E+02 -0.58776039074E+01  0.92705455727E+01  0.34782640355E+02  0.00000000000E+00 0. -1.
</event>
<event>
 4    1  0.2216341E+005  0.2312221E+02  0.7546771E-02  0.1490969E+00
          2   -1    0    0  502    0  0.00000000000E+00  0.00000000000E+00  0.88800312354E+01  0.88800312354E+01  0.00000000000E+00 0. -1.
         21   -1    0    0  503  502 -0.00000000000E+00 -0.00000000000E+00 -0.60748348503E+03  0.60748348503E+03  0.00000000000E+00 0. -1.
          2    1    1    2  501    0  0.15522081243E+02  0.17137726034E+02 -0.67900310667E+01  0.24098572190E+02  0.00000000000E+00 0. -1.
         21    1    1    2  503  501 -0.15522081243E+02 -0.17137726034E+02 -0.59181342273E+03  0.59226494408E+03  0.00000000000E+00 0. -1.
</event>
<event>
 4    1  0.2216341E+005  0.2730564E+02  0.7546771E-02  0.1444562E+00
          2   -1    0    0  502    0  0.00000000000E+00  0.00000000000E+00  0.12618698158E+03  0.12618698158E+03  0.00000000000E+00 0.  1.
         21   -1    0    0  503  502 -0.00000000000E+00 -0.00000000000E+00 -0.51200210673E+02  0.51200210673E+02  0.00000000000E+00 0. -1.
          2    1    1    2  501    0 -0.11923020448E+01 -0.27279593009E+02  0.12091237335E+03  0.12395724992E+03  0.00000000000E+00 0.  1.
         21    1    1    2  503  501  0.11923020448E+01  0.27279593009E+02 -0.45925602437E+02  0.53429942337E+02  0.00000000000E+00 0. -1.
</event>
<event>
 4    1  0.2216341E+005  0.3005242E+02  0.7546771E-02  0.1419141E+00
          2   -1    0    0  503    0  0.00000000000E+00  0.00000000000E+00  0.13835119402E+04  0.13835119402E+04  0.00000000000E+00 0. -1.
         21   -1    0    0  501  502 -0.00000000000E+00 -0.00000000000E+00 -0.26039457497E+01  0.26039457497E+01  0.00000000000E+00 0.  1.
          2    1    1    2  501    0  0.21021805356E+02  0.21476304941E+02  0.12903819929E+04  0.12907318992E+04  0.00000000000E+00 0. -1.
         21    1    1    2  503  502 -0.21021805356E+02 -0.21476304941E+02  0.90526001548E+02  0.95383986762E+02  0.00000000000E+00 0.  1.
</event>
<event>
 4    1  0.2216341E+005  0.3042348E+02  0.7546771E-02  0.1415951E+00
          2   -1    0    0  502    0  0.00000000000E+00  0.00000000000E+00  0.85992335741E+03  0.85992335741E+03  0.00000000000E+00 0.  1.
         21   -1    0    0  503  502 -0.00000000000E+00 -0.00000000000E+00 -0.27648220923E+02  0.27648220923E+02  0.00000000000E+00 0. -1.
          2    1    1    2  501    0 -0.28368267856E+02 -0.10992258645E+02  0.85119918458E+03  0.85174270774E+03  0.00000000000E+00 0.  1.
         21    1    1    2  503  501  0.28368267856E+02  0.10992258645E+02 -0.18924048092E+02  0.35828870586E+02  0.00000000000E+00 0. -1.
</event>
<event>
 4    1  0.2216341E+005  0.2322628E+02  0.7546771E-02  0.1489676E+00
          2   -1    0    0  502    0  0.00000000000E+00  0.00000000000E+00  0.39078650087E+02  0.39078650087E+02  0.00000000000E+00 0.  1.
         21   -1    0    0  503  502 -0.00000000000E+00 -0.00000000000E+00 -0.14719709751E+02  0.14719709751E+02  0.00000000000E+00 0.  1.
          2    1    1    2  501    0  0.57015118359E+01 -0.22515613350E+02  0.18886908334E+02  0.29936188604E+02  0.00000000000E+00 0.  1.
         21    1    1    2  503  501 -0.57015118359E+01  0.22515613350E+02  0.54720320022E+01  0.23862171234E+02  0.00000000000E+00 0.  1.
</event>
<event>
 4    1  0.2216341E+005  0.3075746E+02  0.7546771E-02  0.1413126E+00
          2   -1    0    0  502    0  0.00000000000E+00  0.00000000000E+00  0.10453099094E+03  0.10453099094E+03  0.00000000000E+00 0.  1.
         21   -1    0    0  503  502 -0.00000000000E+00 -0.00000000000E+00 -0.39114929854E+02  0.39114929854E+02  0.00000000000E+00 0.  1.
          2    1    1    2  501    0  0.10485399840E+02  0.28915006150E+02  0.95676195218E+02  0.10049853492E+03  0.00000000000E+00 0.  1.
         21    1    1    2  503  501 -0.10485399840E+02 -0.28915006150E+02 -0.30260134127E+02  0.43147385875E+02  0.00000000000E+00 0.  1.
</event>
<event>
 4    1  0.2216341E+005  0.2303433E+02  0.7546771E-02  0.1492068E+00
          2   -1    0    0  503    0  0.00000000000E+00  0.00000000000E+00  0.12306381113E+03  0.12306381113E+03  0.00000000000E+00 0. -1.
         21   -1    0    0  501  502 -0.00000000000E+00 -0.00000000000E+00 -0.55328469262E+01  0.55328469262E+01  0.00000000000E+00 0. -1.
          2    1    1    2  501    0 -0.18516324450E+02 -0.13701316918E+02  0.88976006681E+02  0.91909249378E+02  0.00000000000E+00 0. -1.
         21    1    1    2  503  502  0.18516324450E+02  0.13701316918E+02  0.28554957527E+02  0.36687408682E+02  0.00000000000E+00 0. -1.
</event>
<event>
 4    1  0.2216341E+005  0.2650957E+02  0.7546771E-02  0.1452598E+00
          2   -1    0    0  503    0  0.00000000000E+00  0.00000000000E+00  0.12913455631E+04  0.12913455631E+04  0.00000000000E+00 0.  1.
         21   -1    0    0  501  502 -0.00000000000E+00 -0.00000000000E+00 -0.59086613955E+00  0.59086613955E+00  0.00000000000E+00 0.  1.
          2    1    1    2  501    0 -0.40479078260E+01 -0.26198693078E+02  0.82690506881E+03  0.82732989182E+03  0.00000000000E+00 0.  1.
         21    1    1    2  503  502  0.40479078260E+01  0.26198693078E+02  0.46384962812E+03  0.46460653739E+03  0.00000000000E+00 0.  1.
</event>
<event>
 4    1  0.2216341E+005  0.2534334E+02  0.7546771E-02  0.1464999E+00
          2   -1    0    0  502    0  0.00000000000E+00  0.00000000000E+00  0.52405993725E+03  0.52405993725E+03  0.00000000000E+00 0. -1.
         21   -1    0    0  503  502 -0.00000000000E+00 -0.00000000000E+00 -0.31145806135E+03  0.31145806135E+03  0.00000000000E+00 0.  1.
          2    1    1    2  501    0 -0.21734436142E+01  0.25249968631E+02  0.52323718178E+03  0.52385058287E+03  0.00000000000E+00 0. -1.
         21    1    1    2  503  501  0.21734436142E+01 -0.25249968631E+02 -0.31063530587E+03  0.31166741573E+03  0.00000000000E+00 0.  1.
</event>
<event>
 4    1  0.2216341E+005  0.2277654E+02  0.7546771E-02  0.1495323E+00
          2   -1    0    0  502    0  0.00000000000E+00  0.00000000000E+00  0.13858475197E+03  0.13858475197E+03  0.00000000000E+00 0.  1.
         21   -1    0    0  503  502 -0.00000000000E+00 -0.00000000000E+00 -0.12022418479E+03  0.12022418479E+03  0.00000000000E+00 0. -1.
          2    1    1    2  501    0 -0.16994787853E+02 -0.15164037748E+02  0.13655422708E+03  0.13844070135E+03  0.00000000000E+00 0.  1.
         21    1    1    2  503  501  0.16994787853E+02  0.15164037748E+02 -0.11819365990E+03  0.12036823541E+03  0.00000000000E+00 0. -1.
</event>
<event>
 4    1  0.2216341E+005  0.2905103E+02  0.7546771E-02  0.1428026E+00
          2   -1    0    0  503    0  0.00000000000E+00  0.00000000000E+00  0.33073429145E+01  0.33073429145E+01  0.00000000000E+00 0. -1.
         21   -1    0    0  501  502 -0.00000000000E+00 -0.00000000000E+00 -0.36634292933E+03  0.36634292933E+03  0.00000000000E+00 0. -1.
          2    1    1    2  501    0 -0.88528663812E+01 -0.27669281986E+02 -0.28333010120E+03  0.28481556955E+03  0.00000000000E+00 0. -1.
         21    1    1    2  503  502  0.88528663812E+01  0.27669281986E+02 -0.79705485211E+02  0.84834702696E+02  0.00000000000E+00 0. -1.
</event>
<event>
 4    1  0.2216341E+005  0.2092614E+02  0.7546771E-02  0.1520322E+00
          2   -1    0    0  503    0  0.00000000000E+00  0.00000000000E+00  0.50381028004E+03  0.50381028004E+03  0.00000000000E+00 0.  1.
         21   -1    0    0  501  502 -0.00000000000E+00 -0.00000000000E+00 -0.12195735563E+02  0.12195735563E+02  0.00000000000E+00 0.  1.
          2    1    1    2  501    0  0.13952001824E+02 -0.15596312001E+02  0.49444649692E+03  0.49488912053E+03  0.00000000000E+00 0.  1.
         21    1    1    2  503  502 -0.13952001824E+02  0.15596312001E+02 -0.28319524422E+01  0.21116895074E+02  0.00000000000E+00 0.  1.
</event>
<event>
 4    1  0.2216341E+005  0.2471227E+02  0.7546771E-02  0.1472048E+00
          2   -1    0    0  502    0  0.00000000000E+00  0.00000000000E+00  0.28294370907E+03  0.28294370907E+03  0.00000000000E+00 0. -1.
         21   -1    0    0  503  502 -0.00000000000E+00 -0.00000000000E+00 -0.51781815551E+01  0.51781815551E+01  0.00000000000E+00 0.  1.
          2    1    1    2  501    0  0.17429744368E+02  0.17518574470E+02  0.24889670950E+03  0.25012050784E+03  0.00000000000E+00 0. -1.
         21    1    1    2  503  501 -0.17429744368E+02 -0.17518574470E+02  0.28868818008E+02  0.38001382782E+02  0.00000000000E+00 0.  1.
</event>
<event>
 4    1  0.2216341E+005  0.2098306E+02  0.7546771E-02  0.1519507E+00
          2   -1    0    0  503    0  0.00000000000E+00  0.00000000000E+00  0.14477558185E+04  0.14477558185E+04  0.00000000000E+00 0. -1.
         21   -1    0    0  501  502 -0.00000000000E+00 -0.00000000000E+00 -0.10484202609E+01  0.10484202609E+01  0.00000000000E+00 0.  1.
          2    1    1    2  501    0 -0.95308302673E+01 -0.18693636518E+02  0.13337145151E+04  0.13338795660E+04  0.00000000000E+00 0. -1.
         21    1    1    2  503  502  0.95308302673E+01  0.18693636518E+02  0.11299288313E+03  0.11492467276E+03  0.00000000000E+00 0.  1.
</event>
<event>
 4    1  0.2216341E+005  0.2027841E+02  0.7546771E-02  0.1529821E+00
          2   -1    0    0  503    0  0.00000000000E+00  0.00000000000E+00  0.60524682228E+03  0.60524682228E+03  0.00000000000E+00 0.  1.
         21   -1    0    0  501  502 -0.00000000000E+00 -0.00000000000E+00 -0.21162690599E+03  0.21162690599E+03  0.00000000000E+00 0.  1.
          2    1    1    2  501    0  0.50487468409E+01 -0.19639855466E+02  0.60459066467E+03  0.60493064526E+03  0.00000000000E+00 0.  1.
         21    1    1    2  503  502 -0.50487468409E+01  0.19639855466E+02 -0.21097074838E+03  0.21194308302E+03  0.00000000000E+00 0.  1.
</event>
<event>
 4    1  0.2216341E+005  0.2545017E+02  0.7546771E-02  0.1463830E+00
          2   -1    0    0  503    0  0.00000000000E+00  0.00000000000E+00  0.15121158316E+04  0.15121158316E+04  0.00000000000E+00 0. -1.
         21   -1    0    0  501  502 -0.00000000000E+00 -0.00000000000E+00 -0.15886537371E+01  0.15886537371E+01  0.00000000000E+00 0.  1.
          2    1    1    2  501    0  0.25443357838E+02  0.58900010560E+00  0.14020825593E+04  0.14023135222E+04  0.00000000000E+00 0. -1.
         21    1    1    2  503  502 -0.25443357838E+02 -0.58900010560E+00  0.10844461858E+03  0.11139096318E+03  0.00000000000E+00 0.  1.
</event>
<event>
 4    1  0.2216341E+005  0.2353425E+02  0.7546771E-02  0.1485896E+00
          2   -1    0    0  503    0  0.00000000000E+00  0.00000000000E+00  0.30420797799E+02  0.30420797799E+02  0.00000000000E+00 0. -1.
         21   -1    0    0  501  502 -0.00000000000E+00 -0.00000000000E+00 -0.18289840398E+02  0.18289840398E+02  0.00000000000E+00 0. -1.
          2    1    1    2  501    0  0.22730974339E+02 -0.60961991373E+01  0.77080481661E+01  0.24764386624E+02  0.00000000000E+00 0. -1.
         21    1    1    2  503  502 -0.22730974339E+02  0.60961991373E+01  0.44229092357E+01  0.23946251574E+02  0.00000000000E+00 0. -1.
</event>
<event>
 4    1  0.2216341E+005  0.2485974E+02  0.7546771E-02  0.1470379E+00
          2   -1    0    0  503    0  0.00000000000E+00  0.00000000000E+00  0.19804441373E+03  0.19804441373E+03  0.00000000000E+00 0. -1.
         21   -1    0    0  501  502 -0.00000000000E+00 -0.00000000000E+00 -0.35380453465E+01  0.35380453465E+01  0.00000000000E+00 0. -1.
          2    1    1    2  501    0 -0.23059488557E+02  0.92879719103E+01  0.62629789180E+02  0.67383209537E+02  0.00000000000E+00 0. -1.
         21    1    1    2  503  502  0.23059488557E+02 -0.92879719103E+01  0.13187657920E+03  0.13419924954E+03  0.00000000000E+00 0. -1.
</event>
<event>
 4    1  0.2216341E+005  0.3674390E+02  0.7546771E-02  0.1368701E+00
          2   -1    0    0  503    0  0.00000000000E+00  0.00000000000E+00  0.10071823832E+04  0.10071823832E+04  0.00000000000E+00 0. -1.
         21   -1    0    0  501  502 -0.00000000000E+00 -0.00000000000E+00 -0.64397844108E+01  0.64397844108E+01  0.00000000000E+00 0. -1.
          2    1    1    2  501    0 -0.31682388228E+02  0.18610233589E+02  0.95135996476E+03  0.95206927115E+03  0.00000000000E+00 0. -1.
         21    1    1    2  503  502  0.31682388228E+02 -0.18610233589E+02  0.49382633986E+02  0.61552896418E+02  0.00000000000E+00 0. -1.
</event>
<event>
 4    1  0.2216341E+005  0.3521240E+02  0.7546771E-02  0.1379076E+00
          2   -1    0    0  503    0  0.00000000000E+00  0.00000000000E+00  0.19048748235E+03  0.19048748235E+03  0.00000000000E+00 0. -1.
         21   -1    0    0  501  502 -0.00000000000E+00 -0.00000000000E+00 -0.11869939498E+02  0.11869939498E+02  0.00000000000E+00 0.  1.
          2    1    1    2  501    0  0.11514027997E+02  0.33276718337E+02  0.15730408879E+03  0.16119705076E+03  0.00000000000E+00 0. -1.
         21    1    1    2  503  502 -0.11514027997E+02 -0.33276718337E+02  0.21313454062E+02  0.41160371087E+02  0.00000000000E+00 0.  1.
</event>
<event>
 4    1  0.2216341E+005  0.4525888E+02  0.7546771E-02  0.1320150E+00
          2   -1    0    0  503    0  0.00000000000E+00  0.00000000000E+00  0.25100514198E+02  0.25100514198E+02  0.00000000000E+00 0. -1.
         21   -1    0    0  501  502 -0.00000000000E+00 -0.00000000000E+00 -0.85968398717E+02  0.85968398717E+02  0.00000000000E+00 0. -1.
          2    1    1    2  501    0  0.17328896575E+02  0.41809991754E+02 -0.17924757671E+02  0.48679184510E+02  0.00000000000E+00 0. -1.
         21    1    1    2  503  502 -0.17328896575E+02 -0.41809991754E+02 -0.42943126847E+02  0.62389728405E+02  0.00000000000E+00 0. -1.
</event>
<event>
 4    1  0.2216341E+005  0.2237994E+02  0.7546771E-02  0.1500435E+00
          2   -1    0    0  503    0  0.00000000000E+00  0.00000000000E+00  0.15489337562E+02  0.15489337562E+02  0.00000000000E+00 0.  1.
         21   -1    0    0  501  502 -0.00000000000E+00 -0.00000000000E+00 -0.39071481804E+02  0.39071481804E+02  0.00000000000E+00 0.  1.
          2    1    1    2  501    0 -0.77686862713E+01 -0.20988309775E+02 -0.46423693849E+00  0.22384752613E+02  0.00000000000E+00 0.  1.
         21    1    1    2  503  502  0.77686862713E+01  0.20988309775E+02 -0.23117907303E+02  0.32176066753E+02  0.00000000000E+00 0.  1.
</event>
<event>
 4    1  0.2216341E+005  0.2063364E+02  0.7546771E-02  0.1524560E+00
          2   -1    0    0  503    0  0.00000000000E+00  0.00000000000E+00  0.29917941713E+03  0.29917941713E+03  0.00000000000E+00 0. -1.
         21   -1    0    0  501  502 -0.00000000000E+00 -0.00000000000E+00 -0.34615530256E+01  0.34615530256E+01  0.00000000000E+00 0.  1.
          2    1    1    2  501    0  0.10415120396E+02 -0.17812141651E+02  0.26398185602E+03  0.26478702278E+03  0.00000000000E+00 0. -1.
         21    1    1    2  503  502 -0.10415120396E+02  0.17812141651E+02  0.31736008084E+02  0.37853947379E+02  0.00000000000E+00 0.  1.
</event>
<event>
 4    1  0.2216341E+005  0.2244093E+02  0.7546771E-02  0.1499640E+00
          2   -1    0    0  502    0  0.00000000000E+00  0.00000000000E+00  0.25535550876E+02  0.25535550876E+02  0.00000000000E+00 0.  1.
         21   -1    0    0  503  502 -0.00000000000E+00 -0.00000000000E+00 -0.11099501819E+03  0.11099501819E+03  0.00000000000E+00 0.  1.
          2    1    1    2  501    0 -0.19539844266E+02 -0.11035833531E+02  0.19174585443E+02  0.29517111352E+02  0.00000000000E+00 0.  1.
         21    1    1    2  503  501  0.19539844266E+02  0.11035833531E+02 -0.10463405275E+03  0.10701345771E+03  0.00000000000E+00 0.  1.
</event>
<event>
 4    1  0.2216341E+005  0.2974864E+02  0.7546771E-02  0.1421794E+00
          2   -1    0    0  503    0  0.00000000000E+00  0.00000000000E+00  0.58712077426E+03  0.58712077426E+03  0.00000000000E+00 0. -1.
         21   -1    0    0  501  502 -0.00000000000E+00 -0.00000000000E+00 -0.38083778406E+01  0.38083778406E+01  0.00000000000E+00 0. -1.
          2    1    1    2  501    0 -0.28341815106E+02  0.90400805642E+01  0.52132327675E+03  0.52217137074E+03  0.00000000000E+00 0. -1.
         21    1    1    2  503  502  0.28341815106E+02 -0.90400805642E+01  0.61989119667E+02  0.68757781358E+02  0.00000000000E+00 0. -1.
</event>
<event>
 4    1  0.2216341E+005  0.2948729E+02  0.7546771E-02  0.1424105E+00
          2   -1    0    0  503    0  0.00000000000E+00  0.00000000000E+00  0.33969985601E+03  0.33969985601E+03  0.00000000000E+00 0. -1.
         21   -1    0    0  501  502 -0.00000000000E+00 -0.00000000000E+00 -0.37916997312E+02  0.37916997312E+02  0.00000000000E+00 0.  1.
          2    1    1    2  501    0  0.79523666633E+01  0.28394722387E+02  0.33321569155E+03  0.33451785825E+03  0.00000000000E+00 0. -1.
         21    1    1    2  503  502 -0.79523666633E+01 -0.28394722387E+02 -0.31432832852E+02  0.43098995070E+02  0.00000000000E+00 0.  1.
</event>
<event>
 4    1  0.2216341E+005  0.2053940E+02  0.7546771E-02  0.1525944E+00
          2   -1    0    0  503    0  0.00000000000E+00  0.00000000000E+00  0.21756510672E+03  0.21756510672E+03  0.00000000000E+00 0. -1.
         21   -1    0    0  501  502 -0.00000000000E+00 -0.00000000000E+00 -0.76935970160E+01  0.76935970160E+01  0.00000000000E+00 0.  1.
          2    1    1    2  501    0  0.18863974220E+02  0.81250985249E+01  0.20234337591E+03  0.20338315693E+03  0.00000000000E+00 0. -1.
         21    1    1    2  503  502 -0.18863974220E+02 -0.81250985249E+01  0.75281337904E+01  0.21875546799E+02  0.00000000000E+00 0.  1.
</event>
<event>
 4    1  0.2216341E+005  0.2319783E+02  0.7546771E-02  0.1490029E+00
          2   -1    0    0  503    0  0.00000000000E+00  0.00000000000E+00  0.11103170350E+03  0.11103170350E+03  0.00000000000E+00 0.  1.
         21   -1    0    0  501  502 -0.00000000000E+00 -0.00000000000E+00 -0.19215036265E+02  0.19215036265E+02  0.00000000000E+00 0. -1.
          2    1    1    2  501    0  0.16807282110E+02  0.15989207629E+02  0.10222270133E+03  0.10482184963E+03  0.00000000000E+00 0.  1.
         21    1    1    2  503  502 -0.16807282110E+02 -0.15989207629E+02 -0.10406034099E+02  0.25424890132E+02  0.00000000000E+00 0. -1.
</event>
<event>
 4    1  0.2216341E+005  0.7330771E+02  0.7546771E-02  0.1220299E+00
          2   -1    0    0  503    0  0.00000000000E+00  0.00000000000E+00  0.14491938093E+03  0.14491938093E+03  0.00000000000E+00 0.  1.
         21   -1    0    0  501  502 -0.00000000000E+00 -0.00000000000E+00 -0.27769271244E+03  0.27769271244E+03  0.00000000000E+00 0.  1.
          2    1    1    2  501    0  0.75748707238E+01 -0.72915304761E+02  0.13030520762E+03  0.14951076038E+03  0.00000000000E+00 0.  1.
         21    1    1    2  503  502 -0.75748707238E+01  0.72915304761E+02 -0.26307853912E+03  0.27310133299E+03  0.00000000000E+00 0.  1.
</event>
<event>
 4    1  0.2216341E+005  0.2591914E+02  0.7546771E-02  0.1458778E+00
          2   -1    0    0  503    0  0.00000000000E+00  0.00000000000E+00  0.67233148615E+03  0.67233148615E+03  0.00000000000E+00 0.  1.
         21   -1    0    0  501  502 -0.00000000000E+00 -0.00000000000E+00 -0.12031640606E+01  0.12031640606E+01  0.00000000000E+00 0.  1.
          2    1    1    2  501    0  0.10465211675E+02  0.23712467389E+02  0.47421785687E+03  0.47492565475E+03  0.00000000000E+00 0.  1.
         21    1    1    2  503  502 -0.10465211675E+02 -0.23712467389E+02  0.19691046522E+03  0.19860899546E+03  0.00000000000E+00 0.  1.
</event>
<event>
 4    1  0.2216341E+005  0.2371022E+02  0.7546771E-02  0.1483767E+00
          2   -1    0    0  503    0  0.00000000000E+00  0.00000000000E+00  0.14945803668E+04  0.14945803668E+04  0.00000000000E+00 0. -1.
         21   -1    0    0  501  502 -0.00000000000E+00 -0.00000000000E+00 -0.18529028105E+01  0.18529028105E+01  0.00000000000E+00 0.  1.
          2    1    1    2  501    0  0.67941387759E+01 -0.22715942486E+02  0.14143324542E+04  0.14145311822E+04  0.00000000000E+00 0. -1.
         21    1    1    2  503  502 -0.67941387759E+01  0.22715942486E+02  0.78395009738E+02  0.81902087376E+02  0.00000000000E+00 0.  1.
</event>
<event>
 4    1  0.2216341E+005  0.2954407E+02  0.7546771E-02  0.1423600E+00
          2   -1    0    0  502    0  0.00000000000E+00  0.00000000000E+00  0.27196499135E+04  0.27196499135E+04  0.00000000000E+00 0. -1.
         21   -1    0    0  503  502 -0.00000000000E+00 -0.00000000000E+00 -0.33290716050E+00  0.33290716050E+00  0.00000000000E+00 0. -1.
          2    1    1    2  501    0 -0.23782742928E+02 -0.17528075825E+02  0.16174791579E+04  0.16177489541E+04  0.00000000000E+00 0. -1.
         21    1    1    2  503  501  0.23782742928E+02  0.17528075825E+02  0.11018378485E+04  0.11022338666E+04  0.00000000000E+00 0. -1.
</event>
<event>
 4    1  0.2216341E+005  0.2610375E+02  0.7546771E-02  0.1456825E+00
          2   -1    0    0  502    0  0.00000000000E+00  0.00000000000E+00  0.48640421552E+03  0.48640421552E+03  0.00000000000E+00 0. -1.
         21   -1    0    0  503  502 -0.00000000000E+00 -0.00000000000E+00 -0.14034982613E+01  0.14034982613E+01  0.00000000000E+00 0. -1.
          2    1    1    2  501    0 -0.21775689389E+02  0.14395320727E+02  0.23201535372E+03  0.23347918595E+03  0.00000000000E+00 0. -1.
         21    1    1    2  503  501  0.21775689389E+02 -0.14395320727E+02  0.25298536354E+03  0.25432852783E+03  0.00000000000E+00 0. -1.
</event>
<event>
 4    1  0.2216341E+005  0.2247074E+02  0.7546771E-02  0.1499253E+00
          2   -1    0    0  503    0  0.00000000000E+00  0.00000000000E+00  0.92600227686E+03  0.92600227686E+03  0.00000000000E+00 0.  1.
         21   -1    0    0  501  502 -0.00000000000E+00 -0.00000000000E+00 -0.98023491104E+00  0.98023491104E+00  0.00000000000E+00 0.  1.
          2    1    1    2  501    0 -0.21526771648E+02 -0.64445678661E+01  0.77125359193E+03  0.77158086900E+03  0.00000000000E+00 0.  1.
         21    1    1    2  503  502  0.21526771648E+02  0.64445678661E+01  0.15376845003E+03  0.15540164277E+03  0.00000000000E+00 0.  1.
</event>
<event>
 4    1  0.2216341E+005  0.2296217E+02  0.7546771E-02  0.1492974E+00
          2   -1    0    0  503    0  0.00000000000E+00  0.00000000000E+00  0.41143181131E+03  0.41143181131E+03  0.00000000000E+00 0. -1.
         21   -1    0    0  501  502 -0.00000000000E+00 -0.00000000000E+00 -0.18673056926E+01  0.18673056926E+01  0.00000000000E+00 0.  1.
          2    1    1    2  501    0  0.20248726004E+02  0.10828214695E+02  0.32052489949E+03  0.32134634327E+03  0.00000000000E+00 0. -1.
         21    1    1    2  503  502 -0.20248726004E+02 -0.10828214695E+02  0.89039606128E+02  0.91952773736E+02  0.00000000000E+00 0.  1.
</event>
<event>
 4    1  0.2216341E+005  0.4288543E+02  0.7546771E-02  0.1332359E+00
          2   -1    0    0  502    0  0.00000000000E+00  0.00000000000E+00  0.32004256067E+03  0.32004256067E+03  0.00000000000E+00 0.  1.
         21   -1    0    0  503  502 -0.00000000000E+00 -0.00000000000E+00 -0.17875142213E+02  0.17875142213E+02  0.00000000000E+00 0. -1.
          2    1    1    2  501    0 -0.35629894536E+02  0.23867769919E+02  0.29025841639E+03  0.29340945471E+03  0.00000000000E+00 0.  1.
         21    1    1    2  503  501  0.35629894536E+02 -0.23867769919E+02  0.11909002067E+02  0.44508248177E+02  0.00000000000E+00 0. -1.
</event>
<event>
 4    1  0.2216341E+005  0.3065789E+02  0.7546771E-02  0.1413964E+00
          2   -1    0    0  502    0  0.00000000000E+00  0.00000000000E+00  0.94622525482E+03  0.94622525482E+03  0.00000000000E+00 0.  1.
         21   -1    0    0  503  502 -0.00000000000E+00 -0.00000000000E+00 -0.35986371174E+01  0.35986371174E+01  0.00000000000E+00 0.  1.
          2    1    1    2  501    0  0.26485085446E+01  0.30543275189E+02  0.87539968234E+03  0.87593636190E+03  0.00000000000E+00 0.  1.
         21    1    1    2  503  501 -0.26485085446E+01 -0.30543275189E+02  0.67226935357E+02  0.73887530032E+02  0.00000000000E+00 0.  1.
</event>
<event>
 4    1  0.2216341E+005  0.2002944E+02  0.7546771E-02  0.1533586E+00
          2   -1    0    0  502    0  0.00000000000E+00  0.00000000000E+00  0.80095995135E+03  0.80095995135E+03  0.00000000000E+00 0.  1.
         21   -1    0    0  503  502 -0.00000000000E+00 -0.00000000000E+00 -0.13440666939E+02  0.13440666939E+02  0.00000000000E+00 0. -1.
          2    1    1    2  501    0  0.86923207537E+01 -0.18045003694E+02  0.79330066999E+03  0.79355348377E+03  0.00000000000E+00 0.  1.
         21    1    1    2  503  501 -0.86923207537E+01  0.18045003694E+02 -0.57813855789E+01  0.20847134518E+02  0.00000000000E+00 0. -1.
</event>
<event>
 4    1  0.2216341E+005  0.3414705E+02  0.7546771E-02  0.1386661E+00
          2   -1    0    0  502    0  0.00000000000E+00  0.00000000000E+00  0.62523944955E+02  0.62523944955E+02  0.00000000000E+00 0.  1.
         21   -1    0    0  503  502 -0.00000000000E+00 -0.00000000000E+00 -0.31467257467E+03  0.31467257467E+03  0.00000000000E+00 0.  1.
          2    1    1    2  501    0 -0.28915942352E+02 -0.18162851223E+02  0.56849919059E+02  0.66316922303E+02  0.00000000000E+00 0.  1.
         21    1    1    2  503  501  0.28915942352E+02  0.18162851223E+02 -0.30899854877E+03  0.31087959732E+03  0.00000000000E+00 0.  1.
</event>
<event>
 4    1  0.2216341E+005  0.4648247E+02  0.7546771E-02  0.1314189E+00
          2   -1    0    0  503    0  0.00000000000E+00  0.00000000000E+00  0.91613382224E+01  0.91613382224E+01  0.00000000000E+00 0. -1.
         21   -1    0    0  501  502 -0.00000000000E+00 -0.00000000000E+00 -0.23623987487E+03  0.23623987487E+03  0.00000000000E+00 0. -1.
          2    1    1    2  501    0  0.24514536904E+02 -0.39492501178E+02 -0.11858041044E+03  0.12736535600E+03  0.00000000000E+00 0. -1.
         21    1    1    2  503  502 -0.24514536904E+02  0.39492501178E+02 -0.10849812620E+03  0.11803585709E+03  0.00000000000E+00 0. -1.
</event>
<event>
 4    1  0.2216341E+005  0.2045813E+02  0.7546771E-02  0.1527144E+00
          2   -1    0    0  502    0  0.00000000000E+00  0.00000000000E+00  0.12470437523E+04  0.12470437523E+04  0.00000000000E+00 0.  1.
         21   -1    0    0  503  502 -0.00000000000E+00 -0.00000000000E+00 -0.15295681605E+02  0.15295681605E+02  0.00000000000E+00 0. -1.
          2    1    1    2  501    0  0.19916482987E+01  0.20360949926E+02  0.12400807017E+04  0.12402494434E+04  0.00000000000E+00 0.  1.
         21    1    1    2  503  501 -0.19916482987E+01 -0.20360949926E+02 -0.83326309964E+01  0.22089990587E+02  0.00000000000E+00 0. -1.
</event>
<event>
 4    1  0.2216341E+005  0.2166720E+02  0.7546771E-02  0.1509948E+00
          2   -1    0    0  502    0  0.00000000000E+00  0.00000000000E+00  0.56768137743E+03  0.56768137743E+03  0.00000000000E+00 0.  1.
         21   -1    0    0  503  502 -0.00000000000E+00 -0.00000000000E+00 -0.38656679467E+01  0.38656679467E+01  0.00000000000E+00 0. -1.
          2    1    1    2  501    0 -0.10360957246E+02 -0.19029398958E+02  0.53527597648E+03  0.53571432542E+03  0.00000000000E+00 0.  1.
         21    1    1    2  503  501  0.10360957246E+02  0.19029398958E+02  0.28539732997E+02  0.35832719954E+02  0.00000000000E+00 0. -1.
</event>
<event>
 4    1  0.2216341E+005  0.1180540E+03  0.7546771E-02  0.1135748E+00
          2   -1    0    0  502    0  0.00000000000E+00  0.00000000000E+00  0.25612612895E+04  0.25612612895E+04  0.00000000000E+00 0.  1.
         21   -1    0    0  503  502 -0.00000000000E+00 -0.00000000000E+00 -0.54194891838E+02  0.54194891838E+02  0.00000000000E+00 0.  1.
          2    1    1    2  501    0  0.93701183687E+02 -0.71811079424E+02  0.24938748285E+04  0.24966674594E+04  0.00000000000E+00 0.  1.
         21    1    1    2  503  501 -0.93701183687E+02  0.71811079424E+02  0.13191569191E+02  0.11878872190E+03  0.00000000000E+00 0.  1.
</event>
<event>
 4    1  0.2216341E+005  0.2441290E+02  0.7546771E-02  0.1475480E+00
          2   -1    0    0  503    0  0.00000000000E+00  0.00000000000E+00  0.37806978559E+02  0.37806978559E+02  0.00000000000E+00 0.  1.
         21   -1    0    0  501  502 -0.00000000000E+00 -0.00000000000E+00 -0.32106153402E+02  0.32106153402E+02  0.00000000000E+00 0.  1.
          2    1    1    2  501    0  0.23781613876E+02 -0.55158337415E+01  0.27789992580E+02  0.36990177994E+02  0.00000000000E+00 0.  1.
         21    1    1    2  503  502 -0.23781613876E+02  0.55158337415E+01 -0.22089167423E+02  0.32922953966E+02  0.00000000000E+00 0.  1.
</event>
<event>
 4    1  0.2216341E+005  0.2587666E+02  0.7546771E-02  0.1459231E+00
          2   -1    0    0  503    0  0.00000000000E+00  0.00000000000E+00  0.30315369192E+03  0.30315369192E+03  0.00000000000E+00 0.  1.
         21   -1    0    0  501  502 -0.00000000000E+00 -0.00000000000E+00 -0.97530785954E+02  0.97530785954E+02  0.00000000000E+00 0.  1.
          2    1    1    2  501    0 -0.21502088185E+02 -0.14396592145E+02  0.30087211830E+03  0.30198283599E+03  0.00000000000E+00 0.  1.
         21    1    1    2  503  502  0.21502088185E+02  0.14396592145E+02 -0.95249212331E+02  0.98701641888E+02  0.00000000000E+00 0.  1.
</event>
<event>
 4    1  0.2216341E+005  0.3921373E+02  0.7546771E-02  0.1353156E+00
          2   -1    0    0  502    0  0.00000000000E+00  0.00000000000E+00  0.26019714499E+03  0.26019714499E+03  0.00000000000E+00 0.  1.
         21   -1    0    0  503  502 -0.00000000000E+00 -0.00000000000E+00 -0.37524831020E+02  0.37524831020E+02  0.00000000000E+00 0.  1.
          2    1    1    2  501    0 -0.28696756329E+02 -0.26724762510E+02  0.24797313048E+03  0.25105455621E+03  0.00000000000E+00 0.  1.
         21    1    1    2  503  501  0.28696756329E+02  0.26724762510E+02 -0.25300816506E+02  0.46667419801E+02  0.00000000000E+00 0.  1.
</event>
<event>
 4    1  0.2216341E+005  0.2856874E+02  0.7546771E-02  0.1432456E+00
          2   -1    0    0  503    0  0.00000000000E+00  0.00000000000E+00  0.17541372767E+04  0.17541372767E+04  0.00000000000E+00 0.  1.
         21   -1    0    0  501  502 -0.00000000000E+00 -0.00000000000E+00 -0.14191921479E+03  0.14191921479E+03  0.00000000000E+00 0. -1.
          2    1    1    2  501    0 -0.24496881750E+02 -0.14699508690E+02  0.17525819379E+04  0.17528147711E+04  0.00000000000E+00 0.  1.
         21    1    1    2  503  502  0.24496881750E+02  0.14699508690E+02 -0.14036387599E+03  0.14324172037E+03  0.00000000000E+00 0. -1.
</event>
<event>
 4    1  0.2216341E+005  0.2590518E+02  0.7546771E-02  0.1458927E+00
          2   -1    0    0  502    0  0.00000000000E+00  0.00000000000E+00  0.34401050513E+02  0.34401050513E+02  0.00000000000E+00 0. -1.
         21   -1    0    0  503  502 -0.00000000000E+00 -0.00000000000E+00 -0.63301187301E+02  0.63301187301E+02  0.00000000000E+00 0. -1.
          2    1    1    2  501    0 -0.86897143001E+01 -0.24404243536E+02  0.26182509902E+02  0.36832079251E+02  0.00000000000E+00 0. -1.
         21    1    1    2  503  501  0.86897143001E+01  0.24404243536E+02 -0.55082646690E+02  0.60870158564E+02  0.00000000000E+00 0. -1.
</event>
<event>
 4    1  0.2216341E+005  0.6175351E+02  0.7546771E-02  0.1253988E+00
          2   -1    0    0  502    0  0.00000000000E+00  0.00000000000E+00  0.69020943177E+03  0.69020943177E+03  0.00000000000E+00 0. -1.
         21   -1    0    0  503  502 -0.00000000000E+00 -0.00000000000E+00 -0.97718004531E+01  0.97718004531E+01  0.00000000000E+00 0. -1.
          2    1    1    2  501    0 -0.52747635241E+02  0.32112042553E+02  0.57094316262E+03  0.57427309813E+03  0.00000000000E+00 0. -1.
         21    1    1    2  503  501  0.52747635241E+02 -0.32112042553E+02  0.10949446870E+03  0.12570813409E+03  0.00000000000E+00 0. -1.
</event>
<event>
 4    1  0.2216341E+005  0.2089195E+02  0.7546771E-02  0.1520813E+00
          2   -1    0    0  503    0  0.00000000000E+00  0.00000000000E+00  0.14092700030E+04  0.14092700030E+04  0.00000000000E+00 0. -1.
         21   -1    0    0  501  502 -0.00000000000E+00 -0.00000000000E+00 -0.34032144461E+00  0.34032144461E+00  0.00000000000E+00 0. -1.
          2    1    1    2  501    0 -0.10507346867E+02  0.18057384427E+02  0.91582530457E+03  0.91606356873E+03  0.00000000000E+00 0. -1.
         21    1    1    2  503  502  0.10507346867E+02 -0.18057384427E+02  0.49310437699E+03  0.49354675571E+03  0.00000000000E+00 0. -1.
</event>
<event>
 4    1  0.2216341E+005  0.2596488E+02  0.7546771E-02  0.1458293E+00
          2   -1    0    0  503    0  0.00000000000E+00  0.00000000000E+00  0.45890374806E+03  0.45890374806E+03  0.00000000000E+00 0. -1.
         21   -1    0    0  501  502 -0.00000000000E+00 -0.00000000000E+00 -0.15717705854E+02  0.15717705854E+02  0.00000000000E+00 0.  1.
          2    1    1    2  501    0  0.90964483926E+01  0.24319331296E+02  0.44754127319E+03  0.44829383942E+03  0.00000000000E+00 0. -1.
         21    1    1    2  503  502 -0.90964483926E+01 -0.24319331296E+02 -0.43552309881E+01  0.26327614495E+02  0.00000000000E+00 0.  1.
</event>
<event>
 4    1  0.2216341E+005  0.4190508E+02  0.7546771E-02  0.1337670E+00
          2   -1    0    0  503    0  0.00000000000E+00  0.00000000000E+00  0.41540611612E+03  0.41540611612E+03  0.00000000000E+00 0.  1.
         21   -1    0    0  501  502 -0.00000000000E+00 -0.00000000000E+00 -0.42294660032E+01  0.42294660032E+01  0.00000000000E+00 0.  1.
          2    1    1    2  501    0  0.29031272777E+02 -0.30219549274E+02  0.21036367110E+03  0.21449687661E+03  0.00000000000E+00 0.  1.
         21    1    1    2  503  502 -0.29031272777E+02  0.30219549274E+02  0.20081297901E+03  0.20513870551E+03  0.00000000000E+00 0.  1.
</event>
<event>
 4    1  0.2216341E+005  0.1085468E+03  0.7546771E-02  0.1149768E+00
          2   -1    0    0  503    0  0.00000000000E+00  0.00000000000E+00  0.40837268736E+03  0.40837268736E+03  0.00000000000E+00 0. -1.
         21   -1    0    0  501  502 -0.00000000000E+00 -0.00000000000E+00 -0.12980531405E+03  0.12980531405E+03  0.00000000000E+00 0. -1.
          2    1    1    2  501    0 -0.88523896172E+02 -0.62816542031E+02  0.37659030206E+03  0.39192174443E+03  0.00000000000E+00 0. -1.
         21    1    1    2  503  502  0.88523896172E+02  0.62816542031E+02 -0.98022928756E+02  0.14625625699E+03  0.00000000000E+00 0. -1.
</event>
<event>
 4    1  0.2216341E+005  0.2129780E+02  0.7546771E-02  0.1515055E+00
          2   -1    0    0  503    0  0.00000000000E+00  0.00000000000E+00  0.14765965689E+03  0.14765965689E+03  0.00000000000E+00 0.  1.
         21   -1    0    0  501  502 -0.00000000000E+00 -0.00000000000E+00 -0.30979768042E+01  0.30979768042E+01  0.00000000000E+00 0.  1.
          2    1    1    2  501    0  0.58770950836E+01  0.20470861864E+02  0.79195902879E+02  0.82009679093E+02  0.00000000000E+00 0.  1.
         21    1    1    2  503  502 -0.58770950836E+01 -0.20470861864E+02  0.65365777208E+02  0.68747954603E+02  0.00000000000E+00 0.  1.
</event>
<event>
 4    1  0.2216341E+005  0.3260233E+02  0.7546771E-02  0.1398251E+00
          2   -1    0    0  502    0  0.00000000000E+00  0.00000000000E+00  0.73318715510E+03  0.73318715510E+03  0.00000000000E+00 0. -1.
         21   -1    0    0  503  502 -0.00000000000E+00 -0.00000000000E+00 -0.17629564303E+01  0.17629564303E+01  0.00000000000E+00 0. -1.
          2    1    1    2  501    0  0.21975064209E+02 -0.24083371694E+02  0.52061046722E+03  0.52163030090E+03  0.00000000000E+00 0. -1.
         21    1    1    2  503  501 -0.21975064209E+02  0.24083371694E+02  0.21081373144E+03  0.21331981062E+03  0.00000000000E+00 0. -1.
</event>
<event>
 4    1  0.2216341E+005  0.3713728E+02  0.7546771E-02  0.1366130E+00
          2   -1    0    0  502    0  0.00000000000E+00  0.00000000000E+00  0.18260443392E+04  0.18260443392E+04  0.00000000000E+00 0. -1.
         21   -1    0    0  503  502 -0.00000000000E+00 -0.00000000000E+00 -0.37972328460E+02  0.37972328460E+02  0.00000000000E+00 0. -1.
          2    1    1    2  501    0  0.36880446586E+02 -0.43600914688E+01  0.18167288141E+04  0.18171083517E+04  0.00000000000E+00 0. -1.
         21    1    1    2  503  501 -0.36880446586E+02  0.43600914688E+01 -0.28656803307E+02  0.46908316041E+02  0.00000000000E+00 0. -1.
</event>
<event>
 4    1  0.2216341E+005  0.2265488E+02  0.7546771E-02  0.1496878E+00
          2   -1    0    0  503    0  0.00000000000E+00  0.00000000000E+00  0.11065831221E+03  0.11065831221E+03  0.00000000000E+00 0. -1.
         21   -1    0    0  501  502 -0.00000000000E+00 -0.00000000000E+00 -0.46578068200E+01  0.46578068200E+01  0.00000000000E+00 0.  1.
          2    1    1    2  501    0  0.88176002502E+01  0.20868479636E+02  0.56751341485E+02  0.61106123072E+02  0.00000000000E+00 0. -1.
         21    1    1    2  503  502 -0.88176002502E+01 -0.20868479636E+02  0.49249163910E+02  0.54209995963E+02  0.00000000000E+00 0.  1.
</event>
<event>
 4    1  0.2216341E+005  0.2016100E+02  0.7546771E-02  0.1531589E+00
          2   -1    0    0  502    0  0.00000000000E+00  0.00000000000E+00  0.64641984237E+02  0.64641984237E+02  0.00000000000E+00 0.  1.
         21   -1    0    0  503  502 -0.00000000000E+00 -0.00000000000E+00 -0.85032374929E+01  0.85032374929E+01  0.00000000000E+00 0.  1.
          2    1    1    2  501    0  0.13849453382E+02 -0.14651232976E+02  0.46736532025E+02  0.50899601300E+02  0.00000000000E+00 0.  1.
         21    1    1    2  503  501 -0.13849453382E+02  0.14651232976E+02  0.94022147188E+01  0.22245620430E+02  0.00000000000E+00 0.  1.
</event>
<event>
 4    1  0.2216341E+005  0.2700671E+02  0.7546771E-02  0.1447541E+00
          2   -1    0    0  503    0  0.00000000000E+00  0.00000000000E+00  0.26152223536E+02  0.26152223536E+02  0.00000000000E+00 0.  1.
         21   -1    0    0  501  502 -0.00000000000E+00 -0.00000000000E+00 -0.31555544083E+02  0.31555544083E+02  0.00000000000E+00 0.  1.
          2    1    1    2  501    0 -0.80699119013E+01  0.25772831160E+02  0.71336538569E+01  0.27932979101E+02  0.00000000000E+00 0.  1.
         21    1    1    2  503  502  0.80699119013E+01 -0.25772831160E+02 -0.12536974404E+02  0.29774788519E+02  0.00000000000E+00 0.  1.
</event>
<event>
 4    1  0.2216341E+005  0.2591709E+02  0.7546771E-02  0.1458800E+00
          2   -1    0    0  503    0  0.00000000000E+00  0.00000000000E+00  0.44946941270E+03  0.44946941270E+03  0.00000000000E+00 0.  1.
         21   -1    0    0  501  502 -0.00000000000E+00 -0.00000000000E+00 -0.43966714288E+01  0.43966714288E+01  0.00000000000E+00 0. -1.
          2    1    1    2  501    0  0.25880249606E+02 -0.13814410765E+01  0.40691191243E+03  0.40773643470E+03  0.00000000000E+00 0.  1.
         21    1    1    2  503  502 -0.25880249606E+02  0.13814410765E+01  0.38160828838E+02  0.46129649433E+02  0.00000000000E+00 0. -1.
</event>
<event>
 4    1  0.2216341E+005  0.2224907E+02  0.7546771E-02  0.1502149E+00
          2   -1    0    0  503    0  0.00000000000E+00  0.00000000000E+00  0.66695634443E+03  0.66695634443E+03  0.00000000000E+00 0.  1.
         21   -1    0    0  501  502 -0.00000000000E+00 -0.00000000000E+00 -0.10286688951E+01  0.10286688951E+01  0.00000000000E+00 0.  1.
          2    1    1    2  501    0 -0.20529310064E+02 -0.85772112894E+01  0.50921447381E+03  0.50970030554E+03  0.00000000000E+00 0.  1.
         21    1    1    2  503  502  0.20529310064E+02  0.85772112894E+01  0.15671320172E+03  0.15828470779E+03  0.00000000000E+00 0.  1.
</event>
<event>
 4    1  0.2216341E+005  0.2790791E+02  0.7546771E-02  0.1438695E+00
          2   -1    0    0  503    0  0.00000000000E+00  0.00000000000E+00  0.10076029677E+01  0.10076029677E+01  0.00000000000E+00 0.  1.
         21   -1    0    0  501  502 -0.00000000000E+00 -0.00000000000E+00 -0.10648189814E+04  0.10648189814E+04  0.00000000000E+00 0.  1.
          2    1    1    2  501    0 -0.26792767535E+02  0.78102007481E+01 -0.25291209286E+03  0.25444720149E+03  0.00000000000E+00 0.  1.
         21    1    1    2  503  502  0.26792767535E+02 -0.78102007481E+01 -0.81089928561E+03  0.81137938293E+03  0.00000000000E+00 0.  1.
</event>
<event>
 4    1  0.2216341E+005  0.2737125E+02  0.7546771E-02  0.1443914E+00
          2   -1    0    0  503    0  0.00000000000E+00  0.00000000000E+00  0.44205750854E+03  0.44205750854E+03  0.00000000000E+00 0.  1.
         21   -1    0    0  501  502 -0.00000000000E+00 -0.00000000000E+00 -0.20356324905E+01  0.20356324905E+01  0.00000000000E+00 0.  1.
          2    1    1    2  501    0  0.25678818542E+02 -0.94754116759E+01  0.31087349082E+03  0.31207613245E+03  0.00000000000E+00 0.  1.
         21    1    1    2  503  502 -0.25678818542E+02  0.94754116759E+01  0.12914838523E+03  0.13201700858E+03  0.00000000000E+00 0.  1.
</event>
<event>
 4    1  0.2216341E+005  0.4651087E+02  0.7546771E-02  0.1314053E+00
          2   -1    0    0  503    0  0.00000000000E+00  0.00000000000E+00  0.18600318584E+03  0.18600318584E+03  0.00000000000E+00 0. -1.
         21   -1    0    0  501  502 -0.00000000000E+00 -0.00000000000E+00 -0.11823210625E+02  0.11823210625E+02  0.00000000000E+00 0. -1.
          2    1    1    2  501    0  0.46491022246E+02 -0.13586045189E+01  0.74453202880E+02  0.87786903208E+02  0.00000000000E+00 0. -1.
         21    1    1    2  503  502 -0.46491022246E+02  0.13586045189E+01  0.99726772332E+02  0.11003949325E+03  0.00000000000E+00 0. -1.
</event>
<event>
 4    1  0.2216341E+005  0.2481745E+02  0.7546771E-02  0.1470856E+00
          2   -1    0    0  503    0  0.00000000000E+00  0.00000000000E+00  0.12920506788E+02  0.12920506788E+02  0.00000000000E+00 0.  1.
         21   -1    0    0  501  502 -0.00000000000E+00 -0.00000000000E+00 -0.73365249380E+03  0.73365249380E+03  0.00000000000E+00 0.  1.
          2    1    1    2  501    0 -0.46211951098E+01  0.24383405542E+02  0.58975306697E+00  0.24824458075E+02  0.00000000000E+00 0.  1.
         21    1    1    2  503  502  0.46211951098E+01 -0.24383405542E+02 -0.72132174008E+03  0.72174854251E+03  0.00000000000E+00 0.  1.
</event>
<event>
 4    1  0.2216341E+005  0.2037110E+02  0.7546771E-02  0.1528436E+00
          2   -1    0    0  502    0  0.00000000000E+00  0.00000000000E+00  0.14376514766E+04  0.14376514766E+04  0.00000000000E+00 0. -1.
         21   -1    0    0  503  502 -0.00000000000E+00 -0.00000000000E+00 -0.10955532867E+01  0.10955532867E+01  0.00000000000E+00 0.  1.
          2    1    1    2  501    0 -0.17669827913E+02 -0.10136998227E+02  0.13356511820E+04  0.13358065210E+04  0.00000000000E+00 0. -1.
         21    1    1    2  503  501  0.17669827913E+02  0.10136998227E+02  0.10090474129E+03  0.10294050887E+03  0.00000000000E+00 0.  1.
</event>
<event>
 4    1  0.2216341E+005  0.2993696E+02  0.7546771E-02  0.1420145E+00
          2   -1    0    0  502    0  0.00000000000E+00  0.00000000000E+00  0.18737238716E+04  0.18737238716E+04  0.00000000000E+00 0.  1.
         21   -1    0    0  503  502 -0.00000000000E+00 -0.00000000000E+00 -0.61006346768E+02  0.61006346768E+02  0.00000000000E+00 0.  1.
          2    1    1    2  501    0 -0.18204325146E+02 -0.23766029345E+02  0.18699241744E+04  0.18701638002E+04  0.00000000000E+00 0.  1.
         21    1    1    2  503  501  0.18204325146E+02  0.23766029345E+02 -0.57206649544E+02  0.64566418183E+02  0.00000000000E+00 0.  1.
</event>
<event>
 4    1  0.2216341E+005  0.2504277E+02  0.7546771E-02  0.1468326E+00
          2   -1    0    0  503    0  0.00000000000E+00  0.00000000000E+00  0.52137717786E+03  0.52137717786E+03  0.00000000000E+00 0.  1.
         21   -1    0    0  501  502 -0.00000000000E+00 -0.00000000000E+00 -0.14921872526E+02  0.14921872526E+02  0.00000000000E+00 0. -1.
          2    1    1    2  501    0 -0.17955405229E+02 -0.17456905492E+02  0.51034235187E+03  0.51095641325E+03  0.00000000000E+00 0.  1.
         21    1    1    2  503  502  0.17955405229E+02  0.17456905492E+02 -0.38870465381E+01  0.25342637137E+02  0.00000000000E+00 0. -1.
</event>
<event>
 4    1  0.2216341E+005  0.5000760E+02  0.7546771E-02  0.1298139E+00
          2   -1    0    0  502    0  0.00000000000E+00  0.00000000000E+00  0.60883515314E+03  0.60883515314E+03  0.00000000000E+00 0.  1.
         21   -1    0    0  503  502 -0.00000000000E+00 -0.00000000000E+00 -0.11142093262E+04  0.11142093262E+04  0.00000000000E+00 0.  1.
          2    1    1    2  501    0 -0.29167486324E+02  0.40620413081E+02  0.60724571788E+03  0.60930133932E+03  0.00000000000E+00 0.  1.
         21    1    1    2  503  501  0.29167486324E+02 -0.40620413081E+02 -0.11126198909E+04  0.11137431400E+04  0.00000000000E+00 0.  1.
</event>
<event>
 4    1  0.2216341E+005  0.2339502E+02  0.7546771E-02  0.1487597E+00
          2   -1    0    0  503    0  0.00000000000E+00  0.00000000000E+00  0.52939729800E+03  0.52939729800E+03  0.00000000000E+00 0. -1.
         21   -1    0    0  501  502 -0.00000000000E+00 -0.00000000000E+00 -0.38327665029E+01  0.38327665029E+01  0.00000000000E+00 0. -1.
          2    1    1    2  501    0 -0.14759123477E+02  0.18152003712E+02  0.49061809412E+03  0.49117557069E+03  0.00000000000E+00 0. -1.
         21    1    1    2  503  502  0.14759123477E+02 -0.18152003712E+02  0.34946437380E+02  0.42054493816E+02  0.00000000000E+00 0. -1.
</event>
<event>
 4    1  0.2216341E+005  0.2381033E+02  0.7546771E-02  0.1482566E+00
          2   -1    0    0  503    0  0.00000000000E+00  0.00000000000E+00  0.19693229050E+03  0.19693229050E+03  0.00000000000E+00 0. -1.
         21   -1    0    0  501  502 -0.00000000000E+00 -0.00000000000E+00 -0.12416183525E+02  0.12416183525E+02  0.00000000000E+00 0. -1.
          2    1    1    2  501    0 -0.21291765047E+02  0.10657990307E+02  0.18399831630E+03  0.18553251040E+03  0.00000000000E+00 0. -1.
         21    1    1    2  503  502  0.21291765047E+02 -0.10657990307E+02  0.51779068101E+00  0.23815963625E+02  0.00000000000E+00 0. -1.
</event>
<event>
 4    1  0.2216341E+005  0.2171120E+02  0.7546771E-02  0.1509348E+00
          2   -1    0    0  502    0  0.00000000000E+00  0.00000000000E+00  0.10050055406E+04  0.10050055406E+04  0.00000000000E+00 0. -1.
         21   -1    0    0  503  502 -0.00000000000E+00 -0.00000000000E+00 -0.19194997270E+01  0.19194997270E+01  0.00000000000E+00 0.  1.
          2    1    1    2  501    0  0.21473784255E+02 -0.32020240145E+01  0.93919375152E+03  0.93944466535E+03  0.00000000000E+00 0. -1.
         21    1    1    2  503  501 -0.21473784255E+02  0.32020240145E+01  0.63892289397E+02  0.67480375017E+02  0.00000000000E+00 0.  1.
</event>
<event>
 4    1  0.2216341E+005  0.3865352E+02  0.7546771E-02  0.1356562E+00
          2   -1    0    0  503    0  0.00000000000E+00  0.00000000000E+00  0.65587148433E+03  0.65587148433E+03  0.00000000000E+00 0.  1.
         21   -1    0    0  501  502 -0.00000000000E+00 -0.00000000000E+00 -0.44948888055E+02  0.44948888055E+02  0.00000000000E+00 0.  1.
          2    1    1    2  501    0  0.11169247359E+02 -0.37004625059E+02  0.64687656582E+03  0.64803038955E+03  0.00000000000E+00 0.  1.
         21    1    1    2  503  502 -0.11169247359E+02  0.37004625059E+02 -0.35953969547E+02  0.52789982842E+02  0.00000000000E+00 0.  1.
</event>
<event>
 4    1  0.2216341E+005  0.2429483E+02  0.7546771E-02  0.1476849E+00
          2   -1    0    0  503    0  0.00000000000E+00  0.00000000000E+00  0.82368968622E+01  0.82368968622E+01  0.00000000000E+00 0. -1.
         21   -1    0    0  501  502 -0.00000000000E+00 -0.00000000000E+00 -0.72504268992E+02  0.72504268992E+02  0.00000000000E+00 0.  1.
          2    1    1    2  501    0  0.12545106075E+02 -0.20805264702E+02 -0.27771910781E+02  0.36898750035E+02  0.00000000000E+00 0. -1.
         21    1    1    2  503  502 -0.12545106075E+02  0.20805264702E+02 -0.36495461348E+02  0.43842415818E+02  0.00000000000E+00 0.  1.
</event>
<event>
 4    1  0.2216341E+005  0.2120125E+02  0.7546771E-02  0.1516411E+00
          2   -1    0    0  503    0  0.00000000000E+00  0.00000000000E+00  0.12827890928E+04  0.12827890928E+04  0.00000000000E+00 0.  1.
         21   -1    0    0  501  502 -0.00000000000E+00 -0.00000000000E+00 -0.69397039341E+00  0.69397039341E+00  0.00000000000E+00 0.  1.
          2    1    1    2  501    0  0.19045092425E+01  0.21115531436E+02  0.10925871200E+04  0.10927928018E+04  0.00000000000E+00 0.  1.
         21    1    1    2  503  502 -0.19045092425E+01 -0.21115531436E+02  0.18950800237E+03  0.19069026138E+03  0.00000000000E+00 0.  1.
</event>
<event>
 4    1  0.2216341E+005  0.2156708E+02  0.7546771E-02  0.1511320E+00
          2   -1    0    0  503    0  0.00000000000E+00  0.00000000000E+00  0.35223790030E+02  0.35223790030E+02  0.00000000000E+00 0.  1.
         21   -1    0    0  501  502 -0.00000000000E+00 -0.00000000000E+00 -0.14377942983E+02  0.14377942983E+02  0.00000000000E+00 0.  1.
          2    1    1    2  501    0 -0.81036858973E+01  0.19986724426E+02  0.17505822265E+02  0.27777557336E+02  0.00000000000E+00 0.  1.
         21    1    1    2  503  502  0.81036858973E+01 -0.19986724426E+02  0.33400247814E+01  0.21824175676E+02  0.00000000000E+00 0.  1.
</event>
<event>
 4    1  0.2216341E+005  0.2002007E+02  0.7546771E-02  0.1533729E+00
          2   -1    0    0  503    0  0.00000000000E+00  0.00000000000E+00  0.76750546618E+03  0.76750546618E+03  0.00000000000E+00 0. -1.
         21   -1    0    0  501  502 -0.00000000000E+00 -0.00000000000E+00 -0.29511007161E+02  0.29511007161E+02  0.00000000000E+00 0.  1.
          2    1    1    2  501    0 -0.19580378174E+02  0.41727697956E+01  0.76396380387E+03  0.76422607704E+03  0.00000000000E+00 0. -1.
         21    1    1    2  503  502  0.19580378174E+02 -0.41727697956E+01 -0.25969344850E+02  0.32790396294E+02  0.00000000000E+00 0.  1.
</event>
<event>
 4    1  0.2216341E+005  0.3833143E+02  0.7546771E-02  0.1358551E+00
          2   -1    0    0  502    0  0.00000000000E+00  0.00000000000E+00  0.47751015946E+03  0.47751015946E+03  0.00000000000E+00 0.  1.
         21   -1    0    0  503  502 -0.00000000000E+00 -0.00000000000E+00 -0.27083188480E+02  0.27083188480E+02  0.00000000000E+00 0.  1.
          2    1    1    2  501    0 -0.36824446824E+02 -0.10642312377E+02  0.46274609296E+03  0.46433096521E+03  0.00000000000E+00 0.  1.
         21    1    1    2  503  501  0.36824446824E+02  0.10642312377E+02 -0.12319121987E+02  0.40262382731E+02  0.00000000000E+00 0.  1.
</event>
<event>
 4    1  0.2216341E+005  0.3211638E+02  0.7546771E-02  0.1402055E+00
          2   -1    0    0  502    0  0.00000000000E+00  0.00000000000E+00  0.39571802468E+03  0.39571802468E+03  0.00000000000E+00 0. -1.
         21   -1    0    0  503  502 -0.00000000000E+00 -0.00000000000E+00 -0.52851414330E+03  0.52851414330E+03  0.00000000000E+00 0.  1.
          2    1    1    2  501    0 -0.28241687379E+02 -0.15292783705E+02  0.39457706999E+03  0.39588196006E+03  0.00000000000E+00 0. -1.
         21    1    1    2  503  501  0.28241687379E+02  0.15292783705E+02 -0.52737318861E+03  0.52835020792E+03  0.00000000000E+00 0.  1.
</event>
<event>
 4    1  0.2216341E+005  0.4451116E+02  0.7546771E-02  0.1323902E+00
          2   -1    0    0  502    0  0.00000000000E+00  0.00000000000E+00  0.87592683392E+03  0.87592683392E+03  0.00000000000E+00 0. -1.
         21   -1    0    0  503  502 -0.00000000000E+00 -0.00000000000E+00 -0.82256907670E+01  0.82256907670E+01  0.00000000000E+00 0.  1.
          2    1    1    2  501    0 -0.31147021431E+02 -0.31797903343E+02  0.81027070272E+03  0.81149236305E+03  0.00000000000E+00 0. -1.
         21    1    1    2  503  501  0.31147021431E+02  0.31797903343E+02  0.57430440437E+02  0.72660161642E+02  0.00000000000E+00 0.  1.
</event>
<event>
 4    1  0.2216341E+005  0.2007934E+02  0.7546771E-02  0.1532826E+00
          2   -1    0    0  503    0  0.00000000000E+00  0.00000000000E+00  0.30386260854E+03  0.30386260854E+03  0.00000000000E+00 0. -1.
         21   -1    0    0  501  502 -0.00000000000E+00 -0.00000000000E+00 -0.95801710041E+01  0.95801710041E+01  0.00000000000E+00 0. -1.
          2    1    1    2  501    0  0.19957623529E+02  0.22075279350E+01  0.29260538704E+03  0.29329352608E+03  0.00000000000E+00 0. -1.
         21    1    1    2  503  502 -0.19957623529E+02 -0.22075279350E+01  0.16770504900E+01  0.20149253457E+02  0.00000000000E+00 0. -1.
</event>
<event>
 4    1  0.2216341E+005  0.2591567E+02  0.7546771E-02  0.1458815E+00
          2   -1    0    0  502    0  0.00000000000E+00  0.00000000000E+00  0.11170236268E+04  0.11170236268E+04  0.00000000000E+00 0.  1.
         21   -1    0    0  503  502 -0.00000000000E+00 -0.00000000000E+00 -0.57128275034E+01  0.57128275034E+01  0.00000000000E+00 0. -1.
          2    1    1    2  501    0 -0.13445617364E+02  0.22154850736E+02  0.10866612519E+04  0.10869702381E+04  0.00000000000E+00 0.  1.
         21    1    1    2  503  501  0.13445617364E+02 -0.22154850736E+02  0.24649547379E+02  0.35766216230E+02  0.00000000000E+00 0. -1.
</event>
<event>
 4    1  0.2216341E+005  0.5573376E+02  0.7546771E-02  0.1275060E+00
          2   -1    0    0  502    0  0.00000000000E+00  0.00000000000E+00  0.21607206326E+04  0.21607206326E+04  0.00000000000E+00 0.  1.
         21   -1    0    0  503  502 -0.00000000000E+00 -0.00000000000E+00 -0.12829367646E+03  0.12829367646E+03  0.00000000000E+00 0. -1.
          2    1    1    2  501    0 -0.44583783010E+02  0.33444559259E+02  0.21542901563E+04  0.21550109814E+04  0.00000000000E+00 0.  1.
         21    1    1    2  503  501  0.44583783010E+02 -0.33444559259E+02 -0.12186320022E+03  0.13400332764E+03  0.00000000000E+00 0. -1.
</event>
<event>
 4    1  0.2216341E+005  0.2716900E+02  0.7546771E-02  0.1445918E+00
          2   -1    0    0  503    0  0.00000000000E+00  0.00000000000E+00  0.25635180798E+03  0.25635180798E+03  0.00000000000E+00 0. -1.
         21   -1    0    0  501  502 -0.00000000000E+00 -0.00000000000E+00 -0.82128799642E+01  0.82128799642E+01  0.00000000000E+00 0. -1.
          2    1    1    2  501    0  0.25666852738E+02 -0.89088221181E+01  0.23066943550E+03  0.23226395096E+03  0.00000000000E+00 0. -1.
         21    1    1    2  503  502 -0.25666852738E+02  0.89088221181E+01  0.17469492514E+02  0.32300736984E+02  0.00000000000E+00 0. -1.
</event>
<event>
 4    1  0.2216341E+005  0.2149373E+02  0.7546771E-02  0.1512331E+00
          2   -1    0    0  503    0  0.00000000000E+00  0.00000000000E+00  0.10893278873E+04  0.10893278873E+04  0.00000000000E+00 0.  1.
         21   -1    0    0  501  502 -0.00000000000E+00 -0.00000000000E+00 -0.21979428047E+01  0.21979428047E+01  0.00000000000E+00 0.  1.
          2    1    1    2  501    0 -0.19546816687E+02  0.89388053995E+01  0.10338558425E+04  0.10340792442E+04  0.00000000000E+00 0.  1.
         21    1    1    2  503  502  0.19546816687E+02 -0.89388053995E+01  0.53274101972E+02  0.57446585847E+02  0.00000000000E+00 0.  1.
</event>
<event>
 4    1  0.2216341E+005  0.5032184E+02  0.7546771E-02  0.1296783E+00
          2   -1    0    0  502    0  0.00000000000E+00  0.00000000000E+00  0.30893439768E+03  0.30893439768E+03  0.00000000000E+00 0. -1.
         21   -1    0    0  503  502 -0.00000000000E+00 -0.00000000000E+00 -0.30067890952E+02  0.30067890952E+02  0.00000000000E+00 0.  1.
          2    1    1    2  501    0 -0.71357385066E+01 -0.49813337856E+02  0.28399584558E+03  0.28841970754E+03  0.00000000000E+00 0. -1.
         21    1    1    2  503  501  0.71357385066E+01  0.49813337856E+02 -0.51293388538E+01  0.50582581088E+02  0.00000000000E+00 0.  1.
</event>
<event>
 4    1  0.2216341E+005  0.3400741E+02  0.7546771E-02  0.1387679E+00
          2   -1    0    0  502    0  0.00000000000E+00  0.00000000000E+00  0.13659899181E+04  0.13659899181E+04  0.00000000000E+00 0. -1.
         21   -1    0    0  503  502 -0.00000000000E+00 -0.00000000000E+00 -0.54423023222E+01  0.54423023222E+01  0.00000000000E+00 0. -1.
          2    1    1    2  501    0 -0.27144056931E+02 -0.20486678371E+02  0.13103992328E+04  0.13108404377E+04  0.00000000000E+00 0. -1.
         21    1    1    2  503  501  0.27144056931E+02  0.20486678371E+02  0.50148383008E+02  0.60591782741E+02  0.00000000000E+00 0. -1.
</event>
<event>
 4    1  0.2216341E+005  0.2215703E+02  0.7546771E-02  0.1503364E+00
          2   -1    0    0  502    0  0.00000000000E+00  0.00000000000E+00  0.13128940423E+04  0.13128940423E+04  0.00000000000E+00 0.  1.
         21   -1    0    0  503  502 -0.00000000000E+00 -0.00000000000E+00 -0.35672968804E+01  0.35672968804E+01  0.00000000000E+00 0. -1.
          2    1    1    2  501    0  0.18060703826E+02  0.12835301509E+02  0.12774405848E+04  0.12776327257E+04  0.00000000000E+00 0.  1.
         21    1    1    2  503  501 -0.18060703826E+02 -0.12835301509E+02  0.31886160534E+02  0.38828613433E+02  0.00000000000E+00 0. -1.
</event>
<event>
 4    1  0.2216341E+005  0.2239019E+02  0.7546771E-02  0.1500301E+00
          2   -1    0    0  503    0  0.00000000000E+00  0.00000000000E+00  0.40880841178E+03  0.40880841178E+03  0.00000000000E+00 0. -1.
         21   -1    0    0  501  502 -0.00000000000E+00 -0.00000000000E+00 -0.17734543566E+01  0.17734543566E+01  0.00000000000E+00 0. -1.
          2    1    1    2  501    0 -0.21926454683E+02 -0.45333546597E+01  0.31754657891E+03  0.31833496587E+03  0.00000000000E+00 0. -1.
         21    1    1    2  503  502  0.21926454683E+02  0.45333546597E+01  0.89488378520E+02  0.92246900271E+02  0.00000000000E+00 0. -1.
</event>
<event>
 4    1  0.2216341E+005  0.2477458E+02  0.7546771E-02  0.1471341E+00
          2   -1    0    0  502    0  0.00000000000E+00  0.00000000000E+00  0.98763431646E+03  0.98763431646E+03  0.00000000000E+00 0.  1.
         21   -1    0    0  503  502 -0.00000000000E+00 -0.00000000000E+00 -0.61574251890E+01  0.61574251890E+01  0.00000000000E+00 0. -1.
          2    1    1    2  501    0  0.18665224008E+02 -0.16290773982E+02  0.96189181923E+03  0.96221081463E+03  0.00000000000E+00 0.  1.
         21    1    1    2  503  501 -0.18665224008E+02  0.16290773982E+02  0.19585072048E+02  0.31580927018E+02  0.00000000000E+00 0. -1.
</event>
<event>
 4    1  0.2216341E+005  0.2736706E+02  0.7546771E-02  0.1443955E+00
          2   -1    0    0  503    0  0.00000000000E+00  0.00000000000E+00  0.98271692340E+03  0.98271692340E+03  0.00000000000E+00 0.  1.
         21   -1    0    0  501  502 -0.00000000000E+00 -0.00000000000E+00 -0.32761249803E+01  0.32761249803E+01  0.00000000000E+00 0.  1.
          2    1    1    2  501    0  0.24519497330E+02 -0.12155259091E+02  0.92158340536E+03  0.92198965781E+03  0.00000000000E+00 0.  1.
         21    1    1    2  503  502 -0.24519497330E+02  0.12155259091E+02  0.57857393059E+02  0.64003390570E+02  0.00000000000E+00 0.  1.
</event>
<event>
 4    1  0.2216341E+005  0.4118194E+02  0.7546771E-02  0.1341695E+00
          2   -1    0    0  503    0  0.00000000000E+00  0.00000000000E+00  0.10891685867E+04  0.10891685867E+04  0.00000000000E+00 0.  1.
         21   -1    0    0  501  502 -0.00000000000E+00 -0.00000000000E+00 -0.39473407390E+01  0.39473407390E+01  0.00000000000E+00 0. -1.
          2    1    1    2  501    0  0.29791991345E+02 -0.28432190376E+02  0.96791915040E+03  0.96879483582E+03  0.00000000000E+00 0.  1.
         21    1    1    2  503  502 -0.29791991345E+02  0.28432190376E+02  0.11730209551E+03  0.12432109157E+03  0.00000000000E+00 0. -1.
</event>
<event>
 4    1  0.2216341E+005  0.2380646E+02  0.7546771E-02  0.1482612E+00
          2   -1    0    0  503    0  0.00000000000E+00  0.00000000000E+00  0.74507843544E+03  0.74507843544E+03  0.00000000000E+00 0.  1.
         21   -1    0    0  501  502 -0.00000000000E+00 -0.00000000000E+00 -0.23879909525E+01  0.23879909525E+01  0.00000000000E+00 0.  1.
          2    1    1    2  501    0  0.23101653454E+02  0.57498937875E+01  0.67986567493E+03  0.68028235580E+03  0.00000000000E+00 0.  1.
         21    1    1    2  503  502 -0.23101653454E+02 -0.57498937875E+01  0.62824769562E+02  0.67184070592E+02  0.00000000000E+00 0.  1.
</event>
<event>
 4    1  0.2216341E+005  0.4288198E+02  0.7546771E-02  0.1332378E+00
          2   -1    0    0  503    0  0.00000000000E+00  0.00000000000E+00  0.11637622914E+02  0.11637622914E+02  0.00000000000E+00 0.  1.
         21   -1    0    0  501  502 -0.00000000000E+00 -0.00000000000E+00 -0.17037351551E+03  0.17037351551E+03  0.00000000000E+00 0.  1.
          2    1    1    2  501    0  0.42850317862E+02  0.16474420253E+01 -0.54852862897E+02  0.69625429076E+02  0.00000000000E+00 0.  1.
         21    1    1    2  503  502 -0.42850317862E+02 -0.16474420253E+01 -0.10388302970E+03  0.11238570935E+03  0.00000000000E+00 0.  1.
</event>
<event>
 4    1  0.2216341E+005  0.2401907E+02  0.7546771E-02  0.1480083E+00
          2   -1    0    0  503    0  0.00000000000E+00  0.00000000000E+00  0.26117359765E+03  0.26117359765E+03  0.00000000000E+00 0. -1.
         21   -1    0    0  501  502 -0.00000000000E+00 -0.00000000000E+00 -0.22692334280E+01  0.22692334280E+01  0.00000000000E+00 0. -1.
          2    1    1    2  501    0  0.23999587033E+02 -0.96712850932E+00  0.15092403882E+03  0.15282336539E+03  0.00000000000E+00 0. -1.
         21    1    1    2  503  502 -0.23999587033E+02  0.96712850932E+00  0.10798032541E+03  0.11061946570E+03  0.00000000000E+00 0. -1.
</event>
<event>
 4    1  0.2216341E+005  0.2384806E+02  0.7546771E-02  0.1482115E+00
          2   -1    0    0  502    0  0.00000000000E+00  0.00000000000E+00  0.49036222341E+02  0.49036222341E+02  0.00000000000E+00 0.  1.
         21   -1    0    0  503  502 -0.00000000000E+00 -0.00000000000E+00 -0.12252001509E+02  0.12252001509E+02  0.00000000000E+00 0.  1.
          2    1    1    2  501    0 -0.23800766680E+02  0.15012184388E+01  0.25471216435E+02  0.34892879188E+02  0.00000000000E+00 0.  1.
         21    1    1    2  503  501  0.23800766680E+02 -0.15012184388E+01  0.11313004397E+02  0.26395344662E+02  0.00000000000E+00 0.  1.
</event>
<event>
 4    1  0.2216341E+005  0.2058174E+02  0.7546771E-02  0.1525321E+00
          2   -1    0    0  502    0  0.00000000000E+00  0.00000000000E+00  0.39691645692E+03  0.39691645692E+03  0.00000000000E+00 0. -1.
         21   -1    0    0  503  502 -0.00000000000E+00 -0.00000000000E+00 -0.11275799859E+02  0.11275799859E+02  0.00000000000E+00 0.  1.
          2    1    1    2  501    0 -0.19697261766E+02 -0.59687455712E+01  0.38701762079E+03  0.38756450669E+03  0.00000000000E+00 0. -1.
         21    1    1    2  503  501  0.19697261766E+02  0.59687455712E+01 -0.13769637241E+01  0.20627750092E+02  0.00000000000E+00 0.  1.
</event>
<event>
 4    1  0.2216341E+005  0.2005095E+02  0.7546771E-02  0.1533258E+00
          2   -1    0    0  503    0  0.00000000000E+00  0.00000000000E+00  0.11290902132E+04  0.11290902132E+04  0.00000000000E+00 0.  1.
         21   -1    0    0  501  502 -0.00000000000E+00 -0.00000000000E+00 -0.48668654622E+00  0.48668654622E+00  0.00000000000E+00 0. -1.
          2    1    1    2  501    0 -0.12728812001E+02 -0.15492513452E+02  0.85688684015E+03  0.85712140182E+03  0.00000000000E+00 0.  1.
         21    1    1    2  503  502  0.12728812001E+02  0.15492513452E+02  0.27171668649E+03  0.27245549791E+03  0.00000000000E+00 0. -1.
</event>
<event>
 4    1  0.2216341E+005  0.2577190E+02  0.7546771E-02  0.1460350E+00
          2   -1    0    0  503    0  0.00000000000E+00  0.00000000000E+00  0.50328250899E+01  0.50328250899E+01  0.00000000000E+00 0.  1.
         21   -1    0    0  501  502 -0.00000000000E+00 -0.00000000000E+00 -0.26515132701E+03  0.26515132701E+03  0.00000000000E+00 0.  1.
          2    1    1    2  501    0 -0.21563295188E+02  0.14114367063E+02 -0.34317429733E+02  0.42917094967E+02  0.00000000000E+00 0.  1.
         21    1    1    2  503  502  0.21563295188E+02 -0.14114367063E+02 -0.22580107219E+03  0.22726705714E+03  0.00000000000E+00 0.  1.
</event>
<event>
 4    1  0.2216341E+005  0.2263852E+02  0.7546771E-02  0.1497088E+00
          2   -1    0    0  502    0  0.00000000000E+00  0.00000000000E+00  0.93433880217E+01  0.93433880217E+01  0.00000000000E+00 0.  1.
         21   -1    0    0  503  502 -0.00000000000E+00 -0.00000000000E+00 -0.92344054674E+03  0.92344054674E+03  0.00000000000E+00 0.  1.
          2    1    1    2  501    0 -0.14137743632E+02 -0.17681258600E+02 -0.47203804480E+01  0.23125412261E+02  0.00000000000E+00 0.  1.
         21    1    1    2  503  501  0.14137743632E+02  0.17681258600E+02 -0.90937677827E+03  0.90965852250E+03  0.00000000000E+00 0.  1.
</event>
<event>
 4    1  0.2216341E+005  0.2169515E+02  0.7546771E-02  0.1509567E+00
          2   -1    0    0  503    0  0.00000000000E+00  0.00000000000E+00  0.35493581378E+02  0.35493581378E+02  0.00000000000E+00 0. -1.
         21   -1    0    0  501  502 -0.00000000000E+00 -0.00000000000E+00 -0.13441040201E+02  0.13441040201E+02  0.00000000000E+00 0. -1.
          2    1    1    2  501    0  0.12108463840E+02  0.18001790312E+02  0.13858246773E+02  0.25743549768E+02  0.00000000000E+00 0. -1.
         21    1    1    2  503  502 -0.12108463840E+02 -0.18001790312E+02  0.81942944039E+01  0.23191071812E+02  0.00000000000E+00 0. -1.
</event>
<event>
 4    1  0.2216341E+005  0.2599773E+02  0.7546771E-02  0.1457944E+00
          2   -1    0    0  502    0  0.00000000000E+00  0.00000000000E+00  0.81467762958E+03  0.81467762958E+03  0.00000000000E+00 0. -1.
         21   -1    0    0  503  502 -0.00000000000E+00 -0.00000000000E+00 -0.83325259701E+00  0.83325259701E+00  0.00000000000E+00 0. -1.
          2    1    1    2  501    0  0.23304244265E+02  0.11523639368E+02  0.43380305078E+03  0.43458137205E+03  0.00000000000E+00 0. -1.
         21    1    1    2  503  501 -0.23304244265E+02 -0.11523639368E+02  0.38004132621E+03  0.38092951013E+03  0.00000000000E+00 0. -1.
</event>
<event>
 4    1  0.2216341E+005  0.2515887E+02  0.7546771E-02  0.1467034E+00
          2   -1    0    0  502    0  0.00000000000E+00  0.00000000000E+00  0.15113493806E+04  0.15113493806E+04  0.00000000000E+00 0.  1.
         21   -1    0    0  503  502 -0.00000000000E+00 -0.00000000000E+00 -0.19299069477E+01  0.19299069477E+01  0.00000000000E+00 0. -1.
          2    1    1    2  501    0  0.12893036990E+02  0.21604129974E+02  0.14242350703E+04  0.14244572666E+04  0.00000000000E+00 0.  1.
         21    1    1    2  503  501 -0.12893036990E+02 -0.21604129974E+02  0.85184403374E+02  0.88822020991E+02  0.00000000000E+00 0. -1.
</event>
<event>
 4    1  0.2216341E+005  0.2043812E+02  0.7546771E-02  0.1527440E+00
          2   -1    0    0  503    0  0.00000000000E+00  0.00000000000E+00  0.94578300341E+02  0.94578300341E+02  0.00000000000E+00 0.  1.
         21   -1    0    0  501  502 -0.00000000000E+00 -0.00000000000E+00 -0.25115018510E+02  0.25115018510E+02  0.00000000000E+00 0.  1.
          2    1    1    2  501    0 -0.19946985461E+02 -0.44536136264E+01  0.89061862965E+02  0.91376869820E+02  0.00000000000E+00 0.  1.
         21    1    1    2  503  502  0.19946985461E+02  0.44536136264E+01 -0.19598581134E+02  0.28316449032E+02  0.00000000000E+00 0.  1.
</event>
<event>
 4    1  0.2216341E+005  0.2241972E+02  0.7546771E-02  0.1499916E+00
          2   -1    0    0  503    0  0.00000000000E+00  0.00000000000E+00  0.39584202395E+02  0.39584202395E+02  0.00000000000E+00 0. -1.
         21   -1    0    0  501  502 -0.00000000000E+00 -0.00000000000E+00 -0.20568578496E+03  0.20568578496E+03  0.00000000000E+00 0.  1.
          2    1    1    2  501    0  0.14399462632E+02 -0.17184271399E+02  0.35738443555E+02  0.42188624715E+02  0.00000000000E+00 0. -1.
         21    1    1    2  503  502 -0.14399462632E+02  0.17184271399E+02 -0.20184002612E+03  0.20308136264E+03  0.00000000000E+00 0.  1.
</event>
<event>
 4    1  0.2216341E+005  0.5847786E+02  0.7546771E-02  0.1265094E+00
          2   -1    0    0  503    0  0.00000000000E+00  0.00000000000E+00  0.19176024563E+04  0.19176024563E+04  0.00000000000E+00 0. -1.
         21   -1    0    0  501  502 -0.00000000000E+00 -0.00000000000E+00 -0.66139007581E+01  0.66139007581E+01  0.00000000000E+00 0.  1.
          2    1    1    2  501    0 -0.38755433978E+02  0.43791286941E+02  0.17777286763E+04  0.17786902223E+04  0.00000000000E+00 0. -1.
         21    1    1    2  503  502  0.38755433978E+02 -0.43791286941E+02  0.13325987931E+03  0.14552613479E+03  0.00000000000E+00 0.  1.
</event>
<event>
 4    1  0.2216341E+005  0.2390908E+02  0.7546771E-02  0.1481388E+00
          2   -1    0    0  503    0  0.00000000000E+00  0.00000000000E+00  0.32477704619E+01  0.32477704619E+01  0.00000000000E+00 0. -1.
         21   -1    0    0  501  502 -0.00000000000E+00 -0.00000000000E+00 -0.32763290158E+03  0.32763290158E+03  0.00000000000E+00 0. -1.
          2    1    1    2  501    0 -0.24815450205E+00 -0.23907788309E+02 -0.49647008186E+02  0.55104168121E+02  0.00000000000E+00 0. -1.
         21    1    1    2  503  502  0.24815450205E+00  0.23907788309E+02 -0.27473812293E+03  0.27577650392E+03  0.00000000000E+00 0. -1.
</event>
<event>
 4    1  0.2216341E+005  0.3383217E+02  0.7546771E-02  0.1388965E+00
          2   -1    0    0  503    0  0.00000000000E+00  0.00000000000E+00  0.79369945201E+03  0.79369945201E+03  0.00000000000E+00 0.  1.
         21   -1    0    0  501  502 -0.00000000000E+00 -0.00000000000E+00 -0.11615799880E+03  0.11615799880E+03  0.00000000000E+00 0. -1.
          2    1    1    2  501    0 -0.31009233671E+02  0.13529353072E+02  0.79086661069E+03  0.79158992659E+03  0.00000000000E+00 0.  1.
         21    1    1    2  503  502  0.31009233671E+02 -0.13529353072E+02 -0.11332515748E+03  0.11826752422E+03  0.00000000000E+00 0. -1.
</event>
<event>
 4    1  0.2216341E+005  0.3164076E+02  0.7546771E-02  0.1405855E+00
          2   -1    0    0  502    0  0.00000000000E+00  0.00000000000E+00  0.18617551148E+04  0.18617551148E+04  0.00000000000E+00 0. -1.
         21   -1    0    0  503  502 -0.00000000000E+00 -0.00000000000E+00 -0.40899917326E+02  0.40899917326E+02  0.00000000000E+00 0.  1.
          2    1    1    2  501    0 -0.30252854094E+02  0.92683715333E+01  0.18554805507E+04  0.18557503097E+04  0.00000000000E+00 0. -1.
         21    1    1    2  503  501  0.30252854094E+02 -0.92683715333E+01 -0.34625353282E+02  0.46904722381E+02  0.00000000000E+00 0.  1.
</event>
<event>
 4    1  0.2216341E+005  0.4247608E+02  0.7546771E-02  0.1334557E+00
          2   -1    0    0  502    0  0.00000000000E+00  0.00000000000E+00  0.85046913598E+03  0.85046913598E+03  0.00000000000E+00 0.  1.
         21   -1    0    0  503  502 -0.00000000000E+00 -0.00000000000E+00 -0.15227782718E+02  0.15227782718E+02  0.00000000000E+00 0. -1.
          2    1    1    2  501    0  0.40527233637E+02 -0.12718505323E+02  0.81918797917E+03  0.82028846284E+03  0.00000000000E+00 0.  1.
         21    1    1    2  503  501 -0.40527233637E+02  0.12718505323E+02  0.16053374090E+02  0.45408455860E+02  0.00000000000E+00 0. -1.
</event>
<event>
 4    1  0.2216341E+005  0.3653849E+02  0.7546771E-02  0.1370058E+00
          2   -1    0    0  503    0  0.00000000000E+00  0.00000000000E+00  0.80422473729E+03  0.80422473729E+03  0.00000000000E+00 0. -1.
         21   -1    0    0  501  502 -0.00000000000E+00 -0.00000000000E+00 -0.10510980671E+02  0.10510980671E+02  0.00000000000E+00 0. -1.
          2    1    1    2  501    0 -0.27168811584E+02  0.24431886674E+02  0.77067414970E+03  0.77153982815E+03  0.00000000000E+00 0. -1.
         21    1    1    2  503  502  0.27168811584E+02 -0.24431886674E+02  0.23039606920E+02  0.43195889809E+02  0.00000000000E+00 0. -1.
</event>
<event>
 4    1  0.2216341E+005  0.2212125E+02  0.7546771E-02  0.1503838E+00
          2   -1    0    0  502    0  0.00000000000E+00  0.00000000000E+00  0.62507872097E+02  0.62507872097E+02  0.00000000000E+00 0. -1.
         21   -1    0    0  503  502 -0.00000000000E+00 -0.00000000000E+00 -0.23650727484E+02  0.23650727484E+02  0.00000000000E+00 0. -1.
          2    1    1    2  501    0  0.46105561965E+01  0.21635448160E+02  0.54663928471E+02  0.58970288463E+02  0.00000000000E+00 0. -1.
         21    1    1    2  503  501 -0.46105561965E+01 -0.21635448160E+02 -0.15806783858E+02  0.27188311118E+02  0.00000000000E+00 0. -1.
</event>
<event>
 4    1  0.2216341E+005  0.2832689E+02  0.7546771E-02  0.1434716E+00
          2   -1    0    0  502    0  0.00000000000E+00  0.00000000000E+00  0.35029180454E+03  0.35029180454E+03  0.00000000000E+00 0. -1.
         21   -1    0    0  503  502 -0.00000000000E+00 -0.00000000000E+00 -0.80716948919E+01  0.80716948919E+01  0.00000000000E+00 0.  1.
          2    1    1    2  501    0 -0.22290469284E+02  0.17479929054E+02  0.32274969685E+03  0.32399040072E+03  0.00000000000E+00 0. -1.
         21    1    1    2  503  501  0.22290469284E+02 -0.17479929054E+02  0.19470412797E+02  0.34373098713E+02  0.00000000000E+00 0.  1.
</event>
<event>
 4    1  0.2216341E+005  0.2039524E+02  0.7546771E-02  0.1528077E+00
          2   -1    0    0  503    0  0.00000000000E+00  0.00000000000E+00  0.54047154783E+03  0.54047154783E+03  0.00000000000E+00 0.  1.
         21   -1    0    0  501  502 -0.00000000000E+00 -0.00000000000E+00 -0.95143613443E+00  0.95143613443E+00  0.00000000000E+00 0. -1.
          2    1    1    2  501    0 -0.43416791605E+01  0.19927760758E+02  0.38809558321E+03  0.38863112013E+03  0.00000000000E+00 0.  1.
         21    1    1    2  503  502  0.43416791605E+01 -0.19927760758E+02  0.15142452849E+03  0.15279186383E+03  0.00000000000E+00 0. -1.
</event>
<event>
 4    1  0.2216341E+005  0.2189641E+02  0.7546771E-02  0.1506841E+00
          2   -1    0    0  502    0  0.00000000000E+00  0.00000000000E+00  0.29180070510E+03  0.29180070510E+03  0.00000000000E+00 0. -1.
         21   -1    0    0  503  502 -0.00000000000E+00 -0.00000000000E+00 -0.52510013072E+02  0.52510013072E+02  0.00000000000E+00 0.  1.
          2    1    1    2  501    0  0.88314326563E+01 -0.20036431211E+02  0.28908585496E+03  0.28991392571E+03  0.00000000000E+00 0. -1.
         21    1    1    2  503  501 -0.88314326563E+01  0.20036431211E+02 -0.49795162938E+02  0.54396792464E+02  0.00000000000E+00 0.  1.
</event>
<event>
 4    1  0.2216341E+005  0.2990720E+02  0.7546771E-02  0.1420405E+00
          2   -1    0    0  503    0  0.00000000000E+00  0.00000000000E+00  0.67440004840E+03  0.67440004840E+03  0.00000000000E+00 0.  1.
         21   -1    0    0  501  502 -0.00000000000E+00 -0.00000000000E+00 -0.27220369285E+01  0.27220369285E+01  0.00000000000E+00 0. -1.
          2    1    1    2  501    0 -0.21573759177E+02  0.20712635624E+02  0.57827413539E+03  0.57904698948E+03  0.00000000000E+00 0.  1.
         21    1    1    2  503  502  0.21573759177E+02 -0.20712635624E+02  0.93403876083E+02  0.98075095854E+02  0.00000000000E+00 0. -1.
</event>
<event>
 4    1  0.2216341E+005  0.2460514E+02  0.7546771E-02  0.1473269E+00
          2   -1    0    0  503    0  0.00000000000E+00  0.00000000000E+00  0.78541207789E+03  0.78541207789E+03  0.00000000000E+00 0. -1.
         21   -1    0    0  501  502 -0.00000000000E+00 -0.00000000000E+00 -0.62397919155E+02  0.62397919155E+02  0.00000000000E+00 0. -1.
          2    1    1    2  501    0 -0.17804286758E+02  0.16982938579E+02  0.78278562278E+03  0.78317223142E+03  0.00000000000E+00 0. -1.
         21    1    1    2  503  502  0.17804286758E+02 -0.16982938579E+02 -0.59771464052E+02  0.64637765623E+02  0.00000000000E+00 0. -1.
</event>
<event>
 4    1  0.2216341E+005  0.3120218E+02  0.7546771E-02  0.1409429E+00
          2   -1    0    0  502    0  0.00000000000E+00  0.00000000000E+00  0.28100479548E+01  0.28100479548E+01  0.00000000000E+00 0. -1.
         21   -1    0    0  503  502 -0.00000000000E+00 -0.00000000000E+00 -0.55296066871E+03  0.55296066871E+03  0.00000000000E+00 0. -1.
          2    1    1    2  501    0 -0.23836366371E+02 -0.20134641062E+02 -0.10526006144E+03  0.10978732471E+03  0.00000000000E+00 0. -1.
         21    1    1    2  503  501  0.23836366371E+02  0.20134641062E+02 -0.44489055931E+03  0.44598339195E+03  0.00000000000E+00 0. -1.
</event>
<event>
 4    1  0.2216341E+005  0.2327881E+02  0.7546771E-02  0.1489027E+00
          2   -1    0    0  503    0  0.00000000000E+00  0.00000000000E+00  0.41399885446E+03  0.41399885446E+03  0.00000000000E+00 0.  1.
         21   -1    0    0  501  502 -0.00000000000E+00 -0.00000000000E+00 -0.22667038006E+02  0.22667038006E+02  0.00000000000E+00 0. -1.
          2    1    1    2  501    0 -0.63407081897E+01 -0.22398620936E+02  0.40760111079E+03  0.40826531609E+03  0.00000000000E+00 0.  1.
         21    1    1    2  503  502  0.63407081897E+01  0.22398620936E+02 -0.16269294341E+02  0.28400576376E+02  0.00000000000E+00 0. -1.
</event>
<event>
 4    1  0.2216341E+005  0.4856599E+02  0.7546771E-02  0.1304512E+00
          2   -1    0    0  502    0  0.00000000000E+00  0.00000000000E+00  0.18500349442E+04  0.18500349442E+04  0.00000000000E+00 0. -1.
         21   -1    0    0  503  502 -0.00000000000E+00 -0.00000000000E+00 -0.43495330093E+02  0.43495330093E+02  0.00000000000E+00 0.  1.
          2    1    1    2  501    0 -0.12003434200E+02 -0.47059253983E+02  0.18360560661E+04  0.18366982696E+04  0.00000000000E+00 0. -1.
         21    1    1    2  503  501  0.12003434200E+02  0.47059253983E+02 -0.29516451976E+02  0.56832004674E+02  0.00000000000E+00 0.  1.
</event>
<event>
 4    1  0.2216341E+005  0.2579976E+02  0.7546771E-02  0.1460052E+00
          2   -1    0    0  502    0  0.00000000000E+00  0.00000000000E+00  0.13643556493E+04  0.13643556493E+04  0.00000000000E+00 0.  1.
         21   -1    0    0  503  502 -0.00000000000E+00 -0.00000000000E+00 -0.12295715225E+01  0.12295715225E+01  0.00000000000E+00 0.  1.
          2    1    1    2  501    0  0.24856876433E+02  0.69111099391E+01  0.12118691047E+04  0.12121437021E+04  0.00000000000E+00 0.  1.
         21    1    1    2  503  501 -0.24856876433E+02 -0.69111099391E+01  0.15125697309E+03  0.15344151868E+03  0.00000000000E+00 0.  1.
</event>
<event>
 4    1  0.2216341E+005  0.2229731E+02  0.7546771E-02  0.1501515E+00
          2   -1    0    0  502    0  0.00000000000E+00  0.00000000000E+00  0.84799597311E+02  0.84799597311E+02  0.00000000000E+00 0.  1.
         21   -1    0    0  503  502 -0.00000000000E+00 -0.00000000000E+00 -0.58717287058E+01  0.58717287058E+01  0.00000000000E+00 0.  1.
          2    1    1    2  501    0  0.18180264959E+02  0.12909228857E+02  0.37704421275E+02  0.43804036428E+02  0.00000000000E+00 0.  1.
         21    1    1    2  503  501 -0.18180264959E+02 -0.12909228857E+02  0.41223447329E+02  0.46867289589E+02  0.00000000000E+00 0.  1.
</event>
<event>
 4    1  0.2216341E+005  0.2320444E+02  0.7546771E-02  0.1489947E+00
          2   -1    0    0  503    0  0.00000000000E+00  0.00000000000E+00  0.11673037447E+03  0.11673037447E+03  0.00000000000E+00 0.  1.
         21   -1    0    0  501  502 -0.00000000000E+00 -0.00000000000E+00 -0.11616729704E+03  0.11616729704E+03  0.00000000000E+00 0. -1.
          2    1    1    2  501    0 -0.23203575603E+02  0.20040917425E+00  0.11439500031E+03  0.11672472823E+03  0.00000000000E+00 0.  1.
         21    1    1    2  503  502  0.23203575603E+02 -0.20040917425E+00 -0.11383192288E+03  0.11617294328E+03  0.00000000000E+00 0. -1.
</event>
<event>
 4    1  0.2216341E+005  0.2835114E+02  0.7546771E-02  0.1434488E+00
          2   -1    0    0  503    0  0.00000000000E+00  0.00000000000E+00  0.48259428007E+03  0.48259428007E+03  0.00000000000E+00 0.  1.
         21   -1    0    0  501  502 -0.00000000000E+00 -0.00000000000E+00 -0.74119089532E+01  0.74119089532E+01  0.00000000000E+00 0. -1.
          2    1    1    2  501    0 -0.27695964941E+02  0.60597455510E+01  0.45331731132E+03  0.45420300718E+03  0.00000000000E+00 0.  1.
         21    1    1    2  503  502  0.27695964941E+02 -0.60597455510E+01  0.21865059799E+02  0.35803181844E+02  0.00000000000E+00 0. -1.
</event>
<event>
 4    1  0.2216341E+005  0.2604431E+02  0.7546771E-02  0.1457452E+00
          2   -1    0    0  503    0  0.00000000000E+00  0.00000000000E+00  0.22026356378E+04  0.22026356378E+04  0.00000000000E+00 0.  1.
         21   -1    0    0  501  502 -0.00000000000E+00 -0.00000000000E+00 -0.67655267108E+00  0.67655267108E+00  0.00000000000E+00 0.  1.
          2    1    1    2  501    0  0.20024257922E+02 -0.16653380470E+02  0.19141344979E+04  0.19143116732E+04  0.00000000000E+00 0.  1.
         21    1    1    2  503  502 -0.20024257922E+02  0.16653380470E+02  0.28782458722E+03  0.28900051729E+03  0.00000000000E+00 0.  1.
</event>
<event>
 4    1  0.2216341E+005  0.2104030E+02  0.7546771E-02  0.1518690E+00
          2   -1    0    0  503    0  0.00000000000E+00  0.00000000000E+00  0.76826710768E+02  0.76826710768E+02  0.00000000000E+00 0.  1.
         21   -1    0    0  501  502 -0.00000000000E+00 -0.00000000000E+00 -0.58551656065E+01  0.58551656065E+01  0.00000000000E+00 0. -1.
          2    1    1    2  501    0 -0.20864798776E+02 -0.27119075621E+01  0.40693743632E+02  0.45811298185E+02  0.00000000000E+00 0.  1.
         21    1    1    2  503  502  0.20864798776E+02  0.27119075621E+01  0.30277801529E+02  0.36870578190E+02  0.00000000000E+00 0. -1.
</event>
<event>
 4    1  0.2216341E+005  0.2155716E+02  0.7546771E-02  0.1511457E+00
          2   -1    0    0  502    0  0.00000000000E+00  0.00000000000E+00  0.93570988399E+03  0.93570988399E+03  0.00000000000E+00 0. -1.
         21   -1    0    0  503  502 -0.00000000000E+00 -0.00000000000E+00 -0.15357168901E+01  0.15357168901E+01  0.00000000000E+00 0. -1.
          2    1    1    2  501    0  0.21252715819E+02 -0.36101608917E+01  0.85255800782E+03  0.85283050361E+03  0.00000000000E+00 0. -1.
         21    1    1    2  503  501 -0.21252715819E+02  0.36101608917E+01  0.81616159277E+02  0.84415097266E+02  0.00000000000E+00 0. -1.
</event>
<event>
 4    1  0.2216341E+005  0.2029550E+02  0.7546771E-02  0.1529565E+00
          2   -1    0    0  503    0  0.00000000000E+00  0.00000000000E+00  0.59307686300E+03  0.59307686300E+03  0.00000000000E+00 0. -1.
         21   -1    0    0  501  502 -0.00000000000E+00 -0.00000000000E+00 -0.26369103771E+02  0.26369103771E+02  0.00000000000E+00 0. -1.
          2    1    1    2  501    0  0.18232020172E+02 -0.89163197361E+01  0.58897080632E+03  0.58932038656E+03  0.00000000000E+00 0. -1.
         21    1    1    2  503  502 -0.18232020172E+02  0.89163197361E+01 -0.22263047092E+02  0.30125580210E+02  0.00000000000E+00 0. -1.
</event>
<event>
 4    1  0.2216341E+005  0.2483207E+02  0.7546771E-02  0.1470691E+00
          2   -1    0    0  502    0  0.00000000000E+00  0.00000000000E+00  0.12263802591E+04  0.12263802591E+04  0.00000000000E+00 0. -1.
         21   -1    0    0  503  502 -0.00000000000E+00 -0.00000000000E+00 -0.15850669434E+01  0.15850669434E+01  0.00000000000E+00 0. -1.
          2    1    1    2  501    0 -0.33173121061E+01 -0.24609490861E+02  0.11197366050E+04  0.11200119179E+04  0.00000000000E+00 0. -1.
         21    1    1    2  503  501  0.33173121061E+01  0.24609490861E+02  0.10505858711E+03  0.10795340812E+03  0.00000000000E+00 0. -1.
</event>
<event>
 4    1  0.2216341E+005  0.2473291E+02  0.7546771E-02  0.1471814E+00
          2   -1    0    0  502    0  0.00000000000E+00  0.00000000000E+00  0.29609333928E+02  0.29609333928E+02  0.00000000000E+00 0.  1.
         21   -1    0    0  503  502 -0.00000000000E+00 -0.00000000000E+00 -0.18908472241E+03  0.18908472241E+03  0.00000000000E+00 0.  1.
          2    1    1    2  501    0 -0.78824248822E+01 -0.23443210421E+02  0.23462903136E+02  0.34091414762E+02  0.00000000000E+00 0.  1.
         21    1    1    2  503  501  0.78824248822E+01  0.23443210421E+02 -0.18293829162E+03  0.18460264158E+03  0.00000000000E+00 0.  1.
</event>
<event>
 4    1  0.2216341E+005  0.3227591E+02  0.7546771E-02  0.1400797E+00
          2   -1    0    0  503    0  0.00000000000E+00  0.00000000000E+00  0.16991620188E+04  0.16991620188E+04  0.00000000000E+00 0. -1.
         21   -1    0    0  501  502 -0.00000000000E+00 -0.00000000000E+00 -0.85031501565E+00  0.85031501565E+00  0.00000000000E+00 0.  1.
          2    1    1    2  501    0  0.31787376400E+02 -0.55943796470E+01  0.12981234639E+04  0.12985246482E+04  0.00000000000E+00 0. -1.
         21    1    1    2  503  502 -0.31787376400E+02  0.55943796470E+01  0.40018823992E+03  0.40148768568E+03  0.00000000000E+00 0.  1.
</event>
<event>
 4    1  0.2216341E+005  0.9149659E+02  0.7546771E-02  0.1179419E+00
          2   -1    0    0  502    0  0.00000000000E+00  0.00000000000E+00  0.89151267890E+02  0.89151267890E+02  0.00000000000E+00 0. -1.
         21   -1    0    0  503  502 -0.00000000000E+00 -0.00000000000E+00 -0.36726090655E+03  0.36726090655E+03  0.00000000000E+00 0.  1.
          2    1    1    2  501    0 -0.83523721647E+02 -0.37355230410E+02  0.57826818813E+02  0.10823846955E+03  0.00000000000E+00 0. -1.
         21    1    1    2  503  501  0.83523721647E+02  0.37355230410E+02 -0.33593645748E+03  0.34817370489E+03  0.00000000000E+00 0.  1.
</event>
<event>
 4    1  0.2216341E+005  0.2230389E+02  0.7546771E-02  0.1501429E+00
          2   -1    0    0  502    0  0.00000000000E+00  0.00000000000E+00  0.50861704512E+01  0.50861704512E+01  0.00000000000E+00 0. -1.
         21   -1    0    0  503  502 -0.00000000000E+00 -0.00000000000E+00 -0.23925237087E+03  0.23925237087E+03  0.00000000000E+00 0.  1.
          2    1    1    2  501    0 -0.14820663585E+02  0.16667671500E+02 -0.23147947811E+02  0.32144841424E+02  0.00000000000E+00 0. -1.
         21    1    1    2  503  501  0.14820663585E+02 -0.16667671500E+02 -0.21101825260E+03  0.21219369989E+03  0.00000000000E+00 0.  1.
</event>
<event>
 4    1  0.2216341E+005  0.2065898E+02  0.7546771E-02  0.1524190E+00
          2   -1    0    0  502    0  0.00000000000E+00  0.00000000000E+00  0.18323878354E+01  0.18323878354E+01  0.00000000000E+00 0. -1.
         21   -1    0    0  503  502 -0.00000000000E+00 -0.00000000000E+00 -0.23310915069E+03  0.23310915069E+03  0.00000000000E+00 0. -1.
          2    1    1    2  501    0 -0.18881375967E+02 -0.83837305957E+01 -0.11901572233E+03  0.12079542813E+03  0.00000000000E+00 0. -1.
         21    1    1    2  503  501  0.18881375967E+02  0.83837305957E+01 -0.11226104053E+03  0.11414611039E+03  0.00000000000E+00 0. -1.
</event>
<event>
 4    1  0.2216341E+005  0.2021481E+02  0.7546771E-02  0.1530777E+00
          2   -1    0    0  503    0  0.00000000000E+00  0.00000000000E+00  0.24474015334E+02  0.24474015334E+02  0.00000000000E+00 0.  1.
         21   -1    0    0  501  502 -0.00000000000E+00 -0.00000000000E+00 -0.18905745766E+02  0.18905745766E+02  0.00000000000E+00 0. -1.
          2    1    1    2  501    0 -0.19142318642E+02  0.64969219338E+01  0.10198095769E+02  0.22641544005E+02  0.00000000000E+00 0.  1.
         21    1    1    2  503  502  0.19142318642E+02 -0.64969219338E+01 -0.46298262011E+01  0.20738217095E+02  0.00000000000E+00 0. -1.
</event>
<event>
 4    1  0.2216341E+005  0.2654343E+02  0.7546771E-02  0.1452249E+00
          2   -1    0    0  502    0  0.00000000000E+00  0.00000000000E+00  0.21701290116E+03  0.21701290116E+03  0.00000000000E+00 0. -1.
         21   -1    0    0  503  502 -0.00000000000E+00 -0.00000000000E+00 -0.16985192243E+03  0.16985192243E+03  0.00000000000E+00 0. -1.
          2    1    1    2  501    0 -0.19992891600E+02 -0.17459612182E+02  0.21515532034E+03  0.21678645170E+03  0.00000000000E+00 0. -1.
         21    1    1    2  503  501  0.19992891600E+02  0.17459612182E+02 -0.16799434161E+03  0.17007837189E+03  0.00000000000E+00 0. -1.
</event>
<event>
 4    1  0.2216341E+005  0.2771784E+02  0.7546771E-02  0.1440528E+00
          2   -1    0    0  503    0  0.00000000000E+00  0.00000000000E+00  0.32332002267E+02  0.32332002267E+02  0.00000000000E+00 0. -1.
         21   -1    0    0  501  502 -0.00000000000E+00 -0.00000000000E+00 -0.44853106173E+03  0.44853106173E+03  0.00000000000E+00 0.  1.
          2    1    1    2  501    0  0.25963418668E+02  0.97046015237E+01  0.25876579793E+02  0.37919332556E+02  0.00000000000E+00 0. -1.
         21    1    1    2  503  502 -0.25963418668E+02 -0.97046015237E+01 -0.44207563926E+03  0.44294373145E+03  0.00000000000E+00 0.  1.
</event>
<event>
 4    1  0.2216341E+005  0.2760754E+02  0.7546771E-02  0.1441599E+00
          2   -1    0    0  503    0  0.00000000000E+00  0.00000000000E+00  0.45811937771E+03  0.45811937771E+03  0.00000000000E+00 0.  1.
         21   -1    0    0  501  502 -0.00000000000E+00 -0.00000000000E+00 -0.16764618946E+01  0.16764618946E+01  0.00000000000E+00 0.  1.
          2    1    1    2  501    0 -0.24173745879E+02  0.13334393065E+02  0.24827499688E+03  0.24980522433E+03  0.00000000000E+00 0.  1.
         21    1    1    2  503  502  0.24173745879E+02 -0.13334393065E+02  0.20816791894E+03  0.20999061527E+03  0.00000000000E+00 0.  1.
</event>
<event>
 4    1  0.2216341E+005  0.2506639E+02  0.7546771E-02  0.1468062E+00
          2   -1    0    0  503    0  0.00000000000E+00  0.00000000000E+00  0.13889371245E+04  0.13889371245E+04  0.00000000000E+00 0.  1.
         21   -1    0    0  501  502 -0.00000000000E+00 -0.00000000000E+00 -0.30196490188E+01  0.30196490188E+01  0.00000000000E+00 0.  1.
          2    1    1    2  501    0  0.22751714876E+02 -0.10520606448E+02  0.13346903508E+04  0.13349257119E+04  0.00000000000E+00 0.  1.
         21    1    1    2  503  502 -0.22751714876E+02  0.10520606448E+02  0.51227124682E+02  0.57031061651E+02  0.00000000000E+00 0.  1.
</event>
<event>
 4    1  0.2216341E+005  0.2106521E+02  0.7546771E-02  0.1518336E+00
          2   -1    0    0  503    0  0.00000000000E+00  0.00000000000E+00  0.27917101011E+02  0.27917101011E+02  0.00000000000E+00 0. -1.
         21   -1    0    0  501  502 -0.00000000000E+00 -0.00000000000E+00 -0.12405425252E+03  0.12405425252E+03  0.00000000000E+00 0. -1.
          2    1    1    2  501    0  0.97186029657E+01  0.18689349950E+02  0.22882289195E+02  0.31102125393E+02  0.00000000000E+00 0. -1.
         21    1    1    2  503  502 -0.97186029657E+01 -0.18689349950E+02 -0.11901944071E+03  0.12086922814E+03  0.00000000000E+00 0. -1.
</event>
<event>
 4    1  0.2216341E+005  0.4970203E+02  0.7546771E-02  0.1299470E+00
          2   -1    0    0  502    0  0.00000000000E+00  0.00000000000E+00  0.13673173006E+03  0.13673173006E+03  0.00000000000E+00 0. -1.
         21   -1    0    0  503  502 -0.00000000000E+00 -0.00000000000E+00 -0.74924828336E+03  0.74924828336E+03  0.00000000000E+00 0.  1.
          2    1    1    2  501    0 -0.45556721570E+02  0.19871521607E+02  0.13135820538E+03  0.14044668160E+03  0.00000000000E+00 0. -1.
         21    1    1    2  503  501  0.45556721570E+02 -0.19871521607E+02 -0.74387475868E+03  0.74553333182E+03  0.00000000000E+00 0.  1.
</event>
<event>
 4    1  0.2216341E+005  0.3681793E+02  0.7546771E-02  0.1368214E+00
          2   -1    0    0  503    0  0.00000000000E+00  0.00000000000E+00  0.55741127256E+03  0.55741127256E+03  0.00000000000E+00 0.  1.
         21   -1    0    0  501  502 -0.00000000000E+00 -0.00000000000E+00 -0.47821850208E+02  0.47821850208E+02  0.00000000000E+00 0. -1.
          2    1    1    2  501    0  0.34092608103E+02  0.13901584029E+02  0.54961640086E+03  0.55084820782E+03  0.00000000000E+00 0.  1.
         21    1    1    2  503  502 -0.34092608103E+02 -0.13901584029E+02 -0.40026978506E+02  0.54384914949E+02  0.00000000000E+00 0. -1.
</event>
<event>
 4    1  0.2216341E+005  0.2814031E+02  0.7546771E-02  0.1436478E+00
          2   -1    0    0  503    0  0.00000000000E+00  0.00000000000E+00  0.29607157068E+03  0.29607157068E+03  0.00000000000E+00 0. -1.
         21   -1    0    0  501  502 -0.00000000000E+00 -0.00000000000E+00 -0.66203209852E+01  0.66203209852E+01  0.00000000000E+00 0.  1.
          2    1    1    2  501    0 -0.14899105305E+02  0.23872442970E+02  0.26156621417E+03  0.26307558090E+03  0.00000000000E+00 0. -1.
         21    1    1    2  503  502  0.14899105305E+02 -0.23872442970E+02  0.27885035527E+02  0.39616310765E+02  0.00000000000E+00 0.  1.
</event>
<event>
 4    1  0.2216341E+005  0.6646867E+02  0.7546771E-02  0.1239308E+00
          2   -1    0    0  503    0  0.00000000000E+00  0.00000000000E+00  0.73269285019E+03  0.73269285019E+03  0.00000000000E+00 0. -1.
         21   -1    0    0  501  502 -0.00000000000E+00 -0.00000000000E+00 -0.76381779264E+02  0.76381779264E+02  0.00000000000E+00 0. -1.
          2    1    1    2  501    0  0.43466178421E+02 -0.50286928854E+02  0.71639660283E+03  0.71947354116E+03  0.00000000000E+00 0. -1.
         21    1    1    2  503  502 -0.43466178421E+02  0.50286928854E+02 -0.60085531903E+02  0.89601088297E+02  0.00000000000E+00 0. -1.
</event>
<event>
 4    1  0.2216341E+005  0.4332074E+02  0.7546771E-02  0.1330053E+00
          2   -1    0    0  503    0  0.00000000000E+00  0.00000000000E+00  0.79824015422E+03  0.79824015422E+03  0.00000000000E+00 0.  1.
         21   -1    0    0  501  502 -0.00000000000E+00 -0.00000000000E+00 -0.28151782623E+01  0.28151782623E+01  0.00000000000E+00 0. -1.
          2    1    1    2  501    0 -0.41809058120E+02  0.11344106613E+02  0.56034531092E+03  0.56201739615E+03  0.00000000000E+00 0.  1.
         21    1    1    2  503  502  0.41809058120E+02 -0.11344106613E+02  0.23507966503E+03  0.23903793633E+03  0.00000000000E+00 0. -1.
</event>
<event>
 4    1  0.2216341E+005  0.2611178E+02  0.7546771E-02  0.1456740E+00
          2   -1    0    0  503    0  0.00000000000E+00  0.00000000000E+00  0.11337070430E+03  0.11337070430E+03  0.00000000000E+00 0. -1.
         21   -1    0    0  501  502 -0.00000000000E+00 -0.00000000000E+00 -0.40607630664E+02  0.40607630664E+02  0.00000000000E+00 0. -1.
          2    1    1    2  501    0  0.18130198921E+02  0.18791510646E+02  0.10744119582E+03  0.11056869152E+03  0.00000000000E+00 0. -1.
         21    1    1    2  503  502 -0.18130198921E+02 -0.18791510646E+02 -0.34678122187E+02  0.43409643441E+02  0.00000000000E+00 0. -1.
</event>
<event>
 4    1  0.2216341E+005  0.2825440E+02  0.7546771E-02  0.1435399E+00
          2   -1    0    0  503    0  0.00000000000E+00  0.00000000000E+00  0.12889211928E+03  0.12889211928E+03  0.00000000000E+00 0.  1.
         21   -1    0    0  501  502 -0.00000000000E+00 -0.00000000000E+00 -0.23022813025E+03  0.23022813025E+03  0.00000000000E+00 0. -1.
          2    1    1    2  501    0 -0.25843788930E+02  0.11419711537E+02  0.12646037346E+03  0.12957830565E+03  0.00000000000E+00 0.  1.
         21    1    1    2  503  502  0.25843788930E+02 -0.11419711537E+02 -0.22779638444E+03  0.22954194388E+03  0.00000000000E+00 0. -1.
</event>
<event>
 4    1  0.2216341E+005  0.2827834E+02  0.7546771E-02  0.1435173E+00
          2   -1    0    0  502    0  0.00000000000E+00  0.00000000000E+00  0.38008527674E+03  0.38008527674E+03  0.00000000000E+00 0.  1.
         21   -1    0    0  503  502 -0.00000000000E+00 -0.00000000000E+00 -0.97442609433E+01  0.97442609433E+01  0.00000000000E+00 0. -1.
          2    1    1    2  501    0 -0.16272679748E+02  0.23127133205E+02  0.35776503064E+03  0.35888087375E+03  0.00000000000E+00 0.  1.
         21    1    1    2  503  501  0.16272679748E+02 -0.23127133205E+02  0.12575985156E+02  0.30948663930E+02  0.00000000000E+00 0. -1.
</event>
<event>
 4    1  0.2216341E+005  0.2585144E+02  0.7546771E-02  0.1459500E+00
          2   -1    0    0  503    0  0.00000000000E+00  0.00000000000E+00  0.17283618909E+04  0.17283618909E+04  0.00000000000E+00 0.  1.
         21   -1    0    0  501  502 -0.00000000000E+00 -0.00000000000E+00 -0.45115269944E+00  0.45115269944E+00  0.00000000000E+00 0.  1.
          2    1    1    2  501    0  0.21125676501E+02  0.14899755124E+02  0.11907650928E+04  0.11910456763E+04  0.00000000000E+00 0.  1.
         21    1    1    2  503  502 -0.21125676501E+02 -0.14899755124E+02  0.53714564537E+03  0.53776736723E+03  0.00000000000E+00 0.  1.
</event>
<event>
 4    1  0.2216341E+005  0.3300683E+02  0.7546771E-02  0.1395145E+00
          2   -1    0    0  503    0  0.00000000000E+00  0.00000000000E+00  0.17383583685E+03  0.17383583685E+03  0.00000000000E+00 0. -1.
         21   -1    0    0  501  502 -0.00000000000E+00 -0.00000000000E+00 -0.63184679742E+01  0.63184679742E+01  0.00000000000E+00 0. -1.
          2    1    1    2  501    0 -0.14507393898E+02  0.29647703858E+02  0.91878602230E+02  0.97627498019E+02  0.00000000000E+00 0. -1.
         21    1    1    2  503  502  0.14507393898E+02 -0.29647703858E+02  0.75638766644E+02  0.82526806803E+02  0.00000000000E+00 0. -1.
</event>
<event>
 4    1  0.2216341E+005  0.3236719E+02  0.7546771E-02  0.1400082E+00
          2   -1    0    0  503    0  0.00000000000E+00  0.00000000000E+00  0.15431583527E+03  0.15431583527E+03  0.00000000000E+00 0. -1.
         21   -1    0    0  501  502 -0.00000000000E+00 -0.00000000000E+00 -0.56301583703E+02  0.56301583703E+02  0.00000000000E+00 0.  1.
          2    1    1    2  501    0  0.20617355834E+02 -0.24951149614E+02  0.14776283347E+03  0.15126628899E+03  0.00000000000E+00 0. -1.
         21    1    1    2  503  502 -0.20617355834E+02  0.24951149614E+02 -0.49748581906E+02  0.59351129984E+02  0.00000000000E+00 0.  1.
</event>
<event>
 4    1  0.2216341E+005  0.2772760E+02  0.7546771E-02  0.1440433E+00
          2   -1    0    0  502    0  0.00000000000E+00  0.00000000000E+00  0.97166092157E+03  0.97166092157E+03  0.00000000000E+00 0. -1.
         21   -1    0    0  503  502 -0.00000000000E+00 -0.00000000000E+00 -0.34391225761E+01  0.34391225761E+01  0.00000000000E+00 0. -1.
          2    1    1    2  501    0  0.25919013352E+02  0.98501028070E+01  0.91191454224E+03  0.91233598642E+03  0.00000000000E+00 0. -1.
         21    1    1    2  503  501 -0.25919013352E+02 -0.98501028070E+01  0.56307256761E+02  0.62764057727E+02  0.00000000000E+00 0. -1.
</event>
<event>
 4    1  0.2216341E+005  0.2194957E+02  0.7546771E-02  0.1506127E+00
          2   -1    0    0  502    0  0.00000000000E+00  0.00000000000E+00  0.16401748086E+04  0.16401748086E+04  0.00000000000E+00 0. -1.
         21   -1    0    0  503  502 -0.00000000000E+00 -0.00000000000E+00 -0.10027446461E+01  0.10027446461E+01  0.00000000000E+00 0.  1.
          2    1    1    2  501    0 -0.17742648206E+02  0.12922161433E+02  0.15095956554E+04  0.15097552208E+04  0.00000000000E+00 0. -1.
         21    1    1    2  503  501  0.17742648206E+02 -0.12922161433E+02  0.12957640860E+03  0.13142233252E+03  0.00000000000E+00 0.  1.
</event>
<event>
 4    1  0.2216341E+005  0.2616280E+02  0.7546771E-02  0.1456204E+00
          2   -1    0    0  503    0  0.00000000000E+00  0.00000000000E+00  0.53279271750E+03  0.53279271750E+03  0.00000000000E+00 0.  1.
         21   -1    0    0  501  502 -0.00000000000E+00 -0.00000000000E+00 -0.15324341319E+02  0.15324341319E+02  0.00000000000E+00 0.  1.
          2    1    1    2  501    0  0.24744358376E+02 -0.84975912203E+01  0.52105335748E+03  0.52170977916E+03  0.00000000000E+00 0.  1.
         21    1    1    2  503  502 -0.24744358376E+02  0.84975912203E+01 -0.35849813031E+01  0.26407279658E+02  0.00000000000E+00 0.  1.
</event>
<event>
 4    1  0.2216341E+005  0.3368474E+02  0.7546771E-02  0.1390053E+00
          2   -1    0    0  503    0  0.00000000000E+00  0.00000000000E+00  0.28312651855E+02  0.28312651855E+02  0.00000000000E+00 0.  1.
         21   -1    0    0  501  502 -0.00000000000E+00 -0.00000000000E+00 -0.16797770679E+03  0.16797770679E+03  0.00000000000E+00 0.  1.
          2    1    1    2  501    0  0.26260147277E+02 -0.21096600462E+02  0.15808343605E+02  0.37209751593E+02  0.00000000000E+00 0.  1.
         21    1    1    2  503  502 -0.26260147277E+02  0.21096600462E+02 -0.15547339854E+03  0.15908060705E+03  0.00000000000E+00 0.  1.
</event>
<event>
 4    1  0.2216341E+005  0.2079199E+02  0.7546771E-02  0.1522256E+00
          2   -1    0    0  502    0  0.00000000000E+00  0.00000000000E+00  0.80677612793E+03  0.80677612793E+03  0.00000000000E+00 0. -1.
         21   -1    0    0  503  502 -0.00000000000E+00 -0.00000000000E+00 -0.20323525564E+01  0.20323525564E+01  0.00000000000E+00 0. -1.
          2    1    1    2  501    0 -0.13429917355E+02 -0.15872751759E+02  0.74939279281E+03  0.74968117546E+03  0.00000000000E+00 0. -1.
         21    1    1    2  503  501  0.13429917355E+02  0.15872751759E+02  0.55350982566E+02  0.59127305025E+02  0.00000000000E+00 0. -1.
</event>
<event>
 4    1  0.2216341E+005  0.2715005E+02  0.7546771E-02  0.1446107E+00
          2   -1    0    0  502    0  0.00000000000E+00  0.00000000000E+00  0.67292912010E+02  0.67292912010E+02  0.00000000000E+00 0.  1.
         21   -1    0    0  503  502 -0.00000000000E+00 -0.00000000000E+00 -0.40209380668E+02  0.40209380668E+02  0.00000000000E+00 0.  1.
          2    1    1    2  501    0 -0.16444098008E+01  0.27100200418E+02  0.59390472771E+02  0.65302015300E+02  0.00000000000E+00 0.  1.
         21    1    1    2  503  501  0.16444098008E+01 -0.27100200418E+02 -0.32306941429E+02  0.42200277378E+02  0.00000000000E+00 0.  1.
</event>
<event>
 4    1  0.2216341E+005  0.2235589E+02  0.7546771E-02  0.1500749E+00
          2   -1    0    0  503    0  0.00000000000E+00  0.00000000000E+00  0.13636826982E+04  0.13636826982E+04  0.00000000000E+00 0. -1.
         21   -1    0    0  501  502 -0.00000000000E+00 -0.00000000000E+00 -0.10416330514E+03  0.10416330514E+03  0.00000000000E+00 0.  1.
          2    1    1    2  501    0  0.14679910415E+02 -0.16860789014E+02  0.13623904111E+04  0.13625738212E+04  0.00000000000E+00 0. -1.
         21    1    1    2  503  502 -0.14679910415E+02  0.16860789014E+02 -0.10287101804E+03  0.10527218212E+03  0.00000000000E+00 0.  1.
</event>
<event>
 4    1  0.2216341E+005  0.2760124E+02  0.7546771E-02  0.1441660E+00
          2   -1    0    0  503    0  0.00000000000E+00  0.00000000000E+00  0.34256881411E+02  0.34256881411E+02  0.00000000000E+00 0.  1.
         21   -1    0    0  501  502 -0.00000000000E+00 -0.00000000000E+00 -0.22927568809E+03  0.22927568809E+03  0.00000000000E+00 0. -1.
          2    1    1    2  501    0 -0.27492241004E+02  0.24505783262E+01  0.27703551482E+02  0.39106462564E+02  0.00000000000E+00 0.  1.
         21    1    1    2  503  502  0.27492241004E+02 -0.24505783262E+01 -0.22272235817E+03  0.22442610694E+03  0.00000000000E+00 0. -1.
</event>
<event>
 4    1  0.2216341E+005  0.2502204E+02  0.7546771E-02  0.1468557E+00
          2   -1    0    0  502    0  0.00000000000E+00  0.00000000000E+00  0.27308433441E+03  0.27308433441E+03  0.00000000000E+00 0. -1.
         21   -1    0    0  503  502 -0.00000000000E+00 -0.00000000000E+00 -0.14111824413E+03  0.14111824413E+03  0.00000000000E+00 0.  1.
          2    1    1    2  501    0  0.24107735222E+02 -0.67022155148E+01  0.27139508737E+03  0.27254613562E+03  0.00000000000E+00 0. -1.
         21    1    1    2  503  501 -0.24107735222E+02  0.67022155148E+01 -0.13942899709E+03  0.14165644292E+03  0.00000000000E+00 0.  1.
</event>
<event>
 4    1  0.2216341E+005  0.2846992E+02  0.7546771E-02  0.1433376E+00
          2   -1    0    0  503    0  0.00000000000E+00  0.00000000000E+00  0.18639285218E+04  0.18639285218E+04  0.00000000000E+00 0.  1.
         21   -1    0    0  501  502 -0.00000000000E+00 -0.00000000000E+00 -0.45810697585E+01  0.45810697585E+01  0.00000000000E+00 0.  1.
          2    1    1    2  501    0  0.20151025843E+02 -0.20111498337E+02  0.18184815075E+04  0.18187043545E+04  0.00000000000E+00 0.  1.
         21    1    1    2  503  502 -0.20151025843E+02  0.20111498337E+02  0.40865944517E+02  0.49805236965E+02  0.00000000000E+00 0.  1.
</event>
<event>
 4    1  0.2216341E+005  0.2437913E+02  0.7546771E-02  0.1475870E+00
          2   -1    0    0  503    0  0.00000000000E+00  0.00000000000E+00  0.12882427193E+04  0.12882427193E+04  0.00000000000E+00 0. -1.
         21   -1    0    0  501  502 -0.00000000000E+00 -0.00000000000E+00 -0.54679058437E+01  0.54679058437E+01  0.00000000000E+00 0.  1.
          2    1    1    2  501    0 -0.24070065575E+02  0.38696066721E+01  0.12603519805E+04  0.12605877426E+04  0.00000000000E+00 0. -1.
         21    1    1    2  503  502  0.24070065575E+02 -0.38696066721E+01  0.22422832907E+02  0.33122882546E+02  0.00000000000E+00 0.  1.
</event>
<event>
 4    1  0.2216341E+005  0.2494426E+02  0.7546771E-02  0.1469428E+00
          2   -1    0    0  503    0  0.00000000000E+00  0.00000000000E+00  0.88162494952E+00  0.88162494952E+00  0.00000000000E+00 0.  1.
         21   -1    0    0  501  502 -0.00000000000E+00 -0.00000000000E+00 -0.10516435611E+04  0.10516435611E+04  0.00000000000E+00 0. -1.
          2    1    1    2  501    0 -0.42944254534E+01  0.24571809934E+02 -0.22357143151E+03  0.22495866492E+03  0.00000000000E+00 0.  1.
         21    1    1    2  503  502  0.42944254534E+01 -0.24571809934E+02 -0.82719050459E+03  0.82756652109E+03  0.00000000000E+00 0. -1.
</event>
<event>
 4    1  0.2216341E+005  0.2345579E+02  0.7546771E-02  0.1486853E+00
          2   -1    0    0  502    0  0.00000000000E+00  0.00000000000E+00  0.13583180955E+02  0.13583180955E+02  0.00000000000E+00 0.  1.
         21   -1    0    0  503  502 -0.00000000000E+00 -0.00000000000E+00 -0.79535080845E+02  0.79535080845E+02  0.00000000000E+00 0. -1.
          2    1    1    2  501    0 -0.20283842849E+02 -0.11778793626E+02 -0.35997682991E+00  0.23458555866E+02  0.00000000000E+00 0.  1.
         21    1    1    2  503  501  0.20283842849E+02  0.11778793626E+02 -0.65591923060E+02  0.69659705934E+02  0.00000000000E+00 0. -1.
</event>
<event>
 4    1  0.2216341E+005  0.2593436E+02  0.7546771E-02  0.1458617E+00
          2   -1    0    0  502    0  0.00000000000E+00  0.00000000000E+00  0.30263786089E+03  0.30263786089E+03  0.00000000000E+00 0.  1.
         21   -1    0    0  503  502 -0.00000000000E+00 -0.00000000000E+00 -0.52945671815E+02  0.52945671815E+02  0.00000000000E+00 0.  1.
          2    1    1    2  501    0 -0.85013699909E+00  0.25920426673E+02  0.29886639618E+03  0.29998952318E+03  0.00000000000E+00 0.  1.
         21    1    1    2  503  501  0.85013699909E+00 -0.25920426673E+02 -0.49174207100E+02  0.55594009531E+02  0.00000000000E+00 0.  1.
</event>
<event>
 4    1  0.2216341E+005  0.2527982E+02  0.7546771E-02  0.1465697E+00
          2   -1    0    0  502    0  0.00000000000E+00  0.00000000000E+00  0.67067737440E+01  0.67067737440E+01  0.00000000000E+00 0. -1.
         21   -1    0    0  503  502 -0.00000000000E+00 -0.00000000000E+00 -0.10643499086E+03  0.10643499086E+03  0.00000000000E+00 0.  1.
          2    1    1    2  501    0 -0.13616497113E+02 -0.21299298027E+02 -0.31555856184E+02  0.40433168928E+02  0.00000000000E+00 0. -1.
         21    1    1    2  503  501  0.13616497113E+02  0.21299298027E+02 -0.68172360935E+02  0.72708595678E+02  0.00000000000E+00 0.  1.
</event>
<event>
 4    1  0.2216341E+005  0.2996383E+02  0.7546771E-02  0.1419911E+00
          2   -1    0    0  503    0  0.00000000000E+00  0.00000000000E+00  0.34759514121E+03  0.34759514121E+03  0.00000000000E+00 0.  1.
         21   -1    0    0  501  502 -0.00000000000E+00 -0.00000000000E+00 -0.18045827317E+02  0.18045827317E+02  0.00000000000E+00 0. -1.
          2    1    1    2  501    0  0.10139786336E+02  0.28196024304E+02  0.33400615546E+03  0.33534749580E+03  0.00000000000E+00 0.  1.
         21    1    1    2  503  502 -0.10139786336E+02 -0.28196024304E+02 -0.44568415620E+01  0.30293472732E+02  0.00000000000E+00 0. -1.
</event>
<event>
 4    1  0.2216341E+005  0.2128421E+02  0.7546771E-02  0.1515245E+00
          2   -1    0    0  503    0  0.00000000000E+00  0.00000000000E+00  0.40935979911E+03  0.40935979911E+03  0.00000000000E+00 0.  1.
         21   -1    0    0  501  502 -0.00000000000E+00 -0.00000000000E+00 -0.11777413630E+01  0.11777413630E+01  0.00000000000E+00 0.  1.
          2    1    1    2  501    0  0.20973261011E+02 -0.36249173398E+01  0.25452332175E+03  0.25541170493E+03  0.00000000000E+00 0.  1.
         21    1    1    2  503  502 -0.20973261011E+02  0.36249173398E+01  0.15365873600E+03  0.15512583554E+03  0.00000000000E+00 0.  1.
</event>
<event>
 4    1  0.2216341E+005  0.3816225E+02  0.7546771E-02  0.1359605E+00
          2   -1    0    0  503    0  0.00000000000E+00  0.00000000000E+00  0.95834006993E+03  0.95834006993E+03  0.00000000000E+00 0.  1.
         21   -1    0    0  501  502 -0.00000000000E+00 -0.00000000000E+00 -0.18412781689E+01  0.18412781689E+01  0.00000000000E+00 0.  1.
          2    1    1    2  501    0 -0.33070536590E+02 -0.19044595870E+02  0.67889500593E+03  0.67996675367E+03  0.00000000000E+00 0.  1.
         21    1    1    2  503  502  0.33070536590E+02  0.19044595870E+02  0.27760378583E+03  0.28021459442E+03  0.00000000000E+00 0.  1.
</event>
<event>
 4    1  0.2216341E+005  0.2093307E+02  0.7546771E-02  0.1520222E+00
          2   -1    0    0  503    0  0.00000000000E+00  0.00000000000E+00  0.40651012761E+02  0.40651012761E+02  0.00000000000E+00 0. -1.
         21   -1    0    0  501  502 -0.00000000000E+00 -0.00000000000E+00 -0.13479581190E+02  0.13479581190E+02  0.00000000000E+00 0. -1.
          2    1    1    2  501    0 -0.19485014970E+02  0.76503445380E+01  0.14721794510E+01  0.20984777632E+02  0.00000000000E+00 0. -1.
         21    1    1    2  503  502  0.19485014970E+02 -0.76503445380E+01  0.25699252120E+02  0.33145816319E+02  0.00000000000E+00 0. -1.
</event>
<event>
 4    1  0.2216341E+005  0.2730661E+02  0.7546771E-02  0.1444552E+00
          2   -1    0    0  502    0  0.00000000000E+00  0.00000000000E+00  0.15756329867E+04  0.15756329867E+04  0.00000000000E+00 0.  1.
         21   -1    0    0  503  502 -0.00000000000E+00 -0.00000000000E+00 -0.10476758577E+01  0.10476758577E+01  0.00000000000E+00 0.  1.
          2    1    1    2  501    0  0.59060557443E+01  0.26660262271E+02  0.13710352745E+04  0.13713071775E+04  0.00000000000E+00 0.  1.
         21    1    1    2  503  501 -0.59060557443E+01 -0.26660262271E+02  0.20355003631E+03  0.20537348505E+03  0.00000000000E+00 0.  1.
</event>
<event>
 4    1  0.2216341E+005  0.2534263E+02  0.7546771E-02  0.1465007E+00
          2   -1    0    0  503    0  0.00000000000E+00  0.00000000000E+00  0.68782533174E+02  0.68782533174E+02  0.00000000000E+00 0. -1.
         21   -1    0    0  501  502 -0.00000000000E+00 -0.00000000000E+00 -0.28792133825E+02  0.28792133825E+02  0.00000000000E+00 0. -1.
          2    1    1    2  501    0  0.80146028180E+01  0.24041945239E+02  0.60098763743E+02  0.65223541705E+02  0.00000000000E+00 0. -1.
         21    1    1    2  503  502 -0.80146028180E+01 -0.24041945239E+02 -0.20108364393E+02  0.32351125294E+02  0.00000000000E+00 0. -1.
</event>
<event>
 4    1  0.2216341E+005  0.2500476E+02  0.7546771E-02  0.1468750E+00
          2   -1    0    0  503    0  0.00000000000E+00  0.00000000000E+00  0.71534740483E+01  0.71534740483E+01  0.00000000000E+00 0.  1.
         21   -1    0    0  501  502 -0.00000000000E+00 -0.00000000000E+00 -0.10812150585E+03  0.10812150585E+03  0.00000000000E+00 0.  1.
          2    1    1    2  501    0  0.15556049123E+02  0.19576699049E+02 -0.25253609211E+02  0.35538466317E+02  0.00000000000E+00 0.  1.
         21    1    1    2  503  502 -0.15556049123E+02 -0.19576699049E+02 -0.75714422593E+02  0.79736513584E+02  0.00000000000E+00 0.  1.
</event>
<event>
 4    1  0.2216341E+005  0.1222130E+03  0.7546771E-02  0.1130070E+00
          2   -1    0    0  502    0  0.00000000000E+00  0.00000000000E+00  0.39376236234E+03  0.39376236234E+03  0.00000000000E+00 0. -1.
         21   -1    0    0  503  502 -0.00000000000E+00 -0.00000000000E+00 -0.99840281687E+02  0.99840281687E+02  0.00000000000E+00 0. -1.
          2    1    1    2  501    0 -0.12112505987E+03  0.16270519145E+02  0.34130479859E+03  0.36252582731E+03  0.00000000000E+00 0. -1.
         21    1    1    2  503  501  0.12112505987E+03 -0.16270519145E+02 -0.47382717943E+02  0.13107681672E+03  0.00000000000E+00 0. -1.
</event>
<event>
 4    1  0.2216341E+005  0.3082849E+02  0.7546771E-02  0.1412531E+00
          2   -1    0    0  503    0  0.00000000000E+00  0.00000000000E+00  0.26876526295E+03  0.26876526295E+03  0.00000000000E+00 0.  1.
         21   -1    0    0  501  502 -0.00000000000E+00 -0.00000000000E+00 -0.51184175697E+01  0.51184175697E+01  0.00000000000E+00 0. -1.
          2    1    1    2  501    0  0.29661889761E+02  0.84004777043E+01  0.20796248578E+03  0.21023508561E+03  0.00000000000E+00 0.  1.
         21    1    1    2  503  502 -0.29661889761E+02 -0.84004777043E+01  0.55684359604E+02  0.63648594913E+02  0.00000000000E+00 0. -1.
</event>
<event>
 4    1  0.2216341E+005  0.2943616E+02  0.7546771E-02  0.1424560E+00
          2   -1    0    0  503    0  0.00000000000E+00  0.00000000000E+00  0.41131714178E+03  0.41131714178E+03  0.00000000000E+00 0.  1.
         21   -1    0    0  501  502 -0.00000000000E+00 -0.00000000000E+00 -0.84103851083E+01  0.84103851083E+01  0.00000000000E+00 0.  1.
          2    1    1    2  501    0 -0.27497651424E+02  0.10505561390E+02  0.38314279573E+03  0.38427189538E+03  0.00000000000E+00 0.  1.
         21    1    1    2  503  502  0.27497651424E+02 -0.10505561390E+02  0.19763960940E+02  0.35455631513E+02  0.00000000000E+00 0.  1.
</event>
<event>
 4    1  0.2216341E+005  0.2082729E+02  0.7546771E-02  0.1521745E+00
          2   -1    0    0  502    0  0.00000000000E+00  0.00000000000E+00  0.68176056250E+03  0.68176056250E+03  0.00000000000E+00 0. -1.
         21   -1    0    0  503  502 -0.00000000000E+00 -0.00000000000E+00 -0.72103694247E+00  0.72103694247E+00  0.00000000000E+00 0. -1.
          2    1    1    2  501    0 -0.20219785989E+02  0.49936420635E+01  0.45753002611E+03  0.45800382203E+03  0.00000000000E+00 0. -1.
         21    1    1    2  503  501  0.20219785989E+02 -0.49936420635E+01  0.22350949945E+03  0.22447777741E+03  0.00000000000E+00 0. -1.
</event>
<event>
 4    1  0.2216341E+005  0.2217937E+02  0.7546771E-02  0.1503068E+00
          2   -1    0    0  502    0  0.00000000000E+00  0.00000000000E+00  0.37620591862E+03  0.37620591862E+03  0.00000000000E+00 0.  1.
         21   -1    0    0  503  502 -0.00000000000E+00 -0.00000000000E+00 -0.22516846430E+01  0.22516846430E+01  0.00000000000E+00 0.  1.
          2    1    1    2  501    0  0.38647982197E+01 -0.21840054341E+02  0.30950650946E+03  0.31030018375E+03  0.00000000000E+00 0.  1.
         21    1    1    2  503  501 -0.38647982197E+01  0.21840054341E+02  0.64447724518E+02  0.68157419511E+02  0.00000000000E+00 0.  1.
</event>
<event>
 4    1  0.2216341E+005  0.2851475E+02  0.7546771E-02  0.1432958E+00
          2   -1    0    0  502    0  0.00000000000E+00  0.00000000000E+00  0.46141526281E+03  0.46141526281E+03  0.00000000000E+00 0.  1.
         21   -1    0    0  503  502 -0.00000000000E+00 -0.00000000000E+00 -0.35774923650E+01  0.35774923650E+01  0.00000000000E+00 0.  1.
          2    1    1    2  501    0 -0.22170470339E+02  0.17932126354E+02  0.39453554797E+03  0.39556464645E+03  0.00000000000E+00 0.  1.
         21    1    1    2  503  501  0.22170470339E+02 -0.17932126354E+02  0.63302222478E+02  0.69428108726E+02  0.00000000000E+00 0.  1.
</event>
<event>
 4    1  0.2216341E+005  0.4486932E+02  0.7546771E-02  0.1322094E+00
          2   -1    0    0  502    0  0.00000000000E+00  0.00000000000E+00  0.23948847787E+03  0.23948847787E+03  0.00000000000E+00 0.  1.
         21   -1    0    0  503  502 -0.00000000000E+00 -0.00000000000E+00 -0.29114403299E+02  0.29114403299E+02  0.00000000000E+00 0.  1.
          2    1    1    2  501    0  0.22225547979E+02 -0.38977948576E+02  0.21845184250E+03  0.22301224843E+03  0.00000000000E+00 0.  1.
         21    1    1    2  503  501 -0.22225547979E+02  0.38977948576E+02 -0.80777679356E+01  0.45590632733E+02  0.00000000000E+00 0.  1.
</event>
<event>
 4    1  0.2216341E+005  0.2823996E+02  0.7546771E-02  0.1435535E+00
          2   -1    0    0  503    0  0.00000000000E+00  0.00000000000E+00  0.20976051225E+04  0.20976051225E+04  0.00000000000E+00 0.  1.
         21   -1    0    0  501  502 -0.00000000000E+00 -0.00000000000E+00 -0.38559809491E+00  0.38559809491E+00  0.00000000000E+00 0.  1.
          2    1    1    2  501    0 -0.23884942754E+02 -0.15066673498E+02  0.92441566203E+03  0.92484691238E+03  0.00000000000E+00 0.  1.
         21    1    1    2  503  502  0.23884942754E+02  0.15066673498E+02  0.11728038624E+04  0.11731438082E+04  0.00000000000E+00 0.  1.
</event>
<event>
 4    1  0.2216341E+005  0.3962499E+02  0.7546771E-02  0.1350697E+00
          2   -1    0    0  503    0  0.00000000000E+00  0.00000000000E+00  0.11033716809E+04  0.11033716809E+04  0.00000000000E+00 0.  1.
         21   -1    0    0  501  502 -0.00000000000E+00 -0.00000000000E+00 -0.31836633326E+01  0.31836633326E+01  0.00000000000E+00 0.  1.
          2    1    1    2  501    0  0.12945035830E+02 -0.37450850972E+02  0.96154016490E+03  0.96235629001E+03  0.00000000000E+00 0.  1.
         21    1    1    2  503  502 -0.12945035830E+02  0.37450850972E+02  0.13864785262E+03  0.14419905419E+03  0.00000000000E+00 0.  1.
</event>
<event>
 4    1  0.2216341E+005  0.2182318E+02  0.7546771E-02  0.1507829E+00
          2   -1    0    0  503    0  0.00000000000E+00  0.00000000000E+00  0.16114063220E+04  0.16114063220E+04  0.00000000000E+00 0.  1.
         21   -1    0    0  501  502 -0.00000000000E+00 -0.00000000000E+00 -0.31887137462E+00  0.31887137462E+00  0.00000000000E+00 0.  1.
          2    1    1    2  501    0  0.13250314041E+02 -0.17340134082E+02  0.10234805846E+04  0.10237132207E+04  0.00000000000E+00 0.  1.
         21    1    1    2  503  502 -0.13250314041E+02  0.17340134082E+02  0.58760686606E+03  0.58801197276E+03  0.00000000000E+00 0.  1.
</event>
<event>
 4    1  0.2216341E+005  0.2114531E+02  0.7546771E-02  0.1517200E+00
          2   -1    0    0  503    0  0.00000000000E+00  0.00000000000E+00  0.61655895784E+02  0.61655895784E+02  0.00000000000E+00 0. -1.
         21   -1    0    0  501  502 -0.00000000000E+00 -0.00000000000E+00 -0.31319470372E+02  0.31319470372E+02  0.00000000000E+00 0. -1.
          2    1    1    2  501    0 -0.20994296532E+02  0.25226465173E+01  0.55919989858E+02  0.59784358306E+02  0.00000000000E+00 0. -1.
         21    1    1    2  503  502  0.20994296532E+02 -0.25226465173E+01 -0.25583564446E+02  0.33191007850E+02  0.00000000000E+00 0. -1.
</event>
<event>
 4    1  0.2216341E+005  0.2262465E+02  0.7546771E-02  0.1497266E+00
          2   -1    0    0  502    0  0.00000000000E+00  0.00000000000E+00  0.53117126689E+03  0.53117126689E+03  0.00000000000E+00 0. -1.
         21   -1    0    0  503  502 -0.00000000000E+00 -0.00000000000E+00 -0.28534748544E+02  0.28534748544E+02  0.00000000000E+00 0. -1.
          2    1    1    2  501    0  0.70450538746E+01 -0.21499815432E+02  0.52640510036E+03  0.52689107464E+03  0.00000000000E+00 0. -1.
         21    1    1    2  503  501 -0.70450538746E+01  0.21499815432E+02 -0.23768582022E+02  0.32814940789E+02  0.00000000000E+00 0. -1.
</event>
<event>
 4    1  0.2216341E+005  0.2566495E+02  0.7546771E-02  0.1461500E+00
          2   -1    0    0  503    0  0.00000000000E+00  0.00000000000E+00  0.11839143243E+04  0.11839143243E+04  0.00000000000E+00 0. -1.
         21   -1    0    0  501  502 -0.00000000000E+00 -0.00000000000E+00 -0.18014728156E+01  0.18014728156E+01  0.00000000000E+00 0. -1.
          2    1    1    2  501    0  0.23004201407E+02  0.11379645762E+02  0.10839351452E+04  0.10842389444E+04  0.00000000000E+00 0. -1.
         21    1    1    2  503  502 -0.23004201407E+02 -0.11379645762E+02  0.98177706351E+02  0.10147685275E+03  0.00000000000E+00 0. -1.
</event>
<event>
 4    1  0.2216341E+005  0.2047678E+02  0.7546771E-02  0.1526868E+00
          2   -1    0    0  503    0  0.00000000000E+00  0.00000000000E+00  0.83138851581E+01  0.83138851581E+01  0.00000000000E+00 0.  1.
         21   -1    0    0  501  502 -0.00000000000E+00 -0.00000000000E+00 -0.13743963315E+03  0.13743963315E+03  0.00000000000E+00 0.  1.
          2    1    1    2  501    0 -0.96293499762E+00 -0.20454127313E+02 -0.65789077211E+01  0.21507686876E+02  0.00000000000E+00 0.  1.
         21    1    1    2  503  502  0.96293499762E+00  0.20454127313E+02 -0.12254684027E+03  0.12424583143E+03  0.00000000000E+00 0.  1.
</event>
<event>
 4    1  0.2216341E+005  0.2849598E+02  0.7546771E-02  0.1433133E+00
          2   -1    0    0  502    0  0.00000000000E+00  0.00000000000E+00  0.62627694163E+02  0.62627694163E+02  0.00000000000E+00 0. -1.
         21   -1    0    0  503  502 -0.00000000000E+00 -0.00000000000E+00 -0.11406986811E+03  0.11406986811E+03  0.00000000000E+00 0.  1.
          2    1    1    2  501    0 -0.11592771124E+02  0.26031298923E+02  0.57455158950E+02  0.64133580564E+02  0.00000000000E+00 0. -1.
         21    1    1    2  503  501  0.11592771124E+02 -0.26031298923E+02 -0.10889733290E+03  0.11256398171E+03  0.00000000000E+00 0.  1.
</event>
<event>
 4    1  0.2216341E+005  0.4978346E+02  0.7546771E-02  0.1299114E+00
          2   -1    0    0  503    0  0.00000000000E+00  0.00000000000E+00  0.43730016391E+02  0.43730016391E+02  0.00000000000E+00 0.  1.
         21   -1    0    0  501  502 -0.00000000000E+00 -0.00000000000E+00 -0.12070253946E+03  0.12070253946E+03  0.00000000000E+00 0.  1.
          2    1    1    2  501    0  0.49726235916E+02  0.23862662579E+01  0.21393969837E+02  0.54185743055E+02  0.00000000000E+00 0.  1.
         21    1    1    2  503  502 -0.49726235916E+02 -0.23862662579E+01 -0.98366492908E+02  0.11024681280E+03  0.00000000000E+00 0.  1.
</event>
<event>
 4    1  0.2216341E+005  0.4745804E+02  0.7546771E-02  0.1309586E+00
          2   -1    0    0  503    0  0.00000000000E+00  0.00000000000E+00  0.14611382741E+04  0.14611382741E+04  0.00000000000E+00 0. -1.
         21   -1    0    0  501  502 -0.00000000000E+00 -0.00000000000E+00 -0.15441259663E+01  0.15441259663E+01  0.00000000000E+00 0. -1.
          2    1    1    2  501    0  0.44634657708E+00  0.47455936651E+02  0.69932678488E+03  0.70093524466E+03  0.00000000000E+00 0. -1.
         21    1    1    2  503  502 -0.44634657708E+00 -0.47455936651E+02  0.76026736328E+03  0.76174715544E+03  0.00000000000E+00 0. -1.
</event>
<event>
 4    1  0.2216341E+005  0.2180479E+02  0.7546771E-02  0.1508078E+00
          2   -1    0    0  503    0  0.00000000000E+00  0.00000000000E+00  0.31454053690E+00  0.31454053690E+00  0.00000000000E+00 0.  1.
         21   -1    0    0  501  502 -0.00000000000E+00 -0.00000000000E+00 -0.15843525894E+04  0.15843525894E+04  0.00000000000E+00 0.  1.
          2    1    1    2  501    0  0.17605530531E+02 -0.12864456172E+02 -0.96184586648E+03  0.96209298916E+03  0.00000000000E+00 0.  1.
         21    1    1    2  503  502 -0.17605530531E+02  0.12864456172E+02 -0.62219218240E+03  0.62257414079E+03  0.00000000000E+00 0.  1.
</event>
<event>
 4    1  0.2216341E+005  0.2258648E+02  0.7546771E-02  0.1497757E+00
          2   -1    0    0  502    0  0.00000000000E+00  0.00000000000E+00  0.23709682039E+03  0.23709682039E+03  0.00000000000E+00 0. -1.
         21   -1    0    0  503  502 -0.00000000000E+00 -0.00000000000E+00 -0.21747370931E+02  0.21747370931E+02  0.00000000000E+00 0. -1.
          2    1    1    2  501    0 -0.46722112880E+01  0.22097949122E+02  0.23052770354E+03  0.23163154149E+03  0.00000000000E+00 0. -1.
         21    1    1    2  503  501  0.46722112880E+01 -0.22097949122E+02 -0.15178254083E+02  0.27212649829E+02  0.00000000000E+00 0. -1.
</event>
<event>
 4    1  0.2216341E+005  0.2158567E+02  0.7546771E-02  0.1511065E+00
          2   -1    0    0  502    0  0.00000000000E+00  0.00000000000E+00  0.18362426441E+03  0.18362426441E+03  0.00000000000E+00 0. -1.
         21   -1    0    0  503  502 -0.00000000000E+00 -0.00000000000E+00 -0.25917768806E+03  0.25917768806E+03  0.00000000000E+00 0.  1.
          2    1    1    2  501    0 -0.38930828843E+01 -0.21231702501E+02  0.18253778886E+03  0.18380964514E+03  0.00000000000E+00 0. -1.
         21    1    1    2  503  501  0.38930828843E+01  0.21231702501E+02 -0.25809121250E+03  0.25899230733E+03  0.00000000000E+00 0.  1.
</event>
<event>
 4    1  0.2216341E+005  0.2346592E+02  0.7546771E-02  0.1486729E+00
          2   -1    0    0  503    0  0.00000000000E+00  0.00000000000E+00  0.10704803424E+04  0.10704803424E+04  0.00000000000E+00 0. -1.
         21   -1    0    0  501  502 -0.00000000000E+00 -0.00000000000E+00 -0.60793719817E+00  0.60793719817E+00  0.00000000000E+00 0. -1.
          2    1    1    2  501    0 -0.76629070471E+01  0.22179475919E+02  0.32486300270E+03  0.32570941009E+03  0.00000000000E+00 0. -1.
         21    1    1    2  503  502  0.76629070471E+01 -0.22179475919E+02  0.74500940251E+03  0.74537886952E+03  0.00000000000E+00 0. -1.
</event>
<event>
 4    1  0.2216341E+005  0.2356064E+02  0.7546771E-02  0.1485576E+00
          2   -1    0    0  503    0  0.00000000000E+00  0.00000000000E+00  0.30141223381E+03  0.30141223381E+03  0.00000000000E+00 0. -1.
         21   -1    0    0  501  502 -0.00000000000E+00 -0.00000000000E+00 -0.18541028997E+01  0.18541028997E+01  0.00000000000E+00 0.  1.
          2    1    1    2  501    0 -0.20672048444E+02 -0.11303544114E+02  0.16219294624E+03  0.16389525773E+03  0.00000000000E+00 0. -1.
         21    1    1    2  503  502  0.20672048444E+02  0.11303544114E+02  0.13736518467E+03  0.13937107898E+03  0.00000000000E+00 0.  1.
</event>
<event>
 4    1  0.2216341E+005  0.5441441E+02  0.7546771E-02  0.1280090E+00
          2   -1    0    0  502    0  0.00000000000E+00  0.00000000000E+00  0.17328521288E+04  0.17328521288E+04  0.00000000000E+00 0.  1.
         21   -1    0    0  503  502 -0.00000000000E+00 -0.00000000000E+00 -0.47146013983E+01  0.47146013983E+01  0.00000000000E+00 0.  1.
          2    1    1    2  501    0 -0.41835043823E+02 -0.34795936543E+02  0.15577759909E+04  0.15587260715E+04  0.00000000000E+00 0.  1.
         21    1    1    2  503  501  0.41835043823E+02  0.34795936543E+02  0.17036153653E+03  0.17884065875E+03  0.00000000000E+00 0.  1.
</event>
<event>
 4    1  0.2216341E+005  0.3168998E+02  0.7546771E-02  0.1405458E+00
          2   -1    0    0  503    0  0.00000000000E+00  0.00000000000E+00  0.39054205185E+03  0.39054205185E+03  0.00000000000E+00 0. -1.
         21   -1    0    0  501  502 -0.00000000000E+00 -0.00000000000E+00 -0.56542363671E+01  0.56542363671E+01  0.00000000000E+00 0. -1.
          2    1    1    2  501    0  0.23715415791E+02 -0.21019838915E+02  0.33871752621E+03  0.34019673299E+03  0.00000000000E+00 0. -1.
         21    1    1    2  503  502 -0.23715415791E+02  0.21019838915E+02  0.46170289268E+02  0.55999555223E+02  0.00000000000E+00 0. -1.
</event>
<event>
 4    1  0.2216341E+005  0.3621162E+02  0.7546771E-02  0.1372240E+00
          2   -1    0    0  503    0  0.00000000000E+00  0.00000000000E+00  0.30375552573E+03  0.30375552573E+03  0.00000000000E+00 0. -1.
         21   -1    0    0  501  502 -0.00000000000E+00 -0.00000000000E+00 -0.49671434874E+01  0.49671434874E+01  0.00000000000E+00 0. -1.
          2    1    1    2  501    0 -0.46915151285E+01  0.35906422812E+02  0.20524429231E+03  0.20841425344E+03  0.00000000000E+00 0. -1.
         21    1    1    2  503  502  0.46915151285E+01 -0.35906422812E+02  0.93544089932E+02  0.10030841577E+03  0.00000000000E+00 0. -1.
</event>
<event>
 4    1  0.2216341E+005  0.3569073E+02  0.7546771E-02  0.1375771E+00
          2   -1    0    0  503    0  0.00000000000E+00  0.00000000000E+00  0.29823679636E+03  0.29823679636E+03  0.00000000000E+00 0.  1.
         21   -1    0    0  501  502 -0.00000000000E+00 -0.00000000000E+00 -0.28061504004E+02  0.28061504004E+02  0.00000000000E+00 0. -1.
          2    1    1    2  501    0 -0.30881448988E+02 -0.17893126859E+02  0.28530820533E+03  0.28753191111E+03  0.00000000000E+00 0.  1.
         21    1    1    2  503  502  0.30881448988E+02  0.17893126859E+02 -0.15132912974E+02  0.38766389250E+02  0.00000000000E+00 0. -1.
</event>
<event>
 4    1  0.2216341E+005  0.2162066E+02  0.7546771E-02  0.1510585E+00
          2   -1    0    0  503    0  0.00000000000E+00  0.00000000000E+00  0.24239159145E+03  0.24239159145E+03  0.00000000000E+00 0.  1.
         21   -1    0    0  501  502 -0.00000000000E+00 -0.00000000000E+00 -0.10238297487E+02  0.10238297487E+02  0.00000000000E+00 0.  1.
          2    1    1    2  501    0 -0.16332809996E+02  0.14166582278E+02  0.22987501236E+03  0.23088952779E+03  0.00000000000E+00 0.  1.
         21    1    1    2  503  502  0.16332809996E+02 -0.14166582278E+02  0.22782816050E+01  0.21740361149E+02  0.00000000000E+00 0.  1.
</event>
<event>
 4    1  0.2216341E+005  0.3504428E+02  0.7546771E-02  0.1380252E+00
          2   -1    0    0  503    0  0.00000000000E+00  0.00000000000E+00  0.50271758688E+03  0.50271758688E+03  0.00000000000E+00 0. -1.
         21   -1    0    0  501  502 -0.00000000000E+00 -0.00000000000E+00 -0.29014457825E+01  0.29014457825E+01  0.00000000000E+00 0. -1.
          2    1    1    2  501    0  0.30857826124E+01  0.34908160975E+02  0.35040790058E+03  0.35215592930E+03  0.00000000000E+00 0. -1.
         21    1    1    2  503  502 -0.30857826124E+01 -0.34908160975E+02  0.14940824052E+03  0.15346310335E+03  0.00000000000E+00 0. -1.
</event>
<event>
 4    1  0.2216341E+005  0.3163624E+02  0.7546771E-02  0.1405891E+00
          2   -1    0    0  503    0  0.00000000000E+00  0.00000000000E+00  0.14742267932E+04  0.14742267932E+04  0.00000000000E+00 0.  1.
         21   -1    0    0  501  502 -0.00000000000E+00 -0.00000000000E+00 -0.88120827860E+02  0.88120827860E+02  0.00000000000E+00 0.  1.
          2    1    1    2  501    0 -0.30638510350E+02  0.78824722591E+01  0.14712118201E+04  0.14715519261E+04  0.00000000000E+00 0.  1.
         21    1    1    2  503  502  0.30638510350E+02 -0.78824722591E+01 -0.85105854813E+02  0.90795694880E+02  0.00000000000E+00 0.  1.
</event>
<event>
 4    1  0.2216341E+005  0.2390519E+02  0.7546771E-02  0.1481434E+00
          2   -1    0    0  502    0  0.00000000000E+00  0.00000000000E+00  0.17604772383E+04  0.17604772383E+04  0.00000000000E+00 0.  1.
         21   -1    0    0  503  502 -0.00000000000E+00 -0.00000000000E+00 -0.25095069867E+01  0.25095069867E+01  0.00000000000E+00 0. -1.
          2    1    1    2  501    0 -0.23198560468E+02 -0.57692897624E+01  0.17014933763E+04  0.17016612964E+04  0.00000000000E+00 0.  1.
         21    1    1    2  503  501  0.23198560468E+02  0.57692897624E+01  0.56474354949E+02  0.61325448869E+02  0.00000000000E+00 0. -1.
</event>
<event>
 4    1  0.2216341E+005  0.2364459E+02  0.7546771E-02  0.1484559E+00
          2   -1    0    0  502    0  0.00000000000E+00  0.00000000000E+00  0.13384208323E+04  0.13384208323E+04  0.00000000000E+00 0. -1.
         21   -1    0    0  503  502 -0.00000000000E+00 -0.00000000000E+00 -0.17944013549E+02  0.17944013549E+02  0.00000000000E+00 0.  1.
          2    1    1    2  501    0 -0.23361412884E+02  0.36484340525E+01  0.13304808848E+04  0.13306909677E+04  0.00000000000E+00 0. -1.
         21    1    1    2  503  501  0.23361412884E+02 -0.36484340525E+01 -0.10004066036E+02  0.25673878169E+02  0.00000000000E+00 0.  1.
</event>
<event>
 4    1  0.2216341E+005  0.2097995E+02  0.7546771E-02  0.1519551E+00
          2   -1    0    0  503    0  0.00000000000E+00  0.00000000000E+00  0.75137948070E+03  0.75137948070E+03  0.00000000000E+00 0.  1.
         21   -1    0    0  501  502 -0.00000000000E+00 -0.00000000000E+00 -0.20943241579E+01  0.20943241579E+01  0.00000000000E+00 0.  1.
          2    1    1    2  501    0 -0.18774547317E+02  0.93634774131E+01  0.69437914032E+03  0.69469601183E+03  0.00000000000E+00 0.  1.
         21    1    1    2  503  502  0.18774547317E+02 -0.93634774131E+01  0.54906016221E+02  0.58777793030E+02  0.00000000000E+00 0.  1.
</event>
<event>
 4    1  0.2216341E+005  0.2112855E+02  0.7546771E-02  0.1517437E+00
          2   -1    0    0  503    0  0.00000000000E+00  0.00000000000E+00  0.38349512096E+02  0.38349512096E+02  0.00000000000E+00 0.  1.
         21   -1    0    0  501  502 -0.00000000000E+00 -0.00000000000E+00 -0.66376403076E+02  0.66376403076E+02  0.00000000000E+00 0. -1.
          2    1    1    2  501    0  0.97241803662E+01 -0.18757828239E+02  0.33536781645E+02  0.39637501525E+02  0.00000000000E+00 0.  1.
         21    1    1    2  503  502 -0.97241803662E+01  0.18757828239E+02 -0.61563672625E+02  0.65088413648E+02  0.00000000000E+00 0. -1.
</event>
<event>
 4    1  0.2216341E+005  0.2407979E+02  0.7546771E-02  0.1479367E+00
          2   -1    0    0  503    0  0.00000000000E+00  0.00000000000E+00  0.12972821554E+01  0.12972821554E+01  0.00000000000E+00 0.  1.
         21   -1    0    0  501  502 -0.00000000000E+00 -0.00000000000E+00 -0.11453193802E+04  0.11453193802E+04  0.00000000000E+00 0.  1.
          2    1    1    2  501    0  0.13054795939E+02 -0.20233841924E+02 -0.12433510643E+03  0.12664538976E+03  0.00000000000E+00 0.  1.
         21    1    1    2  503  502 -0.13054795939E+02  0.20233841924E+02 -0.10196869916E+04  0.10199712726E+04  0.00000000000E+00 0.  1.
</event>
<event>
 4    1  0.2216341E+005  0.2153098E+02  0.7546771E-02  0.1511817E+00
          2   -1    0    0  503    0  0.00000000000E+00  0.00000000000E+00  0.32740382168E+03  0.32740382168E+03  0.00000000000E+00 0. -1.
         21   -1    0    0  501  502 -0.00000000000E+00 -0.00000000000E+00 -0.86030631163E+01  0.86030631163E+01  0.00000000000E+00 0. -1.
          2    1    1    2  501    0 -0.13001810989E+02 -0.17162055401E+02  0.31295725037E+03  0.31369702548E+03  0.00000000000E+00 0. -1.
         21    1    1    2  503  502  0.13001810989E+02  0.17162055401E+02  0.58435081872E+01  0.22309859312E+02  0.00000000000E+00 0. -1.
</event>
<event>
 4    1  0.2216341E+005  0.2243112E+02  0.7546771E-02  0.1499768E+00
          2   -1    0    0  503    0  0.00000000000E+00  0.00000000000E+00  0.84254317131E+02  0.84254317131E+02  0.00000000000E+00 0. -1.
         21   -1    0    0  501  502 -0.00000000000E+00 -0.00000000000E+00 -0.87424626685E+01  0.87424626685E+01  0.00000000000E+00 0.  1.
          2    1    1    2  501    0 -0.22361133947E+02  0.17705109245E+01  0.63932218471E+02  0.67753107522E+02  0.00000000000E+00 0. -1.
         21    1    1    2  503  502  0.22361133947E+02 -0.17705109245E+01  0.11579635991E+02  0.25243672277E+02  0.00000000000E+00 0.  1.
</event>
<event>
 4    1  0.2216341E+005  0.3076634E+02  0.7546771E-02  0.1413052E+00
          2   -1    0    0  503    0  0.00000000000E+00  0.00000000000E+00  0.11931563385E+04  0.11931563385E+04  0.00000000000E+00 0. -1.
         21   -1    0    0  501  502 -0.00000000000E+00 -0.00000000000E+00 -0.13017859655E+01  0.13017859655E+01  0.00000000000E+00 0. -1.
          2    1    1    2  501    0  0.25696024974E+02  0.16919860374E+02  0.96917535345E+03  0.96966356697E+03  0.00000000000E+00 0. -1.
         21    1    1    2  503  502 -0.25696024974E+02 -0.16919860374E+02  0.22267919907E+03  0.22479455748E+03  0.00000000000E+00 0. -1.
</event>
<event>
 4    1  0.2216341E+005  0.2449032E+02  0.7546771E-02  0.1474587E+00
          2   -1    0    0  502    0  0.00000000000E+00  0.00000000000E+00  0.21440084484E+04  0.21440084484E+04  0.00000000000E+00 0.  1.
         21   -1    0    0  503  502 -0.00000000000E+00 -0.00000000000E+00 -0.28951980511E+00  0.28951980511E+00  0.00000000000E+00 0.  1.
          2    1    1    2  501    0  0.68426093073E+01 -0.23514984776E+02  0.12688604118E+04  0.12690967341E+04  0.00000000000E+00 0.  1.
         21    1    1    2  503  501 -0.68426093073E+01  0.23514984776E+02  0.87485851680E+03  0.87520123414E+03  0.00000000000E+00 0.  1.
</event>
<event>
 4    1  0.2216341E+005  0.2669118E+02  0.7546771E-02  0.1450735E+00
          2   -1    0    0  503    0  0.00000000000E+00  0.00000000000E+00  0.40193657421E+03  0.40193657421E+03  0.00000000000E+00 0. -1.
         21   -1    0    0  501  502 -0.00000000000E+00 -0.00000000000E+00 -0.64899566346E+01  0.64899566346E+01  0.00000000000E+00 0.  1.
          2    1    1    2  501    0  0.25389583183E+02  0.82333519778E+01  0.37183124333E+03  0.37278799946E+03  0.00000000000E+00 0. -1.
         21    1    1    2  503  502 -0.25389583183E+02 -0.82333519778E+01  0.23615374243E+02  0.35638531390E+02  0.00000000000E+00 0.  1.
</event>
<event>
 4    1  0.2216341E+005  0.4720714E+02  0.7546771E-02  0.1310758E+00
          2   -1    0    0  503    0  0.00000000000E+00  0.00000000000E+00  0.56819074351E+02  0.56819074351E+02  0.00000000000E+00 0. -1.
         21   -1    0    0  501  502 -0.00000000000E+00 -0.00000000000E+00 -0.57474810027E+02  0.57474810027E+02  0.00000000000E+00 0. -1.
          2    1    1    2  501    0  0.12047818888E+02  0.45643883243E+02  0.31877498597E+02  0.56962171081E+02  0.00000000000E+00 0. -1.
         21    1    1    2  503  502 -0.12047818888E+02 -0.45643883243E+02 -0.32533234273E+02  0.57331713298E+02  0.00000000000E+00 0. -1.
</event>
<event>
 4    1  0.2216341E+005  0.3172507E+02  0.7546771E-02  0.1405175E+00
          2   -1    0    0  503    0  0.00000000000E+00  0.00000000000E+00  0.63652671471E+02  0.63652671471E+02  0.00000000000E+00 0.  1.
         21   -1    0    0  501  502 -0.00000000000E+00 -0.00000000000E+00 -0.56605573932E+02  0.56605573932E+02  0.00000000000E+00 0.  1.
          2    1    1    2  501    0  0.25350288898E+02 -0.19074672944E+02  0.54568264602E+02  0.63120327921E+02  0.00000000000E+00 0.  1.
         21    1    1    2  503  502 -0.25350288898E+02  0.19074672944E+02 -0.47521167063E+02  0.57137917482E+02  0.00000000000E+00 0.  1.
</event>
<event>
 4    1  0.2216341E+005  0.2031155E+02  0.7546771E-02  0.1529325E+00
          2   -1    0    0  502    0  0.00000000000E+00  0.00000000000E+00  0.54010425917E+03  0.54010425917E+03  0.00000000000E+00 0.  1.
         21   -1    0    0  503  502 -0.00000000000E+00 -0.00000000000E+00 -0.96794009574E+01  0.96794009574E+01  0.00000000000E+00 0.  1.
          2    1    1    2  501    0 -0.19117760584E+02  0.68607711631E+01  0.52903483201E+03  0.52942460505E+03  0.00000000000E+00 0.  1.
         21    1    1    2  503  501  0.19117760584E+02 -0.68607711631E+01  0.13900261977E+01  0.20359055074E+02  0.00000000000E+00 0.  1.
</event>
<event>
 4    1  0.2216341E+005  0.6186030E+02  0.7546771E-02  0.1253640E+00
          2   -1    0    0  502    0  0.00000000000E+00  0.00000000000E+00  0.38484702477E+03  0.38484702477E+03  0.00000000000E+00 0.  1.
         21   -1    0    0  503  502 -0.00000000000E+00 -0.00000000000E+00 -0.86378021497E+02  0.86378021497E+02  0.00000000000E+00 0.  1.
          2    1    1    2  501    0 -0.40570378849E+02  0.46698404089E+02  0.37087123447E+03  0.37599490574E+03  0.00000000000E+00 0.  1.
         21    1    1    2  503  501  0.40570378849E+02 -0.46698404089E+02 -0.72402231191E+02  0.95230140533E+02  0.00000000000E+00 0.  1.
</event>
<event>
 4    1  0.2216341E+005  0.2375705E+02  0.7546771E-02  0.1483204E+00
          2   -1    0    0  502    0  0.00000000000E+00  0.00000000000E+00  0.52512398953E+02  0.52512398953E+02  0.00000000000E+00 0.  1.
         21   -1    0    0  503  502 -0.00000000000E+00 -0.00000000000E+00 -0.11334783876E+02  0.11334783876E+02  0.00000000000E+00 0.  1.
          2    1    1    2  501    0  0.84664815250E+01 -0.22197210799E+02  0.27852960619E+02  0.36608535780E+02  0.00000000000E+00 0.  1.
         21    1    1    2  503  501 -0.84664815250E+01  0.22197210799E+02  0.13324654457E+02  0.27238647050E+02  0.00000000000E+00 0.  1.
</event>
<event>
 4    1  0.2216341E+005  0.3875872E+02  0.7546771E-02  0.1355917E+00
          2   -1    0    0  503    0  0.00000000000E+00  0.00000000000E+00  0.34263501967E+04  0.34263501967E+04  0.00000000000E+00 0. -1.
         21   -1    0    0  501  502 -0.00000000000E+00 -0.00000000000E+00 -0.43843793170E+00  0.43843793170E+00  0.00000000000E+00 0.  1.
          2    1    1    2  501    0 -0.38750881280E+02 -0.77934903198E+00  0.17156480134E+04  0.17160857624E+04  0.00000000000E+00 0. -1.
         21    1    1    2  503  502  0.38750881280E+02  0.77934903198E+00  0.17102637454E+04  0.17107028722E+04  0.00000000000E+00 0.  1.
</event>
<event>
 4    1  0.2216341E+005  0.2278930E+02  0.7546771E-02  0.1495161E+00
          2   -1    0    0  503    0  0.00000000000E+00  0.00000000000E+00  0.14805501091E+03  0.14805501091E+03  0.00000000000E+00 0. -1.
         21   -1    0    0  501  502 -0.00000000000E+00 -0.00000000000E+00 -0.31369350721E+02  0.31369350721E+02  0.00000000000E+00 0. -1.
          2    1    1    2  501    0 -0.87683968524E+01  0.21034911490E+02  0.14289038116E+03  0.14469627954E+03  0.00000000000E+00 0. -1.
         21    1    1    2  503  502  0.87683968524E+01 -0.21034911490E+02 -0.26204720969E+02  0.34728082093E+02  0.00000000000E+00 0. -1.
</event>
<event>
 4    1  0.2216341E+005  0.3724664E+02  0.7546771E-02  0.1365422E+00
          2   -1    0    0  502    0  0.00000000000E+00  0.00000000000E+00  0.14987216732E+04  0.14987216732E+04  0.00000000000E+00 0. -1.
         21   -1    0    0  503  502 -0.00000000000E+00 -0.00000000000E+00 -0.36715259548E+01  0.36715259548E+01  0.00000000000E+00 0.  1.
          2    1    1    2  501    0  0.11339463924E+02 -0.35478566965E+02  0.13971604857E+04  0.13976568731E+04  0.00000000000E+00 0. -1.
         21    1    1    2  503  501 -0.11339463924E+02  0.35478566965E+02  0.97889661579E+02  0.10473632608E+03  0.00000000000E+00 0.  1.
</event>
<event>
 4    1  0.2216341E+005  0.3509249E+02  0.7546771E-02  0.1379914E+00
          2   -1    0    0  503    0  0.00000000000E+00  0.00000000000E+00  0.57086526036E+03  0.57086526036E+03  0.00000000000E+00 0. -1.
         21   -1    0    0  501  502 -0.00000000000E+00 -0.00000000000E+00 -0.23600716514E+01  0.23600716514E+01  0.00000000000E+00 0. -1.
          2    1    1    2  501    0  0.23023618627E+01 -0.35016878658E+02  0.36827995807E+03  0.36994811822E+03  0.00000000000E+00 0. -1.
         21    1    1    2  503  502 -0.23023618627E+01  0.35016878658E+02  0.20022523064E+03  0.20327721379E+03  0.00000000000E+00 0. -1.
</event>
<event>
 4    1  0.2216341E+005  0.2705056E+02  0.7546771E-02  0.1447101E+00
          2   -1    0    0  502    0  0.00000000000E+00  0.00000000000E+00  0.78769058366E+03  0.78769058366E+03  0.00000000000E+00 0.  1.
         21   -1    0    0  503  502 -0.00000000000E+00 -0.00000000000E+00 -0.39983281865E+01  0.39983281865E+01  0.00000000000E+00 0. -1.
          2    1    1    2  501    0 -0.23549350360E+02 -0.13310178831E+02  0.73867070569E+03  0.73916584351E+03  0.00000000000E+00 0.  1.
         21    1    1    2  503  501  0.23549350360E+02  0.13310178831E+02  0.45021549785E+02  0.52523068341E+02  0.00000000000E+00 0. -1.
</event>
<event>
 4    1  0.2216341E+005  0.3256561E+02  0.7546771E-02  0.1398536E+00
          2   -1    0    0  503    0  0.00000000000E+00  0.00000000000E+00  0.19101650298E+02  0.19101650298E+02  0.00000000000E+00 0.  1.
         21   -1    0    0  501  502 -0.00000000000E+00 -0.00000000000E+00 -0.60249717745E+02  0.60249717745E+02  0.00000000000E+00 0.  1.
          2    1    1    2  501    0  0.26419555065E+02  0.19040121365E+02 -0.31690720617E+02  0.45440300226E+02  0.00000000000E+00 0.  1.
         21    1    1    2  503  502 -0.26419555065E+02 -0.19040121365E+02 -0.94573468291E+01  0.33911067817E+02  0.00000000000E+00 0.  1.
</event>
<event>
 4    1  0.2216341E+005  0.4544073E+02  0.7546771E-02  0.1319250E+00
          2   -1    0    0  503    0  0.00000000000E+00  0.00000000000E+00  0.12826653225E+02  0.12826653225E+02  0.00000000000E+00 0.  1.
         21   -1    0    0  501  502 -0.00000000000E+00 -0.00000000000E+00 -0.22388387813E+03  0.22388387813E+03  0.00000000000E+00 0.  1.
          2    1    1    2  501    0 -0.34157894233E+02 -0.29968279839E+02 -0.42793860736E+02  0.62419340365E+02  0.00000000000E+00 0.  1.
         21    1    1    2  503  502  0.34157894233E+02  0.29968279839E+02 -0.16826336417E+03  0.17429119099E+03  0.00000000000E+00 0.  1.
</event>
<event>
 4    1  0.2216341E+005  0.2113055E+02  0.7546771E-02  0.1517409E+00
          2   -1    0    0  503    0  0.00000000000E+00  0.00000000000E+00  0.51393043454E+03  0.51393043454E+03  0.00000000000E+00 0.  1.
         21   -1    0    0  501  502 -0.00000000000E+00 -0.00000000000E+00 -0.89785833989E+00  0.89785833989E+00  0.00000000000E+00 0.  1.
          2    1    1    2  501    0  0.13733316770E+02  0.16059151454E+02  0.21020368626E+03  0.21126308256E+03  0.00000000000E+00 0.  1.
         21    1    1    2  503  502 -0.13733316770E+02 -0.16059151454E+02  0.30282888994E+03  0.30356521032E+03  0.00000000000E+00 0.  1.
</event>
<event>
 4    1  0.2216341E+005  0.2307508E+02  0.7546771E-02  0.1491558E+00
          2   -1    0    0  503    0  0.00000000000E+00  0.00000000000E+00  0.87305587789E+03  0.87305587789E+03  0.00000000000E+00 0.  1.
         21   -1    0    0  501  502 -0.00000000000E+00 -0.00000000000E+00 -0.48531468054E+02  0.48531468054E+02  0.00000000000E+00 0.  1.
          2    1    1    2  501    0  0.19426187649E+02  0.12453214094E+02  0.87015139815E+03  0.87045730223E+03  0.00000000000E+00 0.  1.
         21    1    1    2  503  502 -0.19426187649E+02 -0.12453214094E+02 -0.45626988312E+02  0.51130043714E+02  0.00000000000E+00 0.  1.
</event>
<event>
 4    1  0.2216341E+005  0.2375854E+02  0.7546771E-02  0.1483187E+00
          2   -1    0    0  502    0  0.00000000000E+00  0.00000000000E+00  0.12483485651E+04  0.12483485651E+04  0.00000000000E+00 0.  1.
         21   -1    0    0  503  502 -0.00000000000E+00 -0.00000000000E+00 -0.78113902604E+01  0.78113902604E+01  0.00000000000E+00 0.  1.
          2    1    1    2  501    0  0.22788553414E+02  0.67193736459E+01  0.12298990015E+04  0.12301284575E+04  0.00000000000E+00 0.  1.
         21    1    1    2  503  501 -0.22788553414E+02 -0.67193736459E+01  0.10638173402E+02  0.26031497887E+02  0.00000000000E+00 0.  1.
</event>
<event>
 4    1  0.2216341E+005  0.2141596E+02  0.7546771E-02  0.1513408E+00
          2   -1    0    0  502    0  0.00000000000E+00  0.00000000000E+00  0.35577209210E+03  0.35577209210E+03  0.00000000000E+00 0.  1.
         21   -1    0    0  503  502 -0.00000000000E+00 -0.00000000000E+00 -0.19993345462E+01  0.19993345462E+01  0.00000000000E+00 0. -1.
          2    1    1    2  501    0 -0.78761441007E+01 -0.19915063977E+02  0.28350146928E+03  0.28430920931E+03  0.00000000000E+00 0.  1.
         21    1    1    2  503  501  0.78761441007E+01  0.19915063977E+02  0.70271288274E+02  0.73462217328E+02  0.00000000000E+00 0. -1.
</event>
<event>
 4    1  0.2216341E+005  0.2201057E+02  0.7546771E-02  0.1505311E+00
          2   -1    0    0  503    0  0.00000000000E+00  0.00000000000E+00  0.94231618254E+02  0.94231618254E+02  0.00000000000E+00 0. -1.
         21   -1    0    0  501  502 -0.00000000000E+00 -0.00000000000E+00 -0.17104199520E+02  0.17104199520E+02  0.00000000000E+00 0.  1.
          2    1    1    2  501    0  0.15565275300E+02 -0.15562375294E+02  0.85119450138E+02  0.87919202179E+02  0.00000000000E+00 0. -1.
         21    1    1    2  503  502 -0.15565275300E+02  0.15562375294E+02 -0.79920314042E+01  0.23416615594E+02  0.00000000000E+00 0.  1.
</event>
<event>
 4    1  0.2216341E+005  0.2026538E+02  0.7546771E-02  0.1530017E+00
          2   -1    0    0  502    0  0.00000000000E+00  0.00000000000E+00  0.50568417425E+03  0.50568417425E+03  0.00000000000E+00 0.  1.
         21   -1    0    0  503  502 -0.00000000000E+00 -0.00000000000E+00 -0.23171776229E+01  0.23171776229E+01  0.00000000000E+00 0. -1.
          2    1    1    2  501    0 -0.19715624137E+02  0.46882617119E+01  0.45638880013E+03  0.45683850813E+03  0.00000000000E+00 0.  1.
         21    1    1    2  503  501  0.19715624137E+02 -0.46882617119E+01  0.46978196498E+02  0.51162843737E+02  0.00000000000E+00 0. -1.
</event>
<event>
 4    1  0.2216341E+005  0.3035018E+02  0.7546771E-02  0.1416577E+00
          2   -1    0    0  502    0  0.00000000000E+00  0.00000000000E+00  0.11970657375E+04  0.11970657375E+04  0.00000000000E+00 0.  1.
         21   -1    0    0  503  502 -0.00000000000E+00 -0.00000000000E+00 -0.98767510819E+01  0.98767510819E+01  0.00000000000E+00 0.  1.
          2    1    1    2  501    0  0.22234670786E+02 -0.20657996968E+02  0.11730810344E+04  0.11734735816E+04  0.00000000000E+00 0.  1.
         21    1    1    2  503  501 -0.22234670786E+02  0.20657996968E+02  0.14107951984E+02  0.33468906957E+02  0.00000000000E+00 0.  1.
</event>
<event>
 4    1  0.2216341E+005  0.2086362E+02  0.7546771E-02  0.1521221E+00
          2   -1    0    0  503    0  0.00000000000E+00  0.00000000000E+00  0.12001278295E+01  0.12001278295E+01  0.00000000000E+00 0.  1.
         21   -1    0    0  501  502 -0.00000000000E+00 -0.00000000000E+00 -0.53831728990E+03  0.53831728990E+03  0.00000000000E+00 0.  1.
          2    1    1    2  501    0 -0.22914029409E+01 -0.20737408812E+02 -0.11448239216E+03  0.11636798858E+03  0.00000000000E+00 0.  1.
         21    1    1    2  503  502  0.22914029409E+01  0.20737408812E+02 -0.42263476991E+03  0.42314942915E+03  0.00000000000E+00 0.  1.
</event>
<event>
 4    1  0.2216341E+005  0.8210371E+02  0.7546771E-02  0.1199046E+00
          2   -1    0    0  502    0  0.00000000000E+00  0.00000000000E+00  0.37383234222E+02  0.37383234222E+02  0.00000000000E+00 0. -1.
         21   -1    0    0  503  502 -0.00000000000E+00 -0.00000000000E+00 -0.23475975759E+03  0.23475975759E+03  0.00000000000E+00 0. -1.
          2    1    1    2  501    0 -0.78734152788E+02 -0.23279884129E+02 -0.33163504675E+02  0.88548505705E+02  0.00000000000E+00 0. -1.
         21    1    1    2  503  501  0.78734152788E+02  0.23279884129E+02 -0.16421301869E+03  0.18359448610E+03  0.00000000000E+00 0. -1.
</event>
<event>
 4    1  0.2216341E+005  0.3246569E+02  0.7546771E-02  0.1399313E+00
          2   -1    0    0  503    0  0.00000000000E+00  0.00000000000E+00  0.39751829319E+01  0.39751829319E+01  0.00000000000E+00 0. -1.
         21   -1    0    0  501  502 -0.00000000000E+00 -0.00000000000E+00 -0.84121236260E+03  0.84121236260E+03  0.00000000000E+00 0.  1.
          2    1    1    2  501    0  0.12294229911E+02 -0.30047840427E+02 -0.68911110370E+02  0.76175861898E+02  0.00000000000E+00 0. -1.
         21    1    1    2  503  502 -0.12294229911E+02  0.30047840427E+02 -0.76832606930E+03  0.76901168363E+03  0.00000000000E+00 0.  1.
</event>
<event>
 4    1  0.2216341E+005  0.2352181E+02  0.7546771E-02  0.1486048E+00
          2   -1    0    0  502    0  0.00000000000E+00  0.00000000000E+00  0.10209335208E+04  0.10209335208E+04  0.00000000000E+00 0.  1.
         21   -1    0    0  503  502 -0.00000000000E+00 -0.00000000000E+00 -0.67135282959E+02  0.67135282959E+02  0.00000000000E+00 0. -1.
          2    1    1    2  501    0 -0.23328084071E+02 -0.30126719633E+01  0.10187332873E+04  0.10190048020E+04  0.00000000000E+00 0.  1.
         21    1    1    2  503  501  0.23328084071E+02  0.30126719633E+01 -0.64935049466E+02  0.69064001824E+02  0.00000000000E+00 0. -1.
</event>
<event>
 4    1  0.2216341E+005  0.2123781E+02  0.7546771E-02  0.1515896E+00
          2   -1    0    0  503    0  0.00000000000E+00  0.00000000000E+00  0.53765677129E+03  0.53765677129E+03  0.00000000000E+00 0.  1.
         21   -1    0    0  501  502 -0.00000000000E+00 -0.00000000000E+00 -0.99032733551E+00  0.99032733551E+00  0.00000000000E+00 0.  1.
          2    1    1    2  501    0 -0.20889413094E+02 -0.38310811152E+01  0.16302189307E+03  0.16439945980E+03  0.00000000000E+00 0.  1.
         21    1    1    2  503  502  0.20889413094E+02  0.38310811152E+01  0.37364455088E+03  0.37424763883E+03  0.00000000000E+00 0.  1.
</event>
<event>
 4    1  0.2216341E+005  0.4169193E+02  0.7546771E-02  0.1338847E+00
          2   -1    0    0  503    0  0.00000000000E+00  0.00000000000E+00  0.63609529995E+02  0.63609529995E+02  0.00000000000E+00 0.  1.
         21   -1    0    0  501  502 -0.00000000000E+00 -0.00000000000E+00 -0.72135910363E+02  0.72135910363E+02  0.00000000000E+00 0. -1.
          2    1    1    2  501    0 -0.33503568533E+02  0.24813860005E+02  0.49230776391E+02  0.64512681675E+02  0.00000000000E+00 0.  1.
         21    1    1    2  503  502  0.33503568533E+02 -0.24813860005E+02 -0.57757156759E+02  0.71232758683E+02  0.00000000000E+00 0. -1.
</event>
<event>
 4    1  0.2216341E+005  0.2422518E+02  0.7546771E-02  0.1477661E+00
          2   -1    0    0  503    0  0.00000000000E+00  0.00000000000E+00  0.91097695126E+02  0.91097695126E+02  0.00000000000E+00 0. -1.
         21   -1    0    0  501  502 -0.00000000000E+00 -0.00000000000E+00 -0.66920040604E+01  0.66920040604E+01  0.00000000000E+00 0. -1.
          2    1    1    2  501    0  0.10267750800E+02  0.21941575012E+02  0.32753937877E+02  0.40739168707E+02  0.00000000000E+00 0. -1.
         21    1    1    2  503  502 -0.10267750800E+02 -0.21941575012E+02  0.51651753189E+02  0.57050530479E+02  0.00000000000E+00 0. -1.
</event>
<event>
 4    1  0.2216341E+005  0.3263910E+02  0.7546771E-02  0.1397967E+00
          2   -1    0    0  502    0  0.00000000000E+00  0.00000000000E+00  0.18010304849E+04  0.18010304849E+04  0.00000000000E+00 0. -1.
         21   -1    0    0  503  502 -0.00000000000E+00 -0.00000000000E+00 -0.16590877928E+01  0.16590877928E+01  0.00000000000E+00 0. -1.
          2    1    1    2  501    0  0.31781264892E+02 -0.74338468838E+01  0.16227183577E+04  0.16230465734E+04  0.00000000000E+00 0. -1.
         21    1    1    2  503  501 -0.31781264892E+02  0.74338468838E+01  0.17665303940E+03  0.17964299933E+03  0.00000000000E+00 0. -1.
</event>
<event>
 4    1  0.2216341E+005  0.3105564E+02  0.7546771E-02  0.1410639E+00
          2   -1    0    0  503    0  0.00000000000E+00  0.00000000000E+00  0.11277233918E+04  0.11277233918E+04  0.00000000000E+00 0. -1.
         21   -1    0    0  501  502 -0.00000000000E+00 -0.00000000000E+00 -0.14178716075E+01  0.14178716075E+01  0.00000000000E+00 0. -1.
          2    1    1    2  501    0 -0.72925218756E+01 -0.30187276388E+02  0.91879987748E+03  0.91932457130E+03  0.00000000000E+00 0. -1.
         21    1    1    2  503  502  0.72925218756E+01  0.30187276388E+02  0.20750564267E+03  0.20981669207E+03  0.00000000000E+00 0. -1.
</event>
<event>
 4    1  0.2216341E+005  0.2268586E+02  0.7546771E-02  0.1496481E+00
          2   -1    0    0  502    0  0.00000000000E+00  0.00000000000E+00  0.10495883558E+03  0.10495883558E+03  0.00000000000E+00 0.  1.
         21   -1    0    0  503  502 -0.00000000000E+00 -0.00000000000E+00 -0.26247691381E+03  0.26247691381E+03  0.00000000000E+00 0.  1.
          2    1    1    2  501    0 -0.17878025908E+02 -0.13965120945E+02  0.10323472720E+03  0.10569795321E+03  0.00000000000E+00 0.  1.
         21    1    1    2  503  501  0.17878025908E+02  0.13965120945E+02 -0.26075280542E+03  0.26173779618E+03  0.00000000000E+00 0.  1.
</event>
<event>
 4    1  0.2216341E+005  0.2651928E+02  0.7546771E-02  0.1452498E+00
          2   -1    0    0  503    0  0.00000000000E+00  0.00000000000E+00  0.18086864900E+04  0.18086864900E+04  0.00000000000E+00 0. -1.
         21   -1    0    0  501  502 -0.00000000000E+00 -0.00000000000E+00 -0.95396220956E+00  0.95396220956E+00  0.00000000000E+00 0. -1.
          2    1    1    2  501    0  0.22278691632E+02 -0.14385135407E+02  0.16002868593E+04  0.16005065774E+04  0.00000000000E+00 0. -1.
         21    1    1    2  503  502 -0.22278691632E+02  0.14385135407E+02  0.20744566852E+03  0.20913387485E+03  0.00000000000E+00 0. -1.
</event>
<event>
 4    1  0.2216341E+005  0.3253537E+02  0.7546771E-02  0.1398771E+00
          2   -1    0    0  503    0  0.00000000000E+00  0.00000000000E+00  0.10430338558E+04  0.10430338558E+04  0.00000000000E+00 0.  1.
         21   -1    0    0  501  502 -0.00000000000E+00 -0.00000000000E+00 -0.97296565828E+01  0.97296565828E+01  0.00000000000E+00 0.  1.
          2    1    1    2  501    0  0.21382657313E+02  0.24522076482E+02  0.10148252255E+04  0.10153466347E+04  0.00000000000E+00 0.  1.
         21    1    1    2  503  502 -0.21382657313E+02 -0.24522076482E+02  0.18478973776E+02  0.37416877750E+02  0.00000000000E+00 0.  1.
</event>
<event>
 4    1  0.2216341E+005  0.4140963E+02  0.7546771E-02  0.1340418E+00
          2   -1    0    0  502    0  0.00000000000E+00  0.00000000000E+00  0.38222090769E+03  0.38222090769E+03  0.00000000000E+00 0. -1.
         21   -1    0    0  503  502 -0.00000000000E+00 -0.00000000000E+00 -0.23194430114E+02  0.23194430114E+02  0.00000000000E+00 0. -1.
          2    1    1    2  501    0 -0.22702581613E+02  0.34631636379E+02  0.36156442932E+03  0.36392800661E+03  0.00000000000E+00 0. -1.
         21    1    1    2  503  501  0.22702581613E+02 -0.34631636379E+02 -0.25379517425E+01  0.41487331189E+02  0.00000000000E+00 0. -1.
</event>
<event>
 4    1  0.2216341E+005  0.3591023E+02  0.7546771E-02  0.1374275E+00
          2   -1    0    0  503    0  0.00000000000E+00  0.00000000000E+00  0.19643086298E+02  0.19643086298E+02  0.00000000000E+00 0.  1.
         21   -1    0    0  501  502 -0.00000000000E+00 -0.00000000000E+00 -0.11078402619E+03  0.11078402619E+03  0.00000000000E+00 0. -1.
          2    1    1    2  501    0 -0.35099030662E+02  0.75896389416E+01 -0.39451831641E+01  0.36126292958E+02  0.00000000000E+00 0.  1.
         21    1    1    2  503  502  0.35099030662E+02 -0.75896389416E+01 -0.87195756724E+02  0.94300819527E+02  0.00000000000E+00 0. -1.
</event>
<event>
 4    1  0.2216341E+005  0.2141200E+02  0.7546771E-02  0.1513463E+00
          2   -1    0    0  503    0  0.00000000000E+00  0.00000000000E+00  0.84160811878E+01  0.84160811878E+01  0.00000000000E+00 0. -1.
         21   -1    0    0  501  502 -0.00000000000E+00 -0.00000000000E+00 -0.17461572643E+03  0.17461572643E+03  0.00000000000E+00 0. -1.
          2    1    1    2  501    0  0.12693714771E+02  0.17243640698E+02 -0.71899245678E+01  0.22586911133E+02  0.00000000000E+00 0. -1.
         21    1    1    2  503  502 -0.12693714771E+02 -0.17243640698E+02 -0.15900972067E+03  0.16044489648E+03  0.00000000000E+00 0. -1.
</event>
<event>
 4    1  0.2216341E+005  0.2045456E+02  0.7546771E-02  0.1527197E+00
          2   -1    0    0  503    0  0.00000000000E+00  0.00000000000E+00  0.14256645417E+03  0.14256645417E+03  0.00000000000E+00 0.  1.
         21   -1    0    0  501  502 -0.00000000000E+00 -0.00000000000E+00 -0.29439302145E+02  0.29439302145E+02  0.00000000000E+00 0. -1.
          2    1    1    2  501    0  0.13730231499E+02 -0.15161457296E+02  0.13816728843E+03  0.13967314931E+03  0.00000000000E+00 0.  1.
         21    1    1    2  503  502 -0.13730231499E+02  0.15161457296E+02 -0.25040136411E+02  0.32332607006E+02  0.00000000000E+00 0. -1.
</event>
<event>
 4    1  0.2216341E+005  0.2656100E+02  0.7546771E-02  0.1452068E+00
          2   -1    0    0  502    0  0.00000000000E+00  0.00000000000E+00  0.23893044379E+03  0.23893044379E+03  0.00000000000E+00 0. -1.
         21   -1    0    0  503  502 -0.00000000000E+00 -0.00000000000E+00 -0.21093386814E+03  0.21093386814E+03  0.00000000000E+00 0. -1.
          2    1    1    2  501    0  0.21643213912E+02  0.15396693533E+02  0.23735057668E+03  0.23883212333E+03  0.00000000000E+00 0. -1.
         21    1    1    2  503  501 -0.21643213912E+02 -0.15396693533E+02 -0.20935400103E+03  0.21103218861E+03  0.00000000000E+00 0. -1.
</event>
<event>
 4    1  0.2216341E+005  0.2361265E+02  0.7546771E-02  0.1484945E+00
          2   -1    0    0  502    0  0.00000000000E+00  0.00000000000E+00  0.11730316437E+04  0.11730316437E+04  0.00000000000E+00 0. -1.
         21   -1    0    0  503  502 -0.00000000000E+00 -0.00000000000E+00 -0.80393290318E+00  0.80393290318E+00  0.00000000000E+00 0. -1.
          2    1    1    2  501    0 -0.18635188994E+02 -0.14501267148E+02  0.96135841023E+03  0.96164835046E+03  0.00000000000E+00 0. -1.
         21    1    1    2  503  501  0.18635188994E+02  0.14501267148E+02  0.21086930052E+03  0.21218722610E+03  0.00000000000E+00 0. -1.
</event>
<event>
 4    1  0.2216341E+005  0.2435879E+02  0.7546771E-02  0.1476106E+00
          2   -1    0    0  503    0  0.00000000000E+00  0.00000000000E+00  0.14279670548E+04  0.14279670548E+04  0.00000000000E+00 0. -1.
         21   -1    0    0  501  502 -0.00000000000E+00 -0.00000000000E+00 -0.49202483800E+01  0.49202483800E+01  0.00000000000E+00 0.  1.
          2    1    1    2  501    0 -0.12315885140E+02 -0.21015942346E+02  0.13970475595E+04  0.13972599022E+04  0.00000000000E+00 0. -1.
         21    1    1    2  503  502  0.12315885140E+02  0.21015942346E+02  0.25999246974E+02  0.35627401010E+02  0.00000000000E+00 0.  1.
</event>
<event>
 4    1  0.2216341E+005  0.2962041E+02  0.7546771E-02  0.1422924E+00
          2   -1    0    0  503    0  0.00000000000E+00  0.00000000000E+00  0.70900213529E+02  0.70900213529E+02  0.00000000000E+00 0.  1.
         21   -1    0    0  501  502 -0.00000000000E+00 -0.00000000000E+00 -0.14998603614E+02  0.14998603614E+02  0.00000000000E+00 0.  1.
          2    1    1    2  501    0  0.29413400947E+02  0.34958026115E+01  0.45914919170E+02  0.54640173807E+02  0.00000000000E+00 0.  1.
         21    1    1    2  503  502 -0.29413400947E+02 -0.34958026115E+01  0.99866907447E+01  0.31258643336E+02  0.00000000000E+00 0.  1.
</event>
<event>
 4    1  0.2216341E+005  0.2337838E+02  0.7546771E-02  0.1487801E+00
          2   -1    0    0  502    0  0.00000000000E+00  0.00000000000E+00  0.51931962453E+03  0.51931962453E+03  0.00000000000E+00 0. -1.
         21   -1    0    0  503  502 -0.00000000000E+00 -0.00000000000E+00 -0.59606804962E+02  0.59606804962E+02  0.00000000000E+00 0. -1.
          2    1    1    2  501    0  0.19556221352E+02  0.12810263760E+02  0.51675282793E+03  0.51728138747E+03  0.00000000000E+00 0. -1.
         21    1    1    2  503  501 -0.19556221352E+02 -0.12810263760E+02 -0.57040008364E+02  0.61645042017E+02  0.00000000000E+00 0. -1.
</event>
<event>
 4    1  0.2216341E+005  0.3379467E+02  0.7546771E-02  0.1389241E+00
          2   -1    0    0  502    0  0.00000000000E+00  0.00000000000E+00  0.69613958101E+03  0.69613958101E+03  0.00000000000E+00 0.  1.
         21   -1    0    0  503  502 -0.00000000000E+00 -0.00000000000E+00 -0.17252227770E+02  0.17252227770E+02  0.00000000000E+00 0.  1.
          2    1    1    2  501    0 -0.25402075365E+02 -0.22289329834E+02  0.67875610217E+03  0.67959688484E+03  0.00000000000E+00 0.  1.
         21    1    1    2  503  501  0.25402075365E+02  0.22289329834E+02  0.13125107555E+00  0.33794923940E+02  0.00000000000E+00 0.  1.
</event>
<event>
 4    1  0.2216341E+005  0.3372321E+02  0.7546771E-02  0.1389769E+00
          2   -1    0    0  503    0  0.00000000000E+00  0.00000000000E+00  0.42860230478E+02  0.42860230478E+02  0.00000000000E+00 0. -1.
         21   -1    0    0  501  502 -0.00000000000E+00 -0.00000000000E+00 -0.28876237358E+02  0.28876237358E+02  0.00000000000E+00 0.  1.
          2    1    1    2  501    0 -0.33592947587E+02 -0.29611902699E+01  0.17207318834E+02  0.37859564139E+02  0.00000000000E+00 0. -1.
         21    1    1    2  503  502  0.33592947587E+02  0.29611902699E+01 -0.32233257143E+01  0.33876903696E+02  0.00000000000E+00 0.  1.
</event>
<event>
 4    1  0.2216341E+005  0.5495686E+02  0.7546771E-02  0.1278002E+00
          2   -1    0    0  502    0  0.00000000000E+00  0.00000000000E+00  0.40087628945E+02  0.40087628945E+02  0.00000000000E+00 0. -1.
         21   -1    0    0  503  502 -0.00000000000E+00 -0.00000000000E+00 -0.21478615978E+03  0.21478615978E+03  0.00000000000E+00 0. -1.
          2    1    1    2  501    0 -0.19991230250E+02  0.51191864965E+02  0.15332470046E+02  0.57055595372E+02  0.00000000000E+00 0. -1.
         21    1    1    2  503  501  0.19991230250E+02 -0.51191864965E+02 -0.19003100089E+03  0.19781819336E+03  0.00000000000E+00 0. -1.
</event>
<event>
 4    1  0.2216341E+005  0.3758087E+02  0.7546771E-02  0.1363276E+00
          2   -1    0    0  503    0  0.00000000000E+00  0.00000000000E+00  0.58897459969E+03  0.58897459969E+03  0.00000000000E+00 0.  1.
         21   -1    0    0  501  502 -0.00000000000E+00 -0.00000000000E+00 -0.59929642468E+01  0.59929642468E+01  0.00000000000E+00 0. -1.
          2    1    1    2  501    0  0.29369816853E+02  0.23446438153E+02  0.52189681966E+03  0.52324813614E+03  0.00000000000E+00 0.  1.
         21    1    1    2  503  502 -0.29369816853E+02 -0.23446438153E+02  0.61084815782E+02  0.71719427795E+02  0.00000000000E+00 0. -1.
</event>
<event>
 4    1  0.2216341E+005  0.2333452E+02  0.7546771E-02  0.1488340E+00
          2   -1    0    0  502    0  0.00000000000E+00  0.00000000000E+00  0.74645682820E+02  0.74645682820E+02  0.00000000000E+00 0.  1.
         21   -1    0    0  503  502 -0.00000000000E+00 -0.00000000000E+00 -0.78486405643E+02  0.78486405643E+02  0.00000000000E+00 0. -1.
          2    1    1    2  501    0 -0.13288322326E+02 -0.19181251834E+02  0.71000941767E+02  0.74737096973E+02  0.00000000000E+00 0.  1.
         21    1    1    2  503  501  0.13288322326E+02  0.19181251834E+02 -0.74841664590E+02  0.78394991490E+02  0.00000000000E+00 0. -1.
</event>
<event>
 4    1  0.2216341E+005  0.2832726E+02  0.7546771E-02  0.1434713E+00
          2   -1    0    0  503    0  0.00000000000E+00  0.00000000000E+00  0.50491466337E+03  0.50491466337E+03  0.00000000000E+00 0.  1.
         21   -1    0    0  501  502 -0.00000000000E+00 -0.00000000000E+00 -0.63512243992E+01  0.63512243992E+01  0.00000000000E+00 0.  1.
          2    1    1    2  501    0  0.19258404209E+02  0.20773721420E+02  0.47063287884E+03  0.47148461298E+03  0.00000000000E+00 0.  1.
         21    1    1    2  503  502 -0.19258404209E+02 -0.20773721420E+02  0.27930560127E+02  0.39781274783E+02  0.00000000000E+00 0.  1.
</event>
<event>
 4    1  0.2216341E+005  0.2180714E+02  0.7546771E-02  0.1508046E+00
          2   -1    0    0  503    0  0.00000000000E+00  0.00000000000E+00  0.18602184733E+02  0.18602184733E+02  0.00000000000E+00 0. -1.
         21   -1    0    0  501  502 -0.00000000000E+00 -0.00000000000E+00 -0.25566306185E+02  0.25566306185E+02  0.00000000000E+00 0. -1.
          2    1    1    2  501    0 -0.20565930154E+02  0.72521575414E+01 -0.32849714692E+01  0.22053170059E+02  0.00000000000E+00 0. -1.
         21    1    1    2  503  502  0.20565930154E+02 -0.72521575414E+01 -0.36791499829E+01  0.22115320859E+02  0.00000000000E+00 0. -1.
</event>
<event>
 4    1  0.2216341E+005  0.3286678E+02  0.7546771E-02  0.1396214E+00
          2   -1    0    0  502    0  0.00000000000E+00  0.00000000000E+00  0.11654905279E+03  0.11654905279E+03  0.00000000000E+00 0. -1.
         21   -1    0    0  503  502 -0.00000000000E+00 -0.00000000000E+00 -0.56637463793E+02  0.56637463793E+02  0.00000000000E+00 0. -1.
          2    1    1    2  501    0  0.31072096170E+02  0.10712151366E+02  0.10914746431E+03  0.11398857097E+03  0.00000000000E+00 0. -1.
         21    1    1    2  503  501 -0.31072096170E+02 -0.10712151366E+02 -0.49235875309E+02  0.59197945613E+02  0.00000000000E+00 0. -1.
</event>
<event>
 4    1  0.2216341E+005  0.4090889E+02  0.7546771E-02  0.1343240E+00
          2   -1    0    0  503    0  0.00000000000E+00  0.00000000000E+00  0.49995473079E+03  0.49995473079E+03  0.00000000000E+00 0.  1.
         21   -1    0    0  501  502 -0.00000000000E+00 -0.00000000000E+00 -0.24676766907E+02  0.24676766907E+02  0.00000000000E+00 0. -1.
          2    1    1    2  501    0  0.26468409294E+02 -0.31192322074E+02  0.48151519288E+03  0.48324985114E+03  0.00000000000E+00 0.  1.
         21    1    1    2  503  502 -0.26468409294E+02  0.31192322074E+02 -0.62372289945E+01  0.41381646565E+02  0.00000000000E+00 0. -1.
</event>
<event>
 4    1  0.2216341E+005  0.2508303E+02  0.7546771E-02  0.1467877E+00
          2   -1    0    0  502    0  0.00000000000E+00  0.00000000000E+00  0.10599005536E+04  0.10599005536E+04  0.00000000000E+00 0. -1.
         21   -1    0    0  503  502 -0.00000000000E+00 -0.00000000000E+00 -0.76049611031E+02  0.76049611031E+02  0.00000000000E+00 0.  1.
          2    1    1    2  501    0  0.23885580245E+02  0.76574962782E+01  0.10576795616E+04  0.10579769436E+04  0.00000000000E+00 0. -1.
         21    1    1    2  503  501 -0.23885580245E+02 -0.76574962782E+01 -0.73828619080E+02  0.77973220968E+02  0.00000000000E+00 0.  1.
</event>
<event>
 4    1  0.2216341E+005  0.2191676E+02  0.7546771E-02  0.1506568E+00
          2   -1    0    0  503    0  0.00000000000E+00  0.00000000000E+00  0.50018505270E+02  0.50018505270E+02  0.00000000000E+00 0. -1.
         21   -1    0    0  501  502 -0.00000000000E+00 -0.00000000000E+00 -0.48065168966E+02  0.48065168966E+02  0.00000000000E+00 0.  1.
          2    1    1    2  501    0 -0.12846665729E+02 -0.17756898338E+02  0.44846554696E+02  0.49915505878E+02  0.00000000000E+00 0. -1.
         21    1    1    2  503  502  0.12846665729E+02  0.17756898338E+02 -0.42893218392E+02  0.48168168358E+02  0.00000000000E+00 0.  1.
</event>
<event>
 4    1  0.2216341E+005  0.2208016E+02  0.7546771E-02  0.1504383E+00
          2   -1    0    0  502    0  0.00000000000E+00  0.00000000000E+00  0.75381596936E+03  0.75381596936E+03  0.00000000000E+00 0.  1.
         21   -1    0    0  503  502 -0.00000000000E+00 -0.00000000000E+00 -0.36152479606E+01  0.36152479606E+01  0.00000000000E+00 0. -1.
          2    1    1    2  501    0 -0.36111205693E+01  0.21782871432E+02  0.71827266170E+03  0.71861196082E+03  0.00000000000E+00 0.  1.
         21    1    1    2  503  501  0.36111205693E+01 -0.21782871432E+02  0.31928059702E+02  0.38819256509E+02  0.00000000000E+00 0. -1.
</event>
<event>
 4    1  0.2216341E+005  0.4601940E+02  0.7546771E-02  0.1316419E+00
          2   -1    0    0  503    0  0.00000000000E+00  0.00000000000E+00  0.15169982690E+04  0.15169982690E+04  0.00000000000E+00 0. -1.
         21   -1    0    0  501  502 -0.00000000000E+00 -0.00000000000E+00 -0.21986857328E+01  0.21986857328E+01  0.00000000000E+00 0.  1.
          2    1    1    2  501    0 -0.41000714106E+02  0.20898006822E+02  0.12163497678E+04  0.12172200059E+04  0.00000000000E+00 0. -1.
         21    1    1    2  503  502  0.41000714106E+02 -0.20898006822E+02  0.29844981544E+03  0.30197694876E+03  0.00000000000E+00 0.  1.
</event>
<event>
 4    1  0.2216341E+005  0.2827999E+02  0.7546771E-02  0.1435157E+00
          2   -1    0    0  503    0  0.00000000000E+00  0.00000000000E+00  0.10387602672E+04  0.10387602672E+04  0.00000000000E+00 0. -1.
         21   -1    0    0  501  502 -0.00000000000E+00 -0.00000000000E+00 -0.83542383572E+01  0.83542383572E+01  0.00000000000E+00 0.  1.
          2    1    1    2  501    0  0.28204608493E+02 -0.20634476850E+01  0.10140520670E+04  0.10144463280E+04  0.00000000000E+00 0. -1.
         21    1    1    2  503  502 -0.28204608493E+02  0.20634476850E+01  0.16353961783E+02  0.32668177521E+02  0.00000000000E+00 0.  1.
</event>
<event>
 4    1  0.2216341E+005  0.4624165E+02  0.7546771E-02  0.1315345E+00
          2   -1    0    0  503    0  0.00000000000E+00  0.00000000000E+00  0.26874215407E+04  0.26874215407E+04  0.00000000000E+00 0. -1.
         21   -1    0    0  501  502 -0.00000000000E+00 -0.00000000000E+00 -0.80056762546E+00  0.80056762546E+00  0.00000000000E+00 0.  1.
          2    1    1    2  501    0 -0.45598176866E+02 -0.76874387410E+01  0.14484819593E+04  0.14492198856E+04  0.00000000000E+00 0. -1.
         21    1    1    2  503  502  0.45598176866E+02  0.76874387410E+01  0.12381390138E+04  0.12390022228E+04  0.00000000000E+00 0.  1.
</event>
<event>
 4    1  0.2216341E+005  0.2661335E+02  0.7546771E-02  0.1451531E+00
          2   -1    0    0  503    0  0.00000000000E+00  0.00000000000E+00  0.63639690702E+03  0.63639690702E+03  0.00000000000E+00 0.  1.
         21   -1    0    0  501  502 -0.00000000000E+00 -0.00000000000E+00 -0.32895583582E+01  0.32895583582E+01  0.00000000000E+00 0.  1.
          2    1    1    2  501    0  0.24565982422E+02 -0.10236341559E+02  0.57672518029E+03  0.57733889854E+03  0.00000000000E+00 0.  1.
         21    1    1    2  503  502 -0.24565982422E+02  0.10236341559E+02  0.56382168365E+02  0.62347566836E+02  0.00000000000E+00 0.  1.
</event>
<event>
 4    1  0.2216341E+005  0.3778333E+02  0.7546771E-02  0.1361989E+00
          2   -1    0    0  502    0  0.00000000000E+00  0.00000000000E+00  0.10457574200E+04  0.10457574200E+04  0.00000000000E+00 0. -1.
         21   -1    0    0  503  502 -0.00000000000E+00 -0.00000000000E+00 -0.56366681413E+01  0.56366681413E+01  0.00000000000E+00 0. -1.
          2    1    1    2  501    0  0.39082357162E+00 -0.37781310705E+02  0.97769319051E+03  0.97842299388E+03  0.00000000000E+00 0. -1.
         21    1    1    2  503  501 -0.39082357162E+00  0.37781310705E+02  0.62427561339E+02  0.72971094252E+02  0.00000000000E+00 0. -1.
</event>
<event>
 4    1  0.2216341E+005  0.2188558E+02  0.7546771E-02  0.1506987E+00
          2   -1    0    0  503    0  0.00000000000E+00  0.00000000000E+00  0.23012369703E+03  0.23012369703E+03  0.00000000000E+00 0.  1.
         21   -1    0    0  501  502 -0.00000000000E+00 -0.00000000000E+00 -0.20209304194E+02  0.20209304194E+02  0.00000000000E+00 0. -1.
          2    1    1    2  501    0 -0.17325006905E+02 -0.13372456850E+02  0.22350302608E+03  0.22457199543E+03  0.00000000000E+00 0.  1.
         21    1    1    2  503  502  0.17325006905E+02  0.13372456850E+02 -0.13588633235E+02  0.25761005797E+02  0.00000000000E+00 0. -1.
</event>
<event>
 4    1  0.2216341E+005  0.2699528E+02  0.7546771E-02  0.1447656E+00
          2   -1    0    0  503    0  0.00000000000E+00  0.00000000000E+00  0.30053556060E+04  0.30053556060E+04  0.00000000000E+00 0.  1.
         21   -1    0    0  501  502 -0.00000000000E+00 -0.00000000000E+00 -0.24976278770E+00  0.24976278770E+00  0.00000000000E+00 0.  1.
          2    1    1    2  501    0  0.25984075366E+02  0.73193409987E+01  0.17591338837E+04  0.17593410032E+04  0.00000000000E+00 0.  1.
         21    1    1    2  503  502 -0.25984075366E+02 -0.73193409987E+01  0.12459719596E+04  0.12462643656E+04  0.00000000000E+00 0.  1.
</event>
<event>
 4    1  0.2216341E+005  0.2193192E+02  0.7546771E-02  0.1506364E+00
          2   -1    0    0  503    0  0.00000000000E+00  0.00000000000E+00  0.11779965681E+04  0.11779965681E+04  0.00000000000E+00 0. -1.
         21   -1    0    0  501  502 -0.00000000000E+00 -0.00000000000E+00 -0.53521975551E+01  0.53521975551E+01  0.00000000000E+00 0. -1.
          2    1    1    2  501    0  0.15283604437E+02  0.15729611744E+02  0.11549789246E+04  0.11551871388E+04  0.00000000000E+00 0. -1.
         21    1    1    2  503  502 -0.15283604437E+02 -0.15729611744E+02  0.17665445962E+02  0.28161626928E+02  0.00000000000E+00 0. -1.
</event>
<event>
 4    1  0.2216341E+005  0.2088936E+02  0.7546771E-02  0.1520850E+00
          2   -1    0    0  503    0  0.00000000000E+00  0.00000000000E+00  0.84390546206E+01  0.84390546206E+01  0.00000000000E+00 0. -1.
         21   -1    0    0  501  502 -0.00000000000E+00 -0.00000000000E+00 -0.56465687144E+02  0.56465687144E+02  0.00000000000E+00 0.  1.
          2    1    1    2  501    0 -0.16015463098E+02  0.13411579988E+02 -0.33433470482E+02  0.39422867532E+02  0.00000000000E+00 0. -1.
         21    1    1    2  503  502  0.16015463098E+02 -0.13411579988E+02 -0.14593162042E+02  0.25481874232E+02  0.00000000000E+00 0.  1.
</event>
<event>
 4    1  0.2216341E+005  0.4368545E+02  0.7546771E-02  0.1328145E+00
          2   -1    0    0  503    0  0.00000000000E+00  0.00000000000E+00  0.15435260389E+03  0.15435260389E+03  0.00000000000E+00 0. -1.
         21   -1    0    0  501  502 -0.00000000000E+00 -0.00000000000E+00 -0.20187549231E+02  0.20187549231E+02  0.00000000000E+00 0. -1.
          2    1    1    2  501    0  0.24093118424E+02  0.36440913080E+02  0.12141068086E+03  0.12903089525E+03  0.00000000000E+00 0. -1.
         21    1    1    2  503  502 -0.24093118424E+02 -0.36440913080E+02  0.12754373803E+02  0.45509257878E+02  0.00000000000E+00 0. -1.
</event>
<event>
 4    1  0.2216341E+005  0.2009009E+02  0.7546771E-02  0.1532663E+00
          2   -1    0    0  503    0  0.00000000000E+00  0.00000000000E+00  0.51490997512E+02  0.51490997512E+02  0.00000000000E+00 0. -1.
         21   -1    0    0  501  502 -0.00000000000E+00 -0.00000000000E+00 -0.14572672997E+02  0.14572672997E+02  0.00000000000E+00 0. -1.
          2    1    1    2  501    0  0.12270825902E+02 -0.15907186792E+02  0.40913771099E+02  0.45580131916E+02  0.00000000000E+00 0. -1.
         21    1    1    2  503  502 -0.12270825902E+02  0.15907186792E+02 -0.39954465834E+01  0.20483538594E+02  0.00000000000E+00 0. -1.
</event>
<event>
 4    1  0.2216341E+005  0.2384175E+02  0.7546771E-02  0.1482190E+00
          2   -1    0    0  503    0  0.00000000000E+00  0.00000000000E+00  0.61232777940E+03  0.61232777940E+03  0.00000000000E+00 0.  1.
         21   -1    0    0  501  502 -0.00000000000E+00 -0.00000000000E+00 -0.13808999750E+01  0.13808999750E+01  0.00000000000E+00 0. -1.
          2    1    1    2  501    0  0.23765742429E+02  0.19022506309E+01  0.48114617063E+03  0.48173651157E+03  0.00000000000E+00 0.  1.
         21    1    1    2  503  502 -0.23765742429E+02 -0.19022506309E+01  0.12980070880E+03  0.13197216780E+03  0.00000000000E+00 0. -1.
</event>
<event>
 4    1  0.2216341E+005  0.2682400E+02  0.7546771E-02  0.1449384E+00
          2   -1    0    0  503    0  0.00000000000E+00  0.00000000000E+00  0.27401765076E+01  0.27401765076E+01  0.00000000000E+00 0. -1.
         21   -1    0    0  501  502 -0.00000000000E+00 -0.00000000000E+00 -0.30296872079E+03  0.30296872079E+03  0.00000000000E+00 0.  1.
          2    1    1    2  501    0 -0.24692023088E+02  0.10480017659E+02 -0.94307461132E+02  0.98048069840E+02  0.00000000000E+00 0. -1.
         21    1    1    2  503  502  0.24692023088E+02 -0.10480017659E+02 -0.20592108315E+03  0.20766082746E+03  0.00000000000E+00 0.  1.
</event>
<event>
 4    1  0.2216341E+005  0.2478459E+02  0.7546771E-02  0.1471228E+00
          2   -1    0    0  503    0  0.00000000000E+00  0.00000000000E+00  0.11533296523E+03  0.11533296523E+03  0.00000000000E+00 0.  1.
         21   -1    0    0  501  502 -0.00000000000E+00 -0.00000000000E+00 -0.60439319438E+01  0.60439319438E+01  0.00000000000E+00 0. -1.
          2    1    1    2  501    0 -0.24575150215E+02 -0.32152550670E+01  0.75559383604E+02  0.79520414510E+02  0.00000000000E+00 0.  1.
         21    1    1    2  503  502  0.24575150215E+02  0.32152550670E+01  0.33729649680E+02  0.41856482662E+02  0.00000000000E+00 0. -1.
</event>
<event>
 4    1  0.2216341E+005  0.3635438E+02  0.7546771E-02  0.1371284E+00
          2   -1    0    0  502    0  0.00000000000E+00  0.00000000000E+00  0.51420898898E+02  0.51420898898E+02  0.00000000000E+00 0.  1.
         21   -1    0    0  503  502 -0.00000000000E+00 -0.00000000000E+00 -0.59936145219E+02  0.59936145219E+02  0.00000000000E+00 0.  1.
          2    1    1    2  501    0  0.16865184160E+02 -0.32205686560E+02  0.37821868110E+02  0.52460789080E+02  0.00000000000E+00 0.  1.
         21    1    1    2  503  501 -0.16865184160E+02  0.32205686560E+02 -0.46337114431E+02  0.58896255037E+02  0.00000000000E+00 0.  1.
</event>
<event>
 4    1  0.2216341E+005  0.2797775E+02  0.7546771E-02  0.1438026E+00
          2   -1    0    0  502    0  0.00000000000E+00  0.00000000000E+00  0.22265886482E+04  0.22265886482E+04  0.00000000000E+00 0. -1.
         21   -1    0    0  503  502 -0.00000000000E+00 -0.00000000000E+00 -0.91248777654E+00  0.91248777654E+00  0.00000000000E+00 0.  1.
          2    1    1    2  501    0  0.12050464856E+01  0.27951786233E+02  0.19860752894E+04  0.19862723403E+04  0.00000000000E+00 0. -1.
         21    1    1    2  503  501 -0.12050464856E+01 -0.27951786233E+02  0.23960087097E+03  0.24122879567E+03  0.00000000000E+00 0.  1.
</event>
<event>
 4    1  0.2216341E+005  0.2220124E+02  0.7546771E-02  0.1502779E+00
          2   -1    0    0  503    0  0.00000000000E+00  0.00000000000E+00  0.53158655197E+03  0.53158655197E+03  0.00000000000E+00 0. -1.
         21   -1    0    0  501  502 -0.00000000000E+00 -0.00000000000E+00 -0.41398285329E+01  0.41398285329E+01  0.00000000000E+00 0.  1.
          2    1    1    2  501    0  0.78209187863E+01 -0.20778067585E+02  0.49969028125E+03  0.50018323846E+03  0.00000000000E+00 0. -1.
         21    1    1    2  503  502 -0.78209187863E+01  0.20778067585E+02  0.27756442188E+02  0.35543142042E+02  0.00000000000E+00 0.  1.
</event>
<event>
 4    1  0.2216341E+005  0.2994720E+02  0.7546771E-02  0.1420056E+00
          2   -1    0    0  503    0  0.00000000000E+00  0.00000000000E+00  0.26929004880E+03  0.26929004880E+03  0.00000000000E+00 0.  1.
         21   -1    0    0  501  502 -0.00000000000E+00 -0.00000000000E+00 -0.39607741674E+01  0.39607741674E+01  0.00000000000E+00 0. -1.
          2    1    1    2  501    0 -0.15706291888E+02  0.25497984389E+02  0.18717158454E+03  0.18955220091E+03  0.00000000000E+00 0.  1.
         21    1    1    2  503  502  0.15706291888E+02 -0.25497984389E+02  0.78157690095E+02  0.83698622054E+02  0.00000000000E+00 0. -1.
</event>
<event>
 4    1  0.2216341E+005  0.2371795E+02  0.7546771E-02  0.1483674E+00
          2   -1    0    0  503    0  0.00000000000E+00  0.00000000000E+00  0.25812851372E+02  0.25812851372E+02  0.00000000000E+00 0.  1.
         21   -1    0    0  501  502 -0.00000000000E+00 -0.00000000000E+00 -0.24828963141E+02  0.24828963141E+02  0.00000000000E+00 0. -1.
          2    1    1    2  501    0  0.20151641476E+02 -0.12508093060E+02  0.93460324458E+01  0.25492927817E+02  0.00000000000E+00 0.  1.
         21    1    1    2  503  502 -0.20151641476E+02  0.12508093060E+02 -0.83621442143E+01  0.25148886696E+02  0.00000000000E+00 0. -1.
</event>
<event>
 4    1  0.2216341E+005  0.2214957E+02  0.7546771E-02  0.1503462E+00
          2   -1    0    0  503    0  0.00000000000E+00  0.00000000000E+00  0.13572280479E+04  0.13572280479E+04  0.00000000000E+00 0. -1.
         21   -1    0    0  501  502 -0.00000000000E+00 -0.00000000000E+00 -0.36884563358E+00  0.36884563358E+00  0.00000000000E+00 0. -1.
          2    1    1    2  501    0  0.13813712578E+02 -0.17314289114E+02  0.77438891141E+03  0.77470561465E+03  0.00000000000E+00 0. -1.
         21    1    1    2  503  502 -0.13813712578E+02  0.17314289114E+02  0.58247029088E+03  0.58289127890E+03  0.00000000000E+00 0. -1.
</event>
<event>
 4    1  0.2216341E+005  0.2466565E+02  0.7546771E-02  0.1472579E+00
          2   -1    0    0  503    0  0.00000000000E+00  0.00000000000E+00  0.92297603479E+03  0.92297603479E+03  0.00000000000E+00 0.  1.
         21   -1    0    0  501  502 -0.00000000000E+00 -0.00000000000E+00 -0.35082863231E+01  0.35082863231E+01  0.00000000000E+00 0. -1.
          2    1    1    2  501    0  0.96973030470E+01 -0.22679433266E+02  0.87719492509E+03  0.87754164060E+03  0.00000000000E+00 0.  1.
         21    1    1    2  503  502 -0.96973030470E+01  0.22679433266E+02  0.42272823370E+02  0.48942680508E+02  0.00000000000E+00 0. -1.
</event>
<event>
 4    1  0.2216341E+005  0.2497498E+02  0.7546771E-02  0.1469083E+00
          2   -1    0    0  502    0  0.00000000000E+00  0.00000000000E+00  0.18397333385E+03  0.18397333385E+03  0.00000000000E+00 0.  1.
         21   -1    0    0  503  502 -0.00000000000E+00 -0.00000000000E+00 -0.12461683237E+02  0.12461683237E+02  0.00000000000E+00 0. -1.
          2    1    1    2  501    0 -0.21432207910E+02 -0.12822253933E+02  0.16955390607E+03  0.17138342042E+03  0.00000000000E+00 0.  1.
         21    1    1    2  503  501  0.21432207910E+02  0.12822253933E+02  0.19577445437E+01  0.25051596666E+02  0.00000000000E+00 0. -1.
</event>
<event>
 4    1  0.2216341E+005  0.3405758E+02  0.7546771E-02  0.1387312E+00
          2   -1    0    0  503    0  0.00000000000E+00  0.00000000000E+00  0.53317183223E+03  0.53317183223E+03  0.00000000000E+00 0.  1.
         21   -1    0    0  501  502 -0.00000000000E+00 -0.00000000000E+00 -0.13894725538E+02  0.13894725538E+02  0.00000000000E+00 0. -1.
          2    1    1    2  501    0  0.33144871410E+02 -0.78317560980E+01  0.51084716124E+03  0.51198119209E+03  0.00000000000E+00 0.  1.
         21    1    1    2  503  502 -0.33144871410E+02  0.78317560980E+01  0.84299454479E+01  0.35085365676E+02  0.00000000000E+00 0. -1.
</event>
<event>
 4    1  0.2216341E+005  0.2390208E+02  0.7546771E-02  0.1481471E+00
          2   -1    0    0  503    0  0.00000000000E+00  0.00000000000E+00  0.20718497464E+03  0.20718497464E+03  0.00000000000E+00 0.  1.
         21   -1    0    0  501  502 -0.00000000000E+00 -0.00000000000E+00 -0.37374847126E+01  0.37374847126E+01  0.00000000000E+00 0.  1.
          2    1    1    2  501    0 -0.11021838579E+02 -0.21209162387E+02  0.15572651722E+03  0.15755017506E+03  0.00000000000E+00 0.  1.
         21    1    1    2  503  502  0.11021838579E+02  0.21209162387E+02  0.47720972707E+02  0.53372284296E+02  0.00000000000E+00 0.  1.
</event>
<event>
 4    1  0.2216341E+005  0.2176396E+02  0.7546771E-02  0.1508631E+00
          2   -1    0    0  502    0  0.00000000000E+00  0.00000000000E+00  0.72068273234E+02  0.72068273234E+02  0.00000000000E+00 0. -1.
         21   -1    0    0  503  502 -0.00000000000E+00 -0.00000000000E+00 -0.12193255948E+02  0.12193255948E+02  0.00000000000E+00 0.  1.
          2    1    1    2  501    0  0.16296766090E+02 -0.14425159072E+02  0.58542135357E+02  0.62456796359E+02  0.00000000000E+00 0. -1.
         21    1    1    2  503  501 -0.16296766090E+02  0.14425159072E+02  0.13328819288E+01  0.21804732823E+02  0.00000000000E+00 0.  1.
</event>
<event>
 4    1  0.2216341E+005  0.2534050E+02  0.7546771E-02  0.1465030E+00
          2   -1    0    0  502    0  0.00000000000E+00  0.00000000000E+00  0.90893957952E+02  0.90893957952E+02  0.00000000000E+00 0. -1.
         21   -1    0    0  503  502 -0.00000000000E+00 -0.00000000000E+00 -0.85804003767E+02  0.85804003767E+02  0.00000000000E+00 0.  1.
          2    1    1    2  501    0 -0.25297274282E+02  0.14795032504E+01  0.87178706318E+02  0.90786936567E+02  0.00000000000E+00 0. -1.
         21    1    1    2  503  501  0.25297274282E+02 -0.14795032504E+01 -0.82088752133E+02  0.85911025152E+02  0.00000000000E+00 0.  1.
</event>
<event>
 4    1  0.2216341E+005  0.2109392E+02  0.7546771E-02  0.1517928E+00
          2   -1    0    0  503    0  0.00000000000E+00  0.00000000000E+00  0.16641845494E+02  0.16641845494E+02  0.00000000000E+00 0.  1.
         21   -1    0    0  501  502 -0.00000000000E+00 -0.00000000000E+00 -0.42535081660E+02  0.42535081660E+02  0.00000000000E+00 0.  1.
          2    1    1    2  501    0  0.20518558468E+01 -0.20993890546E+02  0.50856567795E+01  0.21698328451E+02  0.00000000000E+00 0.  1.
         21    1    1    2  503  502 -0.20518558468E+01  0.20993890546E+02 -0.30978892945E+02  0.37478598703E+02  0.00000000000E+00 0.  1.
</event>
<event>
 4    1  0.2216341E+005  0.2012434E+02  0.7546771E-02  0.1532143E+00
          2   -1    0    0  503    0  0.00000000000E+00  0.00000000000E+00  0.25812515905E+01  0.25812515905E+01  0.00000000000E+00 0. -1.
         21   -1    0    0  501  502 -0.00000000000E+00 -0.00000000000E+00 -0.23916817223E+03  0.23916817223E+03  0.00000000000E+00 0.  1.
          2    1    1    2  501    0 -0.17176904064E+01 -0.20050902468E+02 -0.47399519821E+02  0.51494695158E+02  0.00000000000E+00 0. -1.
         21    1    1    2  503  502  0.17176904064E+01  0.20050902468E+02 -0.18918740081E+03  0.19025472866E+03  0.00000000000E+00 0.  1.
</event>
<event>
 4    1  0.2216341E+005  0.2371302E+02  0.7546771E-02  0.1483734E+00
          2   -1    0    0  502    0  0.00000000000E+00  0.00000000000E+00  0.87012047884E+02  0.87012047884E+02  0.00000000000E+00 0. -1.
         21   -1    0    0  503  502 -0.00000000000E+00 -0.00000000000E+00 -0.98451074275E+02  0.98451074275E+02  0.00000000000E+00 0.  1.
          2    1    1    2  501    0  0.12293987732E+02  0.20277208716E+02  0.83916906836E+02  0.87202950527E+02  0.00000000000E+00 0. -1.
         21    1    1    2  503  501 -0.12293987732E+02 -0.20277208716E+02 -0.95355933227E+02  0.98260171633E+02  0.00000000000E+00 0.  1.
</event>
<event>
 4    1  0.2216341E+005  0.2040150E+02  0.7546771E-02  0.1527984E+00
          2   -1    0    0  503    0  0.00000000000E+00  0.00000000000E+00  0.36114679577E+02  0.36114679577E+02  0.00000000000E+00 0. -1.
         21   -1    0    0  501  502 -0.00000000000E+00 -0.00000000000E+00 -0.70222716704E+02  0.70222716704E+02  0.00000000000E+00 0. -1.
          2    1    1    2  501    0 -0.51490467995E+01  0.19741031551E+02  0.31556234932E+02  0.37576814297E+02  0.00000000000E+00 0. -1.
         21    1    1    2  503  502  0.51490467995E+01 -0.19741031551E+02 -0.65664272059E+02  0.68760581983E+02  0.00000000000E+00 0. -1.
</event>
<event>
 4    1  0.2216341E+005  0.2136562E+02  0.7546771E-02  0.1514108E+00
          2   -1    0    0  503    0  0.00000000000E+00  0.00000000000E+00  0.35090686979E+02  0.35090686979E+02  0.00000000000E+00 0.  1.
         21   -1    0    0  501  502 -0.00000000000E+00 -0.00000000000E+00 -0.23105881791E+02  0.23105881791E+02  0.00000000000E+00 0.  1.
          2    1    1    2  501    0 -0.13515842215E+02  0.16547255077E+02  0.25227875831E+02  0.33059572899E+02  0.00000000000E+00 0.  1.
         21    1    1    2  503  502  0.13515842215E+02 -0.16547255077E+02 -0.13243070643E+02  0.25136995871E+02  0.00000000000E+00 0.  1.
</event>
<event>
 4    1  0.2216341E+005  0.2771612E+02  0.7546771E-02  0.1440544E+00
          2   -1    0    0  502    0  0.00000000000E+00  0.00000000000E+00  0.20043421918E+02  0.20043421918E+02  0.00000000000E+00 0. -1.
         21   -1    0    0  503  502 -0.00000000000E+00 -0.00000000000E+00 -0.43373634225E+02  0.43373634225E+02  0.00000000000E+00 0. -1.
          2    1    1    2  501    0  0.31175491364E+01  0.27540227853E+02 -0.84804958684E+00  0.27729090337E+02  0.00000000000E+00 0. -1.
         21    1    1    2  503  501 -0.31175491364E+01 -0.27540227853E+02 -0.22482162720E+02  0.35687965806E+02  0.00000000000E+00 0. -1.
</event>
<event>
 4    1  0.2216341E+005  0.2129125E+02  0.7546771E-02  0.1515147E+00
          2   -1    0    0  503    0  0.00000000000E+00  0.00000000000E+00  0.23960342640E+02  0.23960342640E+02  0.00000000000E+00 0. -1.
         21   -1    0    0  501  502 -0.00000000000E+00 -0.00000000000E+00 -0.58487736519E+02  0.58487736519E+02  0.00000000000E+00 0. -1.
          2    1    1    2  501    0  0.13041361086E+02  0.16829748528E+02  0.16643471617E+02  0.27024483010E+02  0.00000000000E+00 0. -1.
         21    1    1    2  503  502 -0.13041361086E+02 -0.16829748528E+02 -0.51170865496E+02  0.55423596149E+02  0.00000000000E+00 0. -1.
</event>
<event>
 4    1  0.2216341E+005  0.5727635E+02  0.7546771E-02  0.1269378E+00
          2   -1    0    0  503    0  0.00000000000E+00  0.00000000000E+00  0.14486227187E+03  0.14486227187E+03  0.00000000000E+00 0.  1.
         21   -1    0    0  501  502 -0.00000000000E+00 -0.00000000000E+00 -0.61217102839E+02  0.61217102839E+02  0.00000000000E+00 0.  1.
          2    1    1    2  501    0 -0.45370460676E+02  0.34958571457E+02  0.12361217456E+03  0.13623710992E+03  0.00000000000E+00 0.  1.
         21    1    1    2  503  502  0.45370460676E+02 -0.34958571457E+02 -0.39967005527E+02  0.69842264790E+02  0.00000000000E+00 0.  1.
</event>
<event>
 4    1  0.2216341E+005  0.2421370E+02  0.7546771E-02  0.1477795E+00
          2   -1    0    0  503    0  0.00000000000E+00  0.00000000000E+00  0.45999659295E+03  0.45999659295E+03  0.00000000000E+00 0.  1.
         21   -1    0    0  501  502 -0.00000000000E+00 -0.00000000000E+00 -0.31582663829E+02  0.31582663829E+02  0.00000000000E+00 0.  1.
          2    1    1    2  501    0  0.19497505859E+02 -0.14357947469E+02  0.45498584986E+03  0.45562970377E+03  0.00000000000E+00 0.  1.
         21    1    1    2  503  502 -0.19497505859E+02  0.14357947469E+02 -0.26571920732E+02  0.35949553010E+02  0.00000000000E+00 0.  1.
</event>
<event>
 4    1  0.2216341E+005  0.2890474E+02  0.7546771E-02  0.1429359E+00
          2   -1    0    0  503    0  0.00000000000E+00  0.00000000000E+00  0.51779121598E+01  0.51779121598E+01  0.00000000000E+00 0. -1.
         21   -1    0    0  501  502 -0.00000000000E+00 -0.00000000000E+00 -0.23804268903E+03  0.23804268903E+03  0.00000000000E+00 0. -1.
          2    1    1    2  501    0 -0.28624698608E+02  0.40138104007E+01 -0.47407668283E+02  0.55524508609E+02  0.00000000000E+00 0. -1.
         21    1    1    2  503  502  0.28624698608E+02 -0.40138104007E+01 -0.18545710859E+03  0.18769609258E+03  0.00000000000E+00 0. -1.
</event>
<event>
 4    1  0.2216341E+005  0.2069088E+02  0.7546771E-02  0.1523724E+00
          2   -1    0    0  503    0  0.00000000000E+00  0.00000000000E+00  0.40562654665E+03  0.40562654665E+03  0.00000000000E+00 0. -1.
         21   -1    0    0  501  502 -0.00000000000E+00 -0.00000000000E+00 -0.10564007406E+01  0.10564007406E+01  0.00000000000E+00 0. -1.
          2    1    1    2  501    0  0.12032130238E+02  0.16832711290E+02  0.19613596466E+03  0.19722431128E+03  0.00000000000E+00 0. -1.
         21    1    1    2  503  502 -0.12032130238E+02 -0.16832711290E+02  0.20843418125E+03  0.20945863611E+03  0.00000000000E+00 0. -1.
</event>
<event>
 4    1  0.2216341E+005  0.6277551E+02  0.7546771E-02  0.1250683E+00
          2   -1    0    0  503    0  0.00000000000E+00  0.00000000000E+00  0.10818406585E+03  0.10818406585E+03  0.00000000000E+00 0.  1.
         21   -1    0    0  501  502 -0.00000000000E+00 -0.00000000000E+00 -0.39182545934E+02  0.39182545934E+02  0.00000000000E+00 0. -1.
          2    1    1    2  501    0 -0.40867092979E+02 -0.47651286619E+02  0.54042705620E+02  0.82833437909E+02  0.00000000000E+00 0.  1.
         21    1    1    2  503  502  0.40867092979E+02  0.47651286619E+02  0.14958814293E+02  0.64533173872E+02  0.00000000000E+00 0. -1.
</event>
<event>
 4    1  0.2216341E+005  0.2841920E+02  0.7546771E-02  0.1433850E+00
          2   -1    0    0  502    0  0.00000000000E+00  0.00000000000E+00  0.12770534933E+04  0.12770534933E+04  0.00000000000E+00 0.  1.
         21   -1    0    0  503  502 -0.00000000000E+00 -0.00000000000E+00 -0.20931524978E+01  0.20931524978E+01  0.00000000000E+00 0.  1.
          2    1    1    2  501    0  0.26986469498E+02  0.89096300662E+01  0.11717655462E+04  0.11721101255E+04  0.00000000000E+00 0.  1.
         21    1    1    2  503  501 -0.26986469498E+02 -0.89096300662E+01  0.10319479459E+03  0.10703652029E+03  0.00000000000E+00 0.  1.
</event>
<event>
 4    1  0.2216341E+005  0.3047828E+02  0.7546771E-02  0.1415485E+00
          2   -1    0    0  503    0  0.00000000000E+00  0.00000000000E+00  0.11757624497E+03  0.11757624497E+03  0.00000000000E+00 0.  1.
         21   -1    0    0  501  502 -0.00000000000E+00 -0.00000000000E+00 -0.16545632088E+03  0.16545632088E+03  0.00000000000E+00 0. -1.
          2    1    1    2  501    0 -0.17376617170E+02  0.25039541412E+02  0.11415618158E+03  0.11815481053E+03  0.00000000000E+00 0.  1.
         21    1    1    2  503  502  0.17376617170E+02 -0.25039541412E+02 -0.16203625749E+03  0.16487775532E+03  0.00000000000E+00 0. -1.
</event>
<event>
 4    1  0.2216341E+005  0.3177867E+02  0.7546771E-02  0.1404745E+00
          2   -1    0    0  502    0  0.00000000000E+00  0.00000000000E+00  0.62551367261E+03  0.62551367261E+03  0.00000000000E+00 0. -1.
         21   -1    0    0  503  502 -0.00000000000E+00 -0.00000000000E+00 -0.42583311321E+01  0.42583311321E+01  0.00000000000E+00 0. -1.
          2    1    1    2  501    0 -0.18894901448E+02  0.25551249235E+02  0.55874184247E+03  0.55964482502E+03  0.00000000000E+00 0. -1.
         21    1    1    2  503  501  0.18894901448E+02 -0.25551249235E+02  0.62513499010E+02  0.70127178730E+02  0.00000000000E+00 0. -1.
</event>
<event>
 4    1  0.2216341E+005  0.2623716E+02  0.7546771E-02  0.1455425E+00
          2   -1    0    0  503    0  0.00000000000E+00  0.00000000000E+00  0.13982348825E+02  0.13982348825E+02  0.00000000000E+00 0.  1.
         21   -1    0    0  501  502 -0.00000000000E+00 -0.00000000000E+00 -0.86630108194E+03  0.86630108194E+03  0.00000000000E+00 0.  1.
          2    1    1    2  501    0  0.25517964866E+02 -0.61009658880E+01  0.12925953229E+01  0.26268976347E+02  0.00000000000E+00 0.  1.
         21    1    1    2  503  502 -0.25517964866E+02  0.61009658880E+01 -0.85361132844E+03  0.85401445441E+03  0.00000000000E+00 0.  1.
</event>
<event>
 4    1  0.2216341E+005  0.2144863E+02  0.7546771E-02  0.1512955E+00
          2   -1    0    0  502    0  0.00000000000E+00  0.00000000000E+00  0.13199762466E+03  0.13199762466E+03  0.00000000000E+00 0. -1.
         21   -1    0    0  503  502 -0.00000000000E+00 -0.00000000000E+00 -0.25589433865E+02  0.25589433865E+02  0.00000000000E+00 0. -1.
          2    1    1    2  501    0  0.21358552406E+02 -0.19636558318E+01  0.12643552839E+03  0.12824190635E+03  0.00000000000E+00 0. -1.
         21    1    1    2  503  501 -0.21358552406E+02  0.19636558318E+01 -0.20027337593E+02  0.29345152176E+02  0.00000000000E+00 0. -1.
</event>
<event>
 4    1  0.2216341E+005  0.3549840E+02  0.7546771E-02  0.1377093E+00
          2   -1    0    0  503    0  0.00000000000E+00  0.00000000000E+00  0.24138390915E+04  0.24138390915E+04  0.00000000000E+00 0.  1.
         21   -1    0    0  501  502 -0.00000000000E+00 -0.00000000000E+00 -0.85996397632E+00  0.85996397632E+00  0.00000000000E+00 0.  1.
          2    1    1    2  501    0 -0.22094318621E+02  0.27784480926E+02  0.19633193241E+04  0.19636402177E+04  0.00000000000E+00 0.  1.
         21    1    1    2  503  502  0.22094318621E+02 -0.27784480926E+02  0.44965980346E+03  0.45105883779E+03  0.00000000000E+00 0.  1.
</event>
<event>
 4    1  0.2216341E+005  0.2513016E+02  0.7546771E-02  0.1467352E+00
          2   -1    0    0  502    0  0.00000000000E+00  0.00000000000E+00  0.63553131120E+02  0.63553131120E+02  0.00000000000E+00 0. -1.
         21   -1    0    0  503  502 -0.00000000000E+00 -0.00000000000E+00 -0.10172284747E+03  0.10172284747E+03  0.00000000000E+00 0. -1.
          2    1    1    2  501    0  0.15899616989E+02  0.19460913767E+02  0.59413114510E+02  0.64509248645E+02  0.00000000000E+00 0. -1.
         21    1    1    2  503  501 -0.15899616989E+02 -0.19460913767E+02 -0.97582830857E+02  0.10076672994E+03  0.00000000000E+00 0. -1.
</event>
<event>
 4    1  0.2216341E+005  0.2449878E+02  0.7546771E-02  0.1474489E+00
          2   -1    0    0  503    0  0.00000000000E+00  0.00000000000E+00  0.23006462424E+01  0.23006462424E+01  0.00000000000E+00 0. -1.
         21   -1    0    0  501  502 -0.00000000000E+00 -0.00000000000E+00 -0.30421768701E+03  0.30421768701E+03  0.00000000000E+00 0. -1.
          2    1    1    2  501    0  0.23158645561E+02 -0.79917126426E+01 -0.93112696834E+02  0.96281694246E+02  0.00000000000E+00 0. -1.
         21    1    1    2  503  502 -0.23158645561E+02  0.79917126426E+01 -0.20880434394E+03  0.21023663901E+03  0.00000000000E+00 0. -1.
</event>
<event>
 4    1  0.2216341E+005  0.2632420E+02  0.7546771E-02  0.1454517E+00
          2   -1    0    0  502    0  0.00000000000E+00  0.00000000000E+00  0.16377656990E+03  0.16377656990E+03  0.00000000000E+00 0. -1.
         21   -1    0    0  503  502 -0.00000000000E+00 -0.00000000000E+00 -0.20836315359E+03  0.20836315359E+03  0.00000000000E+00 0.  1.
          2    1    1    2  501    0  0.25132433805E+02 -0.78309953515E+01  0.16187765462E+03  0.16400408161E+03  0.00000000000E+00 0. -1.
         21    1    1    2  503  501 -0.25132433805E+02  0.78309953515E+01 -0.20646423832E+03  0.20813564188E+03  0.00000000000E+00 0.  1.
</event>
<event>
 4    1  0.2216341E+005  0.2477127E+02  0.7546771E-02  0.1471378E+00
          2   -1    0    0  502    0  0.00000000000E+00  0.00000000000E+00  0.87397378653E+03  0.87397378653E+03  0.00000000000E+00 0.  1.
         21   -1    0    0  503  502 -0.00000000000E+00 -0.00000000000E+00 -0.34745222078E+01  0.34745222078E+01  0.00000000000E+00 0. -1.
          2    1    1    2  501    0  0.28268887598E+01  0.24609444448E+02  0.82714828295E+03  0.82751912246E+03  0.00000000000E+00 0.  1.
         21    1    1    2  503  501 -0.28268887598E+01 -0.24609444448E+02  0.43350981374E+02  0.49929186276E+02  0.00000000000E+00 0. -1.
</event>
<event>
 4    1  0.2216341E+005  0.2119612E+02  0.7546771E-02  0.1516483E+00
          2   -1    0    0  502    0  0.00000000000E+00  0.00000000000E+00  0.16806496230E+04  0.16806496230E+04  0.00000000000E+00 0.  1.
         21   -1    0    0  503  502 -0.00000000000E+00 -0.00000000000E+00 -0.35448767150E+00  0.35448767150E+00  0.00000000000E+00 0.  1.
          2    1    1    2  501    0 -0.45623423718E+01 -0.20699284749E+02  0.12569304342E+04  0.12571091407E+04  0.00000000000E+00 0.  1.
         21    1    1    2  503  501  0.45623423718E+01  0.20699284749E+02  0.42336470115E+03  0.42389496993E+03  0.00000000000E+00 0.  1.
</event>
<event>
 4    1  0.2216341E+005  0.2004211E+02  0.7546771E-02  0.1533393E+00
          2   -1    0    0  503    0  0.00000000000E+00  0.00000000000E+00  0.37586660613E+03  0.37586660613E+03  0.00000000000E+00 0.  1.
         21   -1    0    0  501  502 -0.00000000000E+00 -0.00000000000E+00 -0.12596099590E+01  0.12596099590E+01  0.00000000000E+00 0.  1.
          2    1    1    2  501    0 -0.13100182904E+02  0.15168105269E+02  0.26071436252E+03  0.26148358463E+03  0.00000000000E+00 0.  1.
         21    1    1    2  503  502  0.13100182904E+02 -0.15168105269E+02  0.11389263365E+03  0.11564263145E+03  0.00000000000E+00 0.  1.
</event>
<event>
 4    1  0.2216341E+005  0.5966006E+02  0.7546771E-02  0.1260992E+00
          2   -1    0    0  503    0  0.00000000000E+00  0.00000000000E+00  0.15690435150E+04  0.15690435150E+04  0.00000000000E+00 0. -1.
         21   -1    0    0  501  502 -0.00000000000E+00 -0.00000000000E+00 -0.38103143715E+01  0.38103143715E+01  0.00000000000E+00 0. -1.
          2    1    1    2  501    0 -0.58484304339E+02  0.11785948937E+02  0.12828800173E+04  0.12842665070E+04  0.00000000000E+00 0. -1.
         21    1    1    2  503  502  0.58484304339E+02 -0.11785948937E+02  0.28235318338E+03  0.28858732234E+03  0.00000000000E+00 0. -1.
</event>
<event>
 4    1  0.2216341E+005  0.5598704E+02  0.7546771E-02  0.1274113E+00
          2   -1    0    0  502    0  0.00000000000E+00  0.00000000000E+00  0.18953270864E+04  0.18953270864E+04  0.00000000000E+00 0.  1.
         21   -1    0    0  503  502 -0.00000000000E+00 -0.00000000000E+00 -0.24967014818E+01  0.24967014818E+01  0.00000000000E+00 0.  1.
          2    1    1    2  501    0 -0.55930990668E+02  0.25045229457E+01  0.14977600407E+04  0.14988060875E+04  0.00000000000E+00 0.  1.
         21    1    1    2  503  501  0.55930990668E+02 -0.25045229457E+01  0.39507034420E+03  0.39901770038E+03  0.00000000000E+00 0.  1.
</event>
<event>
 4    1  0.2216341E+005  0.2073367E+02  0.7546771E-02  0.1523102E+00
          2   -1    0    0  502    0  0.00000000000E+00  0.00000000000E+00  0.50037406191E+03  0.50037406191E+03  0.00000000000E+00 0. -1.
         21   -1    0    0  503  502 -0.00000000000E+00 -0.00000000000E+00 -0.37127543230E+02  0.37127543230E+02  0.00000000000E+00 0.  1.
          2    1    1    2  501    0 -0.20104586488E+02  0.50686103106E+01  0.49724642923E+03  0.49767850726E+03  0.00000000000E+00 0. -1.
         21    1    1    2  503  501  0.20104586488E+02 -0.50686103106E+01 -0.33999910542E+02  0.39823097886E+02  0.00000000000E+00 0.  1.
</event>
<event>
 4    1  0.2216341E+005  0.2068874E+02  0.7546771E-02  0.1523756E+00
          2   -1    0    0  503    0  0.00000000000E+00  0.00000000000E+00  0.31973909937E+03  0.31973909937E+03  0.00000000000E+00 0. -1.
         21   -1    0    0  501  502 -0.00000000000E+00 -0.00000000000E+00 -0.40972359700E+03  0.40972359700E+03  0.00000000000E+00 0. -1.
          2    1    1    2  501    0 -0.13324568487E+02 -0.15826558917E+02  0.31914277884E+03  0.31981265981E+03  0.00000000000E+00 0. -1.
         21    1    1    2  503  502  0.13324568487E+02  0.15826558917E+02 -0.40912727648E+03  0.40965003656E+03  0.00000000000E+00 0. -1.
</event>
<event>
 4    1  0.2216341E+005  0.2002994E+02  0.7546771E-02  0.1533578E+00
          2   -1    0    0  503    0  0.00000000000E+00  0.00000000000E+00  0.30820998839E+01  0.30820998839E+01  0.00000000000E+00 0.  1.
         21   -1    0    0  501  502 -0.00000000000E+00 -0.00000000000E+00 -0.34673810054E+03  0.34673810054E+03  0.00000000000E+00 0.  1.
          2    1    1    2  501    0  0.15749264985E+02 -0.12375751095E+02 -0.33595290366E+02  0.39113195951E+02  0.00000000000E+00 0.  1.
         21    1    1    2  503  502 -0.15749264985E+02  0.12375751095E+02 -0.31006071029E+03  0.31070700447E+03  0.00000000000E+00 0.  1.
</event>
<event>
 4    1  0.2216341E+005  0.2132441E+02  0.7546771E-02  0.1514683E+00
          2   -1    0    0  503    0  0.00000000000E+00  0.00000000000E+00  0.27212364367E+03  0.27212364367E+03  0.00000000000E+00 0. -1.
         21   -1    0    0  501  502 -0.00000000000E+00 -0.00000000000E+00 -0.16755756415E+01  0.16755756415E+01  0.00000000000E+00 0. -1.
          2    1    1    2  501    0 -0.14109867997E+02 -0.15988811819E+02  0.12810425973E+03  0.12986697748E+03  0.00000000000E+00 0. -1.
         21    1    1    2  503  502  0.14109867997E+02  0.15988811819E+02  0.14234380829E+03  0.14393224183E+03  0.00000000000E+00 0. -1.
</event>
<event>
 4    1  0.2216341E+005  0.2618636E+02  0.7546771E-02  0.1455957E+00
          2   -1    0    0  502    0  0.00000000000E+00  0.00000000000E+00  0.64562273663E+03  0.64562273663E+03  0.00000000000E+00 0.  1.
         21   -1    0    0  503  502 -0.00000000000E+00 -0.00000000000E+00 -0.19409462219E+03  0.19409462219E+03  0.00000000000E+00 0. -1.
          2    1    1    2  501    0  0.23670617254E+02 -0.11199439678E+02  0.64447239584E+03  0.64500418182E+03  0.00000000000E+00 0.  1.
         21    1    1    2  503  501 -0.23670617254E+02  0.11199439678E+02 -0.19294428140E+03  0.19471317699E+03  0.00000000000E+00 0. -1.
</event>
<event>
 4    1  0.2216341E+005  0.2504137E+02  0.7546771E-02  0.1468341E+00
          2   -1    0    0  502    0  0.00000000000E+00  0.00000000000E+00  0.14708214546E+01  0.14708214546E+01  0.00000000000E+00 0.  1.
         21   -1    0    0  503  502 -0.00000000000E+00 -0.00000000000E+00 -0.43142938988E+03  0.43142938988E+03  0.00000000000E+00 0. -1.
          2    1    1    2  501    0  0.17927564444E+01  0.24977117184E+02 -0.19147072837E+03  0.19310129513E+03  0.00000000000E+00 0.  1.
         21    1    1    2  503  501 -0.17927564444E+01 -0.24977117184E+02 -0.23848784005E+03  0.23979891620E+03  0.00000000000E+00 0. -1.
</event>
<event>
 4    1  0.2216341E+005  0.2354999E+02  0.7546771E-02  0.1485705E+00
          2   -1    0    0  502    0  0.00000000000E+00  0.00000000000E+00  0.54086172752E+03  0.54086172752E+03  0.00000000000E+00 0.  1.
         21   -1    0    0  503  502 -0.00000000000E+00 -0.00000000000E+00 -0.14322861429E+03  0.14322861429E+03  0.00000000000E+00 0. -1.
          2    1    1    2  501    0  0.23012482255E+02  0.50027701794E+01  0.53963514071E+03  0.54014876389E+03  0.00000000000E+00 0.  1.
         21    1    1    2  503  501 -0.23012482255E+02 -0.50027701794E+01 -0.14200202747E+03  0.14394157792E+03  0.00000000000E+00 0. -1.
</event>
<event>
 4    1  0.2216341E+005  0.3961222E+02  0.7546771E-02  0.1350773E+00
          2   -1    0    0  503    0  0.00000000000E+00  0.00000000000E+00  0.14462295664E+03  0.14462295664E+03  0.00000000000E+00 0. -1.
         21   -1    0    0  501  502 -0.00000000000E+00 -0.00000000000E+00 -0.48939752736E+02  0.48939752736E+02  0.00000000000E+00 0.  1.
          2    1    1    2  501    0  0.35406505610E+02  0.17762533131E+02  0.13322355888E+03  0.13898793063E+03  0.00000000000E+00 0. -1.
         21    1    1    2  503  502 -0.35406505610E+02 -0.17762533131E+02 -0.37540354975E+02  0.54574778738E+02  0.00000000000E+00 0.  1.
</event>
<event>
 4    1  0.2216341E+005  0.2040068E+02  0.7546771E-02  0.1527996E+00
          2   -1    0    0  502    0  0.00000000000E+00  0.00000000000E+00  0.22985423778E+01  0.22985423778E+01  0.00000000000E+00 0.  1.
         21   -1    0    0  503  502 -0.00000000000E+00 -0.00000000000E+00 -0.95174507338E+03  0.95174507338E+03  0.00000000000E+00 0.  1.
          2    1    1    2  501    0 -0.17798530217E+02 -0.99699642639E+01 -0.45468920698E+02  0.49835836651E+02  0.00000000000E+00 0.  1.
         21    1    1    2  503  501  0.17798530217E+02  0.99699642639E+01 -0.90397761030E+03  0.90420777911E+03  0.00000000000E+00 0.  1.
</event>
<event>
 4    1  0.2216341E+005  0.3195816E+02  0.7546771E-02  0.1403310E+00
          2   -1    0    0  503    0  0.00000000000E+00  0.00000000000E+00  0.82309900544E+01  0.82309900544E+01  0.00000000000E+00 0. -1.
         21   -1    0    0  501  502 -0.00000000000E+00 -0.00000000000E+00 -0.25432955926E+03  0.25432955926E+03  0.00000000000E+00 0.  1.
          2    1    1    2  501    0 -0.12619696041E+02  0.29360983534E+02 -0.29101928392E+02  0.43223215040E+02  0.00000000000E+00 0. -1.
         21    1    1    2  503  502  0.12619696041E+02 -0.29360983534E+02 -0.21699664082E+03  0.21933733428E+03  0.00000000000E+00 0.  1.
</event>
<event>
 4    1  0.2216341E+005  0.2168401E+02  0.7546771E-02  0.1509719E+00
          2   -1    0    0  502    0  0.00000000000E+00  0.00000000000E+00  0.54927950918E+03  0.54927950918E+03  0.00000000000E+00 0. -1.
         21   -1    0    0  503  502 -0.00000000000E+00 -0.00000000000E+00 -0.16420601129E+02  0.16420601129E+02  0.00000000000E+00 0.  1.
          2    1    1    2  501    0 -0.16393059785E+02 -0.14193795513E+02  0.54180819496E+03  0.54224193527E+03  0.00000000000E+00 0. -1.
         21    1    1    2  503  501  0.16393059785E+02  0.14193795513E+02 -0.89492869058E+01  0.23458175043E+02  0.00000000000E+00 0.  1.
</event>
<event>
 4    1  0.2216341E+005  0.2737194E+02  0.7546771E-02  0.1443907E+00
          2   -1    0    0  502    0  0.00000000000E+00  0.00000000000E+00  0.13288334081E+04  0.13288334081E+04  0.00000000000E+00 0.  1.
         21   -1    0    0  503  502 -0.00000000000E+00 -0.00000000000E+00 -0.55599760398E+02  0.55599760398E+02  0.00000000000E+00 0. -1.
          2    1    1    2  501    0  0.41569783904E+01  0.27054433511E+02  0.13253146875E+04  0.13255973158E+04  0.00000000000E+00 0.  1.
         21    1    1    2  503  501 -0.41569783904E+01 -0.27054433511E+02 -0.52081039845E+02  0.58835852618E+02  0.00000000000E+00 0. -1.
</event>
<event>
 4    1  0.2216341E+005  0.2409078E+02  0.7546771E-02  0.1479237E+00
          2   -1    0    0  502    0  0.00000000000E+00  0.00000000000E+00  0.27354213171E+03  0.27354213171E+03  0.00000000000E+00 0.  1.
         21   -1    0    0  503  502 -0.00000000000E+00 -0.00000000000E+00 -0.14902859386E+02  0.14902859386E+02  0.00000000000E+00 0. -1.
          2    1    1    2  501    0 -0.15726141750E+02  0.18249766089E+02  0.26288193299E+03  0.26398347712E+03  0.00000000000E+00 0.  1.
         21    1    1    2  503  501  0.15726141750E+02 -0.18249766089E+02 -0.42426606673E+01  0.24461513980E+02  0.00000000000E+00 0. -1.
</event>
<event>
 4    1  0.2216341E+005  0.2345764E+02  0.7546771E-02  0.1486830E+00
          2   -1    0    0  502    0  0.00000000000E+00  0.00000000000E+00  0.18767603794E+03  0.18767603794E+03  0.00000000000E+00 0. -1.
         21   -1    0    0  503  502 -0.00000000000E+00 -0.00000000000E+00 -0.41767868646E+01  0.41767868646E+01  0.00000000000E+00 0. -1.
          2    1    1    2  501    0  0.21461493232E+02  0.94691809066E+01  0.14411801900E+03  0.14601460365E+03  0.00000000000E+00 0. -1.
         21    1    1    2  503  501 -0.21461493232E+02 -0.94691809066E+01  0.39381232077E+02  0.45838221155E+02  0.00000000000E+00 0. -1.
</event>
<event>
 4    1  0.2216341E+005  0.2401073E+02  0.7546771E-02  0.1480182E+00
          2   -1    0    0  502    0  0.00000000000E+00  0.00000000000E+00  0.51396644333E+03  0.51396644333E+03  0.00000000000E+00 0. -1.
         21   -1    0    0  503  502 -0.00000000000E+00 -0.00000000000E+00 -0.32594711285E+01  0.32594711285E+01  0.00000000000E+00 0.  1.
          2    1    1    2  501    0 -0.23382845911E+02  0.54550524545E+01  0.46479247290E+03  0.46541224516E+03  0.00000000000E+00 0. -1.
         21    1    1    2  503  501  0.23382845911E+02 -0.54550524545E+01  0.45914499307E+02  0.51813669304E+02  0.00000000000E+00 0.  1.
</event>
<event>
 4    1  0.2216341E+005  0.3552973E+02  0.7546771E-02  0.1376877E+00
          2   -1    0    0  503    0  0.00000000000E+00  0.00000000000E+00  0.17704155520E+02  0.17704155520E+02  0.00000000000E+00 0. -1.
         21   -1    0    0  501  502 -0.00000000000E+00 -0.00000000000E+00 -0.78039292093E+02  0.78039292093E+02  0.00000000000E+00 0. -1.
          2    1    1    2  501    0 -0.84695036299E+01 -0.34505499754E+02 -0.16102944507E+02  0.39008548125E+02  0.00000000000E+00 0. -1.
         21    1    1    2  503  502  0.84695036299E+01  0.34505499754E+02 -0.44232192065E+02  0.56734899488E+02  0.00000000000E+00 0. -1.
</event>
<event>
 4    1  0.2216341E+005  0.2478121E+02  0.7546771E-02  0.1471266E+00
          2   -1    0    0  503    0  0.00000000000E+00  0.00000000000E+00  0.46518507956E+03  0.46518507956E+03  0.00000000000E+00 0. -1.
         21   -1    0    0  501  502 -0.00000000000E+00 -0.00000000000E+00 -0.13487917608E+01  0.13487917608E+01  0.00000000000E+00 0. -1.
          2    1    1    2  501    0 -0.21314122722E+02 -0.12641853397E+02  0.26591784221E+03  0.26707004155E+03  0.00000000000E+00 0. -1.
         21    1    1    2  503  502  0.21314122722E+02  0.12641853397E+02  0.19791844558E+03  0.19946382977E+03  0.00000000000E+00 0. -1.
</event>
<event>
 4    1  0.2216341E+005  0.2015047E+02  0.7546771E-02  0.1531748E+00
          2   -1    0    0  503    0  0.00000000000E+00  0.00000000000E+00  0.35763735775E+03  0.35763735775E+03  0.00000000000E+00 0. -1.
         21   -1    0    0  501  502 -0.00000000000E+00 -0.00000000000E+00 -0.55063349193E+01  0.55063349193E+01  0.00000000000E+00 0. -1.
          2    1    1    2  501    0  0.20032078591E+02  0.21810836194E+01  0.33783893190E+03  0.33843933755E+03  0.00000000000E+00 0. -1.
         21    1    1    2  503  502 -0.20032078591E+02 -0.21810836194E+01  0.14292090933E+02  0.24704355115E+02  0.00000000000E+00 0. -1.
</event>
<event>
 4    1  0.2216341E+005  0.2372091E+02  0.7546771E-02  0.1483639E+00
          2   -1    0    0  502    0  0.00000000000E+00  0.00000000000E+00  0.16078889493E+04  0.16078889493E+04  0.00000000000E+00 0.  1.
         21   -1    0    0  503  502 -0.00000000000E+00 -0.00000000000E+00 -0.88214189256E+00  0.88214189256E+00  0.00000000000E+00 0. -1.
          2    1    1    2  501    0 -0.23278260271E+02  0.45611609769E+01  0.14282860311E+04  0.14284829954E+04  0.00000000000E+00 0.  1.
         21    1    1    2  503  501  0.23278260271E+02 -0.45611609769E+01  0.17872077635E+03  0.18028809581E+03  0.00000000000E+00 0. -1.
</event>
<event>
 4    1  0.2216341E+005  0.2394810E+02  0.7546771E-02  0.1480924E+00
          2   -1    0    0  502    0  0.00000000000E+00  0.00000000000E+00  0.29002969647E+03  0.29002969647E+03  0.00000000000E+00 0. -1.
         21   -1    0    0  503  502 -0.00000000000E+00 -0.00000000000E+00 -0.33696045426E+01  0.33696045426E+01  0.00000000000E+00 0.  1.
          2    1    1    2  501    0  0.21060552791E+02  0.11400192349E+02  0.23762481773E+03  0.23882852692E+03  0.00000000000E+00 0. -1.
         21    1    1    2  503  501 -0.21060552791E+02 -0.11400192349E+02  0.49035274194E+02  0.54570774089E+02  0.00000000000E+00 0.  1.
</event>
<event>
 4    1  0.2216341E+005  0.3152864E+02  0.7546771E-02  0.1406762E+00
          2   -1    0    0  503    0  0.00000000000E+00  0.00000000000E+00  0.24830767800E+02  0.24830767800E+02  0.00000000000E+00 0. -1.
         21   -1    0    0  501  502 -0.00000000000E+00 -0.00000000000E+00 -0.10652300879E+03  0.10652300879E+03  0.00000000000E+00 0. -1.
          2    1    1    2  501    0  0.20350380400E+02 -0.24081465503E+02  0.11042056760E+02  0.33406316479E+02  0.00000000000E+00 0. -1.
         21    1    1    2  503  502 -0.20350380400E+02  0.24081465503E+02 -0.92734297745E+02  0.97947460108E+02  0.00000000000E+00 0. -1.
</event>
<event>
 4    1  0.2216341E+005  0.2804667E+02  0.7546771E-02  0.1437368E+00
          2   -1    0    0  503    0  0.00000000000E+00  0.00000000000E+00  0.28706034081E+03  0.28706034081E+03  0.00000000000E+00 0. -1.
         21   -1    0    0  501  502 -0.00000000000E+00 -0.00000000000E+00 -0.14108254622E+02  0.14108254622E+02  0.00000000000E+00 0.  1.
          2    1    1    2  501    0 -0.14269347473E+02 -0.24145427937E+02  0.27164757613E+03  0.27309159926E+03  0.00000000000E+00 0. -1.
         21    1    1    2  503  502  0.14269347473E+02  0.24145427937E+02  0.13045100564E+01  0.28076996172E+02  0.00000000000E+00 0.  1.
</event>
<event>
 4    1  0.2216341E+005  0.2460221E+02  0.7546771E-02  0.1473303E+00
          2   -1    0    0  503    0  0.00000000000E+00  0.00000000000E+00  0.14694022637E+02  0.14694022637E+02  0.00000000000E+00 0. -1.
         21   -1    0    0  501  502 -0.00000000000E+00 -0.00000000000E+00 -0.10461798245E+03  0.10461798245E+03  0.00000000000E+00 0. -1.
          2    1    1    2  501    0  0.49930640291E+01  0.24090210291E+02  0.14880792559E+01  0.24647176311E+02  0.00000000000E+00 0. -1.
         21    1    1    2  503  502 -0.49930640291E+01 -0.24090210291E+02 -0.91412039070E+02  0.94664828776E+02  0.00000000000E+00 0. -1.
</event>
<event>
 4    1  0.2216341E+005  0.6803066E+02  0.7546771E-02  0.1234745E+00
          2   -1    0    0  503    0  0.00000000000E+00  0.00000000000E+00  0.64463452115E+03  0.64463452115E+03  0.00000000000E+00 0. -1.
         21   -1    0    0  501  502 -0.00000000000E+00 -0.00000000000E+00 -0.74474930819E+01  0.74474930819E+01  0.00000000000E+00 0. -1.
          2    1    1    2  501    0 -0.66945973863E+02 -0.12099869169E+02  0.25674803412E+03  0.26560821387E+03  0.00000000000E+00 0. -1.
         21    1    1    2  503  502  0.66945973863E+02  0.12099869169E+02  0.38043899395E+03  0.38647380036E+03  0.00000000000E+00 0. -1.
</event>
<event>
 4    1  0.2216341E+005  0.2483580E+02  0.7546771E-02  0.1470649E+00
          2   -1    0    0  502    0  0.00000000000E+00  0.00000000000E+00  0.76117047952E+03  0.76117047952E+03  0.00000000000E+00 0. -1.
         21   -1    0    0  503  502 -0.00000000000E+00 -0.00000000000E+00 -0.13315448592E+01  0.13315448592E+01  0.00000000000E+00 0. -1.
          2    1    1    2  501    0 -0.52651445092E+01  0.24271279700E+02  0.61844338022E+03  0.61894186423E+03  0.00000000000E+00 0. -1.
         21    1    1    2  503  501  0.52651445092E+01 -0.24271279700E+02  0.14139555445E+03  0.14356016015E+03  0.00000000000E+00 0. -1.
</event>
<event>
 4    1  0.2216341E+005  0.2208451E+02  0.7546771E-02  0.1504325E+00
          2   -1    0    0  502    0  0.00000000000E+00  0.00000000000E+00  0.72968097110E+03  0.72968097110E+03  0.00000000000E+00 0. -1.
         21   -1    0    0  503  502 -0.00000000000E+00 -0.00000000000E+00 -0.38892257673E+01  0.38892257673E+01  0.00000000000E+00 0. -1.
          2    1    1    2  501    0  0.36780142353E+01 -0.21776081277E+02  0.69667801575E+03  0.69702796439E+03  0.00000000000E+00 0. -1.
         21    1    1    2  503  501 -0.36780142353E+01  0.21776081277E+02  0.29113729576E+02  0.36542232476E+02  0.00000000000E+00 0. -1.
</event>
<event>
 4    1  0.2216341E+005  0.2489391E+02  0.7546771E-02  0.1469994E+00
          2   -1    0    0  503    0  0.00000000000E+00  0.00000000000E+00  0.17207746595E+04  0.17207746595E+04  0.00000000000E+00 0. -1.
         21   -1    0    0  501  502 -0.00000000000E+00 -0.00000000000E+00 -0.66575265996E+01  0.66575265996E+01  0.00000000000E+00 0.  1.
          2    1    1    2  501    0  0.19886563037E+02 -0.14974360525E+02  0.16970889474E+04  0.16972715169E+04  0.00000000000E+00 0. -1.
         21    1    1    2  503  502 -0.19886563037E+02  0.14974360525E+02  0.17028185517E+02  0.30160669166E+02  0.00000000000E+00 0.  1.
</event>
<event>
 4    1  0.2216341E+005  0.4408281E+02  0.7546771E-02  0.1326090E+00
          2   -1    0    0  502    0  0.00000000000E+00  0.00000000000E+00  0.89802699739E+03  0.89802699739E+03  0.00000000000E+00 0. -1.
         21   -1    0    0  503  502 -0.00000000000E+00 -0.00000000000E+00 -0.17839397777E+02  0.17839397777E+02  0.00000000000E+00 0.  1.
          2    1    1    2  501    0  0.36300160315E+02 -0.25011847958E+02  0.86935523982E+03  0.87047218633E+03  0.00000000000E+00 0. -1.
         21    1    1    2  503  501 -0.36300160315E+02  0.25011847958E+02  0.10832359796E+02  0.45394208837E+02  0.00000000000E+00 0.  1.
</event>
<event>
 4    1  0.2216341E+005  0.4109378E+02  0.7546771E-02  0.1342193E+00
          2   -1    0    0  502    0  0.00000000000E+00  0.00000000000E+00  0.34826492746E+04  0.34826492746E+04  0.00000000000E+00 0. -1.
         21   -1    0    0  503  502 -0.00000000000E+00 -0.00000000000E+00 -0.62999592988E+00  0.62999592988E+00  0.00000000000E+00 0. -1.
          2    1    1    2  501    0  0.40036311657E+02  0.92624045392E+01  0.25768695124E+04  0.25771971563E+04  0.00000000000E+00 0. -1.
         21    1    1    2  503  501 -0.40036311657E+02 -0.92624045392E+01  0.90514976626E+03  0.90608211425E+03  0.00000000000E+00 0. -1.
</event>
<event>
 4    1  0.2216341E+005  0.2320031E+02  0.7546771E-02  0.1489998E+00
          2   -1    0    0  503    0  0.00000000000E+00  0.00000000000E+00  0.46970565190E+03  0.46970565190E+03  0.00000000000E+00 0.  1.
         21   -1    0    0  501  502 -0.00000000000E+00 -0.00000000000E+00 -0.33859687365E+01  0.33859687365E+01  0.00000000000E+00 0.  1.
          2    1    1    2  501    0 -0.41027067186E+01  0.22834669793E+02  0.42555786840E+03  0.42618980948E+03  0.00000000000E+00 0.  1.
         21    1    1    2  503  502  0.41027067186E+01 -0.22834669793E+02  0.40761814761E+02  0.46901811155E+02  0.00000000000E+00 0.  1.
</event>
<event>
 4    1  0.2216341E+005  0.4622815E+02  0.7546771E-02  0.1315410E+00
          2   -1    0    0  503    0  0.00000000000E+00  0.00000000000E+00  0.12176182031E+03  0.12176182031E+03  0.00000000000E+00 0. -1.
         21   -1    0    0  501  502 -0.00000000000E+00 -0.00000000000E+00 -0.54070373191E+02  0.54070373191E+02  0.00000000000E+00 0. -1.
          2    1    1    2  501    0  0.28401546941E+01  0.46140821222E+02  0.10609780532E+03  0.11573152619E+03  0.00000000000E+00 0. -1.
         21    1    1    2  503  502 -0.28401546941E+01 -0.46140821222E+02 -0.38406358194E+02  0.60100667313E+02  0.00000000000E+00 0. -1.
</event>
<event>
 4    1  0.2216341E+005  0.2036329E+02  0.7546771E-02  0.1528553E+00
          2   -1    0    0  502    0  0.00000000000E+00  0.00000000000E+00  0.99570514312E+03  0.99570514312E+03  0.00000000000E+00 0.  1.
         21   -1    0    0  503  502 -0.00000000000E+00 -0.00000000000E+00 -0.19304236833E+03  0.19304236833E+03  0.00000000000E+00 0. -1.
          2    1    1    2  501    0  0.74260219041E+01  0.18960953572E+02  0.99506367285E+03  0.99527201136E+03  0.00000000000E+00 0.  1.
         21    1    1    2  503  501 -0.74260219041E+01 -0.18960953572E+02 -0.19240089806E+03  0.19347550010E+03  0.00000000000E+00 0. -1.
</event>
<event>
 4    1  0.2216341E+005  0.2008696E+02  0.7546771E-02  0.1532711E+00
          2   -1    0    0  503    0  0.00000000000E+00  0.00000000000E+00  0.47084602229E+02  0.47084602229E+02  0.00000000000E+00 0. -1.
         21   -1    0    0  501  502 -0.00000000000E+00 -0.00000000000E+00 -0.92263620875E+01  0.92263620875E+01  0.00000000000E+00 0.  1.
          2    1    1    2  501    0  0.88286613468E+01 -0.18042743528E+02  0.26442311252E+02  0.33206651134E+02  0.00000000000E+00 0. -1.
         21    1    1    2  503  502 -0.88286613468E+01  0.18042743528E+02  0.11415928889E+02  0.23104313182E+02  0.00000000000E+00 0.  1.
</event>
<event>
 4    1  0.2216341E+005  0.2753493E+02  0.7546771E-02  0.1442307E+00
          2   -1    0    0  502    0  0.00000000000E+00  0.00000000000E+00  0.93573300435E+03  0.93573300435E+03  0.00000000000E+00 0.  1.
         21   -1    0    0  503  502 -0.00000000000E+00 -0.00000000000E+00 -0.23687020401E+01  0.23687020401E+01  0.00000000000E+00 0. -1.
          2    1    1    2  501    0  0.44416805975E+01  0.27174324580E+02  0.84714496187E+03  0.84759233058E+03  0.00000000000E+00 0.  1.
         21    1    1    2  503  501 -0.44416805975E+01 -0.27174324580E+02  0.86219340438E+02  0.90509375805E+02  0.00000000000E+00 0. -1.
</event>
<event>
 4    1  0.2216341E+005  0.2306867E+02  0.7546771E-02  0.1491638E+00
          2   -1    0    0  503    0  0.00000000000E+00  0.00000000000E+00  0.17160010137E+04  0.17160010137E+04  0.00000000000E+00 0. -1.
         21   -1    0    0  501  502 -0.00000000000E+00 -0.00000000000E+00 -0.10760746870E+01  0.10760746870E+01  0.00000000000E+00 0. -1.
          2    1    1    2  501    0  0.23044595701E+02  0.10536035665E+01  0.15817993284E+04  0.15819675340E+04  0.00000000000E+00 0. -1.
         21    1    1    2  503  502 -0.23044595701E+02 -0.10536035665E+01  0.13312561069E+03  0.13510955441E+03  0.00000000000E+00 0. -1.
</event>
<event>
 4    1  0.2216341E+005  0.4609596E+02  0.7546771E-02  0.1316048E+00
          2   -1    0    0  503    0  0.00000000000E+00  0.00000000000E+00  0.14500923066E+04  0.14500923066E+04  0.00000000000E+00 0.  1.
         21   -1    0    0  501  502 -0.00000000000E+00 -0.00000000000E+00 -0.82593326323E+01  0.82593326323E+01  0.00000000000E+00 0.  1.
          2    1    1    2  501    0  0.20312558030E+01 -0.46051188468E+02  0.13822540703E+04  0.13830224701E+04  0.00000000000E+00 0.  1.
         21    1    1    2  503  502 -0.20312558030E+01  0.46051188468E+02  0.59578903687E+02  0.75329169145E+02  0.00000000000E+00 0.  1.
</event>
<event>
 4    1  0.2216341E+005  0.2904240E+02  0.7546771E-02  0.1428104E+00
          2   -1    0    0  502    0  0.00000000000E+00  0.00000000000E+00  0.26564341907E+03  0.26564341907E+03  0.00000000000E+00 0. -1.
         21   -1    0    0  503  502 -0.00000000000E+00 -0.00000000000E+00 -0.41896319560E+02  0.41896319560E+02  0.00000000000E+00 0.  1.
          2    1    1    2  501    0  0.26692535447E+02  0.11444194783E+02  0.25970181187E+03  0.26132066916E+03  0.00000000000E+00 0. -1.
         21    1    1    2  503  501 -0.26692535447E+02 -0.11444194783E+02 -0.35954712353E+02  0.46219069476E+02  0.00000000000E+00 0.  1.
</event>
<event>
 4    1  0.2216341E+005  0.2920984E+02  0.7546771E-02  0.1426589E+00
          2   -1    0    0  503    0  0.00000000000E+00  0.00000000000E+00  0.83175573295E+03  0.83175573295E+03  0.00000000000E+00 0.  1.
         21   -1    0    0  501  502 -0.00000000000E+00 -0.00000000000E+00 -0.11378766774E+01  0.11378766774E+01  0.00000000000E+00 0.  1.
          2    1    1    2  501    0  0.16763665107E+00  0.29209359529E+02  0.28461057054E+03  0.28610556032E+03  0.00000000000E+00 0.  1.
         21    1    1    2  503  502 -0.16763665107E+00 -0.29209359529E+02  0.54600728573E+03  0.54678804930E+03  0.00000000000E+00 0.  1.
</event>
<event>
 4    1  0.2216341E+005  0.2850003E+02  0.7546771E-02  0.1433095E+00
          2   -1    0    0  502    0  0.00000000000E+00  0.00000000000E+00  0.40339854367E+01  0.40339854367E+01  0.00000000000E+00 0. -1.
         21   -1    0    0  503  502 -0.00000000000E+00 -0.00000000000E+00 -0.25929158005E+03  0.25929158005E+03  0.00000000000E+00 0. -1.
          2    1    1    2  501    0  0.28329211431E+02 -0.31156739505E+01 -0.65390754261E+02  0.71331636651E+02  0.00000000000E+00 0. -1.
         21    1    1    2  503  501 -0.28329211431E+02  0.31156739505E+01 -0.18986684035E+03  0.19199392883E+03  0.00000000000E+00 0. -1.
</event>
<event>
 4    1  0.2216341E+005  0.3247757E+02  0.7546771E-02  0.1399220E+00
          2   -1    0    0  503    0  0.00000000000E+00  0.00000000000E+00  0.31141347240E+04  0.31141347240E+04  0.00000000000E+00 0.  1.
         21   -1    0    0  501  502 -0.00000000000E+00 -0.00000000000E+00 -0.41962433035E+00  0.41962433035E+00  0.00000000000E+00 0.  1.
          2    1    1    2  501    0  0.25701837689E+02  0.19854676952E+02  0.22406822583E+04  0.22409176191E+04  0.00000000000E+00 0.  1.
         21    1    1    2  503  502 -0.25701837689E+02 -0.19854676952E+02  0.87303284127E+03  0.87363672919E+03  0.00000000000E+00 0.  1.
</event>
<event>
 4    1  0.2216341E+005  0.2520160E+02  0.7546771E-02  0.1466561E+00
          2   -1    0    0  502    0  0.00000000000E+00  0.00000000000E+00  0.61735727250E+03  0.61735727250E+03  0.00000000000E+00 0.  1.
         21   -1    0    0  503  502 -0.00000000000E+00 -0.00000000000E+00 -0.33431661950E+01  0.33431661950E+01  0.00000000000E+00 0.  1.
          2    1    1    2  501    0 -0.21933727638E+02 -0.12410976460E+02  0.56522808186E+03  0.56578962987E+03  0.00000000000E+00 0.  1.
         21    1    1    2  503  501  0.21933727638E+02  0.12410976460E+02  0.48786024451E+02  0.54910808832E+02  0.00000000000E+00 0.  1.
</event>
<event>
 4    1  0.2216341E+005  0.2882127E+02  0.7546771E-02  0.1430124E+00
          2   -1    0    0  502    0  0.00000000000E+00  0.00000000000E+00  0.11750996438E+03  0.11750996438E+03  0.00000000000E+00 0.  1.
         21   -1    0    0  503  502 -0.00000000000E+00 -0.00000000000E+00 -0.87349374817E+02  0.87349374817E+02  0.00000000000E+00 0.  1.
          2    1    1    2  501    0 -0.47495338473E+00 -0.28817355592E+02  0.11327788990E+03  0.11688689363E+03  0.00000000000E+00 0.  1.
         21    1    1    2  503  501  0.47495338473E+00  0.28817355592E+02 -0.83117300332E+02  0.87972445564E+02  0.00000000000E+00 0.  1.
</event>
<event>
 4    1  0.2216341E+005  0.3813357E+02  0.7546771E-02  0.1359784E+00
          2   -1    0    0  503    0  0.00000000000E+00  0.00000000000E+00  0.16158058619E+02  0.16158058619E+02  0.00000000000E+00 0. -1.
         21   -1    0    0  501  502 -0.00000000000E+00 -0.00000000000E+00 -0.10427554496E+03  0.10427554496E+03  0.00000000000E+00 0. -1.
          2    1    1    2  501    0  0.26450682690E+02 -0.27468720588E+02 -0.21775645762E+02  0.43912959065E+02  0.00000000000E+00 0. -1.
         21    1    1    2  503  502 -0.26450682690E+02  0.27468720588E+02 -0.66341840573E+02  0.76520644509E+02  0.00000000000E+00 0. -1.
</event>
<event>
 4    1  0.2216341E+005  0.2162111E+02  0.7546771E-02  0.1510579E+00
          2   -1    0    0  502    0  0.00000000000E+00  0.00000000000E+00  0.34504709693E+03  0.34504709693E+03  0.00000000000E+00 0. -1.
         21   -1    0    0  503  502 -0.00000000000E+00 -0.00000000000E+00 -0.43099153360E+01  0.43099153360E+01  0.00000000000E+00 0.  1.
          2    1    1    2  501    0  0.16946068688E+02  0.13427706883E+02  0.31500969615E+03  0.31575082142E+03  0.00000000000E+00 0. -1.
         21    1    1    2  503  501 -0.16946068688E+02 -0.13427706883E+02  0.25727485439E+02  0.33606190846E+02  0.00000000000E+00 0.  1.
</event>
<event>
 4    1  0.2216341E+005  0.2529334E+02  0.7546771E-02  0.1465548E+00
          2   -1    0    0  503    0  0.00000000000E+00  0.00000000000E+00  0.75516230755E+02  0.75516230755E+02  0.00000000000E+00 0.  1.
         21   -1    0    0  501  502 -0.00000000000E+00 -0.00000000000E+00 -0.12674168830E+02  0.12674168830E+02  0.00000000000E+00 0.  1.
          2    1    1    2  501    0 -0.25126820510E+02 -0.28975324465E+01  0.56812187687E+02  0.62188242241E+02  0.00000000000E+00 0.  1.
         21    1    1    2  503  502  0.25126820510E+02  0.28975324465E+01  0.60298742380E+01  0.26002157344E+02  0.00000000000E+00 0.  1.
</event>
<event>
 4    1  0.2216341E+005  0.2065511E+02  0.7546771E-02  0.1524246E+00
          2   -1    0    0  503    0  0.00000000000E+00  0.00000000000E+00  0.10589658189E+04  0.10589658189E+04  0.00000000000E+00 0. -1.
         21   -1    0    0  501  502 -0.00000000000E+00 -0.00000000000E+00 -0.51836575890E+00  0.51836575890E+00  0.00000000000E+00 0. -1.
          2    1    1    2  501    0 -0.12125585177E+02  0.16721356818E+02  0.77926695075E+03  0.77954064302E+03  0.00000000000E+00 0. -1.
         21    1    1    2  503  502  0.12125585177E+02 -0.16721356818E+02  0.27918050242E+03  0.27994354167E+03  0.00000000000E+00 0. -1.
</event>
<event>
 4    1  0.2216341E+005  0.2039012E+02  0.7546771E-02  0.1528153E+00
          2   -1    0    0  502    0  0.00000000000E+00  0.00000000000E+00  0.50026776947E+03  0.50026776947E+03  0.00000000000E+00 0. -1.
         21   -1    0    0  503  502 -0.00000000000E+00 -0.00000000000E+00 -0.66499385754E+01  0.66499385754E+01  0.00000000000E+00 0.  1.
          2    1    1    2  501    0  0.20167948241E+02  0.30018248065E+01  0.48390149269E+03  0.48433089073E+03  0.00000000000E+00 0. -1.
         21    1    1    2  503  501 -0.20167948241E+02 -0.30018248065E+01  0.97163382100E+01  0.22586817320E+02  0.00000000000E+00 0.  1.
</event>
<event>
 4    1  0.2216341E+005  0.2261546E+02  0.7546771E-02  0.1497384E+00
          2   -1    0    0  503    0  0.00000000000E+00  0.00000000000E+00  0.14954247538E+02  0.14954247538E+02  0.00000000000E+00 0. -1.
         21   -1    0    0  501  502 -0.00000000000E+00 -0.00000000000E+00 -0.45034658382E+02  0.45034658382E+02  0.00000000000E+00 0.  1.
          2    1    1    2  501    0  0.22611774571E+02  0.40816360229E+00 -0.32916527593E+00  0.22617853491E+02  0.00000000000E+00 0. -1.
         21    1    1    2  503  502 -0.22611774571E+02 -0.40816360229E+00 -0.29751245569E+02  0.37371052429E+02  0.00000000000E+00 0.  1.
</event>
<event>
 4    1  0.2216341E+005  0.3461900E+02  0.7546771E-02  0.1383262E+00
          2   -1    0    0  503    0  0.00000000000E+00  0.00000000000E+00  0.28633207702E+03  0.28633207702E+03  0.00000000000E+00 0.  1.
         21   -1    0    0  501  502 -0.00000000000E+00 -0.00000000000E+00 -0.48298875335E+01  0.48298875335E+01  0.00000000000E+00 0. -1.
          2    1    1    2  501    0  0.30983553857E+02 -0.15443268867E+02  0.19392171637E+03  0.19698758144E+03  0.00000000000E+00 0.  1.
         21    1    1    2  503  502 -0.30983553857E+02  0.15443268867E+02  0.87580473115E+02  0.94174383109E+02  0.00000000000E+00 0. -1.
</event>
<event>
 4    1  0.2216341E+005  0.3346962E+02  0.7546771E-02  0.1391654E+00
          2   -1    0    0  502    0  0.00000000000E+00  0.00000000000E+00  0.53649360210E+03  0.53649360210E+03  0.00000000000E+00 0. -1.
         21   -1    0    0  503  502 -0.00000000000E+00 -0.00000000000E+00 -0.36562600876E+03  0.36562600876E+03  0.00000000000E+00 0.  1.
          2    1    1    2  501    0  0.14157668510E+01 -0.33439661465E+02  0.53520379310E+03  0.53624930350E+03  0.00000000000E+00 0. -1.
         21    1    1    2  503  501 -0.14157668510E+01  0.33439661465E+02 -0.36433619975E+03  0.36587030736E+03  0.00000000000E+00 0.  1.
</event>
<event>
 4    1  0.2216341E+005  0.2704150E+02  0.7546771E-02  0.1447192E+00
          2   -1    0    0  503    0  0.00000000000E+00  0.00000000000E+00  0.74869484346E+03  0.74869484346E+03  0.00000000000E+00 0. -1.
         21   -1    0    0  501  502 -0.00000000000E+00 -0.00000000000E+00 -0.11163562458E+02  0.11163562458E+02  0.00000000000E+00 0.  1.
          2    1    1    2  501    0  0.24120909307E+02  0.12223920543E+02  0.73169467658E+03  0.73219419708E+03  0.00000000000E+00 0. -1.
         21    1    1    2  503  502 -0.24120909307E+02 -0.12223920543E+02  0.58366044159E+01  0.27664208833E+02  0.00000000000E+00 0.  1.
</event>
<event>
 4    1  0.2216341E+005  0.2419378E+02  0.7546771E-02  0.1478028E+00
          2   -1    0    0  503    0  0.00000000000E+00  0.00000000000E+00  0.12227776051E+03  0.12227776051E+03  0.00000000000E+00 0.  1.
         21   -1    0    0  501  502 -0.00000000000E+00 -0.00000000000E+00 -0.33852038375E+02  0.33852038375E+02  0.00000000000E+00 0.  1.
          2    1    1    2  501    0 -0.16651148812E+02  0.17552161376E+02  0.11654796645E+03  0.11903263254E+03  0.00000000000E+00 0.  1.
         21    1    1    2  503  502  0.16651148812E+02 -0.17552161376E+02 -0.28122244313E+02  0.37097166346E+02  0.00000000000E+00 0.  1.
</event>
<event>
 4    1  0.2216341E+005  0.2533086E+02  0.7546771E-02  0.1465136E+00
          2   -1    0    0  503    0  0.00000000000E+00  0.00000000000E+00  0.40523418008E+03  0.40523418008E+03  0.00000000000E+00 0. -1.
         21   -1    0    0  501  502 -0.00000000000E+00 -0.00000000000E+00 -0.17175778044E+01  0.17175778044E+01  0.00000000000E+00 0.  1.
          2    1    1    2  501    0  0.46531627361E+01  0.24899812604E+02  0.25862734574E+03  0.25986488134E+03  0.00000000000E+00 0. -1.
         21    1    1    2  503  502 -0.46531627361E+01 -0.24899812604E+02  0.14488925654E+03  0.14708687654E+03  0.00000000000E+00 0.  1.
</event>
<event>
 4    1  0.2216341E+005  0.2514229E+02  0.7546771E-02  0.1467218E+00
          2   -1    0    0  503    0  0.00000000000E+00  0.00000000000E+00  0.78319618404E+03  0.78319618404E+03  0.00000000000E+00 0.  1.
         21   -1    0    0  501  502 -0.00000000000E+00 -0.00000000000E+00 -0.34247633092E+01  0.34247633092E+01  0.00000000000E+00 0.  1.
          2    1    1    2  501    0  0.22395185256E+02  0.11427623866E+02  0.73374067113E+03  0.73417130656E+03  0.00000000000E+00 0.  1.
         21    1    1    2  503  502 -0.22395185256E+02 -0.11427623866E+02  0.46030749605E+02  0.52449640790E+02  0.00000000000E+00 0.  1.
</event>
<event>
 4    1  0.2216341E+005  0.2311016E+02  0.7546771E-02  0.1491120E+00
          2   -1    0    0  503    0  0.00000000000E+00  0.00000000000E+00  0.28663550769E+03  0.28663550769E+03  0.00000000000E+00 0. -1.
         21   -1    0    0  501  502 -0.00000000000E+00 -0.00000000000E+00 -0.24820741779E+01  0.24820741779E+01  0.00000000000E+00 0.  1.
          2    1    1    2  501    0 -0.22497943626E+02 -0.52841148347E+01  0.21425619764E+03  0.21549895026E+03  0.00000000000E+00 0. -1.
         21    1    1    2  503  502  0.22497943626E+02  0.52841148347E+01  0.69897235881E+02  0.73618631615E+02  0.00000000000E+00 0.  1.
</event>
<event>
 4    1  0.2216341E+005  0.3153810E+02  0.7546771E-02  0.1406685E+00
          2   -1    0    0  503    0  0.00000000000E+00  0.00000000000E+00  0.45880354376E+03  0.45880354376E+03  0.00000000000E+00 0.  1.
         21   -1    0    0  501  502 -0.00000000000E+00 -0.00000000000E+00 -0.72604905084E+01  0.72604905084E+01  0.00000000000E+00 0. -1.
          2    1    1    2  501    0  0.13091359068E+02 -0.28692650280E+02  0.42093606468E+03  0.42211588741E+03  0.00000000000E+00 0.  1.
         21    1    1    2  503  502 -0.13091359068E+02  0.28692650280E+02  0.30606988577E+02  0.43948146856E+02  0.00000000000E+00 0. -1.
</event>
<event>
 4    1  0.2216341E+005  0.3864535E+02  0.7546771E-02  0.1356612E+00
          2   -1    0    0  502    0  0.00000000000E+00  0.00000000000E+00  0.26399380082E+03  0.26399380082E+03  0.00000000000E+00 0.  1.
         21   -1    0    0  503  502 -0.00000000000E+00 -0.00000000000E+00 -0.16019484635E+03  0.16019484635E+03  0.00000000000E+00 0. -1.
          2    1    1    2  501    0 -0.57650259104E+01 -0.38212928474E+02  0.26021514458E+03  0.26306916371E+03  0.00000000000E+00 0.  1.
         21    1    1    2  503  501  0.57650259104E+01  0.38212928474E+02 -0.15641619010E+03  0.16111948346E+03  0.00000000000E+00 0. -1.
</event>
<event>
 4    1  0.2216341E+005  0.2141792E+02  0.7546771E-02  0.1513381E+00
          2   -1    0    0  502    0  0.00000000000E+00  0.00000000000E+00  0.15375568274E+04  0.15375568274E+04  0.00000000000E+00 0. -1.
         21   -1    0    0  503  502 -0.00000000000E+00 -0.00000000000E+00 -0.48118854307E+00  0.48118854307E+00  0.00000000000E+00 0.  1.
          2    1    1    2  501    0  0.45507232667E+00  0.21413081110E+02  0.12425784714E+04  0.12427630445E+04  0.00000000000E+00 0. -1.
         21    1    1    2  503  501 -0.45507232667E+00 -0.21413081110E+02  0.29449716737E+03  0.29527497138E+03  0.00000000000E+00 0.  1.
</event>
<event>
 4    1  0.2216341E+005  0.3934570E+02  0.7546771E-02  0.1352363E+00
          2   -1    0    0  502    0  0.00000000000E+00  0.00000000000E+00  0.19684800611E+04  0.19684800611E+04  0.00000000000E+00 0. -1.
         21   -1    0    0  503  502 -0.00000000000E+00 -0.00000000000E+00 -0.24372935995E+01  0.24372935995E+01  0.00000000000E+00 0. -1.
          2    1    1    2  501    0  0.78197594090E+01  0.38560799860E+02  0.17940557891E+04  0.17944871853E+04  0.00000000000E+00 0. -1.
         21    1    1    2  503  501 -0.78197594090E+01 -0.38560799860E+02  0.17198697839E+03  0.17643016936E+03  0.00000000000E+00 0. -1.
</event>
<event>
 4    1  0.2216341E+005  0.2032750E+02  0.7546771E-02  0.1529087E+00
          2   -1    0    0  503    0  0.00000000000E+00  0.00000000000E+00  0.12049454056E+03  0.12049454056E+03  0.00000000000E+00 0. -1.
         21   -1    0    0  501  502 -0.00000000000E+00 -0.00000000000E+00 -0.51903347487E+01  0.51903347487E+01  0.00000000000E+00 0.  1.
          2    1    1    2  501    0 -0.20207516053E+02 -0.22053874823E+01  0.94257396559E+02  0.96424396524E+02  0.00000000000E+00 0. -1.
         21    1    1    2  503  502  0.20207516053E+02  0.22053874823E+01  0.21046809251E+02  0.29260478783E+02  0.00000000000E+00 0.  1.
</event>
<event>
 4    1  0.2216341E+005  0.2548569E+02  0.7546771E-02  0.1463443E+00
          2   -1    0    0  503    0  0.00000000000E+00  0.00000000000E+00  0.20325333123E+03  0.20325333123E+03  0.00000000000E+00 0. -1.
         21   -1    0    0  501  502 -0.00000000000E+00 -0.00000000000E+00 -0.56460583150E+01  0.56460583150E+01  0.00000000000E+00 0.  1.
          2    1    1    2  501    0 -0.20248055145E+02 -0.15476968528E+02  0.16761440910E+03  0.16954088129E+03  0.00000000000E+00 0. -1.
         21    1    1    2  503  502  0.20248055145E+02  0.15476968528E+02  0.29992863819E+02  0.39358508255E+02  0.00000000000E+00 0.  1.
</event>
<event>
 4    1  0.2216341E+005  0.2517168E+02  0.7546771E-02  0.1466892E+00
          2   -1    0    0  502    0  0.00000000000E+00  0.00000000000E+00  0.15988034800E+02  0.15988034800E+02  0.00000000000E+00 0.  1.
         21   -1    0    0  503  502 -0.00000000000E+00 -0.00000000000E+00 -0.10246895843E+03  0.10246895843E+03  0.00000000000E+00 0.  1.
          2    1    1    2  501    0 -0.23043238306E+02  0.10130275074E+02  0.31413190101E+01  0.25366931029E+02  0.00000000000E+00 0.  1.
         21    1    1    2  503  501  0.23043238306E+02 -0.10130275074E+02 -0.89622242645E+02  0.93090062206E+02  0.00000000000E+00 0.  1.
</event>
<event>
 4    1  0.2216341E+005  0.2098088E+02  0.7546771E-02  0.1519538E+00
          2   -1    0    0  503    0  0.00000000000E+00  0.00000000000E+00  0.20232631039E+03  0.20232631039E+03  0.00000000000E+00 0.  1.
         21   -1    0    0  501  502 -0.00000000000E+00 -0.00000000000E+00 -0.27348849565E+01  0.27348849565E+01  0.00000000000E+00 0.  1.
          2    1    1    2  501    0  0.18723329515E+02 -0.94675345905E+01  0.14615849781E+03  0.14765670916E+03  0.00000000000E+00 0.  1.
         21    1    1    2  503  502 -0.18723329515E+02  0.94675345905E+01  0.53432927628E+02  0.57404486186E+02  0.00000000000E+00 0.  1.
</event>
<event>
 4    1  0.2216341E+005  0.2510242E+02  0.7546771E-02  0.1467661E+00
          2   -1    0    0  502    0  0.00000000000E+00  0.00000000000E+00  0.41004454177E+03  0.41004454177E+03  0.00000000000E+00 0. -1.
         21   -1    0    0  503  502 -0.00000000000E+00 -0.00000000000E+00 -0.70546672847E+01  0.70546672847E+01  0.00000000000E+00 0. -1.
          2    1    1    2  501    0 -0.20636583949E+02 -0.14292052556E+02  0.38593664541E+03  0.38675215013E+03  0.00000000000E+00 0. -1.
         21    1    1    2  503  501  0.20636583949E+02  0.14292052556E+02  0.17053229081E+02  0.30347058926E+02  0.00000000000E+00 0. -1.
</event>
<event>
 4    1  0.2216341E+005  0.2163903E+02  0.7546771E-02  0.1510334E+00
          2   -1    0    0  502    0  0.00000000000E+00  0.00000000000E+00  0.65284577632E+03  0.65284577632E+03  0.00000000000E+00 0. -1.
         21   -1    0    0  503  502 -0.00000000000E+00 -0.00000000000E+00 -0.39444449757E+01  0.39444449757E+01  0.00000000000E+00 0.  1.
          2    1    1    2  501    0 -0.78552665348E+01  0.20162894305E+02  0.62149205253E+03  0.62186865083E+03  0.00000000000E+00 0. -1.
         21    1    1    2  503  501  0.78552665348E+01 -0.20162894305E+02  0.27409278813E+02  0.34921570470E+02  0.00000000000E+00 0.  1.
</event>
<event>
 4    1  0.2216341E+005  0.3986818E+02  0.7546771E-02  0.1349260E+00
          2   -1    0    0  502    0  0.00000000000E+00  0.00000000000E+00  0.14099657404E+03  0.14099657404E+03  0.00000000000E+00 0.  1.
         21   -1    0    0  503  502 -0.00000000000E+00 -0.00000000000E+00 -0.13844485194E+03  0.13844485194E+03  0.00000000000E+00 0. -1.
          2    1    1    2  501    0  0.94499643878E+01  0.38732025871E+02  0.13518729982E+03  0.14094352659E+03  0.00000000000E+00 0.  1.
         21    1    1    2  503  501 -0.94499643878E+01 -0.38732025871E+02 -0.13263557773E+03  0.13849789939E+03  0.00000000000E+00 0. -1.
</event>
<event>
 4    1  0.2216341E+005  0.2236077E+02  0.7546771E-02  0.1500685E+00
          2   -1    0    0  503    0  0.00000000000E+00  0.00000000000E+00  0.18386143730E+04  0.18386143730E+04  0.00000000000E+00 0.  1.
         21   -1    0    0  501  502 -0.00000000000E+00 -0.00000000000E+00 -0.68261630830E+00  0.68261630830E+00  0.00000000000E+00 0.  1.
          2    1    1    2  501    0  0.22352909063E+02 -0.59301027048E+00  0.16322787767E+04  0.16324319309E+04  0.00000000000E+00 0.  1.
         21    1    1    2  503  502 -0.22352909063E+02  0.59301027048E+00  0.20565298002E+03  0.20686505842E+03  0.00000000000E+00 0.  1.
</event>
<event>
 4    1  0.2216341E+005  0.8030628E+02  0.7546771E-02  0.1203138E+00
          2   -1    0    0  502    0  0.00000000000E+00  0.00000000000E+00  0.13190757784E+04  0.13190757784E+04  0.00000000000E+00 0.  1.
         21   -1    0    0  503  502 -0.00000000000E+00 -0.00000000000E+00 -0.10340883481E+03  0.10340883481E+03  0.00000000000E+00 0. -1.
          2    1    1    2  501    0  0.55016591053E+02 -0.58500202587E+02  0.13020586604E+04  0.13045328107E+04  0.00000000000E+00 0.  1.
         21    1    1    2  503  501 -0.55016591053E+02  0.58500202587E+02 -0.86391716796E+02  0.11795180255E+03  0.00000000000E+00 0. -1.
</event>
<event>
 4    1  0.2216341E+005  0.2143718E+02  0.7546771E-02  0.1513114E+00
          2   -1    0    0  502    0  0.00000000000E+00  0.00000000000E+00  0.16749802765E+04  0.16749802765E+04  0.00000000000E+00 0.  1.
         21   -1    0    0  503  502 -0.00000000000E+00 -0.00000000000E+00 -0.70760706831E+00  0.70760706831E+00  0.00000000000E+00 0.  1.
          2    1    1    2  501    0  0.21167176748E+02  0.33916671343E+01  0.14927278378E+04  0.14928817604E+04  0.00000000000E+00 0.  1.
         21    1    1    2  503  501 -0.21167176748E+02 -0.33916671343E+01  0.18154483164E+03  0.18280612318E+03  0.00000000000E+00 0.  1.
</event>
<event>
 4    1  0.2216341E+005  0.2837911E+02  0.7546771E-02  0.1434226E+00
          2   -1    0    0  502    0  0.00000000000E+00  0.00000000000E+00  0.13276990737E+02  0.13276990737E+02  0.00000000000E+00 0.  1.
         21   -1    0    0  503  502 -0.00000000000E+00 -0.00000000000E+00 -0.96864314899E+02  0.96864314899E+02  0.00000000000E+00 0. -1.
          2    1    1    2  501    0  0.28222694805E+02  0.29754844480E+01 -0.81252827103E+01  0.29519387339E+02  0.00000000000E+00 0.  1.
         21    1    1    2  503  501 -0.28222694805E+02 -0.29754844480E+01 -0.75462041452E+02  0.80621918297E+02  0.00000000000E+00 0. -1.
</event>
<event>
 4    1  0.2216341E+005  0.2132886E+02  0.7546771E-02  0.1514621E+00
          2   -1    0    0  503    0  0.00000000000E+00  0.00000000000E+00  0.19280662908E+02  0.19280662908E+02  0.00000000000E+00 0. -1.
         21   -1    0    0  501  502 -0.00000000000E+00 -0.00000000000E+00 -0.23603876794E+02  0.23603876794E+02  0.00000000000E+00 0.  1.
          2    1    1    2  501    0 -0.20669533049E+02 -0.52622042038E+01 -0.17375434972E+01  0.21399519783E+02  0.00000000000E+00 0. -1.
         21    1    1    2  503  502  0.20669533049E+02  0.52622042038E+01 -0.25856703896E+01  0.21485019919E+02  0.00000000000E+00 0.  1.
</event>
<event>
 4    1  0.2216341E+005  0.2014401E+02  0.7546771E-02  0.1531846E+00
          2   -1    0    0  502    0  0.00000000000E+00  0.00000000000E+00  0.86520080888E+03  0.86520080888E+03  0.00000000000E+00 0. -1.
         21   -1    0    0  503  502 -0.00000000000E+00 -0.00000000000E+00 -0.11914640895E+01  0.11914640895E+01  0.00000000000E+00 0. -1.
          2    1    1    2  501    0  0.17824519196E+02  0.93844311821E+01  0.76933204568E+03  0.76959572345E+03  0.00000000000E+00 0. -1.
         21    1    1    2  503  501 -0.17824519196E+02 -0.93844311821E+01  0.94677299105E+02  0.96796549520E+02  0.00000000000E+00 0. -1.
</event>
<event>
 4    1  0.2216341E+005  0.2133673E+02  0.7546771E-02  0.1514511E+00
          2   -1    0    0  502    0  0.00000000000E+00  0.00000000000E+00  0.52167035284E+03  0.52167035284E+03  0.00000000000E+00 0.  1.
         21   -1    0    0  503  502 -0.00000000000E+00 -0.00000000000E+00 -0.13246366084E+02  0.13246366084E+02  0.00000000000E+00 0. -1.
          2    1    1    2  501    0  0.20858904358E+02 -0.44902513875E+01  0.51270998885E+03  0.51315376732E+03  0.00000000000E+00 0.  1.
         21    1    1    2  503  501 -0.20858904358E+02  0.44902513875E+01 -0.42860020946E+01  0.21762951604E+02  0.00000000000E+00 0. -1.
</event>
<event>
 4    1  0.2216341E+005  0.3351497E+02  0.7546771E-02  0.1391315E+00
          2   -1    0    0  502    0  0.00000000000E+00  0.00000000000E+00  0.11574624392E+04  0.11574624392E+04  0.00000000000E+00 0.  1.
         21   -1    0    0  503  502 -0.00000000000E+00 -0.00000000000E+00 -0.97246905437E+00  0.97246905437E+00  0.00000000000E+00 0. -1.
          2    1    1    2  501    0 -0.33208713859E+02 -0.45204852720E+01  0.60467095400E+03  0.60559905555E+03  0.00000000000E+00 0.  1.
         21    1    1    2  503  501  0.33208713859E+02  0.45204852720E+01  0.55181901615E+03  0.55283585271E+03  0.00000000000E+00 0. -1.
</event>
<event>
 4    1  0.2216341E+005  0.2146750E+02  0.7546771E-02  0.1512694E+00
          2   -1    0    0  503    0  0.00000000000E+00  0.00000000000E+00  0.12001657385E+04  0.12001657385E+04  0.00000000000E+00 0.  1.
         21   -1    0    0  501  502 -0.00000000000E+00 -0.00000000000E+00 -0.12700272772E+02  0.12700272772E+02  0.00000000000E+00 0. -1.
          2    1    1    2  501    0  0.17755929907E+02 -0.12065678592E+02  0.11909276491E+04  0.11911211186E+04  0.00000000000E+00 0.  1.
         21    1    1    2  503  502 -0.17755929907E+02  0.12065678592E+02 -0.34621833597E+01  0.21744892742E+02  0.00000000000E+00 0. -1.
</event>
<event>
 4    1  0.2216341E+005  0.2658665E+02  0.7546771E-02  0.1451805E+00
          2   -1    0    0  502    0  0.00000000000E+00  0.00000000000E+00  0.61936707292E+01  0.61936707292E+01  0.00000000000E+00 0. -1.
         21   -1    0    0  503  502 -0.00000000000E+00 -0.00000000000E+00 -0.14925117202E+03  0.14925117202E+03  0.00000000000E+00 0.  1.
          2    1    1    2  501    0 -0.26107422641E+02 -0.50251952759E+01 -0.33823188361E+02  0.43021601265E+02  0.00000000000E+00 0. -1.
         21    1    1    2  503  501  0.26107422641E+02  0.50251952759E+01 -0.10923431293E+03  0.11242324148E+03  0.00000000000E+00 0.  1.
</event>
<event>
 4    1  0.2216341E+005  0.2188502E+02  0.7546771E-02  0.1506994E+00
          2   -1    0    0  503    0  0.00000000000E+00  0.00000000000E+00  0.17206146903E+01  0.17206146903E+01  0.00000000000E+00 0.  1.
         21   -1    0    0  501  502 -0.00000000000E+00 -0.00000000000E+00 -0.32535802125E+03  0.32535802125E+03  0.00000000000E+00 0. -1.
          2    1    1    2  501    0 -0.93745042972E+01  0.19775562747E+02 -0.99664469556E+02  0.10203901560E+03  0.00000000000E+00 0.  1.
         21    1    1    2  503  502  0.93745042972E+01 -0.19775562747E+02 -0.22397293700E+03  0.22503962034E+03  0.00000000000E+00 0. -1.
</event>
<event>
 4    1  0.2216341E+005  0.3275587E+02  0.7546771E-02  0.1397066E+00
          2   -1    0    0  502    0  0.00000000000E+00  0.00000000000E+00  0.17311388223E+02  0.17311388223E+02  0.00000000000E+00 0.  1.
         21   -1    0    0  503  502 -0.00000000000E+00 -0.00000000000E+00 -0.10624619526E+03  0.10624619526E+03  0.00000000000E+00 0.  1.
          2    1    1    2  501    0 -0.31007771208E+02 -0.10557720401E+02 -0.45904145165E+01  0.33075961676E+02  0.00000000000E+00 0.  1.
         21    1    1    2  503  501  0.31007771208E+02  0.10557720401E+02 -0.84344392516E+02  0.90481621804E+02  0.00000000000E+00 0.  1.
</event>
<event>
 4    1  0.2216341E+005  0.2972355E+02  0.7546771E-02  0.1422014E+00
          2   -1    0    0  503    0  0.00000000000E+00  0.00000000000E+00  0.24833841945E+03  0.24833841945E+03  0.00000000000E+00 0. -1.
         21   -1    0    0  501  502 -0.00000000000E+00 -0.00000000000E+00 -0.47261140729E+01  0.47261140729E+01  0.00000000000E+00 0. -1.
          2    1    1    2  501    0  0.11962149338E+02  0.27210231378E+02  0.18472278277E+03  0.18709889412E+03  0.00000000000E+00 0. -1.
         21    1    1    2  503  502 -0.11962149338E+02 -0.27210231378E+02  0.58889522616E+02  0.65965639407E+02  0.00000000000E+00 0. -1.
</event>
<event>
 4    1  0.2216341E+005  0.2361638E+02  0.7546771E-02  0.1484900E+00
          2   -1    0    0  503    0  0.00000000000E+00  0.00000000000E+00  0.10623206572E+04  0.10623206572E+04  0.00000000000E+00 0. -1.
         21   -1    0    0  501  502 -0.00000000000E+00 -0.00000000000E+00 -0.31926298752E+01  0.31926298752E+01  0.00000000000E+00 0. -1.
          2    1    1    2  501    0 -0.14060834296E+02 -0.18974357930E+02  0.10165497334E+04  0.10168240231E+04  0.00000000000E+00 0. -1.
         21    1    1    2  503  502  0.14060834296E+02  0.18974357930E+02  0.42578293883E+02  0.48689264011E+02  0.00000000000E+00 0. -1.
</event>
<event>
 4    1  0.2216341E+005  0.3081931E+02  0.7546771E-02  0.1412608E+00
          2   -1    0    0  503    0  0.00000000000E+00  0.00000000000E+00  0.42701631112E+02  0.42701631112E+02  0.00000000000E+00 0. -1.
         21   -1    0    0  501  502 -0.00000000000E+00 -0.00000000000E+00 -0.52963580595E+02  0.52963580595E+02  0.00000000000E+00 0. -1.
          2    1    1    2  501    0  0.29838030091E+02  0.77150220396E+01  0.31298023675E+02  0.43924889195E+02  0.00000000000E+00 0. -1.
         21    1    1    2  503  502 -0.29838030091E+02 -0.77150220396E+01 -0.41559973158E+02  0.51740322512E+02  0.00000000000E+00 0. -1.
</event>
<event>
 4    1  0.2216341E+005  0.2605560E+02  0.7546771E-02  0.1457332E+00
          2   -1    0    0  502    0  0.00000000000E+00  0.00000000000E+00  0.43562361301E+03  0.43562361301E+03  0.00000000000E+00 0.  1.
         21   -1    0    0  503  502 -0.00000000000E+00 -0.00000000000E+00 -0.29527510755E+01  0.29527510755E+01  0.00000000000E+00 0.  1.
          2    1    1    2  501    0  0.23101826801E+02 -0.12049900228E+02  0.36702431150E+03  0.36794801227E+03  0.00000000000E+00 0.  1.
         21    1    1    2  503  501 -0.23101826801E+02  0.12049900228E+02  0.65646550435E+02  0.70628351822E+02  0.00000000000E+00 0.  1.
</event>
<event>
 4    1  0.2216341E+005  0.2946916E+02  0.7546771E-02  0.1424266E+00
          2   -1    0    0  502    0  0.00000000000E+00  0.00000000000E+00  0.49939058438E+02  0.49939058438E+02  0.00000000000E+00 0.  1.
         21   -1    0    0  503  502 -0.00000000000E+00 -0.00000000000E+00 -0.53506465528E+02  0.53506465528E+02  0.00000000000E+00 0.  1.
          2    1    1    2  501    0  0.67473856974E+01  0.28686304566E+02  0.40710752460E+02  0.50257304437E+02  0.00000000000E+00 0.  1.
         21    1    1    2  503  501 -0.67473856974E+01 -0.28686304566E+02 -0.44278159551E+02  0.53188219529E+02  0.00000000000E+00 0.  1.
</event>
<event>
 4    1  0.2216341E+005  0.2014780E+02  0.7546771E-02  0.1531788E+00
          2   -1    0    0  502    0  0.00000000000E+00  0.00000000000E+00  0.96716166071E+03  0.96716166071E+03  0.00000000000E+00 0. -1.
         21   -1    0    0  503  502 -0.00000000000E+00 -0.00000000000E+00 -0.12034500669E+02  0.12034500669E+02  0.00000000000E+00 0.  1.
          2    1    1    2  501    0  0.97615157365E+01  0.17625165863E+02  0.95854825787E+03  0.95875997848E+03  0.00000000000E+00 0. -1.
         21    1    1    2  503  501 -0.97615157365E+01 -0.17625165863E+02 -0.34210978322E+01  0.20436182901E+02  0.00000000000E+00 0.  1.
</event>
<event>
 4    1  0.2216341E+005  0.2149526E+02  0.7546771E-02  0.1512310E+00
          2   -1    0    0  502    0  0.00000000000E+00  0.00000000000E+00  0.66295478083E+03  0.66295478083E+03  0.00000000000E+00 0.  1.
         21   -1    0    0  503  502 -0.00000000000E+00 -0.00000000000E+00 -0.71422411838E+00  0.71422411838E+00  0.00000000000E+00 0.  1.
          2    1    1    2  501    0 -0.80777730251E+01  0.19919736033E+02  0.38272659597E+03  0.38332974521E+03  0.00000000000E+00 0.  1.
         21    1    1    2  503  501  0.80777730251E+01 -0.19919736033E+02  0.27951396074E+03  0.28033925974E+03  0.00000000000E+00 0.  1.
</event>
<event>
 4    1  0.2216341E+005  0.3983600E+02  0.7546771E-02  0.1349450E+00
          2   -1    0    0  503    0  0.00000000000E+00  0.00000000000E+00  0.12863598679E+03  0.12863598679E+03  0.00000000000E+00 0.  1.
         21   -1    0    0  501  502 -0.00000000000E+00 -0.00000000000E+00 -0.12915813785E+02  0.12915813785E+02  0.00000000000E+00 0. -1.
          2    1    1    2  501    0 -0.14951490664E+02  0.36923702066E+02  0.72850496382E+02  0.83030727267E+02  0.00000000000E+00 0.  1.
         21    1    1    2  503  502  0.14951490664E+02 -0.36923702066E+02  0.42869676620E+02  0.58521073306E+02  0.00000000000E+00 0. -1.
</event>
<event>
 4    1  0.2216341E+005  0.2260195E+02  0.7546771E-02  0.1497558E+00
          2   -1    0    0  503    0  0.00000000000E+00  0.00000000000E+00  0.29319656127E+03  0.29319656127E+03  0.00000000000E+00 0.  1.
         21   -1    0    0  501  502 -0.00000000000E+00 -0.00000000000E+00 -0.19273013519E+02  0.19273013519E+02  0.00000000000E+00 0. -1.
          2    1    1    2  501    0  0.12255635688E+02  0.18990723845E+02  0.28596724821E+03  0.28685905119E+03  0.00000000000E+00 0.  1.
         21    1    1    2  503  502 -0.12255635688E+02 -0.18990723845E+02 -0.12043700462E+02  0.25610523601E+02  0.00000000000E+00 0. -1.
</event>
<event>
 4    1  0.2216341E+005  0.2879732E+02  0.7546771E-02  0.1430344E+00
          2   -1    0    0  503    0  0.00000000000E+00  0.00000000000E+00  0.52137136086E+02  0.52137136086E+02  0.00000000000E+00 0.  1.
         21   -1    0    0  501  502 -0.00000000000E+00 -0.00000000000E+00 -0.20624444594E+02  0.20624444594E+02  0.00000000000E+00 0.  1.
          2    1    1    2  501    0  0.26201989945E+02 -0.11947450989E+02  0.33157857600E+02  0.43917301634E+02  0.00000000000E+00 0.  1.
         21    1    1    2  503  502 -0.26201989945E+02  0.11947450989E+02 -0.16451661080E+01  0.28844279047E+02  0.00000000000E+00 0.  1.
</event>
<event>
 4    1  0.2216341E+005  0.2455174E+02  0.7546771E-02  0.1473881E+00
          2   -1    0    0  502    0  0.00000000000E+00  0.00000000000E+00  0.11721105487E+03  0.11721105487E+03  0.00000000000E+00 0.  1.
         21   -1    0    0  503  502 -0.00000000000E+00 -0.00000000000E+00 -0.60877587574E+01  0.60877587574E+01  0.00000000000E+00 0.  1.
          2    1    1    2  501    0  0.22454796175E+02 -0.99282388435E+01  0.79851050827E+02  0.83540278405E+02  0.00000000000E+00 0.  1.
         21    1    1    2  503  501 -0.22454796175E+02  0.99282388435E+01  0.31272245283E+02  0.39758535220E+02  0.00000000000E+00 0.  1.
</event>
<event>
 4    1  0.2216341E+005  0.2056912E+02  0.7546771E-02  0.1525506E+00
          2   -1    0    0  503    0  0.00000000000E+00  0.00000000000E+00  0.36754385443E+03  0.36754385443E+03  0.00000000000E+00 0. -1.
         21   -1    0    0  501  502 -0.00000000000E+00 -0.00000000000E+00 -0.17960663401E+02  0.17960663401E+02  0.00000000000E+00 0.  1.
          2    1    1    2  501    0 -0.19111621744E+02 -0.76049052525E+01  0.36126469607E+03  0.36184978830E+03  0.00000000000E+00 0. -1.
         21    1    1    2  503  502  0.19111621744E+02  0.76049052525E+01 -0.11681505032E+02  0.23654729536E+02  0.00000000000E+00 0.  1.
</event>
<event>
 4    1  0.2216341E+005  0.2322027E+02  0.7546771E-02  0.1489751E+00
          2   -1    0    0  502    0  0.00000000000E+00  0.00000000000E+00  0.22917664713E+03  0.22917664713E+03  0.00000000000E+00 0.  1.
         21   -1    0    0  503  502 -0.00000000000E+00 -0.00000000000E+00 -0.10038536877E+02  0.10038536877E+02  0.00000000000E+00 0. -1.
          2    1    1    2  501    0  0.13368376781E+02 -0.18985978819E+02  0.21422634634E+03  0.21548110905E+03  0.00000000000E+00 0.  1.
         21    1    1    2  503  501 -0.13368376781E+02  0.18985978819E+02  0.49117639107E+01  0.23734074960E+02  0.00000000000E+00 0. -1.
</event>
<event>
 4    1  0.2216341E+005  0.2267363E+02  0.7546771E-02  0.1496638E+00
          2   -1    0    0  503    0  0.00000000000E+00  0.00000000000E+00  0.20046640983E+02  0.20046640983E+02  0.00000000000E+00 0.  1.
         21   -1    0    0  501  502 -0.00000000000E+00 -0.00000000000E+00 -0.33693096341E+02  0.33693096341E+02  0.00000000000E+00 0. -1.
          2    1    1    2  501    0 -0.13141723725E+02 -0.18476708405E+02  0.63091984113E+01  0.23535072563E+02  0.00000000000E+00 0.  1.
         21    1    1    2  503  502  0.13141723725E+02  0.18476708405E+02 -0.19955653770E+02  0.30204664761E+02  0.00000000000E+00 0. -1.
</event>
<event>
 4    1  0.2216341E+005  0.2101575E+02  0.7546771E-02  0.1519040E+00
          2   -1    0    0  503    0  0.00000000000E+00  0.00000000000E+00  0.10590967036E+03  0.10590967036E+03  0.00000000000E+00 0. -1.
         21   -1    0    0  501  502 -0.00000000000E+00 -0.00000000000E+00 -0.22970321093E+03  0.22970321093E+03  0.00000000000E+00 0.  1.
          2    1    1    2  501    0  0.17987425976E+02  0.10868037878E+02  0.10437946262E+03  0.10647409993E+03  0.00000000000E+00 0. -1.
         21    1    1    2  503  502 -0.17987425976E+02 -0.10868037878E+02 -0.22817300319E+03  0.22913878136E+03  0.00000000000E+00 0.  1.
</event>
<event>
 4    1  0.2216341E+005  0.3024584E+02  0.7546771E-02  0.1417472E+00
          2   -1    0    0  502    0  0.00000000000E+00  0.00000000000E+00  0.56378212448E+03  0.56378212448E+03  0.00000000000E+00 0.  1.
         21   -1    0    0  503  502 -0.00000000000E+00 -0.00000000000E+00 -0.53009312413E+03  0.53009312413E+03  0.00000000000E+00 0. -1.
          2    1    1    2  501    0  0.20090282265E+02  0.22609542745E+02  0.56294438618E+03  0.56375632395E+03  0.00000000000E+00 0.  1.
         21    1    1    2  503  501 -0.20090282265E+02 -0.22609542745E+02 -0.52925538582E+03  0.53011892466E+03  0.00000000000E+00 0. -1.
</event>
<event>
 4    1  0.2216341E+005  0.2152517E+02  0.7546771E-02  0.1511897E+00
          2   -1    0    0  502    0  0.00000000000E+00  0.00000000000E+00  0.13998907492E+03  0.13998907492E+03  0.00000000000E+00 0. -1.
         21   -1    0    0  503  502 -0.00000000000E+00 -0.00000000000E+00 -0.92081115798E+01  0.92081115798E+01  0.00000000000E+00 0. -1.
          2    1    1    2  501    0  0.18544862624E+02  0.10927983856E+02  0.12509538730E+03  0.12693379647E+03  0.00000000000E+00 0. -1.
         21    1    1    2  503  501 -0.18544862624E+02 -0.10927983856E+02  0.56855760373E+01  0.22263390034E+02  0.00000000000E+00 0. -1.
</event>
<event>
 4    1  0.2216341E+005  0.2882207E+02  0.7546771E-02  0.1430116E+00
          2   -1    0    0  502    0  0.00000000000E+00  0.00000000000E+00  0.30626323534E+03  0.30626323534E+03  0.00000000000E+00 0.  1.
         21   -1    0    0  503  502 -0.00000000000E+00 -0.00000000000E+00 -0.53581272160E+01  0.53581272160E+01  0.00000000000E+00 0.  1.
          2    1    1    2  501    0 -0.28660854178E+02 -0.30442228341E+01  0.25993949521E+03  0.26153250854E+03  0.00000000000E+00 0.  1.
         21    1    1    2  503  501  0.28660854178E+02  0.30442228341E+01  0.40965612914E+02  0.50088854013E+02  0.00000000000E+00 0.  1.
</event>
<event>
 4    1  0.2216341E+005  0.2541501E+02  0.7546771E-02  0.1464214E+00
          2   -1    0    0  503    0  0.00000000000E+00  0.00000000000E+00  0.11918050129E+04  0.11918050129E+04  0.00000000000E+00 0. -1.
         21   -1    0    0  501  502 -0.00000000000E+00 -0.00000000000E+00 -0.22982843803E+02  0.22982843803E+02  0.00000000000E+00 0.  1.
          2    1    1    2  501    0  0.98648721890E+01  0.23422358059E+02  0.11846006563E+04  0.11848732579E+04  0.00000000000E+00 0. -1.
         21    1    1    2  503  502 -0.98648721890E+01 -0.23422358059E+02 -0.15778487184E+02  0.29914598747E+02  0.00000000000E+00 0.  1.
</event>
<event>
 4    1  0.2216341E+005  0.3432249E+02  0.7546771E-02  0.1385390E+00
          2   -1    0    0  503    0  0.00000000000E+00  0.00000000000E+00  0.14174075857E+03  0.14174075857E+03  0.00000000000E+00 0.  1.
         21   -1    0    0  501  502 -0.00000000000E+00 -0.00000000000E+00 -0.14427212003E+02  0.14427212003E+02  0.00000000000E+00 0.  1.
          2    1    1    2  501    0 -0.15081472692E+02 -0.30831522441E+02  0.11449676595E+03  0.11953051078E+03  0.00000000000E+00 0.  1.
         21    1    1    2  503  502  0.15081472692E+02  0.30831522441E+02  0.12816780618E+02  0.36637459792E+02  0.00000000000E+00 0.  1.
</event>
<event>
 4    1  0.2216341E+005  0.2266338E+02  0.7546771E-02  0.1496769E+00
          2   -1    0    0  503    0  0.00000000000E+00  0.00000000000E+00  0.50680131342E+02  0.50680131342E+02  0.00000000000E+00 0. -1.
         21   -1    0    0  501  502 -0.00000000000E+00 -0.00000000000E+00 -0.11416425301E+02  0.11416425301E+02  0.00000000000E+00 0. -1.
          2    1    1    2  501    0 -0.42078446381E+00  0.22659471318E+02  0.30035062609E+02  0.37626236670E+02  0.00000000000E+00 0. -1.
         21    1    1    2  503  502  0.42078446381E+00 -0.22659471318E+02  0.92286434316E+01  0.24470319973E+02  0.00000000000E+00 0. -1.
</event>
<event>
 4    1  0.2216341E+005  0.5261759E+02  0.7546771E-02  0.1287206E+00
          2   -1    0    0  503    0  0.00000000000E+00  0.00000000000E+00  0.10653570663E+04  0.10653570663E+04  0.00000000000E+00 0.  1.
         21   -1    0    0  501  502 -0.00000000000E+00 -0.00000000000E+00 -0.25198974306E+02  0.25198974306E+02  0.00000000000E+00 0. -1.
          2    1    1    2  501    0  0.48663787764E+02 -0.20011163483E+02  0.10364749711E+04  0.10378097015E+04  0.00000000000E+00 0.  1.
         21    1    1    2  503  502 -0.48663787764E+02  0.20011163483E+02  0.36831208793E+01  0.52746339047E+02  0.00000000000E+00 0. -1.
</event>
<event>
 4    1  0.2216341E+005  0.3982356E+02  0.7546771E-02  0.1349523E+00
          2   -1    0    0  503    0  0.00000000000E+00  0.00000000000E+00  0.14682548710E+03  0.14682548710E+03  0.00000000000E+00 0.  1.
         21   -1    0    0  501  502 -0.00000000000E+00 -0.00000000000E+00 -0.20842055365E+02  0.20842055365E+02  0.00000000000E+00 0. -1.
          2    1    1    2  501    0  0.13242702852E+02  0.37557248373E+02  0.12117931764E+03  0.12755525512E+03  0.00000000000E+00 0.  1.
         21    1    1    2  503  502 -0.13242702852E+02 -0.37557248373E+02  0.48041140974E+01  0.40112287350E+02  0.00000000000E+00 0. -1.
</event>
<event>
 4    1  0.2216341E+005  0.2359441E+02  0.7546771E-02  0.1485166E+00
          2   -1    0    0  503    0  0.00000000000E+00  0.00000000000E+00  0.17074277572E+04  0.17074277572E+04  0.00000000000E+00 0. -1.
         21   -1    0    0  501  502 -0.00000000000E+00 -0.00000000000E+00 -0.54008880045E+00  0.54008880045E+00  0.00000000000E+00 0.  1.
          2    1    1    2  501    0 -0.23587784849E+02  0.55921054960E+00  0.13910566434E+04  0.13912567274E+04  0.00000000000E+00 0. -1.
         21    1    1    2  503  502  0.23587784849E+02 -0.55921054960E+00  0.31583102494E+03  0.31671111857E+03  0.00000000000E+00 0.  1.
</event>
<event>
 4    1  0.2216341E+005  0.2292775E+02  0.7546771E-02  0.1493407E+00
          2   -1    0    0  502    0  0.00000000000E+00  0.00000000000E+00  0.20537961910E+02  0.20537961910E+02  0.00000000000E+00 0. -1.
         21   -1    0    0  503  502 -0.00000000000E+00 -0.00000000000E+00 -0.33186985244E+02  0.33186985244E+02  0.00000000000E+00 0. -1.
          2    1    1    2  501    0  0.67894011264E+01 -0.21899442634E+02  0.65231023367E+01  0.23837626128E+02  0.00000000000E+00 0. -1.
         21    1    1    2  503  501 -0.67894011264E+01  0.21899442634E+02 -0.19172125671E+02  0.29887321025E+02  0.00000000000E+00 0. -1.
</event>
<event>
 4    1  0.2216341E+005  0.3006171E+02  0.7546771E-02  0.1419061E+00
          2   -1    0    0  502    0  0.00000000000E+00  0.00000000000E+00  0.44471324016E+01  0.44471324016E+01  0.00000000000E+00 0.  1.
         21   -1    0    0  503  502 -0.00000000000E+00 -0.00000000000E+00 -0.13280495088E+04  0.13280495088E+04  0.00000000000E+00 0.  1.
          2    1    1    2  501    0  0.78736587568E+01  0.29012267594E+02 -0.48640808223E+02  0.57180717010E+02  0.00000000000E+00 0.  1.
         21    1    1    2  503  501 -0.78736587568E+01 -0.29012267594E+02 -0.12749615682E+04  0.12753159242E+04  0.00000000000E+00 0.  1.
</event>
<event>
 4    1  0.2216341E+005  0.2011151E+02  0.7546771E-02  0.1532338E+00
          2   -1    0    0  503    0  0.00000000000E+00  0.00000000000E+00  0.14544515902E+04  0.14544515902E+04  0.00000000000E+00 0.  1.
         21   -1    0    0  501  502 -0.00000000000E+00 -0.00000000000E+00 -0.19224587374E+02  0.19224587374E+02  0.00000000000E+00 0.  1.
          2    1    1    2  501    0  0.23987062220E+01  0.19967947824E+02  0.14491028170E+04  0.14492423700E+04  0.00000000000E+00 0.  1.
         21    1    1    2  503  502 -0.23987062220E+01 -0.19967947824E+02 -0.13875814205E+02  0.24433807556E+02  0.00000000000E+00 0.  1.
</event>
<event>
 4    1  0.2216341E+005  0.2734607E+02  0.7546771E-02  0.1444162E+00
          2   -1    0    0  503    0  0.00000000000E+00  0.00000000000E+00  0.13196672063E+04  0.13196672063E+04  0.00000000000E+00 0. -1.
         21   -1    0    0  501  502 -0.00000000000E+00 -0.00000000000E+00 -0.26455261023E+01  0.26455261023E+01  0.00000000000E+00 0.  1.
          2    1    1    2  501    0 -0.75191311581E+00  0.27335726053E+02  0.12445964356E+04  0.12448968209E+04  0.00000000000E+00 0. -1.
         21    1    1    2  503  502  0.75191311581E+00 -0.27335726053E+02  0.72425244655E+02  0.77415911514E+02  0.00000000000E+00 0.  1.
</event>
<event>
 4    1  0.2216341E+005  0.2443001E+02  0.7546771E-02  0.1475282E+00
          2   -1    0    0  503    0  0.00000000000E+00  0.00000000000E+00  0.27267683973E+01  0.27267683973E+01  0.00000000000E+00 0. -1.
         21   -1    0    0  501  502 -0.00000000000E+00 -0.00000000000E+00 -0.44323448891E+03  0.44323448891E+03  0.00000000000E+00 0.  1.
          2    1    1    2  501    0 -0.21433152316E+02  0.11723711239E+02 -0.61610767821E+02  0.66277538691E+02  0.00000000000E+00 0. -1.
         21    1    1    2  503  502  0.21433152316E+02 -0.11723711239E+02 -0.37889695269E+03  0.37968371861E+03  0.00000000000E+00 0.  1.
</event>
<event>
 4    1  0.2216341E+005  0.2051388E+02  0.7546771E-02  0.1526320E+00
          2   -1    0    0  503    0  0.00000000000E+00  0.00000000000E+00  0.78145916774E+02  0.78145916774E+02  0.00000000000E+00 0. -1.
         21   -1    0    0  501  502 -0.00000000000E+00 -0.00000000000E+00 -0.27273228383E+02  0.27273228383E+02  0.00000000000E+00 0.  1.
          2    1    1    2  501    0 -0.91051176677E+01 -0.18382497011E+02  0.72656353506E+02  0.75496788467E+02  0.00000000000E+00 0. -1.
         21    1    1    2  503  502  0.91051176677E+01  0.18382497011E+02 -0.21783665114E+02  0.29922356690E+02  0.00000000000E+00 0.  1.
</event>
<event>
 4    1  0.2216341E+005  0.2879366E+02  0.7546771E-02  0.1430377E+00
          2   -1    0    0  503    0  0.00000000000E+00  0.00000000000E+00  0.16660515745E+04  0.16660515745E+04  0.00000000000E+00 0. -1.
         21   -1    0    0  501  502 -0.00000000000E+00 -0.00000000000E+00 -0.12251044630E+01  0.12251044630E+01  0.00000000000E+00 0. -1.
          2    1    1    2  501    0  0.11389032797E+02 -0.26445504057E+02  0.14748057052E+04  0.14750867577E+04  0.00000000000E+00 0. -1.
         21    1    1    2  503  502 -0.11389032797E+02  0.26445504057E+02  0.19002076489E+03  0.19218992128E+03  0.00000000000E+00 0. -1.
</event>
<event>
 4    1  0.2216341E+005  0.6097881E+02  0.7546771E-02  0.1256543E+00
          2   -1    0    0  503    0  0.00000000000E+00  0.00000000000E+00  0.55493349275E+03  0.55493349275E+03  0.00000000000E+00 0.  1.
         21   -1    0    0  501  502 -0.00000000000E+00 -0.00000000000E+00 -0.73216610876E+01  0.73216610876E+01  0.00000000000E+00 0.  1.
          2    1    1    2  501    0 -0.57959179605E+02 -0.18951208133E+02  0.35568038850E+03  0.36086971825E+03  0.00000000000E+00 0.  1.
         21    1    1    2  503  502  0.57959179605E+02  0.18951208133E+02  0.19193144316E+03  0.20138543558E+03  0.00000000000E+00 0.  1.
</event>
<event>
 4    1  0.2216341E+005  0.2069211E+02  0.7546771E-02  0.1523707E+00
          2   -1    0    0  503    0  0.00000000000E+00  0.00000000000E+00  0.38964359770E+03  0.38964359770E+03  0.00000000000E+00 0.  1.
         21   -1    0    0  501  502 -0.00000000000E+00 -0.00000000000E+00 -0.34495582200E+01  0.34495582200E+01  0.00000000000E+00 0.  1.
          2    1    1    2  501    0 -0.20691159508E+02  0.19783799697E+00  0.35534612666E+03  0.35594807621E+03  0.00000000000E+00 0.  1.
         21    1    1    2  503  502  0.20691159508E+02 -0.19783799697E+00  0.30847912816E+02  0.37145079711E+02  0.00000000000E+00 0.  1.
</event>
<event>
 4    1  0.2216341E+005  0.3317306E+02  0.7546771E-02  0.1393883E+00
          2   -1    0    0  502    0  0.00000000000E+00  0.00000000000E+00  0.15928470087E+04  0.15928470087E+04  0.00000000000E+00 0.  1.
         21   -1    0    0  503  502 -0.00000000000E+00 -0.00000000000E+00 -0.17919874391E+01  0.17919874391E+01  0.00000000000E+00 0. -1.
          2    1    1    2  501    0 -0.53055508822E+01 -0.32746037680E+02  0.14205296751E+04  0.14209169608E+04  0.00000000000E+00 0.  1.
         21    1    1    2  503  501  0.53055508822E+01  0.32746037680E+02  0.17052534615E+03  0.17372203525E+03  0.00000000000E+00 0. -1.
</event>
<event>
 4    1  0.2216341E+005  0.2040914E+02  0.7546771E-02  0.1527870E+00
          2   -1    0    0  502    0  0.00000000000E+00  0.00000000000E+00  0.31532168789E+03  0.31532168789E+03  0.00000000000E+00 0.  1.
         21   -1    0    0  503  502 -0.00000000000E+00 -0.00000000000E+00 -0.33990500684E+02  0.33990500684E+02  0.00000000000E+00 0.  1.
          2    1    1    2  501    0  0.71791902942E+01  0.19104765443E+02  0.31189421558E+03  0.31256124928E+03  0.00000000000E+00 0.  1.
         21    1    1    2  503  501 -0.71791902942E+01 -0.19104765443E+02 -0.30563028375E+02  0.36750939299E+02  0.00000000000E+00 0.  1.
</event>
<event>
 4    1  0.2216341E+005  0.2293395E+02  0.7546771E-02  0.1493329E+00
          2   -1    0    0  503    0  0.00000000000E+00  0.00000000000E+00  0.39452100807E+03  0.39452100807E+03  0.00000000000E+00 0.  1.
         21   -1    0    0  501  502 -0.00000000000E+00 -0.00000000000E+00 -0.49202186983E+01  0.49202186983E+01  0.00000000000E+00 0. -1.
          2    1    1    2  501    0 -0.20773651761E+02  0.97170738056E+01  0.36532966409E+03  0.36604880767E+03  0.00000000000E+00 0.  1.
         21    1    1    2  503  502  0.20773651761E+02 -0.97170738056E+01  0.24271125275E+02  0.33392419094E+02  0.00000000000E+00 0. -1.
</event>
<event>
 4    1  0.2216341E+005  0.2099622E+02  0.7546771E-02  0.1519319E+00
          2   -1    0    0  502    0  0.00000000000E+00  0.00000000000E+00  0.15931562638E+04  0.15931562638E+04  0.00000000000E+00 0.  1.
         21   -1    0    0  503  502 -0.00000000000E+00 -0.00000000000E+00 -0.14468592186E+01  0.14468592186E+01  0.00000000000E+00 0.  1.
          2    1    1    2  501    0  0.15168351735E+02  0.14517658253E+02  0.15128729589E+04  0.15130186486E+04  0.00000000000E+00 0.  1.
         21    1    1    2  503  501 -0.15168351735E+02 -0.14517658253E+02  0.78836445681E+02  0.81584474400E+02  0.00000000000E+00 0.  1.
</event>
<event>
 4    1  0.2216341E+005  0.2163940E+02  0.7546771E-02  0.1510328E+00
          2   -1    0    0  502    0  0.00000000000E+00  0.00000000000E+00  0.17455256852E+02  0.17455256852E+02  0.00000000000E+00 0.  1.
         21   -1    0    0  503  502 -0.00000000000E+00 -0.00000000000E+00 -0.45753013652E+02  0.45753013652E+02  0.00000000000E+00 0. -1.
          2    1    1    2  501    0  0.20619979943E+02 -0.65635253167E+01  0.61779385924E+01  0.22504007703E+02  0.00000000000E+00 0.  1.
         21    1    1    2  503  501 -0.20619979943E+02  0.65635253167E+01 -0.34475695392E+02  0.40704262801E+02  0.00000000000E+00 0. -1.
</event>
<event>
 4    1  0.2216341E+005  0.2092116E+02  0.7546771E-02  0.1520393E+00
          2   -1    0    0  503    0  0.00000000000E+00  0.00000000000E+00  0.67035305409E+03  0.67035305409E+03  0.00000000000E+00 0.  1.
         21   -1    0    0  501  502 -0.00000000000E+00 -0.00000000000E+00 -0.79897879666E+00  0.79897879666E+00  0.00000000000E+00 0. -1.
          2    1    1    2  501    0  0.19979288310E+02 -0.62066950093E+01  0.47824970192E+03  0.47870708414E+03  0.00000000000E+00 0.  1.
         21    1    1    2  503  502 -0.19979288310E+02  0.62066950093E+01  0.19130437337E+03  0.19244494874E+03  0.00000000000E+00 0. -1.
</event>
<event>
 4    1  0.2216341E+005  0.2847938E+02  0.7546771E-02  0.1433288E+00
          2   -1    0    0  503    0  0.00000000000E+00  0.00000000000E+00  0.32973664424E+03  0.32973664424E+03  0.00000000000E+00 0.  1.
         21   -1    0    0  501  502 -0.00000000000E+00 -0.00000000000E+00 -0.40254673015E+01  0.40254673015E+01  0.00000000000E+00 0.  1.
          2    1    1    2  501    0  0.28407508158E+02  0.20220790217E+01  0.26693221375E+03  0.26844716810E+03  0.00000000000E+00 0.  1.
         21    1    1    2  503  502 -0.28407508158E+02 -0.20220790217E+01  0.58778963192E+02  0.65314943445E+02  0.00000000000E+00 0.  1.
</event>
<event>
 4    1  0.2216341E+005  0.2114628E+02  0.7546771E-02  0.1517186E+00
          2   -1    0    0  503    0  0.00000000000E+00  0.00000000000E+00  0.44946926889E+02  0.44946926889E+02  0.00000000000E+00 0. -1.
         21   -1    0    0  501  502 -0.00000000000E+00 -0.00000000000E+00 -0.17495202475E+03  0.17495202475E+03  0.00000000000E+00 0.  1.
          2    1    1    2  501    0  0.21123052262E+02  0.99087878722E+00  0.41775006756E+02  0.46822178155E+02  0.00000000000E+00 0. -1.
         21    1    1    2  503  502 -0.21123052262E+02 -0.99087878722E+00 -0.17178010462E+03  0.17307677349E+03  0.00000000000E+00 0.  1.
</event>
<event>
 4    1  0.2216341E+005  0.2135041E+02  0.7546771E-02  0.1514320E+00
          2   -1    0    0  503    0  0.00000000000E+00  0.00000000000E+00  0.99547002790E+03  0.99547002790E+03  0.00000000000E+00 0. -1.
         21   -1    0    0  501  502 -0.00000000000E+00 -0.00000000000E+00 -0.59699802416E+00  0.59699802416E+00  0.00000000000E+00 0.  1.
          2    1    1    2  501    0 -0.14455226357E+02 -0.15712624549E+02  0.73782297203E+03  0.73813181627E+03  0.00000000000E+00 0. -1.
         21    1    1    2  503  502  0.14455226357E+02  0.15712624549E+02  0.25705005785E+03  0.25793520965E+03  0.00000000000E+00 0.  1.
</event>
<event>
 4    1  0.2216341E+005  0.2725048E+02  0.7546771E-02  0.1445108E+00
          2   -1    0    0  502    0  0.00000000000E+00  0.00000000000E+00  0.20946664471E+04  0.20946664471E+04  0.00000000000E+00 0.  1.
         21   -1    0    0  503  502 -0.00000000000E+00 -0.00000000000E+00 -0.77131841565E+00  0.77131841565E+00  0.00000000000E+00 0.  1.
          2    1    1    2  501    0 -0.10897913459E+02 -0.24976467065E+02  0.18171308960E+04  0.18173352144E+04  0.00000000000E+00 0.  1.
         21    1    1    2  503  501  0.10897913459E+02  0.24976467065E+02  0.27676423273E+03  0.27810255113E+03  0.00000000000E+00 0.  1.
</event>
<event>
 4    1  0.2216341E+005  0.2181524E+02  0.7546771E-02  0.1507936E+00
          2   -1    0    0  503    0  0.00000000000E+00  0.00000000000E+00  0.34921556051E+02  0.34921556051E+02  0.00000000000E+00 0. -1.
         21   -1    0    0  501  502 -0.00000000000E+00 -0.00000000000E+00 -0.14856939518E+02  0.14856939518E+02  0.00000000000E+00 0. -1.
          2    1    1    2  501    0  0.13788747160E+01  0.21771614849E+02  0.17191187205E+02  0.27774834403E+02  0.00000000000E+00 0. -1.
         21    1    1    2  503  502 -0.13788747160E+01 -0.21771614849E+02  0.28734293278E+01  0.22003661166E+02  0.00000000000E+00 0. -1.
</event>
<event>
 4    1  0.2216341E+005  0.2726792E+02  0.7546771E-02  0.1444935E+00
          2   -1    0    0  502    0  0.00000000000E+00  0.00000000000E+00  0.43099116069E+03  0.43099116069E+03  0.00000000000E+00 0. -1.
         21   -1    0    0  503  502 -0.00000000000E+00 -0.00000000000E+00 -0.34807688526E+02  0.34807688526E+02  0.00000000000E+00 0. -1.
          2    1    1    2  501    0 -0.44538849543E+01  0.26901719472E+02  0.42514617957E+03  0.42601973382E+03  0.00000000000E+00 0. -1.
         21    1    1    2  503  501  0.44538849543E+01 -0.26901719472E+02 -0.28962707403E+02  0.39779115398E+02  0.00000000000E+00 0. -1.
</event>
<event>
 4    1  0.2216341E+005  0.2526634E+02  0.7546771E-02  0.1465846E+00
          2   -1    0    0  503    0  0.00000000000E+00  0.00000000000E+00  0.13677512199E+04  0.13677512199E+04  0.00000000000E+00 0. -1.
         21   -1    0    0  501  502 -0.00000000000E+00 -0.00000000000E+00 -0.30826749715E+02  0.30826749715E+02  0.00000000000E+00 0.  1.
          2    1    1    2  501    0 -0.11899347635E+02 -0.22288858916E+02  0.13624371206E+04  0.13626713820E+04  0.00000000000E+00 0. -1.
         21    1    1    2  503  502  0.11899347635E+02  0.22288858916E+02 -0.25512650397E+02  0.35906587643E+02  0.00000000000E+00 0.  1.
</event>
<event>
 4    1  0.2216341E+005  0.2778509E+02  0.7546771E-02  0.1439877E+00
          2   -1    0    0  502    0  0.00000000000E+00  0.00000000000E+00  0.45651249679E+03  0.45651249679E+03  0.00000000000E+00 0. -1.
         21   -1    0    0  503  502 -0.00000000000E+00 -0.00000000000E+00 -0.30038172840E+01  0.30038172840E+01  0.00000000000E+00 0. -1.
          2    1    1    2  501    0 -0.44183486166E+00 -0.27781580797E+02  0.37864065190E+03  0.37965873456E+03  0.00000000000E+00 0. -1.
         21    1    1    2  503  501  0.44183486166E+00  0.27781580797E+02  0.74868027605E+02  0.79857579522E+02  0.00000000000E+00 0. -1.
</event>
<event>
 4    1  0.2216341E+005  0.2369616E+02  0.7546771E-02  0.1483937E+00
          2   -1    0    0  502    0  0.00000000000E+00  0.00000000000E+00  0.14187099822E+02  0.14187099822E+02  0.00000000000E+00 0.  1.
         21   -1    0    0  503  502 -0.00000000000E+00 -0.00000000000E+00 -0.13557300695E+04  0.13557300695E+04  0.00000000000E+00 0.  1.
          2    1    1    2  501    0 -0.10157052979E+02  0.21408925707E+02  0.41148099530E+01  0.24050768929E+02  0.00000000000E+00 0.  1.
         21    1    1    2  503  501  0.10157052979E+02 -0.21408925707E+02 -0.13456577797E+04  0.13458664004E+04  0.00000000000E+00 0.  1.
</event>
<event>
 4    1  0.2216341E+005  0.2217546E+02  0.7546771E-02  0.1503120E+00
          2   -1    0    0  502    0  0.00000000000E+00  0.00000000000E+00  0.70919452690E+02  0.70919452690E+02  0.00000000000E+00 0.  1.
         21   -1    0    0  503  502 -0.00000000000E+00 -0.00000000000E+00 -0.10357350633E+02  0.10357350633E+02  0.00000000000E+00 0.  1.
          2    1    1    2  501    0 -0.28771979101E+01  0.21988012867E+02  0.53644771531E+02  0.58047502016E+02  0.00000000000E+00 0.  1.
         21    1    1    2  503  501  0.28771979101E+01 -0.21988012867E+02  0.69173305256E+01  0.23229301308E+02  0.00000000000E+00 0.  1.
</event>
<event>
 4    1  0.2216341E+005  0.2634491E+02  0.7546771E-02  0.1454302E+00
          2   -1    0    0  503    0  0.00000000000E+00  0.00000000000E+00  0.89167389308E+03  0.89167389308E+03  0.00000000000E+00 0. -1.
         21   -1    0    0  501  502 -0.00000000000E+00 -0.00000000000E+00 -0.14023251125E+02  0.14023251125E+02  0.00000000000E+00 0.  1.
          2    1    1    2  501    0 -0.56655295636E+01 -0.25728504300E+02  0.87892661301E+03  0.87932135491E+03  0.00000000000E+00 0. -1.
         21    1    1    2  503  502  0.56655295636E+01  0.25728504300E+02 -0.12759710467E+01  0.26375789294E+02  0.00000000000E+00 0.  1.
</event>
<event>
 4    1  0.2216341E+005  0.2004274E+02  0.7546771E-02  0.1533383E+00
          2   -1    0    0  503    0  0.00000000000E+00  0.00000000000E+00  0.10032807295E+04  0.10032807295E+04  0.00000000000E+00 0.  1.
         21   -1    0    0  501  502 -0.00000000000E+00 -0.00000000000E+00 -0.65616971223E+01  0.65616971223E+01  0.00000000000E+00 0. -1.
          2    1    1    2  501    0  0.16591167847E+02  0.11244764670E+02  0.98763299395E+03  0.98783634390E+03  0.00000000000E+00 0.  1.
         21    1    1    2  503  502 -0.16591167847E+02 -0.11244764670E+02  0.90860384417E+01  0.22006082740E+02  0.00000000000E+00 0. -1.
</event>
<event>
 4    1  0.2216341E+005  0.2144201E+02  0.7546771E-02  0.1513047E+00
          2   -1    0    0  503    0  0.00000000000E+00  0.00000000000E+00  0.43159299238E+02  0.43159299238E+02  0.00000000000E+00 0. -1.
         21   -1    0    0  501  502 -0.00000000000E+00 -0.00000000000E+00 -0.23919258970E+03  0.23919258970E+03  0.00000000000E+00 0.  1.
          2    1    1    2  501    0 -0.32997155559E+01 -0.21186591439E+02  0.39979806778E+02  0.45366780021E+02  0.00000000000E+00 0. -1.
         21    1    1    2  503  502  0.32997155559E+01  0.21186591439E+02 -0.23601309724E+03  0.23698510891E+03  0.00000000000E+00 0.  1.
</event>
<event>
 4    1  0.2216341E+005  0.2407868E+02  0.7546771E-02  0.1479380E+00
          2   -1    0    0  502    0  0.00000000000E+00  0.00000000000E+00  0.79919667104E+03  0.79919667104E+03  0.00000000000E+00 0. -1.
         21   -1    0    0  503  502 -0.00000000000E+00 -0.00000000000E+00 -0.72587355874E+00  0.72587355874E+00  0.00000000000E+00 0. -1.
          2    1    1    2  501    0 -0.37897189669E+00 -0.24075697070E+02  0.40881687192E+03  0.40952535645E+03  0.00000000000E+00 0. -1.
         21    1    1    2  503  501  0.37897189669E+00  0.24075697070E+02  0.38965392556E+03  0.39039718815E+03  0.00000000000E+00 0. -1.
</event>
<event>
 4    1  0.2216341E+005  0.2519007E+02  0.7546771E-02  0.1466688E+00
          2   -1    0    0  502    0  0.00000000000E+00  0.00000000000E+00  0.49653120233E+02  0.49653120233E+02  0.00000000000E+00 0.  1.
         21   -1    0    0  503  502 -0.00000000000E+00 -0.00000000000E+00 -0.19238505216E+02  0.19238505216E+02  0.00000000000E+00 0. -1.
          2    1    1    2  501    0  0.21622454085E+02 -0.12923198484E+02  0.35166145989E+02  0.43257339301E+02  0.00000000000E+00 0.  1.
         21    1    1    2  503  501 -0.21622454085E+02  0.12923198484E+02 -0.47515309721E+01  0.25634286147E+02  0.00000000000E+00 0. -1.
</event>
<event>
 4    1  0.2216341E+005  0.3392131E+02  0.7546771E-02  0.1388309E+00
          2   -1    0    0  503    0  0.00000000000E+00  0.00000000000E+00  0.10557068057E+04  0.10557068057E+04  0.00000000000E+00 0.  1.
         21   -1    0    0  501  502 -0.00000000000E+00 -0.00000000000E+00 -0.11335375079E+01  0.11335375079E+01  0.00000000000E+00 0. -1.
          2    1    1    2  501    0  0.23077263507E+02 -0.24861517909E+02  0.42365286497E+03  0.42500871186E+03  0.00000000000E+00 0.  1.
         21    1    1    2  503  502 -0.23077263507E+02  0.24861517909E+02  0.63092040324E+03  0.63183163137E+03  0.00000000000E+00 0. -1.
</event>
<event>
 4    1  0.2216341E+005  0.2990025E+02  0.7546771E-02  0.1420465E+00
          2   -1    0    0  503    0  0.00000000000E+00  0.00000000000E+00  0.85487000589E+02  0.85487000589E+02  0.00000000000E+00 0. -1.
         21   -1    0    0  501  502 -0.00000000000E+00 -0.00000000000E+00 -0.18264834363E+03  0.18264834363E+03  0.00000000000E+00 0. -1.
          2    1    1    2  501    0 -0.71533573950E+01 -0.29031952980E+02  0.81592225376E+02  0.86898308716E+02  0.00000000000E+00 0. -1.
         21    1    1    2  503  502  0.71533573950E+01  0.29031952980E+02 -0.17875356842E+03  0.18123703550E+03  0.00000000000E+00 0. -1.
</event>
<event>
 4    1  0.2216341E+005  0.2165140E+02  0.7546771E-02  0.1510164E+00
          2   -1    0    0  502    0  0.00000000000E+00  0.00000000000E+00  0.56038880945E+03  0.56038880945E+03  0.00000000000E+00 0. -1.
         21   -1    0    0  503  502 -0.00000000000E+00 -0.00000000000E+00 -0.88679745228E+00  0.88679745228E+00  0.00000000000E+00 0.  1.
          2    1    1    2  501    0  0.20421099807E+02 -0.71945754682E+01  0.34656512924E+03  0.34724079835E+03  0.00000000000E+00 0. -1.
         21    1    1    2  503  501 -0.20421099807E+02  0.71945754682E+01  0.21293688275E+03  0.21403480855E+03  0.00000000000E+00 0.  1.
</event>
<event>
 4    1  0.2216341E+005  0.2289906E+02  0.7546771E-02  0.1493770E+00
          2   -1    0    0  502    0  0.00000000000E+00  0.00000000000E+00  0.16313860934E+04  0.16313860934E+04  0.00000000000E+00 0. -1.
         21   -1    0    0  503  502 -0.00000000000E+00 -0.00000000000E+00 -0.88207890927E+01  0.88207890927E+01  0.00000000000E+00 0.  1.
          2    1    1    2  501    0 -0.19965548398E+02  0.11213554672E+02  0.16163054010E+04  0.16164676045E+04  0.00000000000E+00 0. -1.
         21    1    1    2  503  501  0.19965548398E+02 -0.11213554672E+02  0.62599032670E+01  0.23739278003E+02  0.00000000000E+00 0.  1.
</event>
<event>
 4    1  0.2216341E+005  0.2228824E+02  0.7546771E-02  0.1501635E+00
          2   -1    0    0  502    0  0.00000000000E+00  0.00000000000E+00  0.96949707329E+03  0.96949707329E+03  0.00000000000E+00 0. -1.
         21   -1    0    0  503  502 -0.00000000000E+00 -0.00000000000E+00 -0.43332046702E+01  0.43332046702E+01  0.00000000000E+00 0.  1.
          2    1    1    2  501    0 -0.16869541911E+02 -0.14566538742E+02  0.93980315212E+03  0.94006740728E+03  0.00000000000E+00 0. -1.
         21    1    1    2  503  501  0.16869541911E+02  0.14566538742E+02  0.25360716502E+02  0.33762870682E+02  0.00000000000E+00 0.  1.
</event>
<event>
 4    1  0.2216341E+005  0.2166264E+02  0.7546771E-02  0.1510011E+00
          2   -1    0    0  503    0  0.00000000000E+00  0.00000000000E+00  0.37812731745E+02  0.37812731745E+02  0.00000000000E+00 0.  1.
         21   -1    0    0  501  502 -0.00000000000E+00 -0.00000000000E+00 -0.20923167863E+03  0.20923167863E+03  0.00000000000E+00 0. -1.
          2    1    1    2  501    0  0.18553091270E+02  0.11182695817E+02  0.34093439383E+02  0.40393470888E+02  0.00000000000E+00 0.  1.
         21    1    1    2  503  502 -0.18553091270E+02 -0.11182695817E+02 -0.20551238627E+03  0.20665093949E+03  0.00000000000E+00 0. -1.
</event>
<event>
 4    1  0.2216341E+005  0.2132000E+02  0.7546771E-02  0.1514745E+00
          2   -1    0    0  503    0  0.00000000000E+00  0.00000000000E+00  0.53409792805E+02  0.53409792805E+02  0.00000000000E+00 0. -1.
         21   -1    0    0  501  502 -0.00000000000E+00 -0.00000000000E+00 -0.31971715446E+02  0.31971715446E+02  0.00000000000E+00 0.  1.
          2    1    1    2  501    0 -0.13733137089E+01  0.21275719745E+02  0.47289161841E+02  0.51872989781E+02  0.00000000000E+00 0. -1.
         21    1    1    2  503  502  0.13733137089E+01 -0.21275719745E+02 -0.25851084481E+02  0.33508518470E+02  0.00000000000E+00 0.  1.
</event>
<event>
 4    1  0.2216341E+005  0.2430614E+02  0.7546771E-02  0.1476717E+00
          2   -1    0    0  503    0  0.00000000000E+00  0.00000000000E+00  0.13859286969E+04  0.13859286969E+04  0.00000000000E+00 0. -1.
         21   -1    0    0  501  502 -0.00000000000E+00 -0.00000000000E+00 -0.66059423284E+00  0.66059423284E+00  0.00000000000E+00 0.  1.
          2    1    1    2  501    0 -0.23945161097E+02  0.41734252334E+01  0.11055421940E+04  0.11058093556E+04  0.00000000000E+00 0. -1.
         21    1    1    2  503  502  0.23945161097E+02 -0.41734252334E+01  0.27972590865E+03  0.28077993551E+03  0.00000000000E+00 0.  1.
</event>
<event>
 4    1  0.2216341E+005  0.2468503E+02  0.7546771E-02  0.1472358E+00
          2   -1    0    0  503    0  0.00000000000E+00  0.00000000000E+00  0.15498036384E+03  0.15498036384E+03  0.00000000000E+00 0. -1.
         21   -1    0    0  501  502 -0.00000000000E+00 -0.00000000000E+00 -0.40415994949E+01  0.40415994949E+01  0.00000000000E+00 0. -1.
          2    1    1    2  501    0 -0.64207868410E+01 -0.23835357172E+02  0.62363570825E+02  0.67071347990E+02  0.00000000000E+00 0. -1.
         21    1    1    2  503  502  0.64207868410E+01  0.23835357172E+02  0.88575193525E+02  0.91950615350E+02  0.00000000000E+00 0. -1.
</event>
<event>
 4    1  0.2216341E+005  0.2496642E+02  0.7546771E-02  0.1469179E+00
          2   -1    0    0  502    0  0.00000000000E+00  0.00000000000E+00  0.73192023134E+03  0.73192023134E+03  0.00000000000E+00 0.  1.
         21   -1    0    0  503  502 -0.00000000000E+00 -0.00000000000E+00 -0.13190965622E+01  0.13190965622E+01  0.00000000000E+00 0.  1.
          2    1    1    2  501    0 -0.47750830400E+01 -0.24505525189E+02  0.58355077634E+03  0.58408460923E+03  0.00000000000E+00 0.  1.
         21    1    1    2  503  501  0.47750830400E+01  0.24505525189E+02  0.14705035844E+03  0.14915471867E+03  0.00000000000E+00 0.  1.
</event>
<event>
 4    1  0.2216341E+005  0.5465301E+02  0.7546771E-02  0.1279168E+00
          2   -1    0    0  502    0  0.00000000000E+00  0.00000000000E+00  0.10648320814E+04  0.10648320814E+04  0.00000000000E+00 0.  1.
         21   -1    0    0  503  502 -0.00000000000E+00 -0.00000000000E+00 -0.25454771911E+03  0.25454771911E+03  0.00000000000E+00 0.  1.
          2    1    1    2  501    0  0.35090941578E+02 -0.41899609990E+02  0.10611871520E+04  0.10625935832E+04  0.00000000000E+00 0.  1.
         21    1    1    2  503  501 -0.35090941578E+02  0.41899609990E+02 -0.25090278973E+03  0.25678621729E+03  0.00000000000E+00 0.  1.
</event>
<event>
 4    1  0.2216341E+005  0.3966180E+02  0.7546771E-02  0.1350479E+00
          2   -1    0    0  502    0  0.00000000000E+00  0.00000000000E+00  0.41466376450E+01  0.41466376450E+01  0.00000000000E+00 0.  1.
         21   -1    0    0  503  502 -0.00000000000E+00 -0.00000000000E+00 -0.55450917471E+03  0.55450917471E+03  0.00000000000E+00 0. -1.
          2    1    1    2  501    0  0.39285672075E+02  0.54492557899E+01 -0.11819306972E+03  0.12467020554E+03  0.00000000000E+00 0.  1.
         21    1    1    2  503  501 -0.39285672075E+02 -0.54492557899E+01 -0.43216946734E+03  0.43398560681E+03  0.00000000000E+00 0. -1.
</event>
<event>
 4    1  0.2216341E+005  0.2882586E+02  0.7546771E-02  0.1430082E+00
          2   -1    0    0  503    0  0.00000000000E+00  0.00000000000E+00  0.10363420200E+02  0.10363420200E+02  0.00000000000E+00 0. -1.
         21   -1    0    0  501  502 -0.00000000000E+00 -0.00000000000E+00 -0.80330086851E+02  0.80330086851E+02  0.00000000000E+00 0. -1.
          2    1    1    2  501    0 -0.12090074345E+01 -0.28800496664E+02 -0.33017742918E+02  0.43830373652E+02  0.00000000000E+00 0. -1.
         21    1    1    2  503  502  0.12090074345E+01  0.28800496664E+02 -0.36948923732E+02  0.46863133400E+02  0.00000000000E+00 0. -1.
</event>
<event>
 4    1  0.2216341E+005  0.2075913E+02  0.7546771E-02  0.1522732E+00
          2   -1    0    0  503    0  0.00000000000E+00  0.00000000000E+00  0.99287011410E+03  0.99287011410E+03  0.00000000000E+00 0.  1.
         21   -1    0    0  501  502 -0.00000000000E+00 -0.00000000000E+00 -0.22605130213E+01  0.22605130213E+01  0.00000000000E+00 0.  1.
          2    1    1    2  501    0  0.18283754029E+02 -0.98308582228E+01  0.94255824045E+03  0.94278681476E+03  0.00000000000E+00 0.  1.
         21    1    1    2  503  502 -0.18283754029E+02  0.98308582228E+01  0.48051360628E+02  0.52343812366E+02  0.00000000000E+00 0.  1.
</event>
<event>
 4    1  0.2216341E+005  0.2247839E+02  0.7546771E-02  0.1499154E+00
          2   -1    0    0  503    0  0.00000000000E+00  0.00000000000E+00  0.84787014728E+03  0.84787014728E+03  0.00000000000E+00 0.  1.
         21   -1    0    0  501  502 -0.00000000000E+00 -0.00000000000E+00 -0.17819841981E+02  0.17819841981E+02  0.00000000000E+00 0. -1.
          2    1    1    2  501    0  0.22071555841E+02 -0.42572856271E+01  0.84057091790E+03  0.84087142065E+03  0.00000000000E+00 0.  1.
         21    1    1    2  503  502 -0.22071555841E+02  0.42572856271E+01 -0.10520612600E+02  0.24818568606E+02  0.00000000000E+00 0. -1.
</event>
<event>
 4    1  0.2216341E+005  0.6262619E+02  0.7546771E-02  0.1251162E+00
          2   -1    0    0  502    0  0.00000000000E+00  0.00000000000E+00  0.45349953043E+01  0.45349953043E+01  0.00000000000E+00 0.  1.
         21   -1    0    0  503  502 -0.00000000000E+00 -0.00000000000E+00 -0.10412792402E+04  0.10412792402E+04  0.00000000000E+00 0.  1.
          2    1    1    2  501    0  0.61097538150E+02  0.13752456961E+02 -0.30312359309E+03  0.30952536556E+03  0.00000000000E+00 0.  1.
         21    1    1    2  503  501 -0.61097538150E+02 -0.13752456961E+02 -0.73362065182E+03  0.73628886996E+03  0.00000000000E+00 0.  1.
</event>
<event>
 4    1  0.2216341E+005  0.2888803E+02  0.7546771E-02  0.1429512E+00
          2   -1    0    0  503    0  0.00000000000E+00  0.00000000000E+00  0.14431950797E+03  0.14431950797E+03  0.00000000000E+00 0. -1.
         21   -1    0    0  501  502 -0.00000000000E+00 -0.00000000000E+00 -0.26074108513E+02  0.26074108513E+02  0.00000000000E+00 0. -1.
          2    1    1    2  501    0  0.88685461631E+01  0.27493034358E+02  0.13428110091E+03  0.13735331125E+03  0.00000000000E+00 0. -1.
         21    1    1    2  503  502 -0.88685461631E+01 -0.27493034358E+02 -0.16035701450E+02  0.33040305238E+02  0.00000000000E+00 0. -1.
</event>
<event>
 4    1  0.2216341E+005  0.2158234E+02  0.7546771E-02  0.1511111E+00
          2   -1    0    0  503    0  0.00000000000E+00  0.00000000000E+00  0.16824902327E+03  0.16824902327E+03  0.00000000000E+00 0. -1.
         21   -1    0    0  501  502 -0.00000000000E+00 -0.00000000000E+00 -0.33030297934E+02  0.33030297934E+02  0.00000000000E+00 0.  1.
          2    1    1    2  501    0 -0.21574335564E+02  0.58764608510E+00  0.16393908033E+03  0.16535361908E+03  0.00000000000E+00 0. -1.
         21    1    1    2  503  502  0.21574335564E+02 -0.58764608510E+00 -0.28720354989E+02  0.35925702131E+02  0.00000000000E+00 0.  1.
</event>
<event>
 4    1  0.2216341E+005  0.3002652E+02  0.7546771E-02  0.1419366E+00
          2   -1    0    0  503    0  0.00000000000E+00  0.00000000000E+00  0.42155801462E+03  0.42155801462E+03  0.00000000000E+00 0.  1.
         21   -1    0    0  501  502 -0.00000000000E+00 -0.00000000000E+00 -0.24222249473E+01  0.24222249473E+01  0.00000000000E+00 0. -1.
          2    1    1    2  501    0  0.28175823720E+02 -0.10378579414E+02  0.28209384650E+03  0.28368738108E+03  0.00000000000E+00 0.  1.
         21    1    1    2  503  502 -0.28175823720E+02  0.10378579414E+02  0.13704194317E+03  0.14029285848E+03  0.00000000000E+00 0. -1.
</event>
<event>
 4    1  0.2216341E+005  0.2152733E+02  0.7546771E-02  0.1511867E+00
          2   -1    0    0  503    0  0.00000000000E+00  0.00000000000E+00  0.11019863684E+04  0.11019863684E+04  0.00000000000E+00 0.  1.
         21   -1    0    0  501  502 -0.00000000000E+00 -0.00000000000E+00 -0.10092516235E+01  0.10092516235E+01  0.00000000000E+00 0. -1.
          2    1    1    2  501    0  0.34316018328E+01  0.21252060908E+02  0.97169644562E+03  0.97193487869E+03  0.00000000000E+00 0.  1.
         21    1    1    2  503  502 -0.34316018328E+01 -0.21252060908E+02  0.12928067111E+03  0.13106074128E+03  0.00000000000E+00 0. -1.
</event>
<event>
 4    1  0.2216341E+005  0.2795920E+02  0.7546771E-02  0.1438204E+00
          2   -1    0    0  503    0  0.00000000000E+00  0.00000000000E+00  0.39155856002E+01  0.39155856002E+01  0.00000000000E+00 0. -1.
         21   -1    0    0  501  502 -0.00000000000E+00 -0.00000000000E+00 -0.20007541634E+03  0.20007541634E+03  0.00000000000E+00 0. -1.
          2    1    1    2  501    0 -0.13828656594E+01 -0.27924978111E+02 -0.93334653309E+02  0.97432408511E+02  0.00000000000E+00 0. -1.
         21    1    1    2  503  502  0.13828656594E+01  0.27924978111E+02 -0.10282517743E+03  0.10655859343E+03  0.00000000000E+00 0. -1.
</event>
<event>
 4    1  0.2216341E+005  0.4510597E+02  0.7546771E-02  0.1320910E+00
          2   -1    0    0  503    0  0.00000000000E+00  0.00000000000E+00  0.29705112068E+03  0.29705112068E+03  0.00000000000E+00 0.  1.
         21   -1    0    0  501  502 -0.00000000000E+00 -0.00000000000E+00 -0.16333739520E+02  0.16333739520E+02  0.00000000000E+00 0.  1.
          2    1    1    2  501    0  0.72155232853E+01 -0.44525104031E+02  0.25976145934E+03  0.26364856234E+03  0.00000000000E+00 0.  1.
         21    1    1    2  503  502 -0.72155232853E+01  0.44525104031E+02  0.20955921815E+02  0.49736297855E+02  0.00000000000E+00 0.  1.
</event>
<event>
 4    1  0.2216341E+005  0.3908800E+02  0.7546771E-02  0.1353915E+00
          2   -1    0    0  502    0  0.00000000000E+00  0.00000000000E+00  0.44101744887E+03  0.44101744887E+03  0.00000000000E+00 0. -1.
         21   -1    0    0  503  502 -0.00000000000E+00 -0.00000000000E+00 -0.15747757844E+03  0.15747757844E+03  0.00000000000E+00 0. -1.
          2    1    1    2  501    0  0.19711443357E+02 -0.33753971203E+02  0.43770749900E+03  0.43944934435E+03  0.00000000000E+00 0. -1.
         21    1    1    2  503  501 -0.19711443357E+02  0.33753971203E+02 -0.15416762857E+03  0.15904568296E+03  0.00000000000E+00 0. -1.
</event>
<event>
 4    1  0.2216341E+005  0.2025189E+02  0.7546771E-02  0.1530219E+00
          2   -1    0    0  502    0  0.00000000000E+00  0.00000000000E+00  0.13074923460E+03  0.13074923460E+03  0.00000000000E+00 0. -1.
         21   -1    0    0  503  502 -0.00000000000E+00 -0.00000000000E+00 -0.15030853836E+02  0.15030853836E+02  0.00000000000E+00 0.  1.
          2    1    1    2  501    0 -0.10686527758E+02 -0.17202829324E+02  0.12269883679E+03  0.12435893117E+03  0.00000000000E+00 0. -1.
         21    1    1    2  503  501  0.10686527758E+02  0.17202829324E+02 -0.69804560267E+01  0.21421157266E+02  0.00000000000E+00 0.  1.
</event>
<event>
 4    1  0.2216341E+005  0.2599149E+02  0.7546771E-02  0.1458010E+00
          2   -1    0    0  503    0  0.00000000000E+00  0.00000000000E+00  0.50760126601E+01  0.50760126601E+01  0.00000000000E+00 0. -1.
         21   -1    0    0  501  502 -0.00000000000E+00 -0.00000000000E+00 -0.13718313990E+03  0.13718313990E+03  0.00000000000E+00 0. -1.
          2    1    1    2  501    0  0.77297975930E+01 -0.24815479678E+02 -0.53764485946E+02  0.59717482796E+02  0.00000000000E+00 0. -1.
         21    1    1    2  503  502 -0.77297975930E+01  0.24815479678E+02 -0.78342641292E+02  0.82541669762E+02  0.00000000000E+00 0. -1.
</event>
<event>
 4    1  0.2216341E+005  0.6103434E+02  0.7546771E-02  0.1256358E+00
          2   -1    0    0  503    0  0.00000000000E+00  0.00000000000E+00  0.95803678969E+03  0.95803678969E+03  0.00000000000E+00 0. -1.
         21   -1    0    0  501  502 -0.00000000000E+00 -0.00000000000E+00 -0.19246270773E+03  0.19246270773E+03  0.00000000000E+00 0.  1.
          2    1    1    2  501    0 -0.57944838449E+02 -0.19172548442E+02  0.95219620213E+03  0.95415030172E+03  0.00000000000E+00 0. -1.
         21    1    1    2  503  502  0.57944838449E+02  0.19172548442E+02 -0.18662212017E+03  0.19634919570E+03  0.00000000000E+00 0.  1.
</event>
<event>
 4    1  0.2216341E+005  0.2350741E+02  0.7546771E-02  0.1486223E+00
          2   -1    0    0  503    0  0.00000000000E+00  0.00000000000E+00  0.37836627649E+03  0.37836627649E+03  0.00000000000E+00 0.  1.
         21   -1    0    0  501  502 -0.00000000000E+00 -0.00000000000E+00 -0.16199813406E+01  0.16199813406E+01  0.00000000000E+00 0.  1.
          2    1    1    2  501    0  0.27234923729E+01  0.23349111099E+02  0.24798845504E+03  0.24910012491E+03  0.00000000000E+00 0.  1.
         21    1    1    2  503  502 -0.27234923729E+01 -0.23349111099E+02  0.12875784011E+03  0.13088613291E+03  0.00000000000E+00 0.  1.
</event>
<event>
 4    1  0.2216341E+005  0.2061799E+02  0.7546771E-02  0.1524789E+00
          2   -1    0    0  502    0  0.00000000000E+00  0.00000000000E+00  0.59992200656E+02  0.59992200656E+02  0.00000000000E+00 0. -1.
         21   -1    0    0  503  502 -0.00000000000E+00 -0.00000000000E+00 -0.23156817794E+02  0.23156817794E+02  0.00000000000E+00 0. -1.
          2    1    1    2  501    0  0.75333019671E+00  0.20604222799E+02  0.53052070675E+02  0.56917692385E+02  0.00000000000E+00 0. -1.
         21    1    1    2  503  501 -0.75333019671E+00 -0.20604222799E+02 -0.16216687812E+02  0.26231326065E+02  0.00000000000E+00 0. -1.
</event>
<event>
 4    1  0.2216341E+005  0.2383171E+02  0.7546771E-02  0.1482310E+00
          2   -1    0    0  502    0  0.00000000000E+00  0.00000000000E+00  0.10788706059E+03  0.10788706059E+03  0.00000000000E+00 0.  1.
         21   -1    0    0  503  502 -0.00000000000E+00 -0.00000000000E+00 -0.20882509169E+02  0.20882509169E+02  0.00000000000E+00 0. -1.
          2    1    1    2  501    0 -0.97461450024E+01 -0.21747709220E+02  0.99183334062E+02  0.10200629370E+03  0.00000000000E+00 0.  1.
         21    1    1    2  503  501  0.97461450024E+01  0.21747709220E+02 -0.12178782642E+02  0.26763276058E+02  0.00000000000E+00 0. -1.
</event>
<event>
 4    1  0.2216341E+005  0.2023833E+02  0.7546771E-02  0.1530423E+00
          2   -1    0    0  503    0  0.00000000000E+00  0.00000000000E+00  0.57030078915E+03  0.57030078915E+03  0.00000000000E+00 0. -1.
         21   -1    0    0  501  502 -0.00000000000E+00 -0.00000000000E+00 -0.25166557150E+01  0.25166557150E+01  0.00000000000E+00 0. -1.
          2    1    1    2  501    0  0.18391313959E+02 -0.84468783607E+01  0.52600844985E+03  0.52639764390E+03  0.00000000000E+00 0. -1.
         21    1    1    2  503  502 -0.18391313959E+02  0.84468783607E+01  0.41775683580E+02  0.46419800967E+02  0.00000000000E+00 0. -1.
</event>
<event>
 4    1  0.2216341E+005  0.2021241E+02  0.7546771E-02  0.1530813E+00
          2   -1    0    0  502    0  0.00000000000E+00  0.00000000000E+00  0.11700940504E+04  0.11700940504E+04  0.00000000000E+00 0.  1.
         21   -1    0    0  503  502 -0.00000000000E+00 -0.00000000000E+00 -0.49339925830E+01  0.49339925830E+01  0.00000000000E+00 0. -1.
          2    1    1    2  501    0  0.77222408009E+01 -0.18679088072E+02  0.11489250449E+04  0.11491028240E+04  0.00000000000E+00 0.  1.
         21    1    1    2  503  501 -0.77222408009E+01  0.18679088072E+02  0.16235012890E+02  0.25925218953E+02  0.00000000000E+00 0. -1.
</event>
<event>
 4    1  0.2216341E+005  0.2070489E+02  0.7546771E-02  0.1523520E+00
          2   -1    0    0  502    0  0.00000000000E+00  0.00000000000E+00  0.10376278132E+04  0.10376278132E+04  0.00000000000E+00 0.  1.
         21   -1    0    0  503  502 -0.00000000000E+00 -0.00000000000E+00 -0.74945737352E+00  0.74945737352E+00  0.00000000000E+00 0. -1.
          2    1    1    2  501    0  0.20654574251E+02 -0.14425900017E+01  0.86623313878E+03  0.86648054983E+03  0.00000000000E+00 0.  1.
         21    1    1    2  503  501 -0.20654574251E+02  0.14425900017E+01  0.17064521704E+03  0.17189672074E+03  0.00000000000E+00 0. -1.
</event>
<event>
 4    1  0.2216341E+005  0.2176224E+02  0.7546771E-02  0.1508654E+00
          2   -1    0    0  503    0  0.00000000000E+00  0.00000000000E+00  0.15522986050E+01  0.15522986050E+01  0.00000000000E+00 0. -1.
         21   -1    0    0  501  502 -0.00000000000E+00 -0.00000000000E+00 -0.35448146548E+03  0.35448146548E+03  0.00000000000E+00 0.  1.
          2    1    1    2  501    0  0.20659945997E+02  0.68382421132E+01 -0.11001708319E+03  0.11214880079E+03  0.00000000000E+00 0. -1.
         21    1    1    2  503  502 -0.20659945997E+02 -0.68382421132E+01 -0.24291208368E+03  0.24388496330E+03  0.00000000000E+00 0.  1.
</event>
<event>
 4    1  0.2216341E+005  0.4139363E+02  0.7546771E-02  0.1340507E+00
          2   -1    0    0  502    0  0.00000000000E+00  0.00000000000E+00  0.22690162922E+04  0.22690162922E+04  0.00000000000E+00 0.  1.
         21   -1    0    0  503  502 -0.00000000000E+00 -0.00000000000E+00 -0.15136122935E+02  0.15136122935E+02  0.00000000000E+00 0. -1.
          2    1    1    2  501    0  0.15553275118E+02 -0.38360499225E+02  0.22401626417E+04  0.22405450438E+04  0.00000000000E+00 0.  1.
         21    1    1    2  503  501 -0.15553275118E+02  0.38360499225E+02  0.13717527568E+02  0.43607371284E+02  0.00000000000E+00 0. -1.
</event>
<event>
 4    1  0.2216341E+005  0.2398116E+02  0.7546771E-02  0.1480532E+00
          2   -1    0    0  503    0  0.00000000000E+00  0.00000000000E+00  0.88560067545E+03  0.88560067545E+03  0.00000000000E+00 0. -1.
         21   -1    0    0  501  502 -0.00000000000E+00 -0.00000000000E+00 -0.74325977828E+00  0.74325977828E+00  0.00000000000E+00 0. -1.
          2    1    1    2  501    0 -0.19237711356E+02 -0.14318046674E+02  0.28493039898E+03  0.28593780488E+03  0.00000000000E+00 0. -1.
         21    1    1    2  503  502  0.19237711356E+02  0.14318046674E+02  0.59992701669E+03  0.60040613034E+03  0.00000000000E+00 0. -1.
</event>
<event>
 4    1  0.2216341E+005  0.3761664E+02  0.7546771E-02  0.1363048E+00
          2   -1    0    0  503    0  0.00000000000E+00  0.00000000000E+00  0.14145491615E+03  0.14145491615E+03  0.00000000000E+00 0.  1.
         21   -1    0    0  501  502 -0.00000000000E+00 -0.00000000000E+00 -0.85800783440E+02  0.85800783440E+02  0.00000000000E+00 0.  1.
          2    1    1    2  501    0  0.28228340682E+02 -0.24863067193E+02  0.13462593427E+03  0.13978252217E+03  0.00000000000E+00 0.  1.
         21    1    1    2  503  502 -0.28228340682E+02  0.24863067193E+02 -0.78971801551E+02  0.87473177421E+02  0.00000000000E+00 0.  1.
</event>
<event>
 4    1  0.2216341E+005  0.3712870E+02  0.7546771E-02  0.1366186E+00
          2   -1    0    0  503    0  0.00000000000E+00  0.00000000000E+00  0.63316641766E+03  0.63316641766E+03  0.00000000000E+00 0. -1.
         21   -1    0    0  501  502 -0.00000000000E+00 -0.00000000000E+00 -0.27380579103E+01  0.27380579103E+01  0.00000000000E+00 0. -1.
          2    1    1    2  501    0 -0.16943611827E+02 -0.33037164749E+02  0.45911414558E+03  0.46061300341E+03  0.00000000000E+00 0. -1.
         21    1    1    2  503  502  0.16943611827E+02  0.33037164749E+02  0.17131421417E+03  0.17529147216E+03  0.00000000000E+00 0. -1.
</event>
<event>
 4    1  0.2216341E+005  0.2580159E+02  0.7546771E-02  0.1460032E+00
          2   -1    0    0  502    0  0.00000000000E+00  0.00000000000E+00  0.35419439446E+03  0.35419439446E+03  0.00000000000E+00 0.  1.
         21   -1    0    0  503  502 -0.00000000000E+00 -0.00000000000E+00 -0.78803224599E+01  0.78803224599E+01  0.00000000000E+00 0. -1.
          2    1    1    2  501    0  0.24159056507E+02 -0.90588031904E+01  0.33113634614E+03  0.33214003321E+03  0.00000000000E+00 0.  1.
         21    1    1    2  503  501 -0.24159056507E+02  0.90588031904E+01  0.15177725863E+02  0.29934683712E+02  0.00000000000E+00 0. -1.
</event>
<event>
 4    1  0.2216341E+005  0.2276144E+02  0.7546771E-02  0.1495516E+00
          2   -1    0    0  503    0  0.00000000000E+00  0.00000000000E+00  0.13757882733E+04  0.13757882733E+04  0.00000000000E+00 0. -1.
         21   -1    0    0  501  502 -0.00000000000E+00 -0.00000000000E+00 -0.40956248083E+00  0.40956248083E+00  0.00000000000E+00 0. -1.
          2    1    1    2  501    0 -0.17036355849E+02 -0.15094557247E+02  0.88298221796E+03  0.88327554042E+03  0.00000000000E+00 0. -1.
         21    1    1    2  503  502  0.17036355849E+02  0.15094557247E+02  0.49239649283E+03  0.49292229533E+03  0.00000000000E+00 0. -1.
</event>
<event>
 4    1  0.2216341E+005  0.3275597E+02  0.7546771E-02  0.1397065E+00
          2   -1    0    0  502    0  0.00000000000E+00  0.00000000000E+00  0.18036293369E+04  0.18036293369E+04  0.00000000000E+00 0. -1.
         21   -1    0    0  503  502 -0.00000000000E+00 -0.00000000000E+00 -0.92914760003E+00  0.92914760003E+00  0.00000000000E+00 0. -1.
          2    1    1    2  501    0 -0.28206516039E+02 -0.16653709750E+02  0.14425303509E+04  0.14429022028E+04  0.00000000000E+00 0. -1.
         21    1    1    2  503  501  0.28206516039E+02  0.16653709750E+02  0.36016983839E+03  0.36165628169E+03  0.00000000000E+00 0. -1.
</event>
<event>
 4    1  0.2216341E+005  0.5158048E+02  0.7546771E-02  0.1291462E+00
          2   -1    0    0  502    0  0.00000000000E+00  0.00000000000E+00  0.13361056348E+02  0.13361056348E+02  0.00000000000E+00 0.  1.
         21   -1    0    0  503  502 -0.00000000000E+00 -0.00000000000E+00 -0.68817395479E+03  0.68817395479E+03  0.00000000000E+00 0.  1.
          2    1    1    2  501    0  0.10412184364E+02  0.50518637503E+02 -0.41710385848E+02  0.66334776746E+02  0.00000000000E+00 0.  1.
         21    1    1    2  503  501 -0.10412184364E+02 -0.50518637503E+02 -0.63310251259E+03  0.63520023439E+03  0.00000000000E+00 0.  1.
</event>
<event>
 4    1  0.2216341E+005  0.2885692E+02  0.7546771E-02  0.1429797E+00
          2   -1    0    0  503    0  0.00000000000E+00  0.00000000000E+00  0.29283098632E+03  0.29283098632E+03  0.00000000000E+00 0. -1.
         21   -1    0    0  501  502 -0.00000000000E+00 -0.00000000000E+00 -0.10560883695E+02  0.10560883695E+02  0.00000000000E+00 0. -1.
          2    1    1    2  501    0  0.27452291607E+02  0.88934431865E+01  0.27080920076E+03  0.27234233028E+03  0.00000000000E+00 0. -1.
         21    1    1    2  503  502 -0.27452291607E+02 -0.88934431865E+01  0.11460901865E+02  0.31049539734E+02  0.00000000000E+00 0. -1.
</event>
<event>
 4    1  0.2216341E+005  0.5273949E+02  0.7546771E-02  0.1286713E+00
          2   -1    0    0  502    0  0.00000000000E+00  0.00000000000E+00  0.92983239355E+03  0.92983239355E+03  0.00000000000E+00 0.  1.
         21   -1    0    0  503  502 -0.00000000000E+00 -0.00000000000E+00 -0.44254329340E+01  0.44254329340E+01  0.00000000000E+00 0. -1.
          2    1    1    2  501    0  0.42056121356E+02  0.31823512690E+02  0.72862050064E+03  0.73052671906E+03  0.00000000000E+00 0.  1.
         21    1    1    2  503  501 -0.42056121356E+02 -0.31823512690E+02  0.19678645997E+03  0.20373110742E+03  0.00000000000E+00 0. -1.
</event>
<event>
 4    1  0.2216341E+005  0.2006912E+02  0.7546771E-02  0.1532982E+00
          2   -1    0    0  502    0  0.00000000000E+00  0.00000000000E+00  0.40502143712E+02  0.40502143712E+02  0.00000000000E+00 0. -1.
         21   -1    0    0  503  502 -0.00000000000E+00 -0.00000000000E+00 -0.27325349075E+02  0.27325349075E+02  0.00000000000E+00 0. -1.
          2    1    1    2  501    0  0.14466637381E+02  0.13909923099E+02  0.33636053681E+02  0.39168273705E+02  0.00000000000E+00 0. -1.
         21    1    1    2  503  501 -0.14466637381E+02 -0.13909923099E+02 -0.20459259045E+02  0.28659219082E+02  0.00000000000E+00 0. -1.
</event>
<event>
 4    1  0.2216341E+005  0.3862509E+02  0.7546771E-02  0.1356737E+00
          2   -1    0    0  503    0  0.00000000000E+00  0.00000000000E+00  0.52107000010E+03  0.52107000010E+03  0.00000000000E+00 0.  1.
         21   -1    0    0  501  502 -0.00000000000E+00 -0.00000000000E+00 -0.11006166464E+03  0.11006166464E+03  0.00000000000E+00 0.  1.
          2    1    1    2  501    0 -0.38622192023E+02  0.47351917703E+00  0.51693838994E+03  0.51837939478E+03  0.00000000000E+00 0.  1.
         21    1    1    2  503  502  0.38622192023E+02 -0.47351917703E+00 -0.10593005449E+03  0.11275226996E+03  0.00000000000E+00 0.  1.
</event>
<event>
 4    1  0.2216341E+005  0.2368006E+02  0.7546771E-02  0.1484131E+00
          2   -1    0    0  503    0  0.00000000000E+00  0.00000000000E+00  0.40185537329E+02  0.40185537329E+02  0.00000000000E+00 0.  1.
         21   -1    0    0  501  502 -0.00000000000E+00 -0.00000000000E+00 -0.20520173400E+03  0.20520173400E+03  0.00000000000E+00 0.  1.
          2    1    1    2  501    0  0.23335268948E+02  0.40262233281E+01  0.35940459445E+02  0.43040235551E+02  0.00000000000E+00 0.  1.
         21    1    1    2  503  502 -0.23335268948E+02 -0.40262233281E+01 -0.20095665612E+03  0.20234703578E+03  0.00000000000E+00 0.  1.
</event>
<event>
 4    1  0.2216341E+005  0.2447852E+02  0.7546771E-02  0.1474723E+00
          2   -1    0    0  503    0  0.00000000000E+00  0.00000000000E+00  0.85315658794E+02  0.85315658794E+02  0.00000000000E+00 0. -1.
         21   -1    0    0  501  502 -0.00000000000E+00 -0.00000000000E+00 -0.96839151157E+01  0.96839151157E+01  0.00000000000E+00 0. -1.
          2    1    1    2  501    0 -0.21973728066E+02  0.10786706143E+02  0.62713439782E+02  0.67321417720E+02  0.00000000000E+00 0. -1.
         21    1    1    2  503  502  0.21973728066E+02 -0.10786706143E+02  0.12918303897E+02  0.27678156190E+02  0.00000000000E+00 0. -1.
</event>
<event>
 4    1  0.2216341E+005  0.3555580E+02  0.7546771E-02  0.1376697E+00
          2   -1    0    0  503    0  0.00000000000E+00  0.00000000000E+00  0.75512835332E+02  0.75512835332E+02  0.00000000000E+00 0.  1.
         21   -1    0    0  501  502 -0.00000000000E+00 -0.00000000000E+00 -0.21904976316E+03  0.21904976316E+03  0.00000000000E+00 0.  1.
          2    1    1    2  501    0 -0.96860310768E+01  0.34211044569E+02  0.69772707978E+02  0.78309932621E+02  0.00000000000E+00 0.  1.
         21    1    1    2  503  502  0.96860310768E+01 -0.34211044569E+02 -0.21330963580E+03  0.21625266587E+03  0.00000000000E+00 0.  1.
</event>
<event>
 4    1  0.2216341E+005  0.2471707E+02  0.7546771E-02  0.1471994E+00
          2   -1    0    0  503    0  0.00000000000E+00  0.00000000000E+00  0.24269237213E+03  0.24269237213E+03  0.00000000000E+00 0.  1.
         21   -1    0    0  501  502 -0.00000000000E+00 -0.00000000000E+00 -0.60221380235E+01  0.60221380235E+01  0.00000000000E+00 0. -1.
          2    1    1    2  501    0 -0.82716005065E+01 -0.23291930562E+02  0.21320508550E+03  0.21463304006E+03  0.00000000000E+00 0.  1.
         21    1    1    2  503  502  0.82716005065E+01  0.23291930562E+02  0.23465148602E+02  0.34081470085E+02  0.00000000000E+00 0. -1.
</event>
<event>
 4    1  0.2216341E+005  0.3766177E+02  0.7546771E-02  0.1362761E+00
          2   -1    0    0  503    0  0.00000000000E+00  0.00000000000E+00  0.11537756684E+03  0.11537756684E+03  0.00000000000E+00 0. -1.
         21   -1    0    0  501  502 -0.00000000000E+00 -0.00000000000E+00 -0.15340415412E+02  0.15340415412E+02  0.00000000000E+00 0. -1.
          2    1    1    2  501    0  0.10886387440E+02 -0.36054064394E+02  0.79146382924E+02  0.87650207763E+02  0.00000000000E+00 0. -1.
         21    1    1    2  503  502 -0.10886387440E+02  0.36054064394E+02  0.20890768506E+02  0.43067774491E+02  0.00000000000E+00 0. -1.
</event>
<event>
 4    1  0.2216341E+005  0.3734505E+02  0.7546771E-02  0.1364788E+00
          2   -1    0    0  502    0  0.00000000000E+00  0.00000000000E+00  0.21505027376E+04  0.21505027376E+04  0.00000000000E+00 0.  1.
         21   -1    0    0  503  502 -0.00000000000E+00 -0.00000000000E+00 -0.26762727014E+01  0.26762727014E+01  0.00000000000E+00 0.  1.
          2    1    1    2  501    0  0.36198316134E+02  0.91834004041E+01  0.20110263369E+04  0.20113730585E+04  0.00000000000E+00 0.  1.
         21    1    1    2  503  501 -0.36198316134E+02 -0.91834004041E+01  0.13680012807E+03  0.14180595183E+03  0.00000000000E+00 0.  1.
</event>
<event>
 4    1  0.2216341E+005  0.2478276E+02  0.7546771E-02  0.1471248E+00
          2   -1    0    0  503    0  0.00000000000E+00  0.00000000000E+00  0.27002360542E+04  0.27002360542E+04  0.00000000000E+00 0.  1.
         21   -1    0    0  501  502 -0.00000000000E+00 -0.00000000000E+00 -0.25048596505E+00  0.25048596505E+00  0.00000000000E+00 0.  1.
          2    1    1    2  501    0 -0.60685898846E+01 -0.24028258544E+02  0.94057508491E+03  0.94090152266E+03  0.00000000000E+00 0.  1.
         21    1    1    2  503  502  0.60685898846E+01  0.24028258544E+02  0.17594104833E+04  0.17595850175E+04  0.00000000000E+00 0.  1.
</event>
<event>
 4    1  0.2216341E+005  0.3075049E+02  0.7546771E-02  0.1413185E+00
          2   -1    0    0  503    0  0.00000000000E+00  0.00000000000E+00  0.10333921324E+04  0.10333921324E+04  0.00000000000E+00 0. -1.
         21   -1    0    0  501  502 -0.00000000000E+00 -0.00000000000E+00 -0.19466975128E+03  0.19466975128E+03  0.00000000000E+00 0.  1.
          2    1    1    2  501    0 -0.15233718371E+02 -0.26711912685E+02  0.10319473186E+04  0.10324053762E+04  0.00000000000E+00 0. -1.
         21    1    1    2  503  502  0.15233718371E+02  0.26711912685E+02 -0.19322493748E+03  0.19565650748E+03  0.00000000000E+00 0.  1.
</event>
<event>
 4    1  0.2216341E+005  0.2068056E+02  0.7546771E-02  0.1523875E+00
          2   -1    0    0  502    0  0.00000000000E+00  0.00000000000E+00  0.19258662056E+02  0.19258662056E+02  0.00000000000E+00 0.  1.
         21   -1    0    0  503  502 -0.00000000000E+00 -0.00000000000E+00 -0.41489752190E+02  0.41489752190E+02  0.00000000000E+00 0. -1.
          2    1    1    2  501    0  0.19362091656E+01 -0.20589717075E+02  0.95913135098E+01  0.22796461348E+02  0.00000000000E+00 0.  1.
         21    1    1    2  503  501 -0.19362091656E+01  0.20589717075E+02 -0.31822403644E+02  0.37951952899E+02  0.00000000000E+00 0. -1.
</event>
<event>
 4    1  0.2216341E+005  0.2602284E+02  0.7546771E-02  0.1457679E+00
          2   -1    0    0  502    0  0.00000000000E+00  0.00000000000E+00  0.11414435434E+04  0.11414435434E+04  0.00000000000E+00 0. -1.
         21   -1    0    0  503  502 -0.00000000000E+00 -0.00000000000E+00 -0.19535196265E+01  0.19535196265E+01  0.00000000000E+00 0. -1.
          2    1    1    2  501    0  0.15625482855E+02 -0.20809431370E+02  0.10467983556E+04  0.10471217625E+04  0.00000000000E+00 0. -1.
         21    1    1    2  503  501 -0.15625482855E+02  0.20809431370E+02  0.92691668120E+02  0.96275300504E+02  0.00000000000E+00 0. -1.
</event>
<event>
 4    1  0.2216341E+005  0.2030921E+02  0.7546771E-02  0.1529360E+00
          2   -1    0    0  503    0  0.00000000000E+00  0.00000000000E+00  0.43469762502E+03  0.43469762502E+03  0.00000000000E+00 0.  1.
         21   -1    0    0  501  502 -0.00000000000E+00 -0.00000000000E+00 -0.42562993200E+01  0.42562993200E+01  0.00000000000E+00 0.  1.
          2    1    1    2  501    0 -0.19690282642E+02  0.49756367637E+01  0.40869316784E+03  0.40919747022E+03  0.00000000000E+00 0.  1.
         21    1    1    2  503  502  0.19690282642E+02 -0.49756367637E+01  0.21748157857E+02  0.29756454122E+02  0.00000000000E+00 0.  1.
</event>
<event>
 4    1  0.2216341E+005  0.2151810E+02  0.7546771E-02  0.1511995E+00
          2   -1    0    0  502    0  0.00000000000E+00  0.00000000000E+00  0.57461896149E+02  0.57461896149E+02  0.00000000000E+00 0.  1.
         21   -1    0    0  503  502 -0.00000000000E+00 -0.00000000000E+00 -0.28823633327E+02  0.28823633327E+02  0.00000000000E+00 0.  1.
          2    1    1    2  501    0 -0.20244291373E+02  0.72936364601E+01  0.50938100092E+02  0.55296641010E+02  0.00000000000E+00 0.  1.
         21    1    1    2  503  501  0.20244291373E+02 -0.72936364601E+01 -0.22299837270E+02  0.30988888465E+02  0.00000000000E+00 0.  1.
</event>
<event>
 4    1  0.2216341E+005  0.2023913E+02  0.7546771E-02  0.1530411E+00
          2   -1    0    0  502    0  0.00000000000E+00  0.00000000000E+00  0.50380285003E+02  0.50380285003E+02  0.00000000000E+00 0.  1.
         21   -1    0    0  503  502 -0.00000000000E+00 -0.00000000000E+00 -0.45096533721E+02  0.45096533721E+02  0.00000000000E+00 0.  1.
          2    1    1    2  501    0  0.19453592752E+02 -0.55839071173E+01  0.45863109772E+02  0.50130301491E+02  0.00000000000E+00 0.  1.
         21    1    1    2  503  501 -0.19453592752E+02  0.55839071173E+01 -0.40579358490E+02  0.45346517233E+02  0.00000000000E+00 0.  1.
</event>
<event>
 4    1  0.2216341E+005  0.3163626E+02  0.7546771E-02  0.1405891E+00
          2   -1    0    0  502    0  0.00000000000E+00  0.00000000000E+00  0.20948525231E+03  0.20948525231E+03  0.00000000000E+00 0.  1.
         21   -1    0    0  503  502 -0.00000000000E+00 -0.00000000000E+00 -0.73016081730E+01  0.73016081730E+01  0.00000000000E+00 0.  1.
          2    1    1    2  501    0  0.18119428224E+02  0.25933362095E+02  0.16482013486E+03  0.16782887059E+03  0.00000000000E+00 0.  1.
         21    1    1    2  503  501 -0.18119428224E+02 -0.25933362095E+02  0.37363509276E+02  0.48957989891E+02  0.00000000000E+00 0.  1.
</event>
<event>
 4    1  0.2216341E+005  0.2010044E+02  0.7546771E-02  0.1532506E+00
          2   -1    0    0  502    0  0.00000000000E+00  0.00000000000E+00  0.15942505571E+04  0.15942505571E+04  0.00000000000E+00 0.  1.
         21   -1    0    0  503  502 -0.00000000000E+00 -0.00000000000E+00 -0.83433848766E+00  0.83433848766E+00  0.00000000000E+00 0. -1.
          2    1    1    2  501    0  0.18497017029E+02  0.78669013507E+01  0.14621915692E+04  0.14623297209E+04  0.00000000000E+00 0.  1.
         21    1    1    2  503  501 -0.18497017029E+02 -0.78669013507E+01  0.13122464939E+03  0.13275517460E+03  0.00000000000E+00 0. -1.
</event>
<event>
 4    1  0.2216341E+005  0.2784288E+02  0.7546771E-02  0.1439320E+00
          2   -1    0    0  503    0  0.00000000000E+00  0.00000000000E+00  0.81375966630E+03  0.81375966630E+03  0.00000000000E+00 0. -1.
         21   -1    0    0  501  502 -0.00000000000E+00 -0.00000000000E+00 -0.77563671165E+03  0.77563671165E+03  0.00000000000E+00 0.  1.
          2    1    1    2  501    0 -0.18708819480E+01 -0.27779952369E+02  0.81327148693E+03  0.81374795693E+03  0.00000000000E+00 0. -1.
         21    1    1    2  503  502  0.18708819480E+01  0.27779952369E+02 -0.77514853228E+03  0.77564842103E+03  0.00000000000E+00 0.  1.
</event>
<event>
 4    1  0.2216341E+005  0.2197700E+02  0.7546771E-02  0.1505760E+00
          2   -1    0    0  503    0  0.00000000000E+00  0.00000000000E+00  0.43675306430E+03  0.43675306430E+03  0.00000000000E+00 0. -1.
         21   -1    0    0  501  502 -0.00000000000E+00 -0.00000000000E+00 -0.14339905520E+01  0.14339905520E+01  0.00000000000E+00 0.  1.
          2    1    1    2  501    0  0.99621864816E+01  0.19589365303E+02  0.32246375302E+03  0.32321178878E+03  0.00000000000E+00 0. -1.
         21    1    1    2  503  502 -0.99621864816E+01 -0.19589365303E+02  0.11285532073E+03  0.11497526608E+03  0.00000000000E+00 0.  1.
</event>
<event>
 4    1  0.2216341E+005  0.2249279E+02  0.7546771E-02  0.1498967E+00
          2   -1    0    0  503    0  0.00000000000E+00  0.00000000000E+00  0.50694534503E+03  0.50694534503E+03  0.00000000000E+00 0.  1.
         21   -1    0    0  501  502 -0.00000000000E+00 -0.00000000000E+00 -0.43513098391E+01  0.43513098391E+01  0.00000000000E+00 0.  1.
          2    1    1    2  501    0 -0.13079183522E+02 -0.18299192665E+02  0.47572166646E+03  0.47625311488E+03  0.00000000000E+00 0.  1.
         21    1    1    2  503  502  0.13079183522E+02  0.18299192665E+02  0.26872368734E+02  0.35043539991E+02  0.00000000000E+00 0.  1.
</event>
<event>
 4    1  0.2216341E+005  0.2161908E+02  0.7546771E-02  0.1510607E+00
          2   -1    0    0  502    0  0.00000000000E+00  0.00000000000E+00  0.46446522739E+03  0.46446522739E+03  0.00000000000E+00 0. -1.
         21   -1    0    0  503  502 -0.00000000000E+00 -0.00000000000E+00 -0.25666064762E+01  0.25666064762E+01  0.00000000000E+00 0. -1.
          2    1    1    2  501    0 -0.10194787249E+02 -0.19064388811E+02  0.41302158751E+03  0.41358701184E+03  0.00000000000E+00 0. -1.
         21    1    1    2  503  501  0.10194787249E+02  0.19064388811E+02  0.48877033405E+02  0.53444822035E+02  0.00000000000E+00 0. -1.
</event>
<event>
 4    1  0.2216341E+005  0.2820722E+02  0.7546771E-02  0.1435844E+00
          2   -1    0    0  503    0  0.00000000000E+00  0.00000000000E+00  0.19087249263E+03  0.19087249263E+03  0.00000000000E+00 0.  1.
         21   -1    0    0  501  502 -0.00000000000E+00 -0.00000000000E+00 -0.51929675983E+01  0.51929675983E+01  0.00000000000E+00 0.  1.
          2    1    1    2  501    0 -0.56958504525E+01 -0.27626158181E+02  0.13638268521E+03  0.13926910696E+03  0.00000000000E+00 0.  1.
         21    1    1    2  503  502  0.56958504525E+01  0.27626158181E+02  0.49296839818E+02  0.56796353266E+02  0.00000000000E+00 0.  1.
</event>
<event>
 4    1  0.2216341E+005  0.5889984E+02  0.7546771E-02  0.1263617E+00
          2   -1    0    0  503    0  0.00000000000E+00  0.00000000000E+00  0.11519031224E+04  0.11519031224E+04  0.00000000000E+00 0. -1.
         21   -1    0    0  501  502 -0.00000000000E+00 -0.00000000000E+00 -0.79537815936E+01  0.79537815936E+01  0.00000000000E+00 0. -1.
          2    1    1    2  501    0  0.14480265195E+02 -0.57092143395E+02  0.10291074643E+04  0.10307916200E+04  0.00000000000E+00 0. -1.
         21    1    1    2  503  502 -0.14480265195E+02  0.57092143395E+02  0.11484187656E+03  0.12906528398E+03  0.00000000000E+00 0. -1.
</event>
<event>
 4    1  0.2216341E+005  0.4905384E+02  0.7546771E-02  0.1302328E+00
          2   -1    0    0  502    0  0.00000000000E+00  0.00000000000E+00  0.20584436044E+02  0.20584436044E+02  0.00000000000E+00 0.  1.
         21   -1    0    0  503  502 -0.00000000000E+00 -0.00000000000E+00 -0.27760820258E+03  0.27760820258E+03  0.00000000000E+00 0.  1.
          2    1    1    2  501    0 -0.40540520416E+02 -0.27617847658E+02 -0.15070240751E+02  0.51316580763E+02  0.00000000000E+00 0.  1.
         21    1    1    2  503  501  0.40540520416E+02  0.27617847658E+02 -0.24195352579E+03  0.24687605786E+03  0.00000000000E+00 0.  1.
</event>
<event>
 4    1  0.2216341E+005  0.2113595E+02  0.7546771E-02  0.1517333E+00
          2   -1    0    0  503    0  0.00000000000E+00  0.00000000000E+00  0.27576244159E+01  0.27576244159E+01  0.00000000000E+00 0. -1.
         21   -1    0    0  501  502 -0.00000000000E+00 -0.00000000000E+00 -0.33741788849E+03  0.33741788849E+03  0.00000000000E+00 0.  1.
          2    1    1    2  501    0 -0.50254771615E+01  0.20529807089E+02 -0.44691026877E+02  0.49436993063E+02  0.00000000000E+00 0. -1.
         21    1    1    2  503  502  0.50254771615E+01 -0.20529807089E+02 -0.28996923720E+03  0.29073851984E+03  0.00000000000E+00 0.  1.
</event>
<event>
 4    1  0.2216341E+005  0.3090906E+02  0.7546771E-02  0.1411858E+00
          2   -1    0    0  503    0  0.00000000000E+00  0.00000000000E+00  0.59701986580E+03  0.59701986580E+03  0.00000000000E+00 0. -1.
         21   -1    0    0  501  502 -0.00000000000E+00 -0.00000000000E+00 -0.19346487444E+02  0.19346487444E+02  0.00000000000E+00 0.  1.
          2    1    1    2  501    0 -0.51678769884E+01  0.30473971639E+02  0.58399922771E+03  0.58481661045E+03  0.00000000000E+00 0. -1.
         21    1    1    2  503  502  0.51678769884E+01 -0.30473971639E+02 -0.63258493534E+01  0.31549742789E+02  0.00000000000E+00 0.  1.
</event>
<event>
 4    1  0.2216341E+005  0.4831638E+02  0.7546771E-02  0.1305642E+00
          2   -1    0    0  502    0  0.00000000000E+00  0.00000000000E+00  0.21865196829E+03  0.21865196829E+03  0.00000000000E+00 0.  1.
         21   -1    0    0  503  502 -0.00000000000E+00 -0.00000000000E+00 -0.14489783486E+03  0.14489783486E+03  0.00000000000E+00 0. -1.
          2    1    1    2  501    0 -0.20431178679E+02 -0.43784014469E+02  0.21182688115E+03  0.21726734813E+03  0.00000000000E+00 0.  1.
         21    1    1    2  503  501  0.20431178679E+02  0.43784014469E+02 -0.13807274771E+03  0.14628245502E+03  0.00000000000E+00 0. -1.
</event>
<event>
 4    1  0.2216341E+005  0.2505164E+02  0.7546771E-02  0.1468226E+00
          2   -1    0    0  503    0  0.00000000000E+00  0.00000000000E+00  0.20989268929E+04  0.20989268929E+04  0.00000000000E+00 0. -1.
         21   -1    0    0  501  502 -0.00000000000E+00 -0.00000000000E+00 -0.43770078004E+00  0.43770078004E+00  0.00000000000E+00 0.  1.
          2    1    1    2  501    0  0.24018669308E+02  0.71195654191E+01  0.16401317214E+04  0.16403230317E+04  0.00000000000E+00 0. -1.
         21    1    1    2  503  502 -0.24018669308E+02 -0.71195654191E+01  0.45835747071E+03  0.45904156200E+03  0.00000000000E+00 0.  1.
</event>
<event>
 4    1  0.2216341E+005  0.3374022E+02  0.7546771E-02  0.1389643E+00
          2   -1    0    0  502    0  0.00000000000E+00  0.00000000000E+00  0.61137449728E+01  0.61137449728E+01  0.00000000000E+00 0.  1.
         21   -1    0    0  503  502 -0.00000000000E+00 -0.00000000000E+00 -0.23094529672E+03  0.23094529672E+03  0.00000000000E+00 0. -1.
          2    1    1    2  501    0  0.33205687782E+02  0.59820367791E+01 -0.60245001119E+02  0.69049711259E+02  0.00000000000E+00 0.  1.
         21    1    1    2  503  501 -0.33205687782E+02 -0.59820367791E+01 -0.16458655063E+03  0.16800933044E+03  0.00000000000E+00 0. -1.
</event>
<event>
 4    1  0.2216341E+005  0.3046465E+02  0.7546771E-02  0.1415601E+00
          2   -1    0    0  502    0  0.00000000000E+00  0.00000000000E+00  0.50503428738E+03  0.50503428738E+03  0.00000000000E+00 0.  1.
         21   -1    0    0  503  502 -0.00000000000E+00 -0.00000000000E+00 -0.47990616701E+01  0.47990616701E+01  0.00000000000E+00 0. -1.
          2    1    1    2  501    0 -0.26732243633E+02  0.14611035159E+02  0.45036493669E+03  0.45139414197E+03  0.00000000000E+00 0.  1.
         21    1    1    2  503  501  0.26732243633E+02 -0.14611035159E+02  0.49870289018E+02  0.58439207086E+02  0.00000000000E+00 0. -1.
</event>
<event>
 4    1  0.2216341E+005  0.3830326E+02  0.7546771E-02  0.1358726E+00
          2   -1    0    0  502    0  0.00000000000E+00  0.00000000000E+00  0.71244679745E+03  0.71244679745E+03  0.00000000000E+00 0.  1.
         21   -1    0    0  503  502 -0.00000000000E+00 -0.00000000000E+00 -0.12223960300E+03  0.12223960300E+03  0.00000000000E+00 0. -1.
          2    1    1    2  501    0 -0.21687308630E+02 -0.31572141362E+02  0.70891650149E+03  0.70995052331E+03  0.00000000000E+00 0.  1.
         21    1    1    2  503  501  0.21687308630E+02  0.31572141362E+02 -0.11870930705E+03  0.12473587714E+03  0.00000000000E+00 0. -1.
</event>
<event>
 4    1  0.2216341E+005  0.2842146E+02  0.7546771E-02  0.1433829E+00
          2   -1    0    0  503    0  0.00000000000E+00  0.00000000000E+00  0.89349901580E+03  0.89349901580E+03  0.00000000000E+00 0. -1.
         21   -1    0    0  501  502 -0.00000000000E+00 -0.00000000000E+00 -0.11671291753E+01  0.11671291753E+01  0.00000000000E+00 0.  1.
          2    1    1    2  501    0  0.21862199963E+02  0.18161042333E+02  0.65854133532E+03  0.65915435944E+03  0.00000000000E+00 0. -1.
         21    1    1    2  503  502 -0.21862199963E+02 -0.18161042333E+02  0.23379055130E+03  0.23551178553E+03  0.00000000000E+00 0.  1.
</event>
<event>
 4    1  0.2216341E+005  0.2178847E+02  0.7546771E-02  0.1508299E+00
          2   -1    0    0  502    0  0.00000000000E+00  0.00000000000E+00  0.14664105613E+04  0.14664105613E+04  0.00000000000E+00 0.  1.
         21   -1    0    0  503  502 -0.00000000000E+00 -0.00000000000E+00 -0.87084057636E+00  0.87084057636E+00  0.00000000000E+00 0. -1.
          2    1    1    2  501    0  0.17407037764E+02  0.13104666311E+02  0.13142665843E+04  0.13144471811E+04  0.00000000000E+00 0.  1.
         21    1    1    2  503  501 -0.17407037764E+02 -0.13104666311E+02  0.15127313643E+03  0.15283422080E+03  0.00000000000E+00 0. -1.
</event>
<event>
 4    1  0.2216341E+005  0.2141613E+02  0.7546771E-02  0.1513406E+00
          2   -1    0    0  502    0  0.00000000000E+00  0.00000000000E+00  0.22456925462E+03  0.22456925462E+03  0.00000000000E+00 0. -1.
         21   -1    0    0  503  502 -0.00000000000E+00 -0.00000000000E+00 -0.36529097124E+01  0.36529097124E+01  0.00000000000E+00 0.  1.
          2    1    1    2  501    0  0.53914249860E+01 -0.20726387335E+02  0.18622791700E+03  0.18745529512E+03  0.00000000000E+00 0. -1.
         21    1    1    2  503  501 -0.53914249860E+01  0.20726387335E+02  0.34688427907E+02  0.40766869220E+02  0.00000000000E+00 0.  1.
</event>
<event>
 4    1  0.2216341E+005  0.3710412E+02  0.7546771E-02  0.1366345E+00
          2   -1    0    0  503    0  0.00000000000E+00  0.00000000000E+00  0.12124449296E+02  0.12124449296E+02  0.00000000000E+00 0. -1.
         21   -1    0    0  501  502 -0.00000000000E+00 -0.00000000000E+00 -0.18644604687E+03  0.18644604687E+03  0.00000000000E+00 0.  1.
          2    1    1    2  501    0  0.36924309950E+02  0.36483870532E+01 -0.25079040015E+02  0.44784747866E+02  0.00000000000E+00 0. -1.
         21    1    1    2  503  502 -0.36924309950E+02 -0.36483870532E+01 -0.14924255756E+03  0.15378574830E+03  0.00000000000E+00 0.  1.
</event>
<event>
 4    1  0.2216341E+005  0.2050755E+02  0.7546771E-02  0.1526413E+00
          2   -1    0    0  502    0  0.00000000000E+00  0.00000000000E+00  0.47831278756E+02  0.47831278756E+02  0.00000000000E+00 0. -1.
         21   -1    0    0  503  502 -0.00000000000E+00 -0.00000000000E+00 -0.66686354913E+02  0.66686354913E+02  0.00000000000E+00 0.  1.
          2    1    1    2  501    0 -0.18397840971E+02  0.90597392826E+01  0.43923132929E+02  0.48474746359E+02  0.00000000000E+00 0. -1.
         21    1    1    2  503  501  0.18397840971E+02 -0.90597392826E+01 -0.62778209086E+02  0.66042887310E+02  0.00000000000E+00 0.  1.
</event>
<event>
 4    1  0.2216341E+005  0.2498020E+02  0.7546771E-02  0.1469025E+00
          2   -1    0    0  502    0  0.00000000000E+00  0.00000000000E+00  0.92843542003E+03  0.92843542003E+03  0.00000000000E+00 0.  1.
         21   -1    0    0  503  502 -0.00000000000E+00 -0.00000000000E+00 -0.78171304199E+00  0.78171304199E+00  0.00000000000E+00 0.  1.
          2    1    1    2  501    0 -0.10806652869E+02  0.22521690455E+02  0.63779742237E+03  0.63828642651E+03  0.00000000000E+00 0.  1.
         21    1    1    2  503  501  0.10806652869E+02 -0.22521690455E+02  0.28985628462E+03  0.29093070656E+03  0.00000000000E+00 0.  1.
</event>
<event>
 4    1  0.2216341E+005  0.4417812E+02  0.7546771E-02  0.1325601E+00
          2   -1    0    0  502    0  0.00000000000E+00  0.00000000000E+00  0.59530791300E+03  0.59530791300E+03  0.00000000000E+00 0. -1.
         21   -1    0    0  503  502 -0.00000000000E+00 -0.00000000000E+00 -0.96233416918E+01  0.96233416918E+01  0.00000000000E+00 0. -1.
          2    1    1    2  501    0 -0.26864730962E+02  0.35071247805E+02  0.53843987005E+03  0.54024920162E+03  0.00000000000E+00 0. -1.
         21    1    1    2  503  501  0.26864730962E+02 -0.35071247805E+02  0.47244701250E+02  0.64682053063E+02  0.00000000000E+00 0. -1.
</event>
<event>
 4    1  0.2216341E+005  0.3971256E+02  0.7546771E-02  0.1350178E+00
          2   -1    0    0  502    0  0.00000000000E+00  0.00000000000E+00  0.14534290224E+04  0.14534290224E+04  0.00000000000E+00 0. -1.
         21   -1    0    0  503  502 -0.00000000000E+00 -0.00000000000E+00 -0.53912080971E+03  0.53912080971E+03  0.00000000000E+00 0.  1.
          2    1    1    2  501    0  0.33236061306E+02  0.21735947200E+02  0.14524259237E+04  0.14529687371E+04  0.00000000000E+00 0. -1.
         21    1    1    2  503  501 -0.33236061306E+02 -0.21735947200E+02 -0.53811771102E+03  0.53958109500E+03  0.00000000000E+00 0.  1.
</event>
<event>
 4    1  0.2216341E+005  0.2142759E+02  0.7546771E-02  0.1513247E+00
          2   -1    0    0  503    0  0.00000000000E+00  0.00000000000E+00  0.94858044972E+02  0.94858044972E+02  0.00000000000E+00 0. -1.
         21   -1    0    0  501  502 -0.00000000000E+00 -0.00000000000E+00 -0.48452897312E+01  0.48452897312E+01  0.00000000000E+00 0. -1.
          2    1    1    2  501    0  0.19076730856E+02 -0.97580683070E+01  0.46605876675E+02  0.51295704478E+02  0.00000000000E+00 0. -1.
         21    1    1    2  503  502 -0.19076730856E+02  0.97580683070E+01  0.43406878565E+02  0.48407630225E+02  0.00000000000E+00 0. -1.
</event>
<event>
 4    1  0.2216341E+005  0.2442906E+02  0.7546771E-02  0.1475293E+00
          2   -1    0    0  502    0  0.00000000000E+00  0.00000000000E+00  0.26825030342E+02  0.26825030342E+02  0.00000000000E+00 0. -1.
         21   -1    0    0  503  502 -0.00000000000E+00 -0.00000000000E+00 -0.91680755029E+02  0.91680755029E+02  0.00000000000E+00 0. -1.
          2    1    1    2  501    0 -0.19937288674E+02  0.14116785944E+02  0.19137192156E+02  0.31032422540E+02  0.00000000000E+00 0. -1.
         21    1    1    2  503  501  0.19937288674E+02 -0.14116785944E+02 -0.83992916843E+02  0.87473362831E+02  0.00000000000E+00 0. -1.
</event>
<event>
 4    1  0.2216341E+005  0.3711967E+02  0.7546771E-02  0.1366245E+00
          2   -1    0    0  503    0  0.00000000000E+00  0.00000000000E+00  0.13101188884E+04  0.13101188884E+04  0.00000000000E+00 0.  1.
         21   -1    0    0  501  502 -0.00000000000E+00 -0.00000000000E+00 -0.44429475955E+01  0.44429475955E+01  0.00000000000E+00 0. -1.
          2    1    1    2  501    0  0.17220938776E+02  0.32883261391E+02  0.12270791315E+04  0.12276404460E+04  0.00000000000E+00 0.  1.
         21    1    1    2  503  502 -0.17220938776E+02 -0.32883261391E+02  0.78596809331E+02  0.86921390055E+02  0.00000000000E+00 0. -1.
</event>
<event>
 4    1  0.2216341E+005  0.3524967E+02  0.7546771E-02  0.1378816E+00
          2   -1    0    0  503    0  0.00000000000E+00  0.00000000000E+00  0.10417335958E+04  0.10417335958E+04  0.00000000000E+00 0. -1.
         21   -1    0    0  501  502 -0.00000000000E+00 -0.00000000000E+00 -0.15099318299E+01  0.15099318299E+01  0.00000000000E+00 0. -1.
          2    1    1    2  501    0 -0.99915626272E+01 -0.33803967003E+02  0.75918093547E+03  0.75999883703E+03  0.00000000000E+00 0. -1.
         21    1    1    2  503  502  0.99915626272E+01  0.33803967003E+02  0.28104272845E+03  0.28324469055E+03  0.00000000000E+00 0. -1.
</event>
<event>
 4    1  0.2216341E+005  0.2788919E+02  0.7546771E-02  0.1438875E+00
          2   -1    0    0  503    0  0.00000000000E+00  0.00000000000E+00  0.91887139037E+02  0.91887139037E+02  0.00000000000E+00 0. -1.
         21   -1    0    0  501  502 -0.00000000000E+00 -0.00000000000E+00 -0.24090952808E+02  0.24090952808E+02  0.00000000000E+00 0. -1.
          2    1    1    2  501    0  0.87759748423E+01 -0.26472423679E+02  0.80601106523E+02  0.85289772673E+02  0.00000000000E+00 0. -1.
         21    1    1    2  503  502 -0.87759748423E+01  0.26472423679E+02 -0.12804920295E+02  0.30688319172E+02  0.00000000000E+00 0. -1.
</event>
<event>
 4    1  0.2216341E+005  0.2181118E+02  0.7546771E-02  0.1507991E+00
          2   -1    0    0  503    0  0.00000000000E+00  0.00000000000E+00  0.85466615768E+03  0.85466615768E+03  0.00000000000E+00 0.  1.
         21   -1    0    0  501  502 -0.00000000000E+00 -0.00000000000E+00 -0.10158092503E+01  0.10158092503E+01  0.00000000000E+00 0.  1.
          2    1    1    2  501    0 -0.21730492829E+02 -0.18744172889E+01  0.71447905124E+03  0.71481189303E+03  0.00000000000E+00 0.  1.
         21    1    1    2  503  502  0.21730492829E+02  0.18744172889E+01  0.13917129719E+03  0.14087007390E+03  0.00000000000E+00 0.  1.
</event>
<event>
 4    1  0.2216341E+005  0.2326278E+02  0.7546771E-02  0.1489225E+00
          2   -1    0    0  502    0  0.00000000000E+00  0.00000000000E+00  0.16907363495E+03  0.16907363495E+03  0.00000000000E+00 0. -1.
         21   -1    0    0  503  502 -0.00000000000E+00 -0.00000000000E+00 -0.78075659904E+01  0.78075659904E+01  0.00000000000E+00 0. -1.
          2    1    1    2  501    0 -0.73830419362E+01  0.22060088403E+02  0.14856839004E+03  0.15037859997E+03  0.00000000000E+00 0. -1.
         21    1    1    2  503  501  0.73830419362E+01 -0.22060088403E+02  0.12697678923E+02  0.26502600978E+02  0.00000000000E+00 0. -1.
</event>
<event>
 4    1  0.2216341E+005  0.4507826E+02  0.7546771E-02  0.1321049E+00
          2   -1    0    0  502    0  0.00000000000E+00  0.00000000000E+00  0.15135611056E+02  0.15135611056E+02  0.00000000000E+00 0.  1.
         21   -1    0    0  503  502 -0.00000000000E+00 -0.00000000000E+00 -0.14073208333E+03  0.14073208333E+03  0.00000000000E+00 0.  1.
          2    1    1    2  501    0 -0.34359931825E+02  0.29179530032E+02 -0.46080460880E+02  0.64462847927E+02  0.00000000000E+00 0.  1.
         21    1    1    2  503  501  0.34359931825E+02 -0.29179530032E+02 -0.79516011393E+02  0.91404846456E+02  0.00000000000E+00 0.  1.
</event>
<event>
 4    1  0.2216341E+005  0.2479149E+02  0.7546771E-02  0.1471150E+00
          2   -1    0    0  503    0  0.00000000000E+00  0.00000000000E+00  0.13723527166E+04  0.13723527166E+04  0.00000000000E+00 0.  1.
         21   -1    0    0  501  502 -0.00000000000E+00 -0.00000000000E+00 -0.18920343649E+01  0.18920343649E+01  0.00000000000E+00 0.  1.
          2    1    1    2  501    0 -0.23574929813E+02 -0.76707516087E+01  0.12855462472E+04  0.12857852743E+04  0.00000000000E+00 0.  1.
         21    1    1    2  503  502  0.23574929813E+02  0.76707516087E+01  0.84914434986E+02  0.88459476682E+02  0.00000000000E+00 0.  1.
</event>
<event>
 4    1  0.2216341E+005  0.2126303E+02  0.7546771E-02  0.1515542E+00
          2   -1    0    0  502    0  0.00000000000E+00  0.00000000000E+00  0.30857692115E+02  0.30857692115E+02  0.00000000000E+00 0. -1.
         21   -1    0    0  503  502 -0.00000000000E+00 -0.00000000000E+00 -0.53930426785E+02  0.53930426785E+02  0.00000000000E+00 0. -1.
          2    1    1    2  501    0 -0.46028976533E+01 -0.20758843909E+02  0.24643504502E+02  0.32548710902E+02  0.00000000000E+00 0. -1.
         21    1    1    2  503  501  0.46028976533E+01  0.20758843909E+02 -0.47716239172E+02  0.52239407998E+02  0.00000000000E+00 0. -1.
</event>
<event>
 4    1  0.2216341E+005  0.2728050E+02  0.7546771E-02  0.1444811E+00
          2   -1    0    0  502    0  0.00000000000E+00  0.00000000000E+00  0.25931618285E+03  0.25931618285E+03  0.00000000000E+00 0.  1.
         21   -1    0    0  503  502 -0.00000000000E+00 -0.00000000000E+00 -0.89047930624E+02  0.89047930624E+02  0.00000000000E+00 0.  1.
          2    1    1    2  501    0 -0.18277198249E+02  0.20252645371E+02  0.25648631012E+03  0.25793303957E+03  0.00000000000E+00 0.  1.
         21    1    1    2  503  501  0.18277198249E+02 -0.20252645371E+02 -0.86218057897E+02  0.90431073907E+02  0.00000000000E+00 0.  1.
</event>
<event>
 4    1  0.2216341E+005  0.7759093E+02  0.7546771E-02  0.1209553E+00
          2   -1    0    0  503    0  0.00000000000E+00  0.00000000000E+00  0.38094102599E+04  0.38094102599E+04  0.00000000000E+00 0. -1.
         21   -1    0    0  501  502 -0.00000000000E+00 -0.00000000000E+00 -0.34883789286E+01  0.34883789286E+01  0.00000000000E+00 0. -1.
          2    1    1    2  501    0  0.69373335912E+02  0.34751882579E+02  0.33129033910E+04  0.33138118883E+04  0.00000000000E+00 0. -1.
         21    1    1    2  503  502 -0.69373335912E+02 -0.34751882579E+02  0.49301848995E+03  0.49908675049E+03  0.00000000000E+00 0. -1.
</event>
<event>
 4    1  0.2216341E+005  0.4698204E+02  0.7546771E-02  0.1311816E+00
          2   -1    0    0  502    0  0.00000000000E+00  0.00000000000E+00  0.11323046702E+04  0.11323046702E+04  0.00000000000E+00 0.  1.
         21   -1    0    0  503  502 -0.00000000000E+00 -0.00000000000E+00 -0.64177283455E+01  0.64177283455E+01  0.00000000000E+00 0. -1.
          2    1    1    2  501    0 -0.20216107851E+02  0.42410150473E+02  0.10380268798E+04  0.10390895607E+04  0.00000000000E+00 0.  1.
         21    1    1    2  503  501  0.20216107851E+02 -0.42410150473E+02  0.87860061984E+02  0.99632837817E+02  0.00000000000E+00 0. -1.
</event>
<event>
 4    1  0.2216341E+005  0.4200406E+02  0.7546771E-02  0.1337126E+00
          2   -1    0    0  503    0  0.00000000000E+00  0.00000000000E+00  0.29089966548E+04  0.29089966548E+04  0.00000000000E+00 0.  1.
         21   -1    0    0  501  502 -0.00000000000E+00 -0.00000000000E+00 -0.17575441067E+03  0.17575441067E+03  0.00000000000E+00 0. -1.
          2    1    1    2  501    0 -0.27131059033E+02 -0.32066291071E+02  0.29063330582E+04  0.29066365763E+04  0.00000000000E+00 0.  1.
         21    1    1    2  503  502  0.27131059033E+02  0.32066291071E+02 -0.17309081401E+03  0.17811448925E+03  0.00000000000E+00 0. -1.
</event>
<event>
 4    1  0.2216341E+005  0.3085983E+02  0.7546771E-02  0.1412269E+00
          2   -1    0    0  502    0  0.00000000000E+00  0.00000000000E+00  0.32325425567E+02  0.32325425567E+02  0.00000000000E+00 0.  1.
         21   -1    0    0  503  502 -0.00000000000E+00 -0.00000000000E+00 -0.56740404664E+02  0.56740404664E+02  0.00000000000E+00 0.  1.
          2    1    1    2  501    0 -0.71910819106E+01 -0.30010293145E+02  0.18670912620E+02  0.36068439553E+02  0.00000000000E+00 0.  1.
         21    1    1    2  503  501  0.71910819106E+01  0.30010293145E+02 -0.43085891716E+02  0.52997390678E+02  0.00000000000E+00 0.  1.
</event>
<event>
 4    1  0.2216341E+005  0.2544506E+02  0.7546771E-02  0.1463886E+00
          2   -1    0    0  502    0  0.00000000000E+00  0.00000000000E+00  0.21423377621E+04  0.21423377621E+04  0.00000000000E+00 0. -1.
         21   -1    0    0  503  502 -0.00000000000E+00 -0.00000000000E+00 -0.56295022765E+00  0.56295022765E+00  0.00000000000E+00 0. -1.
          2    1    1    2  501    0 -0.10116643639E+02  0.23347474453E+02  0.18000681407E+04  0.18002479725E+04  0.00000000000E+00 0. -1.
         21    1    1    2  503  501  0.10116643639E+02 -0.23347474453E+02  0.34170667109E+03  0.34265273983E+03  0.00000000000E+00 0. -1.
</event>
<event>
 4    1  0.2216341E+005  0.2790063E+02  0.7546771E-02  0.1438765E+00
          2   -1    0    0  503    0  0.00000000000E+00  0.00000000000E+00  0.20412341559E+03  0.20412341559E+03  0.00000000000E+00 0. -1.
         21   -1    0    0  501  502 -0.00000000000E+00 -0.00000000000E+00 -0.50944970486E+01  0.50944970486E+01  0.00000000000E+00 0. -1.
          2    1    1    2  501    0 -0.27370853328E+02 -0.54112311075E+01  0.15196806455E+03  0.15450805053E+03  0.00000000000E+00 0. -1.
         21    1    1    2  503  502  0.27370853328E+02  0.54112311075E+01  0.47060853984E+02  0.54709862107E+02  0.00000000000E+00 0. -1.
</event>
<event>
 4    1  0.2216341E+005  0.2538710E+02  0.7546771E-02  0.1464519E+00
          2   -1    0    0  503    0  0.00000000000E+00  0.00000000000E+00  0.58794905885E+03  0.58794905885E+03  0.00000000000E+00 0.  1.
         21   -1    0    0  501  502 -0.00000000000E+00 -0.00000000000E+00 -0.21749034979E+02  0.21749034979E+02  0.00000000000E+00 0.  1.
          2    1    1    2  501    0  0.22420793552E+02  0.11908518110E+02  0.58016725931E+03  0.58072244107E+03  0.00000000000E+00 0.  1.
         21    1    1    2  503  502 -0.22420793552E+02 -0.11908518110E+02 -0.13967235438E+02  0.28975652760E+02  0.00000000000E+00 0.  1.
</event>
<event>
 4    1  0.2216341E+005  0.4288675E+02  0.7546771E-02  0.1332352E+00
          2   -1    0    0  503    0  0.00000000000E+00  0.00000000000E+00  0.64201574244E+02  0.64201574244E+02  0.00000000000E+00 0. -1.
         21   -1    0    0  501  502 -0.00000000000E+00 -0.00000000000E+00 -0.29974933535E+02  0.29974933535E+02  0.00000000000E+00 0. -1.
          2    1    1    2  501    0  0.26751926519E+01  0.42803231222E+02  0.72075022936E+01  0.43488174807E+02  0.00000000000E+00 0. -1.
         21    1    1    2  503  502 -0.26751926519E+01 -0.42803231222E+02  0.27019138415E+02  0.50688332972E+02  0.00000000000E+00 0. -1.
</event>
<event>
 4    1  0.2216341E+005  0.7554330E+02  0.7546771E-02  0.1214590E+00
          2   -1    0    0  503    0  0.00000000000E+00  0.00000000000E+00  0.11493966996E+04  0.11493966996E+04  0.00000000000E+00 0.  1.
         21   -1    0    0  501  502 -0.00000000000E+00 -0.00000000000E+00 -0.71823878090E+01  0.71823878090E+01  0.00000000000E+00 0.  1.
          2    1    1    2  501    0  0.45055245553E+02 -0.60636744336E+02  0.89242047935E+03  0.89561213808E+03  0.00000000000E+00 0.  1.
         21    1    1    2  503  502 -0.45055245553E+02  0.60636744336E+02  0.24979383243E+03  0.26096694932E+03  0.00000000000E+00 0.  1.
</event>
<event>
 4    1  0.2216341E+005  0.3442773E+02  0.7546771E-02  0.1384632E+00
          2   -1    0    0  502    0  0.00000000000E+00  0.00000000000E+00  0.48346036013E+03  0.48346036013E+03  0.00000000000E+00 0.  1.
         21   -1    0    0  503  502 -0.00000000000E+00 -0.00000000000E+00 -0.17679713348E+02  0.17679713348E+02  0.00000000000E+00 0. -1.
          2    1    1    2  501    0 -0.14817036995E+01  0.34395825626E+02  0.46543911145E+03  0.46671065419E+03  0.00000000000E+00 0.  1.
         21    1    1    2  503  501  0.14817036995E+01 -0.34395825626E+02  0.34153533400E+00  0.34429419291E+02  0.00000000000E+00 0. -1.
</event>
<event>
 4    1  0.2216341E+005  0.3743036E+02  0.7546771E-02  0.1364239E+00
          2   -1    0    0  502    0  0.00000000000E+00  0.00000000000E+00  0.58942552267E+03  0.58942552267E+03  0.00000000000E+00 0. -1.
         21   -1    0    0  503  502 -0.00000000000E+00 -0.00000000000E+00 -0.34255625126E+01  0.34255625126E+01  0.00000000000E+00 0. -1.
          2    1    1    2  501    0 -0.33720845140E+02  0.16246123225E+02  0.45700542795E+03  0.45853570536E+03  0.00000000000E+00 0. -1.
         21    1    1    2  503  501  0.33720845140E+02 -0.16246123225E+02  0.12899453221E+03  0.13431537983E+03  0.00000000000E+00 0. -1.
</event>
<event>
 4    1  0.2216341E+005  0.2083907E+02  0.7546771E-02  0.1521575E+00
          2   -1    0    0  502    0  0.00000000000E+00  0.00000000000E+00  0.69702259963E+03  0.69702259963E+03  0.00000000000E+00 0. -1.
         21   -1    0    0  503  502 -0.00000000000E+00 -0.00000000000E+00 -0.27984981047E+02  0.27984981047E+02  0.00000000000E+00 0. -1.
          2    1    1    2  501    0 -0.18711104079E+02  0.91739495206E+01  0.69296466648E+03  0.69327793544E+03  0.00000000000E+00 0. -1.
         21    1    1    2  503  501  0.18711104079E+02 -0.91739495206E+01 -0.23927047904E+02  0.31729645240E+02  0.00000000000E+00 0. -1.
</event>
<event>
 4    1  0.2216341E+005  0.2649897E+02  0.7546771E-02  0.1452707E+00
          2   -1    0    0  502    0  0.00000000000E+00  0.00000000000E+00  0.11705395991E+04  0.11705395991E+04  0.00000000000E+00 0.  1.
         21   -1    0    0  503  502 -0.00000000000E+00 -0.00000000000E+00 -0.14218001823E+02  0.14218001823E+02  0.00000000000E+00 0. -1.
          2    1    1    2  501    0 -0.10282030607E+02  0.24422839099E+02  0.11579080125E+04  0.11582111900E+04  0.00000000000E+00 0.  1.
         21    1    1    2  503  501  0.10282030607E+02 -0.24422839099E+02 -0.15864151651E+01  0.26546410984E+02  0.00000000000E+00 0. -1.
</event>
<event>
 4    1  0.2216341E+005  0.3238830E+02  0.7546771E-02  0.1399917E+00
          2   -1    0    0  503    0  0.00000000000E+00  0.00000000000E+00  0.64432718508E+03  0.64432718508E+03  0.00000000000E+00 0.  1.
         21   -1    0    0  501  502 -0.00000000000E+00 -0.00000000000E+00 -0.10146410923E+02  0.10146410923E+02  0.00000000000E+00 0. -1.
          2    1    1    2  501    0 -0.32352250094E+02 -0.15276226139E+01  0.61692636116E+03  0.61777596005E+03  0.00000000000E+00 0.  1.
         21    1    1    2  503  502  0.32352250094E+02  0.15276226139E+01  0.17254412998E+02  0.36697635958E+02  0.00000000000E+00 0. -1.
</event>
<event>
 4    1  0.2216341E+005  0.2432891E+02  0.7546771E-02  0.1476453E+00
          2   -1    0    0  503    0  0.00000000000E+00  0.00000000000E+00  0.13101076039E+02  0.13101076039E+02  0.00000000000E+00 0.  1.
         21   -1    0    0  501  502 -0.00000000000E+00 -0.00000000000E+00 -0.73696020491E+02  0.73696020491E+02  0.00000000000E+00 0. -1.
          2    1    1    2  501    0 -0.20322170404E+02  0.13375546695E+02 -0.33011940575E+01  0.24551858210E+02  0.00000000000E+00 0.  1.
         21    1    1    2  503  502  0.20322170404E+02 -0.13375546695E+02 -0.57293750395E+02  0.62245238321E+02  0.00000000000E+00 0. -1.
</event>
<event>
 4    1  0.2216341E+005  0.7968974E+02  0.7546771E-02  0.1204570E+00
          2   -1    0    0  502    0  0.00000000000E+00  0.00000000000E+00  0.24555013632E+04  0.24555013632E+04  0.00000000000E+00 0.  1.
         21   -1    0    0  503  502 -0.00000000000E+00 -0.00000000000E+00 -0.73532827758E+01  0.73532827758E+01  0.00000000000E+00 0. -1.
          2    1    1    2  501    0  0.11159951198E+02 -0.78904439037E+02  0.22155765203E+04  0.22170091953E+04  0.00000000000E+00 0.  1.
         21    1    1    2  503  501 -0.11159951198E+02  0.78904439037E+02  0.23257156017E+03  0.24584545066E+03  0.00000000000E+00 0. -1.
</event>
<event>
 4    1  0.2216341E+005  0.4039411E+02  0.7546771E-02  0.1346192E+00
          2   -1    0    0  503    0  0.00000000000E+00  0.00000000000E+00  0.98434846961E+03  0.98434846961E+03  0.00000000000E+00 0. -1.
         21   -1    0    0  501  502 -0.00000000000E+00 -0.00000000000E+00 -0.18008737095E+02  0.18008737095E+02  0.00000000000E+00 0. -1.
          2    1    1    2  501    0 -0.32606079902E+02  0.23843817155E+02  0.96072607329E+03  0.96157489150E+03  0.00000000000E+00 0. -1.
         21    1    1    2  503  502  0.32606079902E+02 -0.23843817155E+02  0.56136592183E+01  0.40782315198E+02  0.00000000000E+00 0. -1.
</event>
<event>
 4    1  0.2216341E+005  0.4641545E+02  0.7546771E-02  0.1314510E+00
          2   -1    0    0  503    0  0.00000000000E+00  0.00000000000E+00  0.58888651835E+03  0.58888651835E+03  0.00000000000E+00 0. -1.
         21   -1    0    0  501  502 -0.00000000000E+00 -0.00000000000E+00 -0.14173063213E+02  0.14173063213E+02  0.00000000000E+00 0. -1.
          2    1    1    2  501    0 -0.26380585006E+02  0.38189775879E+02  0.54707089050E+03  0.54903638630E+03  0.00000000000E+00 0. -1.
         21    1    1    2  503  502  0.26380585006E+02 -0.38189775879E+02  0.27642564635E+02  0.54023195264E+02  0.00000000000E+00 0. -1.
</event>
<event>
 4    1  0.2216341E+005  0.2759505E+02  0.7546771E-02  0.1441721E+00
          2   -1    0    0  502    0  0.00000000000E+00  0.00000000000E+00  0.17981326423E+03  0.17981326423E+03  0.00000000000E+00 0.  1.
         21   -1    0    0  503  502 -0.00000000000E+00 -0.00000000000E+00 -0.21341298387E+02  0.21341298387E+02  0.00000000000E+00 0.  1.
          2    1    1    2  501    0 -0.19996659407E+02 -0.19016313467E+02  0.16928295022E+03  0.17151735714E+03  0.00000000000E+00 0.  1.
         21    1    1    2  503  501  0.19996659407E+02  0.19016313467E+02 -0.10810984376E+02  0.29637205477E+02  0.00000000000E+00 0.  1.
</event>
<event>
 4    1  0.2216341E+005  0.2108027E+02  0.7546771E-02  0.1518122E+00
          2   -1    0    0  502    0  0.00000000000E+00  0.00000000000E+00  0.32237886940E+02  0.32237886940E+02  0.00000000000E+00 0.  1.
         21   -1    0    0  503  502 -0.00000000000E+00 -0.00000000000E+00 -0.66406209582E+02  0.66406209582E+02  0.00000000000E+00 0.  1.
          2    1    1    2  501    0  0.18356084330E+02  0.10364937893E+02  0.26821439410E+02  0.34114034963E+02  0.00000000000E+00 0.  1.
         21    1    1    2  503  501 -0.18356084330E+02 -0.10364937893E+02 -0.60989762053E+02  0.64530061558E+02  0.00000000000E+00 0.  1.
</event>
<event>
 4    1  0.2216341E+005  0.2063592E+02  0.7546771E-02  0.1524527E+00
          2   -1    0    0  502    0  0.00000000000E+00  0.00000000000E+00  0.11722184783E+04  0.11722184783E+04  0.00000000000E+00 0.  1.
         21   -1    0    0  503  502 -0.00000000000E+00 -0.00000000000E+00 -0.71693091095E+00  0.71693091095E+00  0.00000000000E+00 0.  1.
          2    1    1    2  501    0  0.69016445396E+01 -0.19447587319E+02  0.99765284947E+03  0.99786624826E+03  0.00000000000E+00 0.  1.
         21    1    1    2  503  501 -0.69016445396E+01  0.19447587319E+02  0.17384869793E+03  0.17506916097E+03  0.00000000000E+00 0.  1.
</event>
<event>
 4    1  0.2216341E+005  0.2031651E+02  0.7546771E-02  0.1529251E+00
          2   -1    0    0  503    0  0.00000000000E+00  0.00000000000E+00  0.23586098849E+03  0.23586098849E+03  0.00000000000E+00 0.  1.
         21   -1    0    0  501  502 -0.00000000000E+00 -0.00000000000E+00 -0.13816270589E+02  0.13816270589E+02  0.00000000000E+00 0.  1.
          2    1    1    2  501    0  0.11735412180E+02 -0.16584356058E+02  0.22768714785E+03  0.22859177164E+03  0.00000000000E+00 0.  1.
         21    1    1    2  503  502 -0.11735412180E+02  0.16584356058E+02 -0.56424299484E+01  0.21085487441E+02  0.00000000000E+00 0.  1.
</event>
<event>
 4    1  0.2216341E+005  0.2022230E+02  0.7546771E-02  0.1530664E+00
          2   -1    0    0  502    0  0.00000000000E+00  0.00000000000E+00  0.11140988868E+02  0.11140988868E+02  0.00000000000E+00 0. -1.
         21   -1    0    0  503  502 -0.00000000000E+00 -0.00000000000E+00 -0.11875876966E+03  0.11875876966E+03  0.00000000000E+00 0.  1.
          2    1    1    2  501    0 -0.11828438183E+02 -0.16402114963E+02  0.17846840766E+00  0.20223085226E+02  0.00000000000E+00 0. -1.
         21    1    1    2  503  501  0.11828438183E+02  0.16402114963E+02 -0.10779624920E+03  0.10967667330E+03  0.00000000000E+00 0.  1.
</event>
<event>
 4    1  0.2216341E+005  0.2104099E+02  0.7546771E-02  0.1518680E+00
          2   -1    0    0  502    0  0.00000000000E+00  0.00000000000E+00  0.63089901973E+03  0.63089901973E+03  0.00000000000E+00 0. -1.
         21   -1    0    0  503  502 -0.00000000000E+00 -0.00000000000E+00 -0.13818864120E+01  0.13818864120E+01  0.00000000000E+00 0. -1.
          2    1    1    2  501    0  0.15057698605E+02 -0.14696556718E+02  0.53655120841E+03  0.53696361358E+03  0.00000000000E+00 0. -1.
         21    1    1    2  503  501 -0.15057698605E+02  0.14696556718E+02  0.92965924912E+02  0.95317292562E+02  0.00000000000E+00 0. -1.
</event>
<event>
 4    1  0.2216341E+005  0.2674191E+02  0.7546771E-02  0.1450218E+00
          2   -1    0    0  503    0  0.00000000000E+00  0.00000000000E+00  0.45152606231E+02  0.45152606231E+02  0.00000000000E+00 0. -1.
         21   -1    0    0  501  502 -0.00000000000E+00 -0.00000000000E+00 -0.10069194891E+03  0.10069194891E+03  0.00000000000E+00 0.  1.
          2    1    1    2  501    0  0.17822952234E+01  0.26682451851E+02  0.39172334208E+02  0.47429965005E+02  0.00000000000E+00 0. -1.
         21    1    1    2  503  502 -0.17822952234E+01 -0.26682451851E+02 -0.94711676886E+02  0.98414590136E+02  0.00000000000E+00 0.  1.
</event>
<event>
 4    1  0.2216341E+005  0.3016219E+02  0.7546771E-02  0.1418192E+00
          2   -1    0    0  503    0  0.00000000000E+00  0.00000000000E+00  0.25785661618E+02  0.25785661618E+02  0.00000000000E+00 0. -1.
         21   -1    0    0  501  502 -0.00000000000E+00 -0.00000000000E+00 -0.24159795847E+03  0.24159795847E+03  0.00000000000E+00 0.  1.
          2    1    1    2  501    0  0.17265767037E+02 -0.24731575501E+02  0.15638825196E+02  0.33975438064E+02  0.00000000000E+00 0. -1.
         21    1    1    2  503  502 -0.17265767037E+02  0.24731575501E+02 -0.23145112205E+03  0.23340818202E+03  0.00000000000E+00 0.  1.
</event>
<event>
 4    1  0.2216341E+005  0.6357499E+02  0.7546771E-02  0.1248147E+00
          2   -1    0    0  503    0  0.00000000000E+00  0.00000000000E+00  0.11996590213E+04  0.11996590213E+04  0.00000000000E+00 0.  1.
         21   -1    0    0  501  502 -0.00000000000E+00 -0.00000000000E+00 -0.39273451202E+01  0.39273451202E+01  0.00000000000E+00 0. -1.
          2    1    1    2  501    0 -0.59071777466E+02 -0.23501156342E+02  0.82475178312E+03  0.82719845442E+03  0.00000000000E+00 0.  1.
         21    1    1    2  503  502  0.59071777466E+02  0.23501156342E+02  0.37097989310E+03  0.37638791204E+03  0.00000000000E+00 0. -1.
</event>
<event>
 4    1  0.2216341E+005  0.2699712E+02  0.7546771E-02  0.1447637E+00
          2   -1    0    0  502    0  0.00000000000E+00  0.00000000000E+00  0.18484643440E+04  0.18484643440E+04  0.00000000000E+00 0.  1.
         21   -1    0    0  503  502 -0.00000000000E+00 -0.00000000000E+00 -0.68238532157E+00  0.68238532157E+00  0.00000000000E+00 0.  1.
          2    1    1    2  501    0 -0.26596553676E+02 -0.46333175785E+01  0.15246346754E+04  0.15248736793E+04  0.00000000000E+00 0.  1.
         21    1    1    2  503  501  0.26596553676E+02  0.46333175785E+01  0.32314728323E+03  0.32427305001E+03  0.00000000000E+00 0.  1.
</event>
<event>
 4    1  0.2216341E+005  0.2084354E+02  0.7546771E-02  0.1521511E+00
          2   -1    0    0  502    0  0.00000000000E+00  0.00000000000E+00  0.11161339450E+03  0.11161339450E+03  0.00000000000E+00 0. -1.
         21   -1    0    0  503  502 -0.00000000000E+00 -0.00000000000E+00 -0.97321773950E+01  0.97321773950E+01  0.00000000000E+00 0.  1.
          2    1    1    2  501    0  0.14246642249E+02 -0.15214668960E+02  0.97939117517E+02  0.10013253071E+03  0.00000000000E+00 0. -1.
         21    1    1    2  503  501 -0.14246642249E+02  0.15214668960E+02  0.39420995850E+01  0.21213041179E+02  0.00000000000E+00 0.  1.
</event>
<event>
 4    1  0.2216341E+005  0.2020883E+02  0.7546771E-02  0.1530867E+00
          2   -1    0    0  502    0  0.00000000000E+00  0.00000000000E+00  0.10666608879E+04  0.10666608879E+04  0.00000000000E+00 0.  1.
         21   -1    0    0  503  502 -0.00000000000E+00 -0.00000000000E+00 -0.28899039311E+01  0.28899039311E+01  0.00000000000E+00 0. -1.
          2    1    1    2  501    0 -0.19407892218E+02 -0.56329841270E+01  0.10299773800E+04  0.10301756162E+04  0.00000000000E+00 0.  1.
         21    1    1    2  503  501  0.19407892218E+02  0.56329841270E+01  0.33793603926E+02  0.39375175642E+02  0.00000000000E+00 0. -1.
</event>
<event>
 4    1  0.2216341E+005  0.3073880E+02  0.7546771E-02  0.1413283E+00
          2   -1    0    0  502    0  0.00000000000E+00  0.00000000000E+00  0.46467192674E+03  0.46467192674E+03  0.00000000000E+00 0.  1.
         21   -1    0    0  503  502 -0.00000000000E+00 -0.00000000000E+00 -0.55889029325E+01  0.55889029325E+01  0.00000000000E+00 0.  1.
          2    1    1    2  501    0 -0.18664393649E+02  0.24423635736E+02  0.41708188485E+03  0.41821307039E+03  0.00000000000E+00 0.  1.
         21    1    1    2  503  501  0.18664393649E+02 -0.24423635736E+02  0.42001138955E+02  0.52047759283E+02  0.00000000000E+00 0.  1.
</event>
<event>
 4    1  0.2216341E+005  0.4172126E+02  0.7546771E-02  0.1338684E+00
          2   -1    0    0  503    0  0.00000000000E+00  0.00000000000E+00  0.79155771038E+03  0.79155771038E+03  0.00000000000E+00 0.  1.
         21   -1    0    0  501  502 -0.00000000000E+00 -0.00000000000E+00 -0.42824686319E+03  0.42824686319E+03  0.00000000000E+00 0.  1.
          2    1    1    2  501    0  0.14769727054E+02 -0.39019465031E+02  0.78998977951E+03  0.79109071238E+03  0.00000000000E+00 0.  1.
         21    1    1    2  503  502 -0.14769727054E+02  0.39019465031E+02 -0.42667893232E+03  0.42871386119E+03  0.00000000000E+00 0.  1.
</event>
<event>
 4    1  0.2216341E+005  0.2572610E+02  0.7546771E-02  0.1460842E+00
          2   -1    0    0  503    0  0.00000000000E+00  0.00000000000E+00  0.37006034759E+02  0.37006034759E+02  0.00000000000E+00 0. -1.
         21   -1    0    0  501  502 -0.00000000000E+00 -0.00000000000E+00 -0.10202782068E+03  0.10202782068E+03  0.00000000000E+00 0. -1.
          2    1    1    2  501    0  0.93598738424E+01 -0.23962993265E+02  0.30619899134E+02  0.39992630665E+02  0.00000000000E+00 0. -1.
         21    1    1    2  503  502 -0.93598738424E+01  0.23962993265E+02 -0.95641685050E+02  0.99041224769E+02  0.00000000000E+00 0. -1.
</event>
<event>
 4    1  0.2216341E+005  0.5883324E+02  0.7546771E-02  0.1263849E+00
          2   -1    0    0  503    0  0.00000000000E+00  0.00000000000E+00  0.82158731958E+03  0.82158731958E+03  0.00000000000E+00 0. -1.
         21   -1    0    0  501  502 -0.00000000000E+00 -0.00000000000E+00 -0.70350134265E+01  0.70350134265E+01  0.00000000000E+00 0. -1.
          2    1    1    2  501    0  0.57565172010E+02 -0.12149106062E+02  0.66968198539E+03  0.67226134157E+03  0.00000000000E+00 0. -1.
         21    1    1    2  503  502 -0.57565172010E+02  0.12149106062E+02  0.14487032077E+03  0.15636099145E+03  0.00000000000E+00 0. -1.
</event>
<event>
 4    1  0.2216341E+005  0.2058974E+02  0.7546771E-02  0.1525204E+00
          2   -1    0    0  503    0  0.00000000000E+00  0.00000000000E+00  0.13602201738E+03  0.13602201738E+03  0.00000000000E+00 0. -1.
         21   -1    0    0  501  502 -0.00000000000E+00 -0.00000000000E+00 -0.36681558609E+03  0.36681558609E+03  0.00000000000E+00 0. -1.
          2    1    1    2  501    0  0.20586891221E+02  0.34240463344E+00  0.13495163763E+03  0.13651330276E+03  0.00000000000E+00 0. -1.
         21    1    1    2  503  502 -0.20586891221E+02 -0.34240463344E+00 -0.36574520634E+03  0.36632430071E+03  0.00000000000E+00 0. -1.
</event>
<event>
 4    1  0.2216341E+005  0.2071645E+02  0.7546771E-02  0.1523352E+00
          2   -1    0    0  503    0  0.00000000000E+00  0.00000000000E+00  0.62679917862E+02  0.62679917862E+02  0.00000000000E+00 0.  1.
         21   -1    0    0  501  502 -0.00000000000E+00 -0.00000000000E+00 -0.72452216132E+01  0.72452216132E+01  0.00000000000E+00 0.  1.
          2    1    1    2  501    0 -0.90009318824E+01  0.18658899957E+02  0.35913748738E+02  0.41460447064E+02  0.00000000000E+00 0.  1.
         21    1    1    2  503  502  0.90009318824E+01 -0.18658899957E+02  0.19520947511E+02  0.28464692411E+02  0.00000000000E+00 0.  1.
</event>
<event>
 4    1  0.2216341E+005  0.2162549E+02  0.7546771E-02  0.1510519E+00
          2   -1    0    0  503    0  0.00000000000E+00  0.00000000000E+00  0.23006094695E+02  0.23006094695E+02  0.00000000000E+00 0. -1.
         21   -1    0    0  501  502 -0.00000000000E+00 -0.00000000000E+00 -0.19110295037E+03  0.19110295037E+03  0.00000000000E+00 0.  1.
          2    1    1    2  501    0 -0.15135202430E+02 -0.15446269934E+02  0.17152327534E+02  0.27601883039E+02  0.00000000000E+00 0. -1.
         21    1    1    2  503  502  0.15135202430E+02  0.15446269934E+02 -0.18524918321E+03  0.18650716202E+03  0.00000000000E+00 0.  1.
</event>
<event>
 4    1  0.2216341E+005  0.3805276E+02  0.7546771E-02  0.1360290E+00
          2   -1    0    0  503    0  0.00000000000E+00  0.00000000000E+00  0.22342986855E+03  0.22342986855E+03  0.00000000000E+00 0.  1.
         21   -1    0    0  501  502 -0.00000000000E+00 -0.00000000000E+00 -0.30728827592E+03  0.30728827592E+03  0.00000000000E+00 0. -1.
          2    1    1    2  501    0  0.37940101568E+02 -0.29259066079E+01  0.22061669099E+03  0.22387437679E+03  0.00000000000E+00 0.  1.
         21    1    1    2  503  502 -0.37940101568E+02  0.29259066079E+01 -0.30447509837E+03  0.30684376767E+03  0.00000000000E+00 0. -1.
</event>
<event>
 4    1  0.2216341E+005  0.2820401E+02  0.7546771E-02  0.1435875E+00
          2   -1    0    0  503    0  0.00000000000E+00  0.00000000000E+00  0.11254293445E+03  0.11254293445E+03  0.00000000000E+00 0.  1.
         21   -1    0    0  501  502 -0.00000000000E+00 -0.00000000000E+00 -0.24195499225E+02  0.24195499225E+02  0.00000000000E+00 0.  1.
          2    1    1    2  501    0  0.28079332587E+02  0.26489621458E+01  0.10169636774E+03  0.10553490954E+03  0.00000000000E+00 0.  1.
         21    1    1    2  503  502 -0.28079332587E+02 -0.26489621458E+01 -0.13348932520E+02  0.31203524135E+02  0.00000000000E+00 0.  1.
</event>
<event>
 4    1  0.2216341E+005  0.2507910E+02  0.7546771E-02  0.1467920E+00
          2   -1    0    0  503    0  0.00000000000E+00  0.00000000000E+00  0.76927938216E+03  0.76927938216E+03  0.00000000000E+00 0.  1.
         21   -1    0    0  501  502 -0.00000000000E+00 -0.00000000000E+00 -0.38489151165E+01  0.38489151165E+01  0.00000000000E+00 0.  1.
          2    1    1    2  501    0 -0.23536560002E+02  0.86597760659E+01  0.72577365424E+03  0.72620682906E+03  0.00000000000E+00 0.  1.
         21    1    1    2  503  502  0.23536560002E+02 -0.86597760659E+01  0.39656812802E+02  0.46921468220E+02  0.00000000000E+00 0.  1.
</event>
<event>
 4    1  0.2216341E+005  0.2069464E+02  0.7546771E-02  0.1523670E+00
          2   -1    0    0  502    0  0.00000000000E+00  0.00000000000E+00  0.71715401662E+02  0.71715401662E+02  0.00000000000E+00 0.  1.
         21   -1    0    0  503  502 -0.00000000000E+00 -0.00000000000E+00 -0.21737557842E+03  0.21737557842E+03  0.00000000000E+00 0.  1.
          2    1    1    2  501    0 -0.16207653394E+02 -0.12867792370E+02  0.69716087435E+02  0.72722767798E+02  0.00000000000E+00 0.  1.
         21    1    1    2  503  501  0.16207653394E+02  0.12867792370E+02 -0.21537626420E+03  0.21636821229E+03  0.00000000000E+00 0.  1.
</event>
<event>
 4    1  0.2216341E+005  0.2926376E+02  0.7546771E-02  0.1426104E+00
          2   -1    0    0  503    0  0.00000000000E+00  0.00000000000E+00  0.29928104057E+03  0.29928104057E+03  0.00000000000E+00 0. -1.
         21   -1    0    0  501  502 -0.00000000000E+00 -0.00000000000E+00 -0.35240029564E+02  0.35240029564E+02  0.00000000000E+00 0. -1.
          2    1    1    2  501    0 -0.24513400433E+02  0.15983134528E+02  0.29234669759E+03  0.29380769047E+03  0.00000000000E+00 0. -1.
         21    1    1    2  503  502  0.24513400433E+02 -0.15983134528E+02 -0.28305686586E+02  0.40713379659E+02  0.00000000000E+00 0. -1.
</event>
<event>
 4    1  0.2216341E+005  0.2107051E+02  0.7546771E-02  0.1518260E+00
          2   -1    0    0  503    0  0.00000000000E+00  0.00000000000E+00  0.15083753713E+04  0.15083753713E+04  0.00000000000E+00 0. -1.
         21   -1    0    0  501  502 -0.00000000000E+00 -0.00000000000E+00 -0.21239787145E+01  0.21239787145E+01  0.00000000000E+00 0. -1.
          2    1    1    2  501    0 -0.17473599016E+02 -0.11774529469E+02  0.14540947509E+04  0.14542474036E+04  0.00000000000E+00 0. -1.
         21    1    1    2  503  502  0.17473599016E+02  0.11774529469E+02  0.52156641728E+02  0.56251946483E+02  0.00000000000E+00 0. -1.
</event>
<event>
 4    1  0.2216341E+005  0.2044447E+02  0.7546771E-02  0.1527346E+00
          2   -1    0    0  503    0  0.00000000000E+00  0.00000000000E+00  0.71725233665E+03  0.71725233665E+03  0.00000000000E+00 0. -1.
         21   -1    0    0  501  502 -0.00000000000E+00 -0.00000000000E+00 -0.17222132738E+01  0.17222132738E+01  0.00000000000E+00 0. -1.
          2    1    1    2  501    0 -0.74789598916E+01  0.19027389698E+02  0.65017414502E+03  0.65049549980E+03  0.00000000000E+00 0. -1.
         21    1    1    2  503  502  0.74789598916E+01 -0.19027389698E+02  0.65355978355E+02  0.68479050128E+02  0.00000000000E+00 0. -1.
</event>
<event>
 4    1  0.2216341E+005  0.2220024E+02  0.7546771E-02  0.1502793E+00
          2   -1    0    0  502    0  0.00000000000E+00  0.00000000000E+00  0.10773295629E+02  0.10773295629E+02  0.00000000000E+00 0. -1.
         21   -1    0    0  503  502 -0.00000000000E+00 -0.00000000000E+00 -0.14002943051E+03  0.14002943051E+03  0.00000000000E+00 0.  1.
          2    1    1    2  501    0 -0.11009532120E+02  0.19277990202E+02 -0.27575276145E+01  0.22370844022E+02  0.00000000000E+00 0. -1.
         21    1    1    2  503  501  0.11009532120E+02 -0.19277990202E+02 -0.12649860727E+03  0.12843188212E+03  0.00000000000E+00 0.  1.
</event>
<event>
 4    1  0.2216341E+005  0.2067510E+02  0.7546771E-02  0.1523955E+00
          2   -1    0    0  502    0  0.00000000000E+00  0.00000000000E+00  0.13977463360E+03  0.13977463360E+03  0.00000000000E+00 0.  1.
         21   -1    0    0  503  502 -0.00000000000E+00 -0.00000000000E+00 -0.35549203964E+02  0.35549203964E+02  0.00000000000E+00 0. -1.
          2    1    1    2  501    0  0.19082455611E+02  0.79573545221E+01  0.13591918686E+03  0.13748267149E+03  0.00000000000E+00 0.  1.
         21    1    1    2  503  501 -0.19082455611E+02 -0.79573545221E+01 -0.31693757223E+02  0.37841166077E+02  0.00000000000E+00 0. -1.
</event>
<event>
 4    1  0.2216341E+005  0.2103231E+02  0.7546771E-02  0.1518804E+00
          2   -1    0    0  503    0  0.00000000000E+00  0.00000000000E+00  0.22557451605E+03  0.22557451605E+03  0.00000000000E+00 0.  1.
         21   -1    0    0  501  502 -0.00000000000E+00 -0.00000000000E+00 -0.12545706630E+02  0.12545706630E+02  0.00000000000E+00 0.  1.
          2    1    1    2  501    0  0.17213266660E+02 -0.12085595170E+02  0.21587416232E+03  0.21689631652E+03  0.00000000000E+00 0.  1.
         21    1    1    2  503  502 -0.17213266660E+02  0.12085595170E+02 -0.28453529028E+01  0.21223906164E+02  0.00000000000E+00 0.  1.
</event>
<event>
 4    1  0.2216341E+005  0.2848855E+02  0.7546771E-02  0.1433202E+00
          2   -1    0    0  503    0  0.00000000000E+00  0.00000000000E+00  0.11744243274E+04  0.11744243274E+04  0.00000000000E+00 0. -1.
         21   -1    0    0  501  502 -0.00000000000E+00 -0.00000000000E+00 -0.13065842421E+02  0.13065842421E+02  0.00000000000E+00 0.  1.
          2    1    1    2  501    0  0.66166330437E+01 -0.27709522883E+02  0.11585092719E+04  0.11588594956E+04  0.00000000000E+00 0. -1.
         21    1    1    2  503  502 -0.66166330437E+01  0.27709522883E+02  0.28492130930E+01  0.28630674223E+02  0.00000000000E+00 0.  1.
</event>
<event>
 4    1  0.2216341E+005  0.2784426E+02  0.7546771E-02  0.1439307E+00
          2   -1    0    0  503    0  0.00000000000E+00  0.00000000000E+00  0.24510747837E+02  0.24510747837E+02  0.00000000000E+00 0.  1.
         21   -1    0    0  501  502 -0.00000000000E+00 -0.00000000000E+00 -0.10132083751E+03  0.10132083751E+03  0.00000000000E+00 0.  1.
          2    1    1    2  501    0 -0.17086977165E+02  0.21984948869E+02  0.13773816014E+02  0.31064783485E+02  0.00000000000E+00 0.  1.
         21    1    1    2  503  502  0.17086977165E+02 -0.21984948869E+02 -0.90583905683E+02  0.94766801857E+02  0.00000000000E+00 0.  1.
</event>
<event>
 4    1  0.2216341E+005  0.2088680E+02  0.7546771E-02  0.1520887E+00
          2   -1    0    0  502    0  0.00000000000E+00  0.00000000000E+00  0.10497161408E+02  0.10497161408E+02  0.00000000000E+00 0.  1.
         21   -1    0    0  503  502 -0.00000000000E+00 -0.00000000000E+00 -0.41765688019E+02  0.41765688019E+02  0.00000000000E+00 0.  1.
          2    1    1    2  501    0 -0.19508073940E+02  0.74628060571E+01 -0.13798908532E+02  0.25033343759E+02  0.00000000000E+00 0.  1.
         21    1    1    2  503  501  0.19508073940E+02 -0.74628060571E+01 -0.17469618079E+02  0.27229505668E+02  0.00000000000E+00 0.  1.
</event>
<event>
 4    1  0.2216341E+005  0.2350386E+02  0.7546771E-02  0.1486266E+00
          2   -1    0    0  502    0  0.00000000000E+00  0.00000000000E+00  0.69679442365E+01  0.69679442365E+01  0.00000000000E+00 0. -1.
         21   -1    0    0  503  502 -0.00000000000E+00 -0.00000000000E+00 -0.98391315923E+02  0.98391315923E+02  0.00000000000E+00 0.  1.
          2    1    1    2  501    0  0.18687540708E+02  0.14255086439E+02 -0.22495634782E+02  0.32534370308E+02  0.00000000000E+00 0. -1.
         21    1    1    2  503  501 -0.18687540708E+02 -0.14255086439E+02 -0.68927736904E+02  0.72824889851E+02  0.00000000000E+00 0.  1.
</event>
<event>
 4    1  0.2216341E+005  0.2299674E+02  0.7546771E-02  0.1492539E+00
          2   -1    0    0  503    0  0.00000000000E+00  0.00000000000E+00  0.11127420047E+04  0.11127420047E+04  0.00000000000E+00 0.  1.
         21   -1    0    0  501  502 -0.00000000000E+00 -0.00000000000E+00 -0.76066445632E+02  0.76066445632E+02  0.00000000000E+00 0.  1.
          2    1    1    2  501    0 -0.12201496076E+02 -0.19492909111E+02  0.11108821596E+04  0.11111201657E+04  0.00000000000E+00 0.  1.
         21    1    1    2  503  502  0.12201496076E+02  0.19492909111E+02 -0.74206600535E+02  0.77688284671E+02  0.00000000000E+00 0.  1.
</event>
<event>
 4    1  0.2216341E+005  0.2348829E+02  0.7546771E-02  0.1486456E+00
          2   -1    0    0  503    0  0.00000000000E+00  0.00000000000E+00  0.96710525932E+03  0.96710525932E+03  0.00000000000E+00 0.  1.
         21   -1    0    0  501  502 -0.00000000000E+00 -0.00000000000E+00 -0.13960826278E+01  0.13960826278E+01  0.00000000000E+00 0.  1.
          2    1    1    2  501    0  0.64450644126E+01  0.22586737888E+02  0.85524987906E+03  0.85557235534E+03  0.00000000000E+00 0.  1.
         21    1    1    2  503  502 -0.64450644126E+01 -0.22586737888E+02  0.11045929764E+03  0.11292898662E+03  0.00000000000E+00 0.  1.
</event>
<event>
 4    1  0.2216341E+005  0.4972562E+02  0.7546771E-02  0.1299366E+00
          2   -1    0    0  503    0  0.00000000000E+00  0.00000000000E+00  0.34808260625E+04  0.34808260625E+04  0.00000000000E+00 0.  1.
         21   -1    0    0  501  502 -0.00000000000E+00 -0.00000000000E+00 -0.12399377939E+02  0.12399377939E+02  0.00000000000E+00 0. -1.
          2    1    1    2  501    0 -0.37576313228E+02  0.32567738768E+02  0.34300565516E+04  0.34304169695E+04  0.00000000000E+00 0.  1.
         21    1    1    2  503  502  0.37576313228E+02 -0.32567738768E+02  0.38370132882E+02  0.62808470938E+02  0.00000000000E+00 0. -1.
</event>
<event>
 4    1  0.2216341E+005  0.2759599E+02  0.7546771E-02  0.1441711E+00
          2   -1    0    0  502    0  0.00000000000E+00  0.00000000000E+00  0.17755861125E+03  0.17755861125E+03  0.00000000000E+00 0.  1.
         21   -1    0    0  503  502 -0.00000000000E+00 -0.00000000000E+00 -0.52605036813E+02  0.52605036813E+02  0.00000000000E+00 0. -1.
          2    1    1    2  501    0  0.27393039714E+02 -0.33406711611E+01  0.17276750970E+03  0.17495756948E+03  0.00000000000E+00 0.  1.
         21    1    1    2  503  501 -0.27393039714E+02  0.33406711611E+01 -0.47813935259E+02  0.55206078592E+02  0.00000000000E+00 0. -1.
</event>
<event>
 4    1  0.2216341E+005  0.2440431E+02  0.7546771E-02  0.1475579E+00
          2   -1    0    0  503    0  0.00000000000E+00  0.00000000000E+00  0.44217091511E+03  0.44217091511E+03  0.00000000000E+00 0.  1.
         21   -1    0    0  501  502 -0.00000000000E+00 -0.00000000000E+00 -0.20277742301E+01  0.20277742301E+01  0.00000000000E+00 0.  1.
          2    1    1    2  501    0 -0.20878970297E+02  0.12634836731E+02  0.34876706898E+03  0.34961984913E+03  0.00000000000E+00 0.  1.
         21    1    1    2  503  502  0.20878970297E+02 -0.12634836731E+02  0.91376071898E+02  0.94578840210E+02  0.00000000000E+00 0.  1.
</event>
<event>
 4    1  0.3043787E+005  0.2728559E+02  0.7546771E-02  0.1444760E+00
          2   -1    0    0  503    0  0.00000000000E+00  0.00000000000E+00  0.12787208942E+04  0.12787208942E+04  0.00000000000E+00 0. -1.
         21   -1    0    0  501  502 -0.00000000000E+00 -0.00000000000E+00 -0.17192599210E+03  0.17192599210E+03  0.00000000000E+00 0.  1.
          2    1    1    2  501    0 -0.44966074472E+01 -0.26912520964E+02  0.12774917038E+04  0.12777830632E+04  0.00000000000E+00 0. -1.
         21    1    1    2  503  502  0.44966074472E+01  0.26912520964E+02 -0.17069680166E+03  0.17286382316E+03  0.00000000000E+00 0.  1.
</event>
<event>
 4    1  0.2216341E+005  0.2827392E+02  0.7546771E-02  0.1435215E+00
          2   -1    0    0  503    0  0.00000000000E+00  0.00000000000E+00  0.33952241674E+03  0.33952241674E+03  0.00000000000E+00 0.  1.
         21   -1    0    0  501  502 -0.00000000000E+00 -0.00000000000E+00 -0.31883378438E+01  0.31883378438E+01  0.00000000000E+00 0.  1.
          2    1    1    2  501    0  0.27482973773E+02  0.66408296140E+01  0.25579637483E+03  0.25735423028E+03  0.00000000000E+00 0.  1.
         21    1    1    2  503  502 -0.27482973773E+02 -0.66408296140E+01  0.80537704058E+02  0.85356524299E+02  0.00000000000E+00 0.  1.
</event>
<event>
 4    1  0.2216341E+005  0.2746438E+02  0.7546771E-02  0.1442998E+00
          2   -1    0    0  502    0  0.00000000000E+00  0.00000000000E+00  0.17442930874E+04  0.17442930874E+04  0.00000000000E+00 0.  1.
         21   -1    0    0  503  502 -0.00000000000E+00 -0.00000000000E+00 -0.12295484731E+01  0.12295484731E+01  0.00000000000E+00 0.  1.
          2    1    1    2  501    0 -0.20418403800E+02 -0.18367932564E+02  0.15742527621E+04  0.15744923154E+04  0.00000000000E+00 0.  1.
         21    1    1    2  503  501  0.20418403800E+02  0.18367932564E+02  0.16881077679E+03  0.17103032047E+03  0.00000000000E+00 0.  1.
</event>
<event>
 4    1  0.2216341E+005  0.3642515E+02  0.7546771E-02  0.1370812E+00
          2   -1    0    0  502    0  0.00000000000E+00  0.00000000000E+00  0.31920699488E+03  0.31920699488E+03  0.00000000000E+00 0.  1.
         21   -1    0    0  503  502 -0.00000000000E+00 -0.00000000000E+00 -0.12410801089E+03  0.12410801089E+03  0.00000000000E+00 0. -1.
          2    1    1    2  501    0  0.30459094657E+02 -0.19975862295E+02  0.31546359941E+03  0.31755955989E+03  0.00000000000E+00 0.  1.
         21    1    1    2  503  501 -0.30459094657E+02  0.19975862295E+02 -0.12036461542E+03  0.12575544587E+03  0.00000000000E+00 0. -1.
</event>
<event>
 4    1  0.2216341E+005  0.2117560E+02  0.7546771E-02  0.1516772E+00
          2   -1    0    0  502    0  0.00000000000E+00  0.00000000000E+00  0.69801452402E+03  0.69801452402E+03  0.00000000000E+00 0. -1.
         21   -1    0    0  503  502 -0.00000000000E+00 -0.00000000000E+00 -0.51437836798E+02  0.51437836798E+02  0.00000000000E+00 0.  1.
          2    1    1    2  501    0 -0.15815947715E+02 -0.14080541207E+02  0.69566721370E+03  0.69598942381E+03  0.00000000000E+00 0. -1.
         21    1    1    2  503  501  0.15815947715E+02  0.14080541207E+02 -0.49090526480E+02  0.53462937002E+02  0.00000000000E+00 0.  1.
</event>
<event>
 4    1  0.2216341E+005  0.2139674E+02  0.7546771E-02  0.1513675E+00
          2   -1    0    0  503    0  0.00000000000E+00  0.00000000000E+00  0.13489697604E+03  0.13489697604E+03  0.00000000000E+00 0. -1.
         21   -1    0    0  501  502 -0.00000000000E+00 -0.00000000000E+00 -0.44116771179E+01  0.44116771179E+01  0.00000000000E+00 0.  1.
          2    1    1    2  501    0  0.33875516798E+01 -0.21126875660E+02  0.98699326552E+02  0.10099196722E+03  0.00000000000E+00 0. -1.
         21    1    1    2  503  502 -0.33875516798E+01  0.21126875660E+02  0.31785972366E+02  0.38316685932E+02  0.00000000000E+00 0.  1.
</event>
<event>
 4    1  0.2216341E+005  0.2125936E+02  0.7546771E-02  0.1515594E+00
          2   -1    0    0  503    0  0.00000000000E+00  0.00000000000E+00  0.61710337101E+02  0.61710337101E+02  0.00000000000E+00 0.  1.
         21   -1    0    0  501  502 -0.00000000000E+00 -0.00000000000E+00 -0.94386452529E+01  0.94386452529E+01  0.00000000000E+00 0.  1.
          2    1    1    2  501    0  0.19378388929E+02  0.87429149068E+01  0.42974702350E+02  0.47945652155E+02  0.00000000000E+00 0.  1.
         21    1    1    2  503  502 -0.19378388929E+02 -0.87429149068E+01  0.92969894981E+01  0.23203330198E+02  0.00000000000E+00 0.  1.
</event>
<event>
 4    1  0.2216341E+005  0.2012957E+02  0.7546771E-02  0.1532064E+00
          2   -1    0    0  503    0  0.00000000000E+00  0.00000000000E+00  0.34590593470E+02  0.34590593470E+02  0.00000000000E+00 0.  1.
         21   -1    0    0  501  502 -0.00000000000E+00 -0.00000000000E+00 -0.50034321493E+02  0.50034321493E+02  0.00000000000E+00 0.  1.
          2    1    1    2  501    0 -0.19543732357E+02 -0.48210224863E+01  0.29307641272E+02  0.35554712334E+02  0.00000000000E+00 0.  1.
         21    1    1    2  503  502  0.19543732357E+02  0.48210224863E+01 -0.44751369295E+02  0.49070202628E+02  0.00000000000E+00 0.  1.
</event>
<event>
 4    1  0.2216341E+005  0.3783069E+02  0.7546771E-02  0.1361689E+00
          2   -1    0    0  503    0  0.00000000000E+00  0.00000000000E+00  0.87157902720E+03  0.87157902720E+03  0.00000000000E+00 0. -1.
         21   -1    0    0  501  502 -0.00000000000E+00 -0.00000000000E+00 -0.95156167171E+01  0.95156167171E+01  0.00000000000E+00 0.  1.
          2    1    1    2  501    0 -0.37345079553E+02  0.60420556248E+01  0.83176951838E+03  0.83262938521E+03  0.00000000000E+00 0. -1.
         21    1    1    2  503  502  0.37345079553E+02 -0.60420556248E+01  0.30293892098E+02  0.48465258706E+02  0.00000000000E+00 0.  1.
</event>
<event>
 4    1  0.2216341E+005  0.2576334E+02  0.7546771E-02  0.1460442E+00
          2   -1    0    0  502    0  0.00000000000E+00  0.00000000000E+00  0.82874679415E+03  0.82874679415E+03  0.00000000000E+00 0.  1.
         21   -1    0    0  503  502 -0.00000000000E+00 -0.00000000000E+00 -0.37808208570E+01  0.37808208570E+01  0.00000000000E+00 0. -1.
          2    1    1    2  501    0 -0.22309919955E+02 -0.12884759813E+02  0.78203656948E+03  0.78246082686E+03  0.00000000000E+00 0.  1.
         21    1    1    2  503  501  0.22309919955E+02  0.12884759813E+02  0.42929403816E+02  0.50066788152E+02  0.00000000000E+00 0. -1.
</event>
<event>
 4    1  0.2216341E+005  0.2069168E+02  0.7546771E-02  0.1523713E+00
          2   -1    0    0  503    0  0.00000000000E+00  0.00000000000E+00  0.24293766177E+01  0.24293766177E+01  0.00000000000E+00 0. -1.
         21   -1    0    0  501  502 -0.00000000000E+00 -0.00000000000E+00 -0.24276647315E+03  0.24276647315E+03  0.00000000000E+00 0. -1.
          2    1    1    2  501    0 -0.10628342540E+02 -0.17753423696E+02 -0.55989060168E+02  0.59690205030E+02  0.00000000000E+00 0. -1.
         21    1    1    2  503  502  0.10628342540E+02  0.17753423696E+02 -0.18434803637E+03  0.18550564474E+03  0.00000000000E+00 0. -1.
</event>
<event>
 4    1  0.2216341E+005  0.2178346E+02  0.7546771E-02  0.1508367E+00
          2   -1    0    0  502    0  0.00000000000E+00  0.00000000000E+00  0.15091951459E+04  0.15091951459E+04  0.00000000000E+00 0. -1.
         21   -1    0    0  503  502 -0.00000000000E+00 -0.00000000000E+00 -0.16328475493E+02  0.16328475493E+02  0.00000000000E+00 0. -1.
          2    1    1    2  501    0 -0.21708417808E+02  0.18066002380E+01  0.15018156339E+04  0.15019736074E+04  0.00000000000E+00 0. -1.
         21    1    1    2  503  501  0.21708417808E+02 -0.18066002380E+01 -0.89489635180E+01  0.23550013931E+02  0.00000000000E+00 0. -1.
</event>
<event>
 4    1  0.2216341E+005  0.5481916E+02  0.7546771E-02  0.1278529E+00
          2   -1    0    0  503    0  0.00000000000E+00  0.00000000000E+00  0.26866094528E+03  0.26866094528E+03  0.00000000000E+00 0.  1.
         21   -1    0    0  501  502 -0.00000000000E+00 -0.00000000000E+00 -0.32256071482E+02  0.32256071482E+02  0.00000000000E+00 0.  1.
          2    1    1    2  501    0  0.37852485564E+02  0.39652610294E+02  0.23980644814E+03  0.24599242415E+03  0.00000000000E+00 0.  1.
         21    1    1    2  503  502 -0.37852485564E+02 -0.39652610294E+02 -0.34015743406E+01  0.54924592620E+02  0.00000000000E+00 0.  1.
</event>
<event>
 4    1  0.2216341E+005  0.2890913E+02  0.7546771E-02  0.1429319E+00
          2   -1    0    0  503    0  0.00000000000E+00  0.00000000000E+00  0.10169449716E+04  0.10169449716E+04  0.00000000000E+00 0.  1.
         21   -1    0    0  501  502 -0.00000000000E+00 -0.00000000000E+00 -0.54393889519E+01  0.54393889519E+01  0.00000000000E+00 0. -1.
          2    1    1    2  501    0 -0.27732330722E+02  0.81642776794E+01  0.97674770210E+03  0.97717542497E+03  0.00000000000E+00 0.  1.
         21    1    1    2  503  502  0.27732330722E+02 -0.81642776794E+01  0.34757880575E+02  0.45208935614E+02  0.00000000000E+00 0. -1.
</event>
<event>
 4    1  0.2216341E+005  0.4372078E+02  0.7546771E-02  0.1327961E+00
          2   -1    0    0  503    0  0.00000000000E+00  0.00000000000E+00  0.91387864216E+03  0.91387864216E+03  0.00000000000E+00 0. -1.
         21   -1    0    0  501  502 -0.00000000000E+00 -0.00000000000E+00 -0.24805561651E+02  0.24805561651E+02  0.00000000000E+00 0.  1.
          2    1    1    2  501    0 -0.20414855316E+02  0.38661869538E+02  0.89365512743E+03  0.89472397601E+03  0.00000000000E+00 0. -1.
         21    1    1    2  503  502  0.20414855316E+02 -0.38661869538E+02 -0.45820469229E+01  0.43960227795E+02  0.00000000000E+00 0.  1.
</event>
<event>
 4    1  0.2216341E+005  0.2376563E+02  0.7546771E-02  0.1483102E+00
          2   -1    0    0  502    0  0.00000000000E+00  0.00000000000E+00  0.26255682093E+02  0.26255682093E+02  0.00000000000E+00 0. -1.
         21   -1    0    0  503  502 -0.00000000000E+00 -0.00000000000E+00 -0.13298819552E+03  0.13298819552E+03  0.00000000000E+00 0.  1.
          2    1    1    2  501    0  0.22043038083E+02  0.88831086051E+01  0.19532109816E+02  0.30762127044E+02  0.00000000000E+00 0. -1.
         21    1    1    2  503  501 -0.22043038083E+02 -0.88831086051E+01 -0.12626462325E+03  0.12848175057E+03  0.00000000000E+00 0.  1.
</event>
<event>
 4    1  0.2216341E+005  0.2223367E+02  0.7546771E-02  0.1502352E+00
          2   -1    0    0  502    0  0.00000000000E+00  0.00000000000E+00  0.13914075626E+04  0.13914075626E+04  0.00000000000E+00 0.  1.
         21   -1    0    0  503  502 -0.00000000000E+00 -0.00000000000E+00 -0.44725053211E+02  0.44725053211E+02  0.00000000000E+00 0.  1.
          2    1    1    2  501    0 -0.18191714347E+02 -0.12782715366E+02  0.13885498611E+04  0.13887278542E+04  0.00000000000E+00 0.  1.
         21    1    1    2  503  501  0.18191714347E+02  0.12782715366E+02 -0.41867351714E+02  0.47404761602E+02  0.00000000000E+00 0.  1.
</event>
<event>
 4    1  0.2216341E+005  0.1276116E+03  0.7546771E-02  0.1123062E+00
          2   -1    0    0  502    0  0.00000000000E+00  0.00000000000E+00  0.59644324831E+03  0.59644324831E+03  0.00000000000E+00 0.  1.
         21   -1    0    0  503  502 -0.00000000000E+00 -0.00000000000E+00 -0.33646242017E+02  0.33646242017E+02  0.00000000000E+00 0.  1.
          2    1    1    2  501    0  0.44646653096E+02 -0.11954665512E+03  0.41818949891E+03  0.43722669564E+03  0.00000000000E+00 0.  1.
         21    1    1    2  503  501 -0.44646653096E+02  0.11954665512E+03  0.14460750738E+03  0.19286279468E+03  0.00000000000E+00 0.  1.
</event>
<event>
 4    1  0.2216341E+005  0.4491941E+02  0.7546771E-02  0.1321843E+00
          2   -1    0    0  503    0  0.00000000000E+00  0.00000000000E+00  0.24190789866E+04  0.24190789866E+04  0.00000000000E+00 0. -1.
         21   -1    0    0  501  502 -0.00000000000E+00 -0.00000000000E+00 -0.64978094777E+01  0.64978094777E+01  0.00000000000E+00 0. -1.
          2    1    1    2  501    0 -0.30953845658E+02 -0.32551698977E+02  0.23385658869E+04  0.23389972555E+04  0.00000000000E+00 0. -1.
         21    1    1    2  503  502  0.30953845658E+02  0.32551698977E+02  0.74015290224E+02  0.86579540622E+02  0.00000000000E+00 0. -1.
</event>
<event>
 4    1  0.2216341E+005  0.2027051E+02  0.7546771E-02  0.1529940E+00
          2   -1    0    0  502    0  0.00000000000E+00  0.00000000000E+00  0.19392398701E+04  0.19392398701E+04  0.00000000000E+00 0. -1.
         21   -1    0    0  503  502 -0.00000000000E+00 -0.00000000000E+00 -0.21525787555E+00  0.21525787555E+00  0.00000000000E+00 0.  1.
          2    1    1    2  501    0  0.11879066336E+02  0.16425018866E+02  0.84810374552E+03  0.84834595338E+03  0.00000000000E+00 0. -1.
         21    1    1    2  503  501 -0.11879066336E+02 -0.16425018866E+02  0.10909208667E+04  0.10911091746E+04  0.00000000000E+00 0.  1.
</event>
<event>
 4    1  0.2216341E+005  0.3703426E+02  0.7546771E-02  0.1366800E+00
          2   -1    0    0  503    0  0.00000000000E+00  0.00000000000E+00  0.11306428826E+04  0.11306428826E+04  0.00000000000E+00 0.  1.
         21   -1    0    0  501  502 -0.00000000000E+00 -0.00000000000E+00 -0.40525522123E+01  0.40525522123E+01  0.00000000000E+00 0.  1.
          2    1    1    2  501    0  0.22326462937E+01 -0.36966902876E+02  0.10381987126E+04  0.10388590392E+04  0.00000000000E+00 0.  1.
         21    1    1    2  503  502 -0.22326462937E+01  0.36966902876E+02  0.88391617872E+02  0.95836395632E+02  0.00000000000E+00 0.  1.
</event>
<event>
 4    1  0.2216341E+005  0.2396876E+02  0.7546771E-02  0.1480679E+00
          2   -1    0    0  502    0  0.00000000000E+00  0.00000000000E+00  0.42796569536E+03  0.42796569536E+03  0.00000000000E+00 0.  1.
         21   -1    0    0  503  502 -0.00000000000E+00 -0.00000000000E+00 -0.60595140124E+02  0.60595140124E+02  0.00000000000E+00 0.  1.
          2    1    1    2  501    0 -0.90597923862E+01  0.22190580201E+02  0.42524469409E+03  0.42591965385E+03  0.00000000000E+00 0.  1.
         21    1    1    2  503  501  0.90597923862E+01 -0.22190580201E+02 -0.57874138854E+02  0.62641181629E+02  0.00000000000E+00 0.  1.
</event>
<event>
 4    1  0.2216341E+005  0.2346000E+02  0.7546771E-02  0.1486801E+00
          2   -1    0    0  503    0  0.00000000000E+00  0.00000000000E+00  0.10589102532E+04  0.10589102532E+04  0.00000000000E+00 0.  1.
         21   -1    0    0  501  502 -0.00000000000E+00 -0.00000000000E+00 -0.76850015561E+00  0.76850015561E+00  0.00000000000E+00 0. -1.
          2    1    1    2  501    0  0.23064844332E+02  0.42877166834E+01  0.83051130349E+03  0.83084258244E+03  0.00000000000E+00 0.  1.
         21    1    1    2  503  502 -0.23064844332E+02 -0.42877166834E+01  0.22763044955E+03  0.22883617092E+03  0.00000000000E+00 0. -1.
</event>
<event>
 4    1  0.2216341E+005  0.2240849E+02  0.7546771E-02  0.1500062E+00
          2   -1    0    0  502    0  0.00000000000E+00  0.00000000000E+00  0.55271675908E+02  0.55271675908E+02  0.00000000000E+00 0. -1.
         21   -1    0    0  503  502 -0.00000000000E+00 -0.00000000000E+00 -0.38083985118E+02  0.38083985118E+02  0.00000000000E+00 0. -1.
          2    1    1    2  501    0  0.20949328274E+02 -0.79540051324E+01  0.49325422330E+02  0.54176912433E+02  0.00000000000E+00 0. -1.
         21    1    1    2  503  501 -0.20949328274E+02  0.79540051324E+01 -0.32137731540E+02  0.39178748593E+02  0.00000000000E+00 0. -1.
</event>
<event>
 4    1  0.2216341E+005  0.2523332E+02  0.7546771E-02  0.1466210E+00
          2   -1    0    0  502    0  0.00000000000E+00  0.00000000000E+00  0.12995806689E+03  0.12995806689E+03  0.00000000000E+00 0. -1.
         21   -1    0    0  503  502 -0.00000000000E+00 -0.00000000000E+00 -0.87628921966E+02  0.87628921966E+02  0.00000000000E+00 0. -1.
          2    1    1    2  501    0 -0.25176021557E+02  0.16995157501E+01  0.12687294131E+03  0.12935788979E+03  0.00000000000E+00 0. -1.
         21    1    1    2  503  501  0.25176021557E+02 -0.16995157501E+01 -0.84543796383E+02  0.88229099066E+02  0.00000000000E+00 0. -1.
</event>
<event>
 4    1  0.2216341E+005  0.3453032E+02  0.7546771E-02  0.1383896E+00
          2   -1    0    0  503    0  0.00000000000E+00  0.00000000000E+00  0.36417524046E+03  0.36417524046E+03  0.00000000000E+00 0. -1.
         21   -1    0    0  501  502 -0.00000000000E+00 -0.00000000000E+00 -0.26819529227E+02  0.26819529227E+02  0.00000000000E+00 0.  1.
          2    1    1    2  501    0 -0.13686178757E+02  0.31702227362E+02  0.35185393965E+03  0.35354425119E+03  0.00000000000E+00 0. -1.
         21    1    1    2  503  502  0.13686178757E+02 -0.31702227362E+02 -0.14498228408E+02  0.37450518496E+02  0.00000000000E+00 0.  1.
</event>
<event>
 4    1  0.2216341E+005  0.2522422E+02  0.7546771E-02  0.1466311E+00
          2   -1    0    0  503    0  0.00000000000E+00  0.00000000000E+00  0.72889344930E+01  0.72889344930E+01  0.00000000000E+00 0. -1.
         21   -1    0    0  501  502 -0.00000000000E+00 -0.00000000000E+00 -0.30411620219E+03  0.30411620219E+03  0.00000000000E+00 0. -1.
          2    1    1    2  501    0  0.22201131931E+02  0.11973768752E+02 -0.16942483546E+02  0.30386002466E+02  0.00000000000E+00 0. -1.
         21    1    1    2  503  502 -0.22201131931E+02 -0.11973768752E+02 -0.27988478415E+03  0.28101913422E+03  0.00000000000E+00 0. -1.
</event>
<event>
 4    1  0.2216341E+005  0.2459807E+02  0.7546771E-02  0.1473350E+00
          2   -1    0    0  503    0  0.00000000000E+00  0.00000000000E+00  0.11983551641E+04  0.11983551641E+04  0.00000000000E+00 0.  1.
         21   -1    0    0  501  502 -0.00000000000E+00 -0.00000000000E+00 -0.58101797524E+02  0.58101797524E+02  0.00000000000E+00 0.  1.
          2    1    1    2  501    0 -0.18070899899E+02  0.16688552893E+02  0.11956195093E+04  0.11958725167E+04  0.00000000000E+00 0.  1.
         21    1    1    2  503  502  0.18070899899E+02 -0.16688552893E+02 -0.55366142654E+02  0.60584444977E+02  0.00000000000E+00 0.  1.
</event>
<event>
 4    1  0.2216341E+005  0.2522497E+02  0.7546771E-02  0.1466302E+00
          2   -1    0    0  502    0  0.00000000000E+00  0.00000000000E+00  0.16506990917E+04  0.16506990917E+04  0.00000000000E+00 0.  1.
         21   -1    0    0  503  502 -0.00000000000E+00 -0.00000000000E+00 -0.10248220183E+01  0.10248220183E+01  0.00000000000E+00 0. -1.
          2    1    1    2  501    0 -0.18245679328E+02  0.17418213018E+02  0.14771447347E+04  0.14773601004E+04  0.00000000000E+00 0.  1.
         21    1    1    2  503  501  0.18245679328E+02 -0.17418213018E+02  0.17252953495E+03  0.17436381330E+03  0.00000000000E+00 0. -1.
</event>
<event>
 4    1  0.2216341E+005  0.2177673E+02  0.7546771E-02  0.1508458E+00
          2   -1    0    0  502    0  0.00000000000E+00  0.00000000000E+00  0.13281835286E+04  0.13281835286E+04  0.00000000000E+00 0.  1.
         21   -1    0    0  503  502 -0.00000000000E+00 -0.00000000000E+00 -0.29810447856E+01  0.29810447856E+01  0.00000000000E+00 0.  1.
          2    1    1    2  501    0  0.10139068263E+02 -0.19272394914E+02  0.12870533192E+04  0.12872375353E+04  0.00000000000E+00 0.  1.
         21    1    1    2  503  501 -0.10139068263E+02  0.19272394914E+02  0.38149164599E+02  0.43927038035E+02  0.00000000000E+00 0.  1.
</event>
<event>
 4    1  0.2216341E+005  0.2048898E+02  0.7546771E-02  0.1526687E+00
          2   -1    0    0  503    0  0.00000000000E+00  0.00000000000E+00  0.86809856898E+02  0.86809856898E+02  0.00000000000E+00 0. -1.
         21   -1    0    0  501  502 -0.00000000000E+00 -0.00000000000E+00 -0.80993627979E+02  0.80993627979E+02  0.00000000000E+00 0.  1.
          2    1    1    2  501    0  0.93325508931E+01 -0.18240113964E+02  0.84266575457E+02  0.86721704336E+02  0.00000000000E+00 0. -1.
         21    1    1    2  503  502 -0.93325508931E+01  0.18240113964E+02 -0.78450346538E+02  0.81081780540E+02  0.00000000000E+00 0.  1.
</event>
<event>
 4    1  0.2216341E+005  0.2082093E+02  0.7546771E-02  0.1521837E+00
          2   -1    0    0  503    0  0.00000000000E+00  0.00000000000E+00  0.14605256598E+04  0.14605256598E+04  0.00000000000E+00 0.  1.
         21   -1    0    0  501  502 -0.00000000000E+00 -0.00000000000E+00 -0.18388997333E+01  0.18388997333E+01  0.00000000000E+00 0. -1.
          2    1    1    2  501    0  0.33525876261E+01  0.20549241593E+02  0.13989199457E+04  0.13990748820E+04  0.00000000000E+00 0.  1.
         21    1    1    2  503  502 -0.33525876261E+01 -0.20549241593E+02  0.59766814442E+02  0.63289677535E+02  0.00000000000E+00 0. -1.
</event>
<event>
 4    1  0.2216341E+005  0.4603156E+02  0.7546771E-02  0.1316360E+00
          2   -1    0    0  502    0  0.00000000000E+00  0.00000000000E+00  0.37339512936E+02  0.37339512936E+02  0.00000000000E+00 0.  1.
         21   -1    0    0  503  502 -0.00000000000E+00 -0.00000000000E+00 -0.15873680065E+03  0.15873680065E+03  0.00000000000E+00 0.  1.
          2    1    1    2  501    0 -0.38282749531E+02  0.25560438839E+02  0.17885462733E+02  0.49384154568E+02  0.00000000000E+00 0.  1.
         21    1    1    2  503  501  0.38282749531E+02 -0.25560438839E+02 -0.13928275044E+03  0.14669215901E+03  0.00000000000E+00 0.  1.
</event>
<event>
 4    1  0.2216341E+005  0.2271179E+02  0.7546771E-02  0.1496149E+00
          2   -1    0    0  502    0  0.00000000000E+00  0.00000000000E+00  0.33146321710E+03  0.33146321710E+03  0.00000000000E+00 0.  1.
         21   -1    0    0  503  502 -0.00000000000E+00 -0.00000000000E+00 -0.19912010380E+01  0.19912010380E+01  0.00000000000E+00 0.  1.
          2    1    1    2  501    0  0.17770108507E+02 -0.14143850013E+02  0.24266351311E+03  0.24372403625E+03  0.00000000000E+00 0.  1.
         21    1    1    2  503  501 -0.17770108507E+02  0.14143850013E+02  0.86808502954E+02  0.89730381893E+02  0.00000000000E+00 0.  1.
</event>
<event>
 4    1  0.2216341E+005  0.2177854E+02  0.7546771E-02  0.1508433E+00
          2   -1    0    0  502    0  0.00000000000E+00  0.00000000000E+00  0.90086325588E+01  0.90086325588E+01  0.00000000000E+00 0. -1.
         21   -1    0    0  503  502 -0.00000000000E+00 -0.00000000000E+00 -0.62637821659E+02  0.62637821659E+02  0.00000000000E+00 0. -1.
          2    1    1    2  501    0  0.21594091784E+02 -0.28284444735E+01 -0.12509826428E+02  0.25115745168E+02  0.00000000000E+00 0. -1.
         21    1    1    2  503  501 -0.21594091784E+02  0.28284444735E+01 -0.41119362672E+02  0.46530709050E+02  0.00000000000E+00 0. -1.
</event>
<event>
 4    1  0.2216341E+005  0.9283436E+02  0.7546771E-02  0.1176839E+00
          2   -1    0    0  503    0  0.00000000000E+00  0.00000000000E+00  0.13543696589E+04  0.13543696589E+04  0.00000000000E+00 0. -1.
         21   -1    0    0  501  502 -0.00000000000E+00 -0.00000000000E+00 -0.32287853241E+03  0.32287853241E+03  0.00000000000E+00 0.  1.
          2    1    1    2  501    0  0.57509432598E+01 -0.92656059829E+02  0.13460647624E+04  0.13492622293E+04  0.00000000000E+00 0. -1.
         21    1    1    2  503  502 -0.57509432598E+01  0.92656059829E+02 -0.31457363600E+03  0.32798596195E+03  0.00000000000E+00 0.  1.
</event>
<event>
 4    1  0.2216341E+005  0.2209305E+02  0.7546771E-02  0.1504212E+00
          2   -1    0    0  502    0  0.00000000000E+00  0.00000000000E+00  0.24090768984E+02  0.24090768984E+02  0.00000000000E+00 0. -1.
         21   -1    0    0  503  502 -0.00000000000E+00 -0.00000000000E+00 -0.24594894467E+03  0.24594894467E+03  0.00000000000E+00 0. -1.
          2    1    1    2  501    0 -0.22075089990E+02  0.89053722255E+00  0.18409870446E+02  0.28758059469E+02  0.00000000000E+00 0. -1.
         21    1    1    2  503  501  0.22075089990E+02 -0.89053722255E+00 -0.24026804613E+03  0.24128165419E+03  0.00000000000E+00 0. -1.
</event>
<event>
 4    1  0.2216341E+005  0.2430494E+02  0.7546771E-02  0.1476731E+00
          2   -1    0    0  502    0  0.00000000000E+00  0.00000000000E+00  0.80931829634E+02  0.80931829634E+02  0.00000000000E+00 0.  1.
         21   -1    0    0  503  502 -0.00000000000E+00 -0.00000000000E+00 -0.55873061578E+02  0.55873061578E+02  0.00000000000E+00 0.  1.
          2    1    1    2  501    0 -0.16831646389E+02 -0.17533565419E+02  0.76307563391E+02  0.80084795481E+02  0.00000000000E+00 0.  1.
         21    1    1    2  503  501  0.16831646389E+02  0.17533565419E+02 -0.51248795335E+02  0.56720095731E+02  0.00000000000E+00 0.  1.
</event>
<event>
 4    1  0.2216341E+005  0.3206446E+02  0.7546771E-02  0.1402466E+00
          2   -1    0    0  503    0  0.00000000000E+00  0.00000000000E+00  0.21256944590E+04  0.21256944590E+04  0.00000000000E+00 0.  1.
         21   -1    0    0  501  502 -0.00000000000E+00 -0.00000000000E+00 -0.11538422694E+01  0.11538422694E+01  0.00000000000E+00 0.  1.
          2    1    1    2  501    0 -0.18706971921E+02  0.26041870064E+02  0.18727222402E+04  0.18729967215E+04  0.00000000000E+00 0.  1.
         21    1    1    2  503  502  0.18706971921E+02 -0.26041870064E+02  0.25181837650E+03  0.25385157974E+03  0.00000000000E+00 0.  1.
</event>
<event>
 4    1  0.2216341E+005  0.2811996E+02  0.7546771E-02  0.1436671E+00
          2   -1    0    0  503    0  0.00000000000E+00  0.00000000000E+00  0.40521625997E+03  0.40521625997E+03  0.00000000000E+00 0. -1.
         21   -1    0    0  501  502 -0.00000000000E+00 -0.00000000000E+00 -0.28508091741E+01  0.28508091741E+01  0.00000000000E+00 0. -1.
          2    1    1    2  501    0  0.26813316883E+02  0.84721953711E+01  0.31578685800E+03  0.31703638868E+03  0.00000000000E+00 0. -1.
         21    1    1    2  503  502 -0.26813316883E+02 -0.84721953711E+01  0.86578592790E+02  0.91030680466E+02  0.00000000000E+00 0. -1.
</event>
<event>
 4    1  0.2216341E+005  0.3747493E+02  0.7546771E-02  0.1363954E+00
          2   -1    0    0  503    0  0.00000000000E+00  0.00000000000E+00  0.68453896055E+01  0.68453896055E+01  0.00000000000E+00 0. -1.
         21   -1    0    0  501  502 -0.00000000000E+00 -0.00000000000E+00 -0.20552039263E+03  0.20552039263E+03  0.00000000000E+00 0. -1.
          2    1    1    2  501    0  0.14501327017E+02  0.34555494214E+02 -0.94864559785E+02  0.10199831062E+03  0.00000000000E+00 0. -1.
         21    1    1    2  503  502 -0.14501327017E+02 -0.34555494214E+02 -0.10381044324E+03  0.11036747161E+03  0.00000000000E+00 0. -1.
</event>
<event>
 4    1  0.2216341E+005  0.4833594E+02  0.7546771E-02  0.1305553E+00
          2   -1    0    0  502    0  0.00000000000E+00  0.00000000000E+00  0.10888958275E+04  0.10888958275E+04  0.00000000000E+00 0.  1.
         21   -1    0    0  503  502 -0.00000000000E+00 -0.00000000000E+00 -0.45612879969E+01  0.45612879969E+01  0.00000000000E+00 0. -1.
          2    1    1    2  501    0 -0.32948626077E+02 -0.35365956239E+02  0.94004178912E+03  0.94128365975E+03  0.00000000000E+00 0.  1.
         21    1    1    2  503  501  0.32948626077E+02  0.35365956239E+02  0.14429275041E+03  0.15217345577E+03  0.00000000000E+00 0. -1.
</event>
<event>
 4    1  0.2216341E+005  0.2879479E+02  0.7546771E-02  0.1430367E+00
          2   -1    0    0  503    0  0.00000000000E+00  0.00000000000E+00  0.20882210028E+03  0.20882210028E+03  0.00000000000E+00 0.  1.
         21   -1    0    0  501  502 -0.00000000000E+00 -0.00000000000E+00 -0.22186826764E+02  0.22186826764E+02  0.00000000000E+00 0.  1.
          2    1    1    2  501    0  0.24794458782E+02 -0.14641548621E+02  0.19797767548E+03  0.20006074107E+03  0.00000000000E+00 0.  1.
         21    1    1    2  503  502 -0.24794458782E+02  0.14641548621E+02 -0.11342401964E+02  0.30948185967E+02  0.00000000000E+00 0.  1.
</event>
<event>
 4    1  0.2216341E+005  0.2114308E+02  0.7546771E-02  0.1517232E+00
          2   -1    0    0  502    0  0.00000000000E+00  0.00000000000E+00  0.13557501595E+04  0.13557501595E+04  0.00000000000E+00 0.  1.
         21   -1    0    0  503  502 -0.00000000000E+00 -0.00000000000E+00 -0.25670336690E+01  0.25670336690E+01  0.00000000000E+00 0. -1.
          2    1    1    2  501    0  0.60072063501E+01 -0.20271738005E+02  0.13106335268E+04  0.13108040554E+04  0.00000000000E+00 0.  1.
         21    1    1    2  503  501 -0.60072063501E+01  0.20271738005E+02  0.42549599032E+02  0.47513137843E+02  0.00000000000E+00 0. -1.
</event>
<event>
 4    1  0.2216341E+005  0.2794941E+02  0.7546771E-02  0.1438297E+00
          2   -1    0    0  503    0  0.00000000000E+00  0.00000000000E+00  0.15980148028E+04  0.15980148028E+04  0.00000000000E+00 0. -1.
         21   -1    0    0  501  502 -0.00000000000E+00 -0.00000000000E+00 -0.51515654331E+00  0.51515654331E+00  0.00000000000E+00 0. -1.
          2    1    1    2  501    0  0.15380423364E+02 -0.23336927291E+02  0.97940733815E+03  0.97980605408E+03  0.00000000000E+00 0. -1.
         21    1    1    2  503  502 -0.15380423364E+02  0.23336927291E+02  0.61809230807E+03  0.61872390522E+03  0.00000000000E+00 0. -1.
</event>
<event>
 4    1  0.2216341E+005  0.2115042E+02  0.7546771E-02  0.1517128E+00
          2   -1    0    0  502    0  0.00000000000E+00  0.00000000000E+00  0.17557901251E+01  0.17557901251E+01  0.00000000000E+00 0. -1.
         21   -1    0    0  503  502 -0.00000000000E+00 -0.00000000000E+00 -0.56654378409E+03  0.56654378409E+03  0.00000000000E+00 0.  1.
          2    1    1    2  501    0 -0.17084500782E+02 -0.12468356441E+02 -0.71607164044E+02  0.74665427218E+02  0.00000000000E+00 0. -1.
         21    1    1    2  503  501  0.17084500782E+02  0.12468356441E+02 -0.49318082992E+03  0.49363414699E+03  0.00000000000E+00 0.  1.
</event>
<event>
 4    1  0.2216341E+005  0.2116527E+02  0.7546771E-02  0.1516918E+00
          2   -1    0    0  502    0  0.00000000000E+00  0.00000000000E+00  0.17396976376E+04  0.17396976376E+04  0.00000000000E+00 0.  1.
         21   -1    0    0  503  502 -0.00000000000E+00 -0.00000000000E+00 -0.45293744560E+00  0.45293744560E+00  0.00000000000E+00 0.  1.
          2    1    1    2  501    0  0.51530270106E+01 -0.20528398607E+02  0.14411585199E+04  0.14413139312E+04  0.00000000000E+00 0.  1.
         21    1    1    2  503  501 -0.51530270106E+01  0.20528398607E+02  0.29808618025E+03  0.29883664383E+03  0.00000000000E+00 0.  1.
</event>
<event>
 4    1  0.2216341E+005  0.2330527E+02  0.7546771E-02  0.1488700E+00
          2   -1    0    0  503    0  0.00000000000E+00  0.00000000000E+00  0.91980950123E+02  0.91980950123E+02  0.00000000000E+00 0.  1.
         21   -1    0    0  501  502 -0.00000000000E+00 -0.00000000000E+00 -0.79176269353E+01  0.79176269353E+01  0.00000000000E+00 0.  1.
          2    1    1    2  501    0 -0.22559917735E+02 -0.58468721257E+01  0.67215803807E+02  0.71141409062E+02  0.00000000000E+00 0.  1.
         21    1    1    2  503  502  0.22559917735E+02  0.58468721257E+01  0.16847519380E+02  0.28757167996E+02  0.00000000000E+00 0.  1.
</event>
<event>
 4    1  0.2216341E+005  0.2215333E+02  0.7546771E-02  0.1503413E+00
          2   -1    0    0  503    0  0.00000000000E+00  0.00000000000E+00  0.17956966828E+01  0.17956966828E+01  0.00000000000E+00 0.  1.
         21   -1    0    0  501  502 -0.00000000000E+00 -0.00000000000E+00 -0.33262839698E+03  0.33262839698E+03  0.00000000000E+00 0.  1.
          2    1    1    2  501    0  0.20708878631E+02 -0.78684394759E+01 -0.94799751664E+02  0.97353802748E+02  0.00000000000E+00 0.  1.
         21    1    1    2  503  502 -0.20708878631E+02  0.78684394759E+01 -0.23603294863E+03  0.23707029092E+03  0.00000000000E+00 0.  1.
</event>
<event>
 4    1  0.2216341E+005  0.1158278E+03  0.7546771E-02  0.1138895E+00
          2   -1    0    0  502    0  0.00000000000E+00  0.00000000000E+00  0.91759233185E+03  0.91759233185E+03  0.00000000000E+00 0. -1.
         21   -1    0    0  503  502 -0.00000000000E+00 -0.00000000000E+00 -0.12704812823E+03  0.12704812823E+03  0.00000000000E+00 0. -1.
          2    1    1    2  501    0  0.10155928268E+03  0.55693693367E+02  0.88661915831E+03  0.89415301110E+03  0.00000000000E+00 0. -1.
         21    1    1    2  503  501 -0.10155928268E+03 -0.55693693367E+02 -0.96074954700E+02  0.15048744898E+03  0.00000000000E+00 0. -1.
</event>
<event>
 4    1  0.2216341E+005  0.2101953E+02  0.7546771E-02  0.1518986E+00
          2   -1    0    0  503    0  0.00000000000E+00  0.00000000000E+00  0.52366015599E+03  0.52366015599E+03  0.00000000000E+00 0.  1.
         21   -1    0    0  501  502 -0.00000000000E+00 -0.00000000000E+00 -0.15009521150E+01  0.15009521150E+01  0.00000000000E+00 0.  1.
          2    1    1    2  501    0  0.18004444390E+02  0.10847155621E+02  0.43483553001E+03  0.43534326566E+03  0.00000000000E+00 0.  1.
         21    1    1    2  503  502 -0.18004444390E+02 -0.10847155621E+02  0.87323673865E+02  0.89817842438E+02  0.00000000000E+00 0.  1.
</event>
<event>
 4    1  0.2216341E+005  0.2015583E+02  0.7546771E-02  0.1531667E+00
          2   -1    0    0  502    0  0.00000000000E+00  0.00000000000E+00  0.28108499862E+02  0.28108499862E+02  0.00000000000E+00 0. -1.
         21   -1    0    0  503  502 -0.00000000000E+00 -0.00000000000E+00 -0.67442519831E+02  0.67442519831E+02  0.00000000000E+00 0. -1.
          2    1    1    2  501    0  0.19493245015E+02  0.51255066317E+01  0.22680966171E+02  0.30342769252E+02  0.00000000000E+00 0. -1.
         21    1    1    2  503  501 -0.19493245015E+02 -0.51255066317E+01 -0.62014986141E+02  0.65208250440E+02  0.00000000000E+00 0. -1.
</event>
<event>
 4    1  0.2216341E+005  0.2535501E+02  0.7546771E-02  0.1464871E+00
          2   -1    0    0  502    0  0.00000000000E+00  0.00000000000E+00  0.29393962218E+03  0.29393962218E+03  0.00000000000E+00 0.  1.
         21   -1    0    0  503  502 -0.00000000000E+00 -0.00000000000E+00 -0.42825127005E+01  0.42825127005E+01  0.00000000000E+00 0. -1.
          2    1    1    2  501    0  0.15234090375E+02 -0.20268176288E+02  0.24913110714E+03  0.25041802057E+03  0.00000000000E+00 0.  1.
         21    1    1    2  503  501 -0.15234090375E+02  0.20268176288E+02  0.40526002332E+02  0.47804114307E+02  0.00000000000E+00 0. -1.
</event>
<event>
 4    1  0.2216341E+005  0.2903705E+02  0.7546771E-02  0.1428153E+00
          2   -1    0    0  502    0  0.00000000000E+00  0.00000000000E+00  0.19301322963E+03  0.19301322963E+03  0.00000000000E+00 0. -1.
         21   -1    0    0  503  502 -0.00000000000E+00 -0.00000000000E+00 -0.10645337810E+02  0.10645337810E+02  0.00000000000E+00 0. -1.
          2    1    1    2  501    0  0.28978986211E+02 -0.18353424468E+01  0.16937705245E+03  0.17184800267E+03  0.00000000000E+00 0. -1.
         21    1    1    2  503  501 -0.28978986211E+02  0.18353424468E+01  0.12990839369E+02  0.31810564773E+02  0.00000000000E+00 0. -1.
</event>
<event>
 4    1  0.2216341E+005  0.2105196E+02  0.7546771E-02  0.1518524E+00
          2   -1    0    0  503    0  0.00000000000E+00  0.00000000000E+00  0.46668245412E+03  0.46668245412E+03  0.00000000000E+00 0.  1.
         21   -1    0    0  501  502 -0.00000000000E+00 -0.00000000000E+00 -0.45769056822E+01  0.45769056822E+01  0.00000000000E+00 0.  1.
          2    1    1    2  501    0 -0.28458504464E+01  0.20858723607E+02  0.44081779436E+03  0.44132019333E+03  0.00000000000E+00 0.  1.
         21    1    1    2  503  502  0.28458504464E+01 -0.20858723607E+02  0.21287754068E+02  0.29939166464E+02  0.00000000000E+00 0.  1.
</event>
<event>
 4    1  0.2216341E+005  0.2155158E+02  0.7546771E-02  0.1511533E+00
          2   -1    0    0  502    0  0.00000000000E+00  0.00000000000E+00  0.51100426627E+03  0.51100426627E+03  0.00000000000E+00 0.  1.
         21   -1    0    0  503  502 -0.00000000000E+00 -0.00000000000E+00 -0.12123033913E+02  0.12123033913E+02  0.00000000000E+00 0. -1.
          2    1    1    2  501    0 -0.95913900137E+01  0.19299631729E+02  0.50100774142E+03  0.50147106349E+03  0.00000000000E+00 0.  1.
         21    1    1    2  503  501  0.95913900137E+01 -0.19299631729E+02 -0.21265090617E+01  0.21656236702E+02  0.00000000000E+00 0. -1.
</event>
<event>
 4    1  0.2216341E+005  0.2499434E+02  0.7546771E-02  0.1468867E+00
          2   -1    0    0  503    0  0.00000000000E+00  0.00000000000E+00  0.81940089417E+03  0.81940089417E+03  0.00000000000E+00 0. -1.
         21   -1    0    0  501  502 -0.00000000000E+00 -0.00000000000E+00 -0.90296684189E+00  0.90296684189E+00  0.00000000000E+00 0.  1.
          2    1    1    2  501    0  0.12062214344E+02 -0.21891089579E+02  0.57107179282E+03  0.57161849985E+03  0.00000000000E+00 0. -1.
         21    1    1    2  503  502 -0.12062214344E+02  0.21891089579E+02  0.24742613452E+03  0.24868536117E+03  0.00000000000E+00 0.  1.
</event>
<event>
 4    1  0.2216341E+005  0.2587513E+02  0.7546771E-02  0.1459247E+00
          2   -1    0    0  503    0  0.00000000000E+00  0.00000000000E+00  0.11766842076E+03  0.11766842076E+03  0.00000000000E+00 0.  1.
         21   -1    0    0  501  502 -0.00000000000E+00 -0.00000000000E+00 -0.12576926402E+02  0.12576926402E+02  0.00000000000E+00 0. -1.
          2    1    1    2  501    0  0.12335414678E+02 -0.22745550883E+02  0.10073615150E+03  0.10400622462E+03  0.00000000000E+00 0.  1.
         21    1    1    2  503  502 -0.12335414678E+02  0.22745550883E+02  0.43553428531E+01  0.26239122539E+02  0.00000000000E+00 0. -1.
</event>
<event>
 4    1  0.2216341E+005  0.2642076E+02  0.7546771E-02  0.1453515E+00
          2   -1    0    0  503    0  0.00000000000E+00  0.00000000000E+00  0.11931066234E+04  0.11931066234E+04  0.00000000000E+00 0.  1.
         21   -1    0    0  501  502 -0.00000000000E+00 -0.00000000000E+00 -0.64802387494E+01  0.64802387494E+01  0.00000000000E+00 0. -1.
          2    1    1    2  501    0 -0.64597764066E+01 -0.25618893792E+02  0.11653897494E+04  0.11656892058E+04  0.00000000000E+00 0.  1.
         21    1    1    2  503  502  0.64597764066E+01  0.25618893792E+02  0.21236635202E+02  0.33897656336E+02  0.00000000000E+00 0. -1.
</event>
<event>
 4    1  0.2216341E+005  0.2694709E+02  0.7546771E-02  0.1448140E+00
          2   -1    0    0  502    0  0.00000000000E+00  0.00000000000E+00  0.17023295681E+04  0.17023295681E+04  0.00000000000E+00 0. -1.
         21   -1    0    0  503  502 -0.00000000000E+00 -0.00000000000E+00 -0.10181089821E+02  0.10181089821E+02  0.00000000000E+00 0. -1.
          2    1    1    2  501    0 -0.39658193269E+01 -0.26653667274E+02  0.16842002582E+04  0.16844158202E+04  0.00000000000E+00 0. -1.
         21    1    1    2  503  501  0.39658193269E+01  0.26653667274E+02  0.79482200614E+01  0.28094837680E+02  0.00000000000E+00 0. -1.
</event>
<event>
 4    1  0.2216341E+005  0.3750326E+02  0.7546771E-02  0.1363772E+00
          2   -1    0    0  503    0  0.00000000000E+00  0.00000000000E+00  0.25983122620E+04  0.25983122620E+04  0.00000000000E+00 0. -1.
         21   -1    0    0  501  502 -0.00000000000E+00 -0.00000000000E+00 -0.81774711115E+02  0.81774711115E+02  0.00000000000E+00 0.  1.
          2    1    1    2  501    0 -0.32864686274E+02 -0.18066742607E+02  0.25938696625E+04  0.25941407674E+04  0.00000000000E+00 0. -1.
         21    1    1    2  503  502  0.32864686274E+02  0.18066742607E+02 -0.77332111634E+02  0.85946205745E+02  0.00000000000E+00 0.  1.
</event>
<event>
 4    1  0.2216341E+005  0.2007301E+02  0.7546771E-02  0.1532922E+00
          2   -1    0    0  503    0  0.00000000000E+00  0.00000000000E+00  0.21728526173E+02  0.21728526173E+02  0.00000000000E+00 0.  1.
         21   -1    0    0  501  502 -0.00000000000E+00 -0.00000000000E+00 -0.41415004195E+02  0.41415004195E+02  0.00000000000E+00 0.  1.
          2    1    1    2  501    0 -0.18008070668E+02 -0.88676517297E+01  0.13618818355E+02  0.24256917978E+02  0.00000000000E+00 0.  1.
         21    1    1    2  503  502  0.18008070668E+02  0.88676517297E+01 -0.33305296378E+02  0.38886612390E+02  0.00000000000E+00 0.  1.
</event>
<event>
 4    1  0.2216341E+005  0.2883045E+02  0.7546771E-02  0.1430039E+00
          2   -1    0    0  503    0  0.00000000000E+00  0.00000000000E+00  0.80342876967E+03  0.80342876967E+03  0.00000000000E+00 0.  1.
         21   -1    0    0  501  502 -0.00000000000E+00 -0.00000000000E+00 -0.11765383904E+02  0.11765383904E+02  0.00000000000E+00 0. -1.
          2    1    1    2  501    0  0.20148031225E+02 -0.20621637665E+02  0.78509596753E+03  0.78562514810E+03  0.00000000000E+00 0.  1.
         21    1    1    2  503  502 -0.20148031225E+02  0.20621637665E+02  0.65674182381E+01  0.29569005471E+02  0.00000000000E+00 0. -1.
</event>
<event>
 4    1  0.2216341E+005  0.2176672E+02  0.7546771E-02  0.1508594E+00
          2   -1    0    0  503    0  0.00000000000E+00  0.00000000000E+00  0.13897050981E+04  0.13897050981E+04  0.00000000000E+00 0.  1.
         21   -1    0    0  501  502 -0.00000000000E+00 -0.00000000000E+00 -0.59151271309E+00  0.59151271309E+00  0.00000000000E+00 0.  1.
          2    1    1    2  501    0 -0.29714462081E+01 -0.21562940762E+02  0.11470086599E+04  0.11472151741E+04  0.00000000000E+00 0.  1.
         21    1    1    2  503  502  0.29714462081E+01  0.21562940762E+02  0.24210492554E+03  0.24308143672E+03  0.00000000000E+00 0.  1.
</event>
<event>
 4    1  0.2216341E+005  0.2423608E+02  0.7546771E-02  0.1477534E+00
          2   -1    0    0  503    0  0.00000000000E+00  0.00000000000E+00  0.43998382202E+01  0.43998382202E+01  0.00000000000E+00 0. -1.
         21   -1    0    0  501  502 -0.00000000000E+00 -0.00000000000E+00 -0.24718015502E+03  0.24718015502E+03  0.00000000000E+00 0. -1.
          2    1    1    2  501    0 -0.63253833203E+01 -0.23396096206E+02 -0.36084555345E+02  0.43468182919E+02  0.00000000000E+00 0. -1.
         21    1    1    2  503  502  0.63253833203E+01  0.23396096206E+02 -0.20669576146E+03  0.20811181033E+03  0.00000000000E+00 0. -1.
</event>
<event>
 4    1  0.2216341E+005  0.2442121E+02  0.7546771E-02  0.1475384E+00
          2   -1    0    0  503    0  0.00000000000E+00  0.00000000000E+00  0.24229384916E+03  0.24229384916E+03  0.00000000000E+00 0.  1.
         21   -1    0    0  501  502 -0.00000000000E+00 -0.00000000000E+00 -0.58596489974E+01  0.58596489974E+01  0.00000000000E+00 0.  1.
          2    1    1    2  501    0 -0.22853176787E+02 -0.86097441272E+01  0.21270554370E+03  0.21410288112E+03  0.00000000000E+00 0.  1.
         21    1    1    2  503  502  0.22853176787E+02  0.86097441272E+01  0.23728656467E+02  0.34050617042E+02  0.00000000000E+00 0.  1.
</event>
<event>
 4    1  0.2216341E+005  0.2498140E+02  0.7546771E-02  0.1469012E+00
          2   -1    0    0  502    0  0.00000000000E+00  0.00000000000E+00  0.63773507347E+02  0.63773507347E+02  0.00000000000E+00 0.  1.
         21   -1    0    0  503  502 -0.00000000000E+00 -0.00000000000E+00 -0.10594184883E+03  0.10594184883E+03  0.00000000000E+00 0.  1.
          2    1    1    2  501    0 -0.55120455077E+01 -0.24365706774E+02  0.59759464434E+02  0.64770856886E+02  0.00000000000E+00 0.  1.
         21    1    1    2  503  501  0.55120455077E+01  0.24365706774E+02 -0.10192780592E+03  0.10494449929E+03  0.00000000000E+00 0.  1.
</event>
<event>
 4    1  0.2216341E+005  0.2400637E+02  0.7546771E-02  0.1480233E+00
          2   -1    0    0  503    0  0.00000000000E+00  0.00000000000E+00  0.96955443505E+03  0.96955443505E+03  0.00000000000E+00 0.  1.
         21   -1    0    0  501  502 -0.00000000000E+00 -0.00000000000E+00 -0.51341475706E+01  0.51341475706E+01  0.00000000000E+00 0.  1.
          2    1    1    2  501    0  0.20813527182E+02  0.11962569266E+02  0.94047591768E+03  0.94078225840E+03  0.00000000000E+00 0.  1.
         21    1    1    2  503  502 -0.20813527182E+02 -0.11962569266E+02  0.23944369793E+02  0.33906324218E+02  0.00000000000E+00 0.  1.
</event>
<event>
 4    1  0.2216341E+005  0.2101742E+02  0.7546771E-02  0.1519016E+00
          2   -1    0    0  503    0  0.00000000000E+00  0.00000000000E+00  0.89017656217E+03  0.89017656217E+03  0.00000000000E+00 0.  1.
         21   -1    0    0  501  502 -0.00000000000E+00 -0.00000000000E+00 -0.27781609635E+01  0.27781609635E+01  0.00000000000E+00 0.  1.
          2    1    1    2  501    0 -0.47101766937E+01 -0.20482824896E+02  0.84834220628E+03  0.84860251640E+03  0.00000000000E+00 0.  1.
         21    1    1    2  503  502  0.47101766937E+01  0.20482824896E+02  0.39056194925E+02  0.44352206734E+02  0.00000000000E+00 0.  1.
</event>
<event>
 4    1  0.2216341E+005  0.2072357E+02  0.7546771E-02  0.1523248E+00
          2   -1    0    0  503    0  0.00000000000E+00  0.00000000000E+00  0.65628783615E+01  0.65628783615E+01  0.00000000000E+00 0.  1.
         21   -1    0    0  501  502 -0.00000000000E+00 -0.00000000000E+00 -0.14685843440E+03  0.14685843440E+03  0.00000000000E+00 0.  1.
          2    1    1    2  501    0 -0.20565910665E+02 -0.25514135517E+01 -0.13030036641E+02  0.24479547533E+02  0.00000000000E+00 0.  1.
         21    1    1    2  503  502  0.20565910665E+02  0.25514135517E+01 -0.12726551940E+03  0.12894176523E+03  0.00000000000E+00 0.  1.
</event>
<event>
 4    1  0.2216341E+005  0.2273796E+02  0.7546771E-02  0.1495815E+00
          2   -1    0    0  502    0  0.00000000000E+00  0.00000000000E+00  0.20656767128E+03  0.20656767128E+03  0.00000000000E+00 0. -1.
         21   -1    0    0  503  502 -0.00000000000E+00 -0.00000000000E+00 -0.58710655084E+02  0.58710655084E+02  0.00000000000E+00 0.  1.
          2    1    1    2  501    0  0.13535245953E+01  0.22697638525E+02  0.20370962095E+03  0.20497469231E+03  0.00000000000E+00 0. -1.
         21    1    1    2  503  501 -0.13535245953E+01 -0.22697638525E+02 -0.55852604745E+02  0.60303634055E+02  0.00000000000E+00 0.  1.
</event>
<event>
 4    1  0.2216341E+005  0.4854188E+02  0.7546771E-02  0.1304621E+00
          2   -1    0    0  503    0  0.00000000000E+00  0.00000000000E+00  0.17354391865E+02  0.17354391865E+02  0.00000000000E+00 0.  1.
         21   -1    0    0  501  502 -0.00000000000E+00 -0.00000000000E+00 -0.40419883101E+03  0.40419883101E+03  0.00000000000E+00 0. -1.
          2    1    1    2  501    0  0.33903987408E+02 -0.34739512018E+02 -0.21657318104E+02  0.53154054265E+02  0.00000000000E+00 0.  1.
         21    1    1    2  503  502 -0.33903987408E+02  0.34739512018E+02 -0.36518712104E+03  0.36839916861E+03  0.00000000000E+00 0. -1.
</event>
<event>
 4    1  0.2216341E+005  0.8192867E+02  0.7546771E-02  0.1199440E+00
          2   -1    0    0  503    0  0.00000000000E+00  0.00000000000E+00  0.61318670890E+03  0.61318670890E+03  0.00000000000E+00 0.  1.
         21   -1    0    0  501  502 -0.00000000000E+00 -0.00000000000E+00 -0.91600810163E+02  0.91600810163E+02  0.00000000000E+00 0.  1.
          2    1    1    2  501    0 -0.80372426227E+02 -0.15892780333E+02  0.59146088402E+03  0.59710826882E+03  0.00000000000E+00 0.  1.
         21    1    1    2  503  502  0.80372426227E+02  0.15892780333E+02 -0.69874985285E+02  0.10767925024E+03  0.00000000000E+00 0.  1.
</event>
<event>
 4    1  0.2216341E+005  0.2019318E+02  0.7546771E-02  0.1531103E+00
          2   -1    0    0  503    0  0.00000000000E+00  0.00000000000E+00  0.13411000392E+03  0.13411000392E+03  0.00000000000E+00 0.  1.
         21   -1    0    0  501  502 -0.00000000000E+00 -0.00000000000E+00 -0.68246708422E+01  0.68246708422E+01  0.00000000000E+00 0. -1.
          2    1    1    2  501    0  0.17502302861E+02 -0.10071436403E+02  0.11611508771E+03  0.11785787216E+03  0.00000000000E+00 0.  1.
         21    1    1    2  503  502 -0.17502302861E+02  0.10071436403E+02  0.11170245366E+02  0.23076802599E+02  0.00000000000E+00 0. -1.
</event>
<event>
 4    1  0.2216341E+005  0.3047598E+02  0.7546771E-02  0.1415504E+00
          2   -1    0    0  503    0  0.00000000000E+00  0.00000000000E+00  0.25144834613E+03  0.25144834613E+03  0.00000000000E+00 0. -1.
         21   -1    0    0  501  502 -0.00000000000E+00 -0.00000000000E+00 -0.36942173434E+01  0.36942173434E+01  0.00000000000E+00 0. -1.
          2    1    1    2  501    0 -0.30439589486E+02 -0.14888843436E+01  0.12532374394E+03  0.12897606825E+03  0.00000000000E+00 0. -1.
         21    1    1    2  503  502  0.30439589486E+02  0.14888843436E+01  0.12243038484E+03  0.12616649522E+03  0.00000000000E+00 0. -1.
</event>
<event>
 4    1  0.2216341E+005  0.3528285E+02  0.7546771E-02  0.1378586E+00
          2   -1    0    0  503    0  0.00000000000E+00  0.00000000000E+00  0.94766428943E+02  0.94766428943E+02  0.00000000000E+00 0. -1.
         21   -1    0    0  501  502 -0.00000000000E+00 -0.00000000000E+00 -0.35184360251E+02  0.35184360251E+02  0.00000000000E+00 0. -1.
          2    1    1    2  501    0 -0.31084108889E+01  0.35145656175E+02  0.81226109728E+02  0.88558230943E+02  0.00000000000E+00 0. -1.
         21    1    1    2  503  502  0.31084108889E+01 -0.35145656175E+02 -0.21644041035E+02  0.41392558251E+02  0.00000000000E+00 0. -1.
</event>
<event>
 4    1  0.2216341E+005  0.2188022E+02  0.7546771E-02  0.1507059E+00
          2   -1    0    0  502    0  0.00000000000E+00  0.00000000000E+00  0.34154638107E+02  0.34154638107E+02  0.00000000000E+00 0.  1.
         21   -1    0    0  503  502 -0.00000000000E+00 -0.00000000000E+00 -0.18834317157E+02  0.18834317157E+02  0.00000000000E+00 0.  1.
          2    1    1    2  501    0 -0.11941262325E+02 -0.18334406308E+02  0.21059544644E+02  0.30368546577E+02  0.00000000000E+00 0.  1.
         21    1    1    2  503  501  0.11941262325E+02  0.18334406308E+02 -0.57392236941E+01  0.22620408687E+02  0.00000000000E+00 0.  1.
</event>
<event>
 4    1  0.2216341E+005  0.2484006E+02  0.7546771E-02  0.1470601E+00
          2   -1    0    0  503    0  0.00000000000E+00  0.00000000000E+00  0.12811379340E+04  0.12811379340E+04  0.00000000000E+00 0.  1.
         21   -1    0    0  501  502 -0.00000000000E+00 -0.00000000000E+00 -0.16260830515E+01  0.16260830515E+01  0.00000000000E+00 0.  1.
          2    1    1    2  501    0 -0.17691811140E+02 -0.17436414148E+02  0.11778339469E+04  0.11780958515E+04  0.00000000000E+00 0.  1.
         21    1    1    2  503  502  0.17691811140E+02  0.17436414148E+02  0.10167790402E+03  0.10466816558E+03  0.00000000000E+00 0.  1.
</event>
<event>
 4    1  0.2216341E+005  0.2006882E+02  0.7546771E-02  0.1532986E+00
          2   -1    0    0  503    0  0.00000000000E+00  0.00000000000E+00  0.13021348420E+03  0.13021348420E+03  0.00000000000E+00 0.  1.
         21   -1    0    0  501  502 -0.00000000000E+00 -0.00000000000E+00 -0.44104424919E+01  0.44104424919E+01  0.00000000000E+00 0. -1.
          2    1    1    2  501    0  0.10233156831E+02 -0.17263833536E+02  0.99689672764E+02  0.10168966665E+03  0.00000000000E+00 0.  1.
         21    1    1    2  503  502 -0.10233156831E+02  0.17263833536E+02  0.26113368946E+02  0.32934260046E+02  0.00000000000E+00 0. -1.
</event>
<event>
 4    1  0.2216341E+005  0.3368635E+02  0.7546771E-02  0.1390041E+00
          2   -1    0    0  502    0  0.00000000000E+00  0.00000000000E+00  0.10001366210E+03  0.10001366210E+03  0.00000000000E+00 0.  1.
         21   -1    0    0  503  502 -0.00000000000E+00 -0.00000000000E+00 -0.37304209902E+02  0.37304209902E+02  0.00000000000E+00 0.  1.
          2    1    1    2  501    0 -0.15824381535E+02 -0.29738179656E+02  0.88628292884E+02  0.94814264116E+02  0.00000000000E+00 0.  1.
         21    1    1    2  503  501  0.15824381535E+02  0.29738179656E+02 -0.25918840690E+02  0.42503607882E+02  0.00000000000E+00 0.  1.
</event>
<event>
 4    1  0.2216341E+005  0.3011237E+02  0.7546771E-02  0.1418622E+00
          2   -1    0    0  502    0  0.00000000000E+00  0.00000000000E+00  0.36604749243E+03  0.36604749243E+03  0.00000000000E+00 0. -1.
         21   -1    0    0  503  502 -0.00000000000E+00 -0.00000000000E+00 -0.18284862026E+02  0.18284862026E+02  0.00000000000E+00 0.  1.
          2    1    1    2  501    0 -0.27483134735E+02  0.12305787497E+02  0.35255705707E+03  0.35384068956E+03  0.00000000000E+00 0. -1.
         21    1    1    2  503  501  0.27483134735E+02 -0.12305787497E+02 -0.47944266669E+01  0.30491664892E+02  0.00000000000E+00 0.  1.
</event>
<event>
 4    1  0.2216341E+005  0.2037020E+02  0.7546771E-02  0.1528450E+00
          2   -1    0    0  502    0  0.00000000000E+00  0.00000000000E+00  0.85728393373E+03  0.85728393373E+03  0.00000000000E+00 0.  1.
         21   -1    0    0  503  502 -0.00000000000E+00 -0.00000000000E+00 -0.29738724035E+01  0.29738724035E+01  0.00000000000E+00 0. -1.
          2    1    1    2  501    0  0.49319152589E+01 -0.19764145287E+02  0.82072684819E+03  0.82097960058E+03  0.00000000000E+00 0.  1.
         21    1    1    2  503  501 -0.49319152589E+01  0.19764145287E+02  0.33583213139E+02  0.39278205557E+02  0.00000000000E+00 0. -1.
</event>
<event>
 4    1  0.2216341E+005  0.2840692E+02  0.7546771E-02  0.1433965E+00
          2   -1    0    0  503    0  0.00000000000E+00  0.00000000000E+00  0.47096583772E+03  0.47096583772E+03  0.00000000000E+00 0.  1.
         21   -1    0    0  501  502 -0.00000000000E+00 -0.00000000000E+00 -0.65441939159E+01  0.65441939159E+01  0.00000000000E+00 0.  1.
          2    1    1    2  501    0  0.28354546899E+02  0.17242127202E+01  0.43734293036E+03  0.43826452283E+03  0.00000000000E+00 0.  1.
         21    1    1    2  503  502 -0.28354546899E+02 -0.17242127202E+01  0.27078713445E+02  0.39245508802E+02  0.00000000000E+00 0.  1.
</event>
<event>
 4    1  0.2216341E+005  0.2181586E+02  0.7546771E-02  0.1507928E+00
          2   -1    0    0  503    0  0.00000000000E+00  0.00000000000E+00  0.32364968247E+03  0.32364968247E+03  0.00000000000E+00 0. -1.
         21   -1    0    0  501  502 -0.00000000000E+00 -0.00000000000E+00 -0.42349461822E+01  0.42349461822E+01  0.00000000000E+00 0.  1.
          2    1    1    2  501    0  0.16714564210E+02 -0.14019806944E+02  0.29216287600E+03  0.29297624094E+03  0.00000000000E+00 0. -1.
         21    1    1    2  503  502 -0.16714564210E+02  0.14019806944E+02  0.27251860290E+02  0.34908387713E+02  0.00000000000E+00 0.  1.
</event>
<event>
 4    1  0.2216341E+005  0.3313279E+02  0.7546771E-02  0.1394188E+00
          2   -1    0    0  502    0  0.00000000000E+00  0.00000000000E+00  0.42893497644E+03  0.42893497644E+03  0.00000000000E+00 0.  1.
         21   -1    0    0  503  502 -0.00000000000E+00 -0.00000000000E+00 -0.36490433375E+01  0.36490433375E+01  0.00000000000E+00 0.  1.
          2    1    1    2  501    0 -0.33013515876E+02  0.28087747168E+01  0.33084073733E+03  0.33249567655E+03  0.00000000000E+00 0.  1.
         21    1    1    2  503  501  0.33013515876E+02 -0.28087747168E+01  0.94445195766E+02  0.10008834322E+03  0.00000000000E+00 0.  1.
</event>
<event>
 4    1  0.2216341E+005  0.7717290E+02  0.7546771E-02  0.1210567E+00
          2   -1    0    0  503    0  0.00000000000E+00  0.00000000000E+00  0.11106705284E+04  0.11106705284E+04  0.00000000000E+00 0.  1.
         21   -1    0    0  501  502 -0.00000000000E+00 -0.00000000000E+00 -0.76318609907E+01  0.76318609907E+01  0.00000000000E+00 0. -1.
          2    1    1    2  501    0  0.75949576158E+02 -0.13686447089E+02  0.85644420780E+03  0.85991414573E+03  0.00000000000E+00 0.  1.
         21    1    1    2  503  502 -0.75949576158E+02  0.13686447089E+02  0.24659445963E+03  0.25838824368E+03  0.00000000000E+00 0. -1.
</event>
<event>
 4    1  0.2216341E+005  0.2487949E+02  0.7546771E-02  0.1470156E+00
          2   -1    0    0  503    0  0.00000000000E+00  0.00000000000E+00  0.17520891387E+04  0.17520891387E+04  0.00000000000E+00 0. -1.
         21   -1    0    0  501  502 -0.00000000000E+00 -0.00000000000E+00 -0.98317766950E+01  0.98317766950E+01  0.00000000000E+00 0. -1.
          2    1    1    2  501    0 -0.20753026682E+02  0.13722279554E+02  0.17361165160E+04  0.17362947752E+04  0.00000000000E+00 0. -1.
         21    1    1    2  503  502  0.20753026682E+02 -0.13722279554E+02  0.61408459596E+01  0.25626140203E+02  0.00000000000E+00 0. -1.
</event>
<event>
 4    1  0.2216341E+005  0.2461513E+02  0.7546771E-02  0.1473155E+00
          2   -1    0    0  503    0  0.00000000000E+00  0.00000000000E+00  0.90619449811E+03  0.90619449811E+03  0.00000000000E+00 0. -1.
         21   -1    0    0  501  502 -0.00000000000E+00 -0.00000000000E+00 -0.91052603683E+00  0.91052603683E+00  0.00000000000E+00 0.  1.
          2    1    1    2  501    0 -0.22064924452E+02 -0.10910715335E+02  0.68641800359E+03  0.68685921429E+03  0.00000000000E+00 0. -1.
         21    1    1    2  503  502  0.22064924452E+02  0.10910715335E+02  0.21886596848E+03  0.22024580986E+03  0.00000000000E+00 0.  1.
</event>
<event>
 4    1  0.2216341E+005  0.2547495E+02  0.7546771E-02  0.1463560E+00
          2   -1    0    0  502    0  0.00000000000E+00  0.00000000000E+00  0.50268182304E+03  0.50268182304E+03  0.00000000000E+00 0.  1.
         21   -1    0    0  503  502 -0.00000000000E+00 -0.00000000000E+00 -0.18835422037E+01  0.18835422037E+01  0.00000000000E+00 0.  1.
          2    1    1    2  501    0 -0.24492544749E+02  0.70063205712E+01  0.39189748407E+03  0.39272459982E+03  0.00000000000E+00 0.  1.
         21    1    1    2  503  501  0.24492544749E+02 -0.70063205712E+01  0.10890079676E+03  0.11184076543E+03  0.00000000000E+00 0.  1.
</event>
<event>
 4    1  0.2216341E+005  0.2243940E+02  0.7546771E-02  0.1499660E+00
          2   -1    0    0  502    0  0.00000000000E+00  0.00000000000E+00  0.15327409174E+04  0.15327409174E+04  0.00000000000E+00 0. -1.
         21   -1    0    0  503  502 -0.00000000000E+00 -0.00000000000E+00 -0.11623850158E+01  0.11623850158E+01  0.00000000000E+00 0. -1.
          2    1    1    2  501    0 -0.10457796276E+02 -0.19853488312E+02  0.14153839827E+04  0.14155618478E+04  0.00000000000E+00 0. -1.
         21    1    1    2  503  501  0.10457796276E+02  0.19853488312E+02  0.11619454968E+03  0.11834145460E+03  0.00000000000E+00 0. -1.
</event>
<event>
 4    1  0.2216341E+005  0.2076560E+02  0.7546771E-02  0.1522638E+00
          2   -1    0    0  502    0  0.00000000000E+00  0.00000000000E+00  0.55523095313E+02  0.55523095313E+02  0.00000000000E+00 0. -1.
         21   -1    0    0  503  502 -0.00000000000E+00 -0.00000000000E+00 -0.41521292446E+02  0.41521292446E+02  0.00000000000E+00 0.  1.
          2    1    1    2  501    0  0.25303687263E+01 -0.20610856037E+02  0.50750479897E+02  0.54834490626E+02  0.00000000000E+00 0. -1.
         21    1    1    2  503  501 -0.25303687263E+01  0.20610856037E+02 -0.36748677030E+02  0.42209897132E+02  0.00000000000E+00 0.  1.
</event>
<event>
 4    1  0.2216341E+005  0.2241196E+02  0.7546771E-02  0.1500017E+00
          2   -1    0    0  502    0  0.00000000000E+00  0.00000000000E+00  0.11440989941E+04  0.11440989941E+04  0.00000000000E+00 0.  1.
         21   -1    0    0  503  502 -0.00000000000E+00 -0.00000000000E+00 -0.27410543813E+01  0.27410543813E+01  0.00000000000E+00 0.  1.
          2    1    1    2  501    0 -0.21409704941E+02 -0.66272643646E+01  0.10961742229E+04  0.10964033123E+04  0.00000000000E+00 0.  1.
         21    1    1    2  503  501  0.21409704941E+02  0.66272643646E+01  0.45183716780E+02  0.50436736221E+02  0.00000000000E+00 0.  1.
</event>
<event>
 4    1  0.2216341E+005  0.2536321E+02  0.7546771E-02  0.1464781E+00
          2   -1    0    0  503    0  0.00000000000E+00  0.00000000000E+00  0.19081211210E+03  0.19081211210E+03  0.00000000000E+00 0. -1.
         21   -1    0    0  501  502 -0.00000000000E+00 -0.00000000000E+00 -0.35741424435E+01  0.35741424435E+01  0.00000000000E+00 0.  1.
          2    1    1    2  501    0 -0.76299203323E+01 -0.24188355043E+02  0.70467016785E+02  0.74892540740E+02  0.00000000000E+00 0. -1.
         21    1    1    2  503  502  0.76299203323E+01  0.24188355043E+02  0.11677095287E+03  0.11949371380E+03  0.00000000000E+00 0.  1.
</event>
<event>
 4    1  0.2216341E+005  0.2352260E+02  0.7546771E-02  0.1486038E+00
          2   -1    0    0  503    0  0.00000000000E+00  0.00000000000E+00  0.86364143693E+01  0.86364143693E+01  0.00000000000E+00 0. -1.
         21   -1    0    0  501  502 -0.00000000000E+00 -0.00000000000E+00 -0.10048808295E+04  0.10048808295E+04  0.00000000000E+00 0.  1.
          2    1    1    2  501    0 -0.11428623773E+02 -0.20559647497E+02 -0.77841280509E+01  0.24777110325E+02  0.00000000000E+00 0. -1.
         21    1    1    2  503  502  0.11428623773E+02  0.20559647497E+02 -0.98846028705E+03  0.98874013351E+03  0.00000000000E+00 0.  1.
</event>
<event>
 4    1  0.2216341E+005  0.4071756E+02  0.7546771E-02  0.1344331E+00
          2   -1    0    0  503    0  0.00000000000E+00  0.00000000000E+00  0.24534126746E+02  0.24534126746E+02  0.00000000000E+00 0. -1.
         21   -1    0    0  501  502 -0.00000000000E+00 -0.00000000000E+00 -0.27592026063E+03  0.27592026063E+03  0.00000000000E+00 0. -1.
          2    1    1    2  501    0 -0.35393776202E+02 -0.20129587129E+02  0.48480921768E+01  0.41005166377E+02  0.00000000000E+00 0. -1.
         21    1    1    2  503  502  0.35393776202E+02  0.20129587129E+02 -0.25623422606E+03  0.25944922100E+03  0.00000000000E+00 0. -1.
</event>
<event>
 4    1  0.2216341E+005  0.2352309E+02  0.7546771E-02  0.1486032E+00
          2   -1    0    0  502    0  0.00000000000E+00  0.00000000000E+00  0.13712216334E+04  0.13712216334E+04  0.00000000000E+00 0.  1.
         21   -1    0    0  503  502 -0.00000000000E+00 -0.00000000000E+00 -0.56271547384E+00  0.56271547384E+00  0.00000000000E+00 0.  1.
          2    1    1    2  501    0 -0.55422948909E+01 -0.22860855327E+02  0.10501308599E+04  0.10503942873E+04  0.00000000000E+00 0.  1.
         21    1    1    2  503  501  0.55422948909E+01  0.22860855327E+02  0.32052805800E+03  0.32139006161E+03  0.00000000000E+00 0.  1.
</event>
<event>
 4    1  0.2216341E+005  0.5595187E+02  0.7546771E-02  0.1274244E+00
          2   -1    0    0  502    0  0.00000000000E+00  0.00000000000E+00  0.12040922593E+04  0.12040922593E+04  0.00000000000E+00 0. -1.
         21   -1    0    0  503  502 -0.00000000000E+00 -0.00000000000E+00 -0.27233716083E+01  0.27233716083E+01  0.00000000000E+00 0. -1.
          2    1    1    2  501    0  0.55651703575E+02 -0.57879127005E+01  0.72912606210E+03  0.73126973579E+03  0.00000000000E+00 0. -1.
         21    1    1    2  503  501 -0.55651703575E+02  0.57879127005E+01  0.47224282561E+03  0.47554589514E+03  0.00000000000E+00 0. -1.
</event>
<event>
 4    1  0.2216341E+005  0.3703599E+02  0.7546771E-02  0.1366789E+00
          2   -1    0    0  502    0  0.00000000000E+00  0.00000000000E+00  0.12160679728E+04  0.12160679728E+04  0.00000000000E+00 0.  1.
         21   -1    0    0  503  502 -0.00000000000E+00 -0.00000000000E+00 -0.14725498553E+02  0.14725498553E+02  0.00000000000E+00 0. -1.
          2    1    1    2  501    0 -0.33149095353E+02 -0.16516718016E+02  0.11920292495E+04  0.11926044592E+04  0.00000000000E+00 0.  1.
         21    1    1    2  503  501  0.33149095353E+02  0.16516718016E+02  0.93132248258E+01  0.38189012207E+02  0.00000000000E+00 0. -1.
</event>
<event>
 4    1  0.2216341E+005  0.4441113E+02  0.7546771E-02  0.1324410E+00
          2   -1    0    0  503    0  0.00000000000E+00  0.00000000000E+00  0.23630883681E+03  0.23630883681E+03  0.00000000000E+00 0. -1.
         21   -1    0    0  501  502 -0.00000000000E+00 -0.00000000000E+00 -0.94214380525E+01  0.94214380525E+01  0.00000000000E+00 0.  1.
          2    1    1    2  501    0 -0.39856028412E+02 -0.19591964405E+02  0.15494530503E+03  0.16118435291E+03  0.00000000000E+00 0. -1.
         21    1    1    2  503  502  0.39856028412E+02  0.19591964405E+02  0.71942093727E+02  0.84545921959E+02  0.00000000000E+00 0.  1.
</event>
<event>
 4    1  0.2216341E+005  0.2098589E+02  0.7546771E-02  0.1519466E+00
          2   -1    0    0  503    0  0.00000000000E+00  0.00000000000E+00  0.46932652775E+02  0.46932652775E+02  0.00000000000E+00 0. -1.
         21   -1    0    0  501  502 -0.00000000000E+00 -0.00000000000E+00 -0.12796227645E+03  0.12796227645E+03  0.00000000000E+00 0. -1.
          2    1    1    2  501    0 -0.20731427332E+02 -0.32581591995E+01  0.43665229659E+02  0.48446464905E+02  0.00000000000E+00 0. -1.
         21    1    1    2  503  502  0.20731427332E+02  0.32581591995E+01 -0.12469485334E+03  0.12644846432E+03  0.00000000000E+00 0. -1.
</event>
<event>
 4    1  0.2216341E+005  0.2503544E+02  0.7546771E-02  0.1468407E+00
          2   -1    0    0  503    0  0.00000000000E+00  0.00000000000E+00  0.20353322239E+03  0.20353322239E+03  0.00000000000E+00 0. -1.
         21   -1    0    0  501  502 -0.00000000000E+00 -0.00000000000E+00 -0.23994244217E+02  0.23994244217E+02  0.00000000000E+00 0.  1.
          2    1    1    2  501    0 -0.16241664758E+02 -0.19052070272E+02  0.19598231396E+03  0.19757489831E+03  0.00000000000E+00 0. -1.
         21    1    1    2  503  502  0.16241664758E+02  0.19052070272E+02 -0.16443335790E+02  0.29952568298E+02  0.00000000000E+00 0.  1.
</event>
<event>
 4    1  0.2216341E+005  0.2058988E+02  0.7546771E-02  0.1525202E+00
          2   -1    0    0  503    0  0.00000000000E+00  0.00000000000E+00  0.14302995828E+03  0.14302995828E+03  0.00000000000E+00 0.  1.
         21   -1    0    0  501  502 -0.00000000000E+00 -0.00000000000E+00 -0.37776092553E+01  0.37776092553E+01  0.00000000000E+00 0. -1.
          2    1    1    2  501    0  0.25925591465E+01  0.20426006146E+02  0.10369158217E+03  0.10571606927E+03  0.00000000000E+00 0.  1.
         21    1    1    2  503  502 -0.25925591465E+01 -0.20426006146E+02  0.35560766855E+02  0.41091498261E+02  0.00000000000E+00 0. -1.
</event>
<event>
 4    1  0.2216341E+005  0.2017740E+02  0.7546771E-02  0.1531341E+00
          2   -1    0    0  503    0  0.00000000000E+00  0.00000000000E+00  0.90884400284E+03  0.90884400284E+03  0.00000000000E+00 0. -1.
         21   -1    0    0  501  502 -0.00000000000E+00 -0.00000000000E+00 -0.44843933336E+00  0.44843933336E+00  0.00000000000E+00 0. -1.
          2    1    1    2  501    0 -0.52541835922E+01  0.19481300511E+02  0.46903197218E+03  0.46946577984E+03  0.00000000000E+00 0. -1.
         21    1    1    2  503  502  0.52541835922E+01 -0.19481300511E+02  0.43936359133E+03  0.43982666234E+03  0.00000000000E+00 0. -1.
</event>
<event>
 4    1  0.2216341E+005  0.2313663E+02  0.7546771E-02  0.1490790E+00
          2   -1    0    0  503    0  0.00000000000E+00  0.00000000000E+00  0.13688170129E+02  0.13688170129E+02  0.00000000000E+00 0. -1.
         21   -1    0    0  501  502 -0.00000000000E+00 -0.00000000000E+00 -0.39495706905E+02  0.39495706905E+02  0.00000000000E+00 0. -1.
          2    1    1    2  501    0  0.18377468930E+02 -0.14056034478E+02 -0.15541787914E+02  0.27872040491E+02  0.00000000000E+00 0. -1.
         21    1    1    2  503  502 -0.18377468930E+02  0.14056034478E+02 -0.10265748861E+02  0.25311836544E+02  0.00000000000E+00 0. -1.
</event>
<event>
 4    1  0.2216341E+005  0.2453389E+02  0.7546771E-02  0.1474086E+00
          2   -1    0    0  503    0  0.00000000000E+00  0.00000000000E+00  0.10422918178E+04  0.10422918178E+04  0.00000000000E+00 0. -1.
         21   -1    0    0  501  502 -0.00000000000E+00 -0.00000000000E+00 -0.10537444991E+01  0.10537444991E+01  0.00000000000E+00 0. -1.
          2    1    1    2  501    0 -0.78798377612E+01  0.23234027057E+02  0.87133102195E+03  0.87167635145E+03  0.00000000000E+00 0. -1.
         21    1    1    2  503  502  0.78798377612E+01 -0.23234027057E+02  0.16990705134E+03  0.17166921085E+03  0.00000000000E+00 0. -1.
</event>
<event>
 4    1  0.2216341E+005  0.2415731E+02  0.7546771E-02  0.1478456E+00
          2   -1    0    0  503    0  0.00000000000E+00  0.00000000000E+00  0.36341612301E+03  0.36341612301E+03  0.00000000000E+00 0.  1.
         21   -1    0    0  501  502 -0.00000000000E+00 -0.00000000000E+00 -0.16313681032E+01  0.16313681032E+01  0.00000000000E+00 0.  1.
          2    1    1    2  501    0 -0.54218039830E+01 -0.23541017589E+02  0.15804432240E+03  0.15987990277E+03  0.00000000000E+00 0.  1.
         21    1    1    2  503  502  0.54218039830E+01  0.23541017589E+02  0.20374043251E+03  0.20516758834E+03  0.00000000000E+00 0.  1.
</event>
<event>
 4    1  0.2216341E+005  0.2353782E+02  0.7546771E-02  0.1485853E+00
          2   -1    0    0  502    0  0.00000000000E+00  0.00000000000E+00  0.90107086158E+03  0.90107086158E+03  0.00000000000E+00 0. -1.
         21   -1    0    0  503  502 -0.00000000000E+00 -0.00000000000E+00 -0.30303377189E+01  0.30303377189E+01  0.00000000000E+00 0. -1.
          2    1    1    2  501    0 -0.80223422215E+01  0.22128505839E+02  0.85261307072E+03  0.85293790929E+03  0.00000000000E+00 0. -1.
         21    1    1    2  503  501  0.80223422215E+01 -0.22128505839E+02  0.45427453140E+02  0.51163290005E+02  0.00000000000E+00 0. -1.
</event>
