<event>
 4    1  0.3065783E+006  0.4362307E+02  0.7546771E-02  0.1328470E+00
         21   -1    0    0  504  501  0.00000000000E+00  0.00000000000E+00  0.22276384812E+03  0.22276384812E+03  0.00000000000E+00 0.  1.
         21   -1    0    0  503  502 -0.00000000000E+00 -0.00000000000E+00 -0.27915075241E+03  0.27915075241E+03  0.00000000000E+00 0.  1.
         21    1    1    2  503  501 -0.30728832453E+01 -0.43514701988E+02  0.21889412357E+03  0.22319858699E+03  0.00000000000E+00 0.  1.
         21    1    1    2  504  502  0.30728832453E+01  0.43514701988E+02 -0.27528102786E+03  0.27871601354E+03  0.00000000000E+00 0.  1.
</event>
<event>
 4    1  0.3065783E+006  0.2240439E+02  0.7546771E-02  0.1500116E+00
         21   -1    0    0  504  501  0.00000000000E+00  0.00000000000E+00  0.27444010712E+02  0.27444010712E+02  0.00000000000E+00 0.  1.
         21   -1    0    0  503  502 -0.00000000000E+00 -0.00000000000E+00 -0.15856129430E+03  0.15856129430E+03  0.00000000000E+00 0.  1.
         21    1    1    2  503  501  0.21705355262E+02 -0.55528574532E+01 -0.15303301187E+03  0.15466434429E+03  0.00000000000E+00 0.  1.
         21    1    1    2  504  502 -0.21705355262E+02  0.55528574532E+01  0.21915728280E+02  0.31340960722E+02  0.00000000000E+00 0.  1.
</event>
<event>
 4    1  0.3065783E+006  0.2189059E+02  0.7546771E-02  0.1506920E+00
         21   -1    0    0  503  501  0.00000000000E+00  0.00000000000E+00  0.26561318022E+01  0.26561318022E+01  0.00000000000E+00 0. -1.
         21   -1    0    0  504  502 -0.00000000000E+00 -0.00000000000E+00 -0.21876807234E+03  0.21876807234E+03  0.00000000000E+00 0. -1.
         21    1    1    2  503  502 -0.21363954604E+02 -0.47727642598E+01 -0.15441353901E+03  0.15595749057E+03  0.00000000000E+00 0. -1.
         21    1    1    2  504  501  0.21363954604E+02  0.47727642598E+01 -0.61698401532E+02  0.65466713577E+02  0.00000000000E+00 0. -1.
</event>
<event>
 4    1  0.3065783E+006  0.2064333E+02  0.7546771E-02  0.1524419E+00
         21   -1    0    0  503  501  0.00000000000E+00  0.00000000000E+00  0.91762482023E+01  0.91762482023E+01  0.00000000000E+00 0. -1.
         21   -1    0    0  504  502 -0.00000000000E+00 -0.00000000000E+00 -0.15608319398E+03  0.15608319398E+03  0.00000000000E+00 0.  1.
         21    1    1    2  503  502 -0.20467420735E+02  0.26891928025E+01 -0.41988768563E+01  0.21066030388E+02  0.00000000000E+00 0. -1.
         21    1    1    2  504  501  0.20467420735E+02 -0.26891928025E+01 -0.14270806892E+03  0.14419341179E+03  0.00000000000E+00 0.  1.
</event>
<event>
 4    1  0.3065783E+006  0.2262472E+02  0.7546771E-02  0.1497265E+00
         21   -1    0    0  502  501  0.00000000000E+00  0.00000000000E+00  0.11138488938E+04  0.11138488938E+04  0.00000000000E+00 0.  1.
         21   -1    0    0  503  502 -0.00000000000E+00 -0.00000000000E+00 -0.49079367340E+01  0.49079367340E+01  0.00000000000E+00 0.  1.
         21    1    1    2  503  504 -0.20133700562E+02 -0.10320457123E+02  0.21924482948E+02  0.31504931140E+02  0.00000000000E+00 0.  1.
         21    1    1    2  504  501  0.20133700562E+02  0.10320457123E+02  0.10870164741E+04  0.10872518994E+04  0.00000000000E+00 0.  1.
</event>
<event>
 4    1  0.3065783E+006  0.2148678E+02  0.7546771E-02  0.1512427E+00
         21   -1    0    0  503  501  0.00000000000E+00  0.00000000000E+00  0.31138100672E+02  0.31138100672E+02  0.00000000000E+00 0. -1.
         21   -1    0    0  501  502 -0.00000000000E+00 -0.00000000000E+00 -0.20202949111E+03  0.20202949111E+03  0.00000000000E+00 0.  1.
         21    1    1    2  503  504  0.16630438593E+02  0.13605521641E+02  0.26778558711E+02  0.34333262495E+02  0.00000000000E+00 0. -1.
         21    1    1    2  504  502 -0.16630438593E+02 -0.13605521641E+02 -0.19766994915E+03  0.19883432929E+03  0.00000000000E+00 0.  1.
</event>
<event>
 4    1  0.3065783E+006  0.3671277E+02  0.7546771E-02  0.1368906E+00
         21   -1    0    0  504  501  0.00000000000E+00  0.00000000000E+00  0.36318293974E+02  0.36318293974E+02  0.00000000000E+00 0.  1.
         21   -1    0    0  503  502 -0.00000000000E+00 -0.00000000000E+00 -0.19432167793E+03  0.19432167793E+03  0.00000000000E+00 0.  1.
         21    1    1    2  503  501  0.32236349547E+02 -0.17568307662E+02  0.24723497079E+02  0.44261484092E+02  0.00000000000E+00 0.  1.
         21    1    1    2  504  502 -0.32236349547E+02  0.17568307662E+02 -0.18272688103E+03  0.18637848781E+03  0.00000000000E+00 0.  1.
</event>
<event>
 4    1  0.3065783E+006  0.3539593E+02  0.7546771E-02  0.1377801E+00
         21   -1    0    0  503  501  0.00000000000E+00  0.00000000000E+00  0.11315699600E+04  0.11315699600E+04  0.00000000000E+00 0. -1.
         21   -1    0    0  504  502 -0.00000000000E+00 -0.00000000000E+00 -0.24297788470E+03  0.24297788470E+03  0.00000000000E+00 0.  1.
         21    1    1    2  503  502 -0.11220832936E+02  0.33570297963E+02  0.11300022923E+04  0.11305565234E+04  0.00000000000E+00 0. -1.
         21    1    1    2  504  501  0.11220832936E+02 -0.33570297963E+02 -0.24141021700E+03  0.24399132130E+03  0.00000000000E+00 0.  1.
</event>
<event>
 4    1  0.3065783E+006  0.2407066E+02  0.7546771E-02  0.1479474E+00
         21   -1    0    0  504  501  0.00000000000E+00  0.00000000000E+00  0.12502383362E+03  0.12502383362E+03  0.00000000000E+00 0. -1.
         21   -1    0    0  501  502 -0.00000000000E+00 -0.00000000000E+00 -0.48838165192E+02  0.48838165192E+02  0.00000000000E+00 0.  1.
         21    1    1    2  503  502  0.23619437437E+02  0.46388443438E+01 -0.44610910603E+02  0.50690532119E+02  0.00000000000E+00 0.  1.
         21    1    1    2  504  503 -0.23619437437E+02 -0.46388443438E+01  0.12079657903E+03  0.12317146669E+03  0.00000000000E+00 0. -1.
</event>
<event>
 4    1  0.3065783E+006  0.2499852E+02  0.7546771E-02  0.1468820E+00
         21   -1    0    0  504  501  0.00000000000E+00  0.00000000000E+00  0.76539922063E+02  0.76539922063E+02  0.00000000000E+00 0. -1.
         21   -1    0    0  503  502 -0.00000000000E+00 -0.00000000000E+00 -0.50334564926E+02  0.50334564926E+02  0.00000000000E+00 0.  1.
         21    1    1    2  503  501 -0.24955229336E+02  0.14704866855E+01  0.71167384213E+02  0.75430248429E+02  0.00000000000E+00 0. -1.
         21    1    1    2  504  502  0.24955229336E+02 -0.14704866855E+01 -0.44962027076E+02  0.51444238560E+02  0.00000000000E+00 0.  1.
</event>
<event>
 4    1  0.3065783E+006  0.3343008E+02  0.7546771E-02  0.1391949E+00
         21   -1    0    0  504  501  0.00000000000E+00  0.00000000000E+00  0.18484033149E+02  0.18484033149E+02  0.00000000000E+00 0.  1.
         21   -1    0    0  503  502 -0.00000000000E+00 -0.00000000000E+00 -0.80854051884E+02  0.80854051884E+02  0.00000000000E+00 0. -1.
         21    1    1    2  503  501  0.15196558011E+02  0.29776414905E+02 -0.62406762717E+01  0.34007591804E+02  0.00000000000E+00 0.  1.
         21    1    1    2  504  502 -0.15196558011E+02 -0.29776414905E+02 -0.56129342464E+02  0.65330493228E+02  0.00000000000E+00 0. -1.
</event>
<event>
 4    1  0.3065783E+006  0.2555767E+02  0.7546771E-02  0.1462660E+00
         21   -1    0    0  504  501  0.00000000000E+00  0.00000000000E+00  0.99489830884E+01  0.99489830884E+01  0.00000000000E+00 0.  1.
         21   -1    0    0  503  502 -0.00000000000E+00 -0.00000000000E+00 -0.72761542430E+02  0.72761542430E+02  0.00000000000E+00 0.  1.
         21    1    1    2  503  501 -0.24032049045E+02  0.86979956821E+01 -0.18481374623E+02  0.31539748226E+02  0.00000000000E+00 0.  1.
         21    1    1    2  504  502  0.24032049045E+02 -0.86979956821E+01 -0.44331184719E+02  0.51170777293E+02  0.00000000000E+00 0.  1.
</event>
<event>
 4    1  0.3065783E+006  0.2504540E+02  0.7546771E-02  0.1468296E+00
         21   -1    0    0  502  501  0.00000000000E+00  0.00000000000E+00  0.10627597963E+02  0.10627597963E+02  0.00000000000E+00 0.  1.
         21   -1    0    0  503  502 -0.00000000000E+00 -0.00000000000E+00 -0.59047671809E+02  0.59047671809E+02  0.00000000000E+00 0.  1.
         21    1    1    2  503  504  0.56617556968E+01  0.24397061407E+02 -0.23497068449E+02  0.34342165170E+02  0.00000000000E+00 0.  1.
         21    1    1    2  504  501 -0.56617556968E+01 -0.24397061407E+02 -0.24923005397E+02  0.35333104603E+02  0.00000000000E+00 0.  1.
</event>
<event>
 4    1  0.3065783E+006  0.2664750E+02  0.7546771E-02  0.1451182E+00
         21   -1    0    0  502  501  0.00000000000E+00  0.00000000000E+00  0.27724922751E+03  0.27724922751E+03  0.00000000000E+00 0. -1.
         21   -1    0    0  504  502 -0.00000000000E+00 -0.00000000000E+00 -0.29883116135E+02  0.29883116135E+02  0.00000000000E+00 0. -1.
         21    1    1    2  503  501 -0.26375422696E+02 -0.37982083395E+01  0.27052097915E+03  0.27183025856E+03  0.00000000000E+00 0. -1.
         21    1    1    2  504  503  0.26375422696E+02  0.37982083395E+01 -0.23154867781E+02  0.35302085079E+02  0.00000000000E+00 0. -1.
</event>
<event>
 4    1  0.3065783E+006  0.2897147E+02  0.7546771E-02  0.1428750E+00
         21   -1    0    0  502  501  0.00000000000E+00  0.00000000000E+00  0.23106285461E+01  0.23106285461E+01  0.00000000000E+00 0.  1.
         21   -1    0    0  503  502 -0.00000000000E+00 -0.00000000000E+00 -0.42148168053E+03  0.42148168053E+03  0.00000000000E+00 0.  1.
         21    1    1    2  503  504  0.10853795080E+02  0.26861519548E+02 -0.28834390943E+03  0.28979571461E+03  0.00000000000E+00 0.  1.
         21    1    1    2  504  501 -0.10853795080E+02 -0.26861519548E+02 -0.13082714255E+03  0.13399659447E+03  0.00000000000E+00 0.  1.
</event>
<event>
 4    1  0.3065783E+006  0.3491441E+02  0.7546771E-02  0.1381166E+00
         21   -1    0    0  504  501  0.00000000000E+00  0.00000000000E+00  0.10622454970E+03  0.10622454970E+03  0.00000000000E+00 0.  1.
         21   -1    0    0  503  502 -0.00000000000E+00 -0.00000000000E+00 -0.46170757349E+02  0.46170757349E+02  0.00000000000E+00 0. -1.
         21    1    1    2  503  501  0.27459034558E+02 -0.21564262190E+02 -0.36025872201E+02  0.50168510547E+02  0.00000000000E+00 0. -1.
         21    1    1    2  504  502 -0.27459034558E+02  0.21564262190E+02  0.96079664547E+02  0.10222679650E+03  0.00000000000E+00 0.  1.
</event>
<event>
 4    1  0.3065783E+006  0.2280381E+02  0.7546771E-02  0.1494976E+00
         21   -1    0    0  504  501  0.00000000000E+00  0.00000000000E+00  0.39734669919E+02  0.39734669919E+02  0.00000000000E+00 0. -1.
         21   -1    0    0  501  502 -0.00000000000E+00 -0.00000000000E+00 -0.48236305227E+02  0.48236305227E+02  0.00000000000E+00 0.  1.
         21    1    1    2  503  502 -0.81728516939E+01 -0.21288926519E+02 -0.41798210840E+02  0.47614118984E+02  0.00000000000E+00 0.  1.
         21    1    1    2  504  503  0.81728516939E+01  0.21288926519E+02  0.33296575532E+02  0.40356856163E+02  0.00000000000E+00 0. -1.
</event>
<event>
 4    1  0.3065783E+006  0.2216933E+02  0.7546771E-02  0.1503201E+00
         21   -1    0    0  503  501  0.00000000000E+00  0.00000000000E+00  0.42505703959E+02  0.42505703959E+02  0.00000000000E+00 0. -1.
         21   -1    0    0  504  502 -0.00000000000E+00 -0.00000000000E+00 -0.21038353746E+03  0.21038353746E+03  0.00000000000E+00 0.  1.
         21    1    1    2  503  502  0.19859216045E+02 -0.98534672916E+01 -0.20685974202E+03  0.20804430333E+03  0.00000000000E+00 0.  1.
         21    1    1    2  504  501 -0.19859216045E+02  0.98534672916E+01  0.38981908524E+02  0.44844938084E+02  0.00000000000E+00 0. -1.
</event>
<event>
 4    1  0.3065783E+006  0.2921651E+02  0.7546771E-02  0.1426529E+00
         21   -1    0    0  504  501  0.00000000000E+00  0.00000000000E+00  0.34030273717E+03  0.34030273717E+03  0.00000000000E+00 0. -1.
         21   -1    0    0  503  502 -0.00000000000E+00 -0.00000000000E+00 -0.12714175051E+02  0.12714175051E+02  0.00000000000E+00 0.  1.
         21    1    1    2  503  501  0.28946128139E+02 -0.39656288080E+01  0.56530568145E+01  0.29758387010E+02  0.00000000000E+00 0.  1.
         21    1    1    2  504  502 -0.28946128139E+02  0.39656288080E+01  0.32193550531E+03  0.32325852521E+03  0.00000000000E+00 0. -1.
</event>
<event>
 4    1  0.3065783E+006  0.2806557E+02  0.7546771E-02  0.1437188E+00
         21   -1    0    0  502  501  0.00000000000E+00  0.00000000000E+00  0.68275711448E+03  0.68275711448E+03  0.00000000000E+00 0. -1.
         21   -1    0    0  503  502 -0.00000000000E+00 -0.00000000000E+00 -0.24149316947E+01  0.24149316947E+01  0.00000000000E+00 0.  1.
         21    1    1    2  503  504  0.17581461027E+01  0.28010447394E+02  0.92588640365E+02  0.96748811701E+02  0.00000000000E+00 0.  1.
         21    1    1    2  504  501 -0.17581461027E+01 -0.28010447394E+02  0.58775354242E+03  0.58842323447E+03  0.00000000000E+00 0. -1.
</event>
<event>
 4    1  0.3065783E+006  0.2178603E+02  0.7546771E-02  0.1508332E+00
         21   -1    0    0  504  501  0.00000000000E+00  0.00000000000E+00  0.79239088977E+03  0.79239088977E+03  0.00000000000E+00 0. -1.
         21   -1    0    0  501  502 -0.00000000000E+00 -0.00000000000E+00 -0.10334777388E+02  0.10334777388E+02  0.00000000000E+00 0.  1.
         21    1    1    2  503  502  0.16503674485E+02  0.14221803356E+02  0.14699703610E+01  0.21835562165E+02  0.00000000000E+00 0.  1.
         21    1    1    2  504  503 -0.16503674485E+02 -0.14221803356E+02  0.78058614202E+03  0.78089010500E+03  0.00000000000E+00 0. -1.
</event>
<event>
 4    1  0.3065783E+006  0.2323499E+02  0.7546771E-02  0.1489568E+00
         21   -1    0    0  504  501  0.00000000000E+00  0.00000000000E+00  0.40980047164E+01  0.40980047164E+01  0.00000000000E+00 0.  1.
         21   -1    0    0  503  502 -0.00000000000E+00 -0.00000000000E+00 -0.32585724357E+03  0.32585724357E+03  0.00000000000E+00 0. -1.
         21    1    1    2  503  501  0.14013691699E+02  0.18533248799E+02 -0.28821383761E+03  0.28914889081E+03  0.00000000000E+00 0. -1.
         21    1    1    2  504  502 -0.14013691699E+02 -0.18533248799E+02 -0.33545401248E+02  0.40806357483E+02  0.00000000000E+00 0.  1.
</event>
<event>
 4    1  0.3065783E+006  0.2260889E+02  0.7546771E-02  0.1497469E+00
         21   -1    0    0  503  501  0.00000000000E+00  0.00000000000E+00  0.82864060862E+02  0.82864060862E+02  0.00000000000E+00 0.  1.
         21   -1    0    0  504  502 -0.00000000000E+00 -0.00000000000E+00 -0.91593128854E+01  0.91593128854E+01  0.00000000000E+00 0.  1.
         21    1    1    2  503  502  0.59017868052E+01 -0.21825004359E+02  0.10560700146E+02  0.24953763049E+02  0.00000000000E+00 0.  1.
         21    1    1    2  504  501 -0.59017868052E+01  0.21825004359E+02  0.63144047831E+02  0.67069610698E+02  0.00000000000E+00 0.  1.
</event>
<event>
 4    1  0.3065783E+006  0.3006078E+02  0.7546771E-02  0.1419069E+00
         21   -1    0    0  502  501  0.00000000000E+00  0.00000000000E+00  0.16827390593E+02  0.16827390593E+02  0.00000000000E+00 0. -1.
         21   -1    0    0  504  502 -0.00000000000E+00 -0.00000000000E+00 -0.10442216106E+03  0.10442216106E+03  0.00000000000E+00 0. -1.
         21    1    1    2  503  501 -0.87631664829E+00 -0.30048004767E+02 -0.15453451353E+01  0.30100475294E+02  0.00000000000E+00 0. -1.
         21    1    1    2  504  503  0.87631664829E+00  0.30048004767E+02 -0.86049425329E+02  0.91149076358E+02  0.00000000000E+00 0. -1.
</event>
<event>
 4    1  0.3065783E+006  0.2157381E+02  0.7546771E-02  0.1511228E+00
         21   -1    0    0  502  501  0.00000000000E+00  0.00000000000E+00  0.14450168295E+01  0.14450168295E+01  0.00000000000E+00 0. -1.
         21   -1    0    0  503  502 -0.00000000000E+00 -0.00000000000E+00 -0.34884300136E+03  0.34884300136E+03  0.00000000000E+00 0. -1.
         21    1    1    2  503  504 -0.19621690584E+02  0.89676365003E+01 -0.22219939321E+03  0.22324425992E+03  0.00000000000E+00 0. -1.
         21    1    1    2  504  501  0.19621690584E+02 -0.89676365003E+01 -0.12519859132E+03  0.12704375827E+03  0.00000000000E+00 0. -1.
</event>
<event>
 4    1  0.3065783E+006  0.2038157E+02  0.7546771E-02  0.1528280E+00
         21   -1    0    0  504  501  0.00000000000E+00  0.00000000000E+00  0.11905830630E+02  0.11905830630E+02  0.00000000000E+00 0. -1.
         21   -1    0    0  503  502 -0.00000000000E+00 -0.00000000000E+00 -0.39930733484E+02  0.39930733484E+02  0.00000000000E+00 0. -1.
         21    1    1    2  503  501  0.19867440988E+02  0.45489684967E+01 -0.23220108870E+02  0.30896306927E+02  0.00000000000E+00 0. -1.
         21    1    1    2  504  502 -0.19867440988E+02 -0.45489684967E+01 -0.48047939835E+01  0.20940257186E+02  0.00000000000E+00 0. -1.
</event>
<event>
 4    1  0.3065783E+006  0.2926993E+02  0.7546771E-02  0.1426049E+00
         21   -1    0    0  504  501  0.00000000000E+00  0.00000000000E+00  0.21808070079E+02  0.21808070079E+02  0.00000000000E+00 0.  1.
         21   -1    0    0  501  502 -0.00000000000E+00 -0.00000000000E+00 -0.12431957230E+03  0.12431957230E+03  0.00000000000E+00 0. -1.
         21    1    1    2  503  502 -0.29157992875E+02  0.25574106307E+01 -0.11168268062E+03  0.11545453672E+03  0.00000000000E+00 0. -1.
         21    1    1    2  504  503  0.29157992875E+02 -0.25574106307E+01  0.91711784018E+01  0.30673105662E+02  0.00000000000E+00 0.  1.
</event>
<event>
 4    1  0.3065783E+006  0.2091431E+02  0.7546771E-02  0.1520492E+00
         21   -1    0    0  504  501  0.00000000000E+00  0.00000000000E+00  0.39516554141E+02  0.39516554141E+02  0.00000000000E+00 0. -1.
         21   -1    0    0  501  502 -0.00000000000E+00 -0.00000000000E+00 -0.12011771162E+02  0.12011771162E+02  0.00000000000E+00 0. -1.
         21    1    1    2  503  502 -0.18912049860E+02  0.89298827563E+01  0.20970400362E+02  0.29616990517E+02  0.00000000000E+00 0. -1.
         21    1    1    2  504  503  0.18912049860E+02 -0.89298827563E+01  0.65343826169E+01  0.21911334787E+02  0.00000000000E+00 0. -1.
</event>
<event>
 4    1  0.3065783E+006  0.2493912E+02  0.7546771E-02  0.1469486E+00
         21   -1    0    0  503  501  0.00000000000E+00  0.00000000000E+00  0.11414998046E+03  0.11414998046E+03  0.00000000000E+00 0.  1.
         21   -1    0    0  504  502 -0.00000000000E+00 -0.00000000000E+00 -0.88958907117E+02  0.88958907117E+02  0.00000000000E+00 0.  1.
         21    1    1    2  503  502 -0.85748084801E+01  0.23418627567E+02  0.11099080404E+03  0.11375815593E+03  0.00000000000E+00 0.  1.
         21    1    1    2  504  501  0.85748084801E+01 -0.23418627567E+02 -0.85799730702E+02  0.89350731648E+02  0.00000000000E+00 0.  1.
</event>
<event>
 4    1  0.3065783E+006  0.2239208E+02  0.7546771E-02  0.1500276E+00
         21   -1    0    0  504  501  0.00000000000E+00  0.00000000000E+00  0.44085278714E+02  0.44085278714E+02  0.00000000000E+00 0.  1.
         21   -1    0    0  503  502 -0.00000000000E+00 -0.00000000000E+00 -0.52513941180E+03  0.52513941180E+03  0.00000000000E+00 0. -1.
         21    1    1    2  503  501  0.87936131163E+00 -0.22374808786E+02 -0.52204045641E+03  0.52252047182E+03  0.00000000000E+00 0. -1.
         21    1    1    2  504  502 -0.87936131163E+00  0.22374808786E+02  0.40986323321E+02  0.46704218695E+02  0.00000000000E+00 0.  1.
</event>
<event>
 4    1  0.3065783E+006  0.2677201E+02  0.7546771E-02  0.1449912E+00
         21   -1    0    0  503  501  0.00000000000E+00  0.00000000000E+00  0.63407730175E+02  0.63407730175E+02  0.00000000000E+00 0. -1.
         21   -1    0    0  504  502 -0.00000000000E+00 -0.00000000000E+00 -0.54902873187E+03  0.54902873187E+03  0.00000000000E+00 0.  1.
         21    1    1    2  503  502  0.19899716599E+02 -0.17909258696E+02 -0.54586005176E+03  0.54651618125E+03  0.00000000000E+00 0.  1.
         21    1    1    2  504  501 -0.19899716599E+02  0.17909258696E+02  0.60239050060E+02  0.65920280794E+02  0.00000000000E+00 0. -1.
</event>
<event>
 4    1  0.3065783E+006  0.2253618E+02  0.7546771E-02  0.1498406E+00
         21   -1    0    0  504  501  0.00000000000E+00  0.00000000000E+00  0.41611839842E+03  0.41611839842E+03  0.00000000000E+00 0.  1.
         21   -1    0    0  503  502 -0.00000000000E+00 -0.00000000000E+00 -0.36536425019E+01  0.36536425019E+01  0.00000000000E+00 0.  1.
         21    1    1    2  503  501  0.22445726632E+02  0.20171350918E+01  0.34953911874E+02  0.41589126383E+02  0.00000000000E+00 0.  1.
         21    1    1    2  504  502 -0.22445726632E+02 -0.20171350918E+01  0.37751084404E+03  0.37818291453E+03  0.00000000000E+00 0.  1.
</event>
<event>
 4    1  0.3065783E+006  0.2148038E+02  0.7546771E-02  0.1512516E+00
         21   -1    0    0  503  501  0.00000000000E+00  0.00000000000E+00  0.22924065893E+03  0.22924065893E+03  0.00000000000E+00 0.  1.
         21   -1    0    0  504  502 -0.00000000000E+00 -0.00000000000E+00 -0.93301287677E+01  0.93301287677E+01  0.00000000000E+00 0.  1.
         21    1    1    2  503  502 -0.21037742828E+02 -0.43381965873E+01  0.21559344319E+03  0.21666088554E+03  0.00000000000E+00 0.  1.
         21    1    1    2  504  501  0.21037742828E+02  0.43381965873E+01  0.43170869701E+01  0.21909902164E+02  0.00000000000E+00 0.  1.
</event>
<event>
 4    1  0.3065783E+006  0.2214193E+02  0.7546771E-02  0.1503564E+00
         21   -1    0    0  504  501  0.00000000000E+00  0.00000000000E+00  0.17251148820E+02  0.17251148820E+02  0.00000000000E+00 0. -1.
         21   -1    0    0  503  502 -0.00000000000E+00 -0.00000000000E+00 -0.28510120522E+02  0.28510120522E+02  0.00000000000E+00 0. -1.
         21    1    1    2  503  501  0.79859089344E+01 -0.20651638140E+02 -0.43378087245E+01  0.22562834129E+02  0.00000000000E+00 0. -1.
         21    1    1    2  504  502 -0.79859089344E+01  0.20651638140E+02 -0.69211629774E+01  0.23198435213E+02  0.00000000000E+00 0. -1.
</event>
<event>
 4    1  0.3065783E+006  0.2468351E+02  0.7546771E-02  0.1472375E+00
         21   -1    0    0  502  501  0.00000000000E+00  0.00000000000E+00  0.83409599284E+03  0.83409599284E+03  0.00000000000E+00 0.  1.
         21   -1    0    0  504  502 -0.00000000000E+00 -0.00000000000E+00 -0.88488029700E+00  0.88488029700E+00  0.00000000000E+00 0.  1.
         21    1    1    2  503  501  0.20248426264E+02 -0.14116543224E+02  0.59100834551E+03  0.59152357520E+03  0.00000000000E+00 0.  1.
         21    1    1    2  504  503 -0.20248426264E+02  0.14116543224E+02  0.24220276703E+03  0.24345729793E+03  0.00000000000E+00 0.  1.
</event>
<event>
 4    1  0.3065783E+006  0.2305539E+02  0.7546771E-02  0.1491804E+00
         21   -1    0    0  502  501  0.00000000000E+00  0.00000000000E+00  0.58520556942E+01  0.58520556942E+01  0.00000000000E+00 0.  1.
         21   -1    0    0  504  502 -0.00000000000E+00 -0.00000000000E+00 -0.12423303990E+03  0.12423303990E+03  0.00000000000E+00 0. -1.
         21    1    1    2  503  501  0.10977350260E+02  0.20274336336E+02 -0.25464688654E+02  0.34351147009E+02  0.00000000000E+00 0.  1.
         21    1    1    2  504  503 -0.10977350260E+02 -0.20274336336E+02 -0.92916295554E+02  0.95733948587E+02  0.00000000000E+00 0. -1.
</event>
<event>
 4    1  0.3065783E+006  0.2928077E+02  0.7546771E-02  0.1425951E+00
         21   -1    0    0  503  501  0.00000000000E+00  0.00000000000E+00  0.23547408557E+03  0.23547408557E+03  0.00000000000E+00 0.  1.
         21   -1    0    0  504  502 -0.00000000000E+00 -0.00000000000E+00 -0.26299734479E+02  0.26299734479E+02  0.00000000000E+00 0.  1.
         21    1    1    2  503  502  0.29280355134E+02 -0.15524891737E+00 -0.16902191821E+02  0.33808983826E+02  0.00000000000E+00 0.  1.
         21    1    1    2  504  501 -0.29280355134E+02  0.15524891737E+00  0.22607654291E+03  0.22796483622E+03  0.00000000000E+00 0.  1.
</event>
<event>
 4    1  0.3065783E+006  0.2174423E+02  0.7546771E-02  0.1508899E+00
         21   -1    0    0  503  501  0.00000000000E+00  0.00000000000E+00  0.33301034574E+01  0.33301034574E+01  0.00000000000E+00 0. -1.
         21   -1    0    0  504  502 -0.00000000000E+00 -0.00000000000E+00 -0.15157200909E+03  0.15157200909E+03  0.00000000000E+00 0. -1.
         21    1    1    2  503  502  0.12519098533E+02 -0.17778742381E+02 -0.54638242083E+02  0.58806028659E+02  0.00000000000E+00 0. -1.
         21    1    1    2  504  501 -0.12519098533E+02  0.17778742381E+02 -0.93603663554E+02  0.96096083892E+02  0.00000000000E+00 0. -1.
</event>
<event>
 4    1  0.3065783E+006  0.2251927E+02  0.7546771E-02  0.1498625E+00
         21   -1    0    0  503  501  0.00000000000E+00  0.00000000000E+00  0.31369034737E+02  0.31369034737E+02  0.00000000000E+00 0.  1.
         21   -1    0    0  501  502 -0.00000000000E+00 -0.00000000000E+00 -0.28511464908E+02  0.28511464908E+02  0.00000000000E+00 0. -1.
         21    1    1    2  503  504 -0.62405496822E+01  0.21637305882E+02  0.21130145062E+02  0.30880422544E+02  0.00000000000E+00 0.  1.
         21    1    1    2  504  502  0.62405496822E+01 -0.21637305882E+02 -0.18272575233E+02  0.29000077100E+02  0.00000000000E+00 0. -1.
</event>
<event>
 4    1  0.3065783E+006  0.2168070E+02  0.7546771E-02  0.1509764E+00
         21   -1    0    0  503  501  0.00000000000E+00  0.00000000000E+00  0.20271197112E+03  0.20271197112E+03  0.00000000000E+00 0. -1.
         21   -1    0    0  504  502 -0.00000000000E+00 -0.00000000000E+00 -0.73187395744E+02  0.73187395744E+02  0.00000000000E+00 0. -1.
         21    1    1    2  503  502  0.13002210363E+02 -0.17349209930E+02 -0.70984453947E+02  0.74221595656E+02  0.00000000000E+00 0. -1.
         21    1    1    2  504  501 -0.13002210363E+02  0.17349209930E+02  0.20050902932E+03  0.20167777121E+03  0.00000000000E+00 0. -1.
</event>
<event>
 4    1  0.3065783E+006  0.2184522E+02  0.7546771E-02  0.1507531E+00
         21   -1    0    0  504  501  0.00000000000E+00  0.00000000000E+00  0.37343733644E+02  0.37343733644E+02  0.00000000000E+00 0. -1.
         21   -1    0    0  503  502 -0.00000000000E+00 -0.00000000000E+00 -0.18513954079E+03  0.18513954079E+03  0.00000000000E+00 0.  1.
         21    1    1    2  503  501 -0.17802489782E+02 -0.12660379386E+02 -0.18123176731E+03  0.18254360392E+03  0.00000000000E+00 0.  1.
         21    1    1    2  504  502  0.17802489782E+02  0.12660379386E+02  0.33435960166E+02  0.39939670515E+02  0.00000000000E+00 0. -1.
</event>
<event>
 4    1  0.3065783E+006  0.2090512E+02  0.7546771E-02  0.1520624E+00
         21   -1    0    0  504  501  0.00000000000E+00  0.00000000000E+00  0.34111331614E+02  0.34111331614E+02  0.00000000000E+00 0.  1.
         21   -1    0    0  501  502 -0.00000000000E+00 -0.00000000000E+00 -0.18038029754E+03  0.18038029754E+03  0.00000000000E+00 0. -1.
         21    1    1    2  503  502 -0.18346305180E+02  0.10021825839E+02 -0.17650153468E+03  0.17773524032E+03  0.00000000000E+00 0. -1.
         21    1    1    2  504  503  0.18346305180E+02 -0.10021825839E+02  0.30232568752E+02  0.36756388836E+02  0.00000000000E+00 0.  1.
</event>
<event>
 4    1  0.3065783E+006  0.2238949E+02  0.7546771E-02  0.1500310E+00
         21   -1    0    0  504  501  0.00000000000E+00  0.00000000000E+00  0.11970415630E+03  0.11970415630E+03  0.00000000000E+00 0. -1.
         21   -1    0    0  503  502 -0.00000000000E+00 -0.00000000000E+00 -0.61509220981E+01  0.61509220981E+01  0.00000000000E+00 0.  1.
         21    1    1    2  503  501  0.21621335551E+02  0.58143871309E+01  0.92327591993E+02  0.95003544629E+02  0.00000000000E+00 0. -1.
         21    1    1    2  504  502 -0.21621335551E+02 -0.58143871309E+01  0.21225642206E+02  0.30851533767E+02  0.00000000000E+00 0.  1.
</event>
<event>
 4    1  0.3065783E+006  0.2175401E+02  0.7546771E-02  0.1508766E+00
         21   -1    0    0  503  501  0.00000000000E+00  0.00000000000E+00  0.99355637243E+02  0.99355637243E+02  0.00000000000E+00 0.  1.
         21   -1    0    0  504  502 -0.00000000000E+00 -0.00000000000E+00 -0.66929114708E+01  0.66929114708E+01  0.00000000000E+00 0. -1.
         21    1    1    2  503  502 -0.12726319534E+02  0.17643062544E+02  0.74804094373E+02  0.77903076960E+02  0.00000000000E+00 0.  1.
         21    1    1    2  504  501  0.12726319534E+02 -0.17643062544E+02  0.17858631399E+02  0.28145471754E+02  0.00000000000E+00 0. -1.
</event>
<event>
 4    1  0.3065783E+006  0.2509108E+02  0.7546771E-02  0.1467787E+00
         21   -1    0    0  502  501  0.00000000000E+00  0.00000000000E+00  0.88990597346E+01  0.88990597346E+01  0.00000000000E+00 0. -1.
         21   -1    0    0  503  502 -0.00000000000E+00 -0.00000000000E+00 -0.16133769689E+03  0.16133769689E+03  0.00000000000E+00 0.  1.
         21    1    1    2  503  504 -0.12267514776E+01 -0.25061069074E+02 -0.14000196203E+03  0.14223259639E+03  0.00000000000E+00 0.  1.
         21    1    1    2  504  501  0.12267514776E+01  0.25061069074E+02 -0.12436675118E+02  0.28004160232E+02  0.00000000000E+00 0. -1.
</event>
<event>
 4    1  0.3065783E+006  0.2223887E+02  0.7546771E-02  0.1502283E+00
         21   -1    0    0  503  501  0.00000000000E+00  0.00000000000E+00  0.26452843083E+02  0.26452843083E+02  0.00000000000E+00 0. -1.
         21   -1    0    0  504  502 -0.00000000000E+00 -0.00000000000E+00 -0.22038927450E+02  0.22038927450E+02  0.00000000000E+00 0. -1.
         21    1    1    2  503  502  0.84759965929E+01  0.20560271476E+02  0.11649614384E+02  0.25105393777E+02  0.00000000000E+00 0. -1.
         21    1    1    2  504  501 -0.84759965929E+01 -0.20560271476E+02 -0.72356987502E+01  0.23386376757E+02  0.00000000000E+00 0. -1.
</event>
<event>
 4    1  0.3916160E+006  0.2005231E+02  0.7546771E-02  0.1533238E+00
         21   -1    0    0  503  501  0.00000000000E+00  0.00000000000E+00  0.21514721605E+03  0.21514721605E+03  0.00000000000E+00 0. -1.
         21   -1    0    0  501  502 -0.00000000000E+00 -0.00000000000E+00 -0.88673305642E+02  0.88673305642E+02  0.00000000000E+00 0. -1.
         21    1    1    2  503  504 -0.10833994383E+02 -0.16873636675E+02  0.21353781652E+03  0.21447725784E+03  0.00000000000E+00 0. -1.
         21    1    1    2  504  502  0.10833994383E+02  0.16873636675E+02 -0.87063906107E+02  0.89343263851E+02  0.00000000000E+00 0. -1.
</event>
<event>
 4    1  0.3065783E+006  0.2039780E+02  0.7546771E-02  0.1528039E+00
         21   -1    0    0  504  501  0.00000000000E+00  0.00000000000E+00  0.75266277525E+03  0.75266277525E+03  0.00000000000E+00 0. -1.
         21   -1    0    0  501  502 -0.00000000000E+00 -0.00000000000E+00 -0.15759757159E+01  0.15759757159E+01  0.00000000000E+00 0. -1.
         21    1    1    2  503  502  0.14703022218E+02 -0.14138295855E+02  0.71679099535E+02  0.74524919202E+02  0.00000000000E+00 0. -1.
         21    1    1    2  504  503 -0.14703022218E+02  0.14138295855E+02  0.67940770000E+03  0.67971383177E+03  0.00000000000E+00 0. -1.
</event>
<event>
 4    1  0.3065783E+006  0.2446896E+02  0.7546771E-02  0.1474833E+00
         21   -1    0    0  504  501  0.00000000000E+00  0.00000000000E+00  0.30771327890E+03  0.30771327890E+03  0.00000000000E+00 0. -1.
         21   -1    0    0  501  502 -0.00000000000E+00 -0.00000000000E+00 -0.64324538507E+01  0.64324538507E+01  0.00000000000E+00 0.  1.
         21    1    1    2  503  502 -0.24425026686E+02 -0.14656001633E+01  0.19457570615E+02  0.31262229074E+02  0.00000000000E+00 0.  1.
         21    1    1    2  504  503  0.24425026686E+02  0.14656001633E+01  0.28182325443E+03  0.28288350367E+03  0.00000000000E+00 0. -1.
</event>
<event>
 4    1  0.3065783E+006  0.2457243E+02  0.7546771E-02  0.1473644E+00
         21   -1    0    0  503  501  0.00000000000E+00  0.00000000000E+00  0.28132623847E+01  0.28132623847E+01  0.00000000000E+00 0. -1.
         21   -1    0    0  504  502 -0.00000000000E+00 -0.00000000000E+00 -0.27632867840E+03  0.27632867840E+03  0.00000000000E+00 0. -1.
         21    1    1    2  503  502 -0.19461273511E+02 -0.15002105947E+02 -0.20270967460E+03  0.20419357612E+03  0.00000000000E+00 0. -1.
         21    1    1    2  504  501  0.19461273511E+02  0.15002105947E+02 -0.70805741414E+02  0.74948364670E+02  0.00000000000E+00 0. -1.
</event>
<event>
 4    1  0.3065783E+006  0.4628591E+02  0.7546771E-02  0.1315132E+00
         21   -1    0    0  502  501  0.00000000000E+00  0.00000000000E+00  0.49135559813E+02  0.49135559813E+02  0.00000000000E+00 0. -1.
         21   -1    0    0  504  502 -0.00000000000E+00 -0.00000000000E+00 -0.10009942275E+03  0.10009942275E+03  0.00000000000E+00 0.  1.
         21    1    1    2  503  501 -0.46270760978E+02 -0.11842987280E+01  0.30576502142E+02  0.55473492482E+02  0.00000000000E+00 0. -1.
         21    1    1    2  504  503  0.46270760978E+02  0.11842987280E+01 -0.81540365078E+02  0.93761490080E+02  0.00000000000E+00 0.  1.
</event>
<event>
 4    1  0.3065783E+006  0.2228304E+02  0.7546771E-02  0.1501703E+00
         21   -1    0    0  503  501  0.00000000000E+00  0.00000000000E+00  0.48336052971E+02  0.48336052971E+02  0.00000000000E+00 0. -1.
         21   -1    0    0  504  502 -0.00000000000E+00 -0.00000000000E+00 -0.12245484152E+02  0.12245484152E+02  0.00000000000E+00 0. -1.
         21    1    1    2  503  502 -0.22079908244E+02  0.30019097608E+01  0.30203790761E+02  0.37534021722E+02  0.00000000000E+00 0. -1.
         21    1    1    2  504  501  0.22079908244E+02 -0.30019097608E+01  0.58867780579E+01  0.23047515402E+02  0.00000000000E+00 0. -1.
</event>
<event>
 4    1  0.3065783E+006  0.4977896E+02  0.7546771E-02  0.1299134E+00
         21   -1    0    0  504  501  0.00000000000E+00  0.00000000000E+00  0.98588643818E+02  0.98588643818E+02  0.00000000000E+00 0.  1.
         21   -1    0    0  503  502 -0.00000000000E+00 -0.00000000000E+00 -0.25777221707E+02  0.25777221707E+02  0.00000000000E+00 0.  1.
         21    1    1    2  503  501 -0.42676044879E+02  0.25626155234E+02  0.46227101942E+02  0.67932978682E+02  0.00000000000E+00 0.  1.
         21    1    1    2  504  502  0.42676044879E+02 -0.25626155234E+02  0.26584320169E+02  0.56432886843E+02  0.00000000000E+00 0.  1.
</event>
<event>
 4    1  0.3065783E+006  0.2029754E+02  0.7546771E-02  0.1529535E+00
         21   -1    0    0  504  501  0.00000000000E+00  0.00000000000E+00  0.11927088499E+02  0.11927088499E+02  0.00000000000E+00 0.  1.
         21   -1    0    0  501  502 -0.00000000000E+00 -0.00000000000E+00 -0.15219867679E+03  0.15219867679E+03  0.00000000000E+00 0.  1.
         21    1    1    2  503  502  0.20170722330E+02  0.22654120257E+01 -0.14228788170E+03  0.14372832501E+03  0.00000000000E+00 0.  1.
         21    1    1    2  504  503 -0.20170722330E+02 -0.22654120257E+01  0.20162934085E+01  0.20397440282E+02  0.00000000000E+00 0.  1.
</event>
<event>
 4    1  0.3065783E+006  0.3322308E+02  0.7546771E-02  0.1393505E+00
         21   -1    0    0  502  501  0.00000000000E+00  0.00000000000E+00  0.45050216917E+02  0.45050216917E+02  0.00000000000E+00 0.  1.
         21   -1    0    0  503  502 -0.00000000000E+00 -0.00000000000E+00 -0.26168160678E+02  0.26168160678E+02  0.00000000000E+00 0.  1.
         21    1    1    2  503  504 -0.30916917729E+02 -0.12162127060E+02  0.45287106217E+00  0.33226167831E+02  0.00000000000E+00 0.  1.
         21    1    1    2  504  501  0.30916917729E+02  0.12162127060E+02  0.18429185176E+02  0.37992209764E+02  0.00000000000E+00 0.  1.
</event>
<event>
 4    1  0.3065783E+006  0.2042842E+02  0.7546771E-02  0.1527584E+00
         21   -1    0    0  503  501  0.00000000000E+00  0.00000000000E+00  0.51450257172E+02  0.51450257172E+02  0.00000000000E+00 0.  1.
         21   -1    0    0  504  502 -0.00000000000E+00 -0.00000000000E+00 -0.11058737570E+03  0.11058737570E+03  0.00000000000E+00 0.  1.
         21    1    1    2  503  502  0.19467163944E+02 -0.61927337612E+01 -0.10755959588E+03  0.10948235972E+03  0.00000000000E+00 0.  1.
         21    1    1    2  504  501 -0.19467163944E+02  0.61927337612E+01  0.48422477352E+02  0.52555273155E+02  0.00000000000E+00 0.  1.
</event>
<event>
 4    1  0.3065783E+006  0.2116638E+02  0.7546771E-02  0.1516902E+00
         21   -1    0    0  503  501  0.00000000000E+00  0.00000000000E+00  0.99178716232E+02  0.99178716232E+02  0.00000000000E+00 0.  1.
         21   -1    0    0  504  502 -0.00000000000E+00 -0.00000000000E+00 -0.52712929938E+01  0.52712929938E+01  0.00000000000E+00 0.  1.
         21    1    1    2  503  502  0.71304000868E+01  0.19929203758E+02  0.66705930806E+02  0.69983547870E+02  0.00000000000E+00 0.  1.
         21    1    1    2  504  501 -0.71304000868E+01 -0.19929203758E+02  0.27201492433E+02  0.34466461356E+02  0.00000000000E+00 0.  1.
</event>
<event>
 4    1  0.3065783E+006  0.2652144E+02  0.7546771E-02  0.1452475E+00
         21   -1    0    0  503  501  0.00000000000E+00  0.00000000000E+00  0.99792483320E+02  0.99792483320E+02  0.00000000000E+00 0.  1.
         21   -1    0    0  504  502 -0.00000000000E+00 -0.00000000000E+00 -0.63391168193E+02  0.63391168193E+02  0.00000000000E+00 0.  1.
         21    1    1    2  503  502  0.25452772588E+02  0.74527382134E+01 -0.58721417849E+02  0.64432847628E+02  0.00000000000E+00 0.  1.
         21    1    1    2  504  501 -0.25452772588E+02 -0.74527382134E+01  0.95122732975E+02  0.98750803885E+02  0.00000000000E+00 0.  1.
</event>
<event>
 4    1  0.3065783E+006  0.2140685E+02  0.7546771E-02  0.1513535E+00
         21   -1    0    0  503  501  0.00000000000E+00  0.00000000000E+00  0.33057560284E+02  0.33057560284E+02  0.00000000000E+00 0. -1.
         21   -1    0    0  504  502 -0.00000000000E+00 -0.00000000000E+00 -0.83383275254E+02  0.83383275254E+02  0.00000000000E+00 0. -1.
         21    1    1    2  503  502 -0.20880795104E+02 -0.47165247225E+01 -0.78323941468E+02  0.81196631807E+02  0.00000000000E+00 0. -1.
         21    1    1    2  504  501  0.20880795104E+02  0.47165247225E+01  0.27998226498E+02  0.35244203731E+02  0.00000000000E+00 0. -1.
</event>
<event>
 4    1  0.3065783E+006  0.2059852E+02  0.7546771E-02  0.1525075E+00
         21   -1    0    0  504  501  0.00000000000E+00  0.00000000000E+00  0.46060268260E+02  0.46060268260E+02  0.00000000000E+00 0.  1.
         21   -1    0    0  501  502 -0.00000000000E+00 -0.00000000000E+00 -0.25683289638E+03  0.25683289638E+03  0.00000000000E+00 0.  1.
         21    1    1    2  503  502 -0.19136334669E+02  0.76223234731E+01 -0.25409212913E+03  0.25492569350E+03  0.00000000000E+00 0.  1.
         21    1    1    2  504  503  0.19136334669E+02 -0.76223234731E+01  0.43319501011E+02  0.47967471140E+02  0.00000000000E+00 0.  1.
</event>
<event>
 4    1  0.3065783E+006  0.2153380E+02  0.7546771E-02  0.1511778E+00
         21   -1    0    0  503  501  0.00000000000E+00  0.00000000000E+00  0.35366678609E+01  0.35366678609E+01  0.00000000000E+00 0. -1.
         21   -1    0    0  504  502 -0.00000000000E+00 -0.00000000000E+00 -0.15617126966E+03  0.15617126966E+03  0.00000000000E+00 0. -1.
         21    1    1    2  503  502  0.48783528775E+01 -0.20973936906E+02 -0.44330671554E+02  0.49284001426E+02  0.00000000000E+00 0. -1.
         21    1    1    2  504  501 -0.48783528775E+01  0.20973936906E+02 -0.10830393024E+03  0.11042393609E+03  0.00000000000E+00 0. -1.
</event>
<event>
 4    1  0.3065783E+006  0.2287929E+02  0.7546771E-02  0.1494019E+00
         21   -1    0    0  502  501  0.00000000000E+00  0.00000000000E+00  0.31157616997E+03  0.31157616997E+03  0.00000000000E+00 0.  1.
         21   -1    0    0  503  502 -0.00000000000E+00 -0.00000000000E+00 -0.26720149273E+02  0.26720149273E+02  0.00000000000E+00 0.  1.
         21    1    1    2  503  504 -0.44252236251E+01  0.22447258913E+02 -0.21316180706E+02  0.31270458851E+02  0.00000000000E+00 0.  1.
         21    1    1    2  504  501  0.44252236251E+01 -0.22447258913E+02  0.30617220140E+03  0.30702586039E+03  0.00000000000E+00 0.  1.
</event>
<event>
 4    1  0.3065783E+006  0.2118947E+02  0.7546771E-02  0.1516577E+00
         21   -1    0    0  504  501  0.00000000000E+00  0.00000000000E+00  0.18689823035E+03  0.18689823035E+03  0.00000000000E+00 0.  1.
         21   -1    0    0  501  502 -0.00000000000E+00 -0.00000000000E+00 -0.29826145759E+02  0.29826145759E+02  0.00000000000E+00 0. -1.
         21    1    1    2  503  502  0.18241580999E+02  0.10781388389E+02 -0.25370534669E+02  0.33055372367E+02  0.00000000000E+00 0. -1.
         21    1    1    2  504  503 -0.18241580999E+02 -0.10781388389E+02  0.18244261926E+03  0.18366900374E+03  0.00000000000E+00 0.  1.
</event>
<event>
 4    1  0.3065783E+006  0.2070979E+02  0.7546771E-02  0.1523449E+00
         21   -1    0    0  504  501  0.00000000000E+00  0.00000000000E+00  0.32944435752E+01  0.32944435752E+01  0.00000000000E+00 0.  1.
         21   -1    0    0  503  502 -0.00000000000E+00 -0.00000000000E+00 -0.12220313667E+04  0.12220313667E+04  0.00000000000E+00 0.  1.
         21    1    1    2  503  501 -0.56134753625E+01 -0.19934501361E+02 -0.30258982064E+02  0.36667443948E+02  0.00000000000E+00 0.  1.
         21    1    1    2  504  502  0.56134753625E+01  0.19934501361E+02 -0.11884779410E+04  0.11886583663E+04  0.00000000000E+00 0.  1.
</event>
<event>
 4    1  0.3065783E+006  0.2266917E+02  0.7546771E-02  0.1496695E+00
         21   -1    0    0  504  501  0.00000000000E+00  0.00000000000E+00  0.17628181122E+03  0.17628181122E+03  0.00000000000E+00 0. -1.
         21   -1    0    0  501  502 -0.00000000000E+00 -0.00000000000E+00 -0.18706880837E+02  0.18706880837E+02  0.00000000000E+00 0. -1.
         21    1    1    2  503  502  0.21873636235E+02  0.59527573353E+01 -0.10788881277E+02  0.25105601790E+02  0.00000000000E+00 0. -1.
         21    1    1    2  504  503 -0.21873636235E+02 -0.59527573353E+01  0.16836381166E+03  0.16988309027E+03  0.00000000000E+00 0. -1.
</event>
<event>
 4    1  0.3065783E+006  0.4660411E+02  0.7546771E-02  0.1313608E+00
         21   -1    0    0  503  501  0.00000000000E+00  0.00000000000E+00  0.51370500444E+02  0.51370500444E+02  0.00000000000E+00 0.  1.
         21   -1    0    0  504  502 -0.00000000000E+00 -0.00000000000E+00 -0.45086575746E+02  0.45086575746E+02  0.00000000000E+00 0.  1.
         21    1    1    2  503  502 -0.24981765636E+02 -0.39342779410E+02  0.15174899434E+02  0.49012452283E+02  0.00000000000E+00 0.  1.
         21    1    1    2  504  501  0.24981765636E+02  0.39342779410E+02 -0.88909747363E+01  0.47444623907E+02  0.00000000000E+00 0.  1.
</event>
<event>
 4    1  0.3065783E+006  0.2737949E+02  0.7546771E-02  0.1443833E+00
         21   -1    0    0  504  501  0.00000000000E+00  0.00000000000E+00  0.55327697349E+01  0.55327697349E+01  0.00000000000E+00 0.  1.
         21   -1    0    0  503  502 -0.00000000000E+00 -0.00000000000E+00 -0.14324323556E+03  0.14324323556E+03  0.00000000000E+00 0.  1.
         21    1    1    2  503  501  0.23226162028E+02 -0.14497656515E+02 -0.51549147451E+02  0.58369094990E+02  0.00000000000E+00 0.  1.
         21    1    1    2  504  502 -0.23226162028E+02  0.14497656515E+02 -0.86161318377E+02  0.90406910308E+02  0.00000000000E+00 0.  1.
</event>
<event>
 4    1  0.3065783E+006  0.2388257E+02  0.7546771E-02  0.1481703E+00
         21   -1    0    0  503  501  0.00000000000E+00  0.00000000000E+00  0.62907929215E+02  0.62907929215E+02  0.00000000000E+00 0. -1.
         21   -1    0    0  504  502 -0.00000000000E+00 -0.00000000000E+00 -0.14592328292E+02  0.14592328292E+02  0.00000000000E+00 0. -1.
         21    1    1    2  503  502  0.14653725787E+02  0.18858562090E+02  0.48002706431E+02  0.53615640146E+02  0.00000000000E+00 0. -1.
         21    1    1    2  504  501 -0.14653725787E+02 -0.18858562090E+02  0.31289449190E+00  0.23884617361E+02  0.00000000000E+00 0. -1.
</event>
<event>
 4    1  0.3065783E+006  0.2239057E+02  0.7546771E-02  0.1500296E+00
         21   -1    0    0  502  501  0.00000000000E+00  0.00000000000E+00  0.54573101060E+01  0.54573101060E+01  0.00000000000E+00 0.  1.
         21   -1    0    0  503  502 -0.00000000000E+00 -0.00000000000E+00 -0.10833070016E+04  0.10833070016E+04  0.00000000000E+00 0.  1.
         21    1    1    2  503  504 -0.22345111621E+02  0.14260567899E+01 -0.10597137087E+04  0.10599502262E+04  0.00000000000E+00 0.  1.
         21    1    1    2  504  501  0.22345111621E+02 -0.14260567899E+01 -0.18135982826E+02  0.28814085521E+02  0.00000000000E+00 0.  1.
</event>
<event>
 4    1  0.3065783E+006  0.3180712E+02  0.7546771E-02  0.1404516E+00
         21   -1    0    0  503  501  0.00000000000E+00  0.00000000000E+00  0.45186426708E+03  0.45186426708E+03  0.00000000000E+00 0. -1.
         21   -1    0    0  504  502 -0.00000000000E+00 -0.00000000000E+00 -0.52820640596E+02  0.52820640596E+02  0.00000000000E+00 0. -1.
         21    1    1    2  503  502 -0.61235722278E+01 -0.31212094543E+02  0.44645828649E+03  0.44758987316E+03  0.00000000000E+00 0. -1.
         21    1    1    2  504  501  0.61235722278E+01  0.31212094543E+02 -0.47414660006E+02  0.57095034513E+02  0.00000000000E+00 0. -1.
</event>
<event>
 4    1  0.3065783E+006  0.2445588E+02  0.7546771E-02  0.1474983E+00
         21   -1    0    0  502  501  0.00000000000E+00  0.00000000000E+00  0.55308938377E+02  0.55308938377E+02  0.00000000000E+00 0. -1.
         21   -1    0    0  503  502 -0.00000000000E+00 -0.00000000000E+00 -0.18898227436E+03  0.18898227436E+03  0.00000000000E+00 0. -1.
         21    1    1    2  503  504  0.92573305730E+01  0.22636075019E+02 -0.18543619563E+03  0.18704190095E+03  0.00000000000E+00 0. -1.
         21    1    1    2  504  501 -0.92573305730E+01 -0.22636075019E+02  0.51762859645E+02  0.57249311788E+02  0.00000000000E+00 0. -1.
</event>
<event>
 4    1  0.3065783E+006  0.2157063E+02  0.7546771E-02  0.1511271E+00
         21   -1    0    0  504  501  0.00000000000E+00  0.00000000000E+00  0.15381708730E+01  0.15381708730E+01  0.00000000000E+00 0.  1.
         21   -1    0    0  501  502 -0.00000000000E+00 -0.00000000000E+00 -0.31013797399E+03  0.31013797399E+03  0.00000000000E+00 0.  1.
         21    1    1    2  503  502 -0.17209444518E+02 -0.13004886986E+02 -0.12983910410E+03  0.13161871075E+03  0.00000000000E+00 0.  1.
         21    1    1    2  504  503  0.17209444518E+02  0.13004886986E+02 -0.17876069901E+03  0.18005743410E+03  0.00000000000E+00 0.  1.
</event>
<event>
 4    1  0.3065783E+006  0.2620635E+02  0.7546771E-02  0.1455748E+00
         21   -1    0    0  503  501  0.00000000000E+00  0.00000000000E+00  0.98604383299E+01  0.98604383299E+01  0.00000000000E+00 0. -1.
         21   -1    0    0  504  502 -0.00000000000E+00 -0.00000000000E+00 -0.10870073349E+03  0.10870073349E+03  0.00000000000E+00 0.  1.
         21    1    1    2  503  502  0.25818006221E+02  0.44947991827E+01 -0.84951743881E+02  0.88902032898E+02  0.00000000000E+00 0.  1.
         21    1    1    2  504  501 -0.25818006221E+02 -0.44947991827E+01 -0.13888551277E+02  0.29659138920E+02  0.00000000000E+00 0. -1.
</event>
<event>
 4    1  0.3065783E+006  0.2928295E+02  0.7546771E-02  0.1425932E+00
         21   -1    0    0  503  501  0.00000000000E+00  0.00000000000E+00  0.40981370146E+02  0.40981370146E+02  0.00000000000E+00 0. -1.
         21   -1    0    0  504  502 -0.00000000000E+00 -0.00000000000E+00 -0.32328435453E+02  0.32328435453E+02  0.00000000000E+00 0. -1.
         21    1    1    2  503  502  0.27830876383E+02  0.91067779104E+01  0.26097451758E+02  0.39224585051E+02  0.00000000000E+00 0. -1.
         21    1    1    2  504  501 -0.27830876383E+02 -0.91067779104E+01 -0.17444517065E+02  0.34085220548E+02  0.00000000000E+00 0. -1.
</event>
<event>
 4    1  0.3065783E+006  0.2574187E+02  0.7546771E-02  0.1460673E+00
         21   -1    0    0  503  501  0.00000000000E+00  0.00000000000E+00  0.37653143748E+02  0.37653143748E+02  0.00000000000E+00 0.  1.
         21   -1    0    0  504  502 -0.00000000000E+00 -0.00000000000E+00 -0.17734141685E+02  0.17734141685E+02  0.00000000000E+00 0.  1.
         21    1    1    2  503  502 -0.20730484877E+02  0.15260764432E+02  0.12380281020E+02  0.28564230997E+02  0.00000000000E+00 0.  1.
         21    1    1    2  504  501  0.20730484877E+02 -0.15260764432E+02  0.75387210439E+01  0.26823054436E+02  0.00000000000E+00 0.  1.
</event>
<event>
 4    1  0.3065783E+006  0.2402869E+02  0.7546771E-02  0.1479970E+00
         21   -1    0    0  502  501  0.00000000000E+00  0.00000000000E+00  0.37063922703E+03  0.37063922703E+03  0.00000000000E+00 0. -1.
         21   -1    0    0  503  502 -0.00000000000E+00 -0.00000000000E+00 -0.16573684263E+02  0.16573684263E+02  0.00000000000E+00 0.  1.
         21    1    1    2  503  504 -0.23454796117E+02 -0.52201789260E+01 -0.72505021851E+01  0.25098755165E+02  0.00000000000E+00 0.  1.
         21    1    1    2  504  501  0.23454796117E+02  0.52201789260E+01  0.36131604495E+03  0.36211415613E+03  0.00000000000E+00 0. -1.
</event>
<event>
 4    1  0.3065783E+006  0.2071041E+02  0.7546771E-02  0.1523440E+00
         21   -1    0    0  503  501  0.00000000000E+00  0.00000000000E+00  0.91065625271E+02  0.91065625271E+02  0.00000000000E+00 0. -1.
         21   -1    0    0  504  502 -0.00000000000E+00 -0.00000000000E+00 -0.55532912812E+02  0.55532912812E+02  0.00000000000E+00 0. -1.
         21    1    1    2  503  502 -0.17928038107E+02  0.10368529386E+02 -0.52355613327E+02  0.56303030103E+02  0.00000000000E+00 0. -1.
         21    1    1    2  504  501  0.17928038107E+02 -0.10368529386E+02  0.87888325785E+02  0.90295507980E+02  0.00000000000E+00 0. -1.
</event>
<event>
 4    1  0.3065783E+006  0.2051373E+02  0.7546771E-02  0.1526322E+00
         21   -1    0    0  503  501  0.00000000000E+00  0.00000000000E+00  0.23342142984E+02  0.23342142984E+02  0.00000000000E+00 0. -1.
         21   -1    0    0  504  502 -0.00000000000E+00 -0.00000000000E+00 -0.20694559270E+02  0.20694559270E+02  0.00000000000E+00 0. -1.
         21    1    1    2  503  502  0.20396005880E+02 -0.21945859679E+01  0.92274555337E+01  0.22493536828E+02  0.00000000000E+00 0. -1.
         21    1    1    2  504  501 -0.20396005880E+02  0.21945859679E+01 -0.65798718197E+01  0.21543165426E+02  0.00000000000E+00 0. -1.
</event>
<event>
 4    1  0.3065783E+006  0.3280075E+02  0.7546771E-02  0.1396721E+00
         21   -1    0    0  504  501  0.00000000000E+00  0.00000000000E+00  0.71865570149E+02  0.71865570149E+02  0.00000000000E+00 0. -1.
         21   -1    0    0  501  502 -0.00000000000E+00 -0.00000000000E+00 -0.35391043754E+02  0.35391043754E+02  0.00000000000E+00 0. -1.
         21    1    1    2  503  502  0.31071971110E+02 -0.10508172035E+02 -0.22498632635E+02  0.39775338322E+02  0.00000000000E+00 0. -1.
         21    1    1    2  504  503 -0.31071971110E+02  0.10508172035E+02  0.58973159031E+02  0.67481275582E+02  0.00000000000E+00 0. -1.
</event>
<event>
 4    1  0.3065783E+006  0.5416364E+02  0.7546771E-02  0.1281064E+00
         21   -1    0    0  503  501  0.00000000000E+00  0.00000000000E+00  0.19627039589E+03  0.19627039589E+03  0.00000000000E+00 0.  1.
         21   -1    0    0  504  502 -0.00000000000E+00 -0.00000000000E+00 -0.17249494984E+02  0.17249494984E+02  0.00000000000E+00 0.  1.
         21    1    1    2  503  502  0.18610170106E+02 -0.50866118005E+02  0.50507540037E+02  0.74058841423E+02  0.00000000000E+00 0.  1.
         21    1    1    2  504  501 -0.18610170106E+02  0.50866118005E+02  0.12851336087E+03  0.13946104946E+03  0.00000000000E+00 0.  1.
</event>
<event>
 4    1  0.3065783E+006  0.2113563E+02  0.7546771E-02  0.1517337E+00
         21   -1    0    0  502  501  0.00000000000E+00  0.00000000000E+00  0.41599868396E+02  0.41599868396E+02  0.00000000000E+00 0. -1.
         21   -1    0    0  503  502 -0.00000000000E+00 -0.00000000000E+00 -0.12297098284E+02  0.12297098284E+02  0.00000000000E+00 0. -1.
         21    1    1    2  503  504  0.66164978874E+01 -0.20073291006E+02  0.50569968831E+01  0.21732194403E+02  0.00000000000E+00 0. -1.
         21    1    1    2  504  501 -0.66164978874E+01  0.20073291006E+02  0.24245773229E+02  0.32164772276E+02  0.00000000000E+00 0. -1.
</event>
<event>
 4    1  0.3065783E+006  0.2021110E+02  0.7546771E-02  0.1530833E+00
         21   -1    0    0  502  501  0.00000000000E+00  0.00000000000E+00  0.12516201221E+02  0.12516201221E+02  0.00000000000E+00 0.  1.
         21   -1    0    0  503  502 -0.00000000000E+00 -0.00000000000E+00 -0.16549946670E+03  0.16549946670E+03  0.00000000000E+00 0.  1.
         21    1    1    2  503  504 -0.17247905514E+02  0.10535564481E+02 -0.15624177507E+03  0.15754358331E+03  0.00000000000E+00 0.  1.
         21    1    1    2  504  501  0.17247905514E+02 -0.10535564481E+02  0.32585095958E+01  0.20472084611E+02  0.00000000000E+00 0.  1.
</event>
<event>
 4    1  0.3065783E+006  0.2243510E+02  0.7546771E-02  0.1499716E+00
         21   -1    0    0  502  501  0.00000000000E+00  0.00000000000E+00  0.90994882773E+02  0.90994882773E+02  0.00000000000E+00 0. -1.
         21   -1    0    0  504  502 -0.00000000000E+00 -0.00000000000E+00 -0.36420045441E+02  0.36420045441E+02  0.00000000000E+00 0.  1.
         21    1    1    2  503  501 -0.22304935316E+02 -0.24131662487E+01  0.85957834612E+02  0.88837395516E+02  0.00000000000E+00 0. -1.
         21    1    1    2  504  503  0.22304935316E+02  0.24131662487E+01 -0.31382997281E+02  0.38577532699E+02  0.00000000000E+00 0.  1.
</event>
<event>
 4    1  0.3065783E+006  0.3256669E+02  0.7546771E-02  0.1398528E+00
         21   -1    0    0  502  501  0.00000000000E+00  0.00000000000E+00  0.11439750452E+02  0.11439750452E+02  0.00000000000E+00 0. -1.
         21   -1    0    0  503  502 -0.00000000000E+00 -0.00000000000E+00 -0.50927885423E+03  0.50927885423E+03  0.00000000000E+00 0. -1.
         21    1    1    2  503  504 -0.25834439048E+02 -0.19828547277E+02 -0.48439097429E+03  0.48548450593E+03  0.00000000000E+00 0. -1.
         21    1    1    2  504  501  0.25834439048E+02  0.19828547277E+02 -0.13448129492E+02  0.35234098753E+02  0.00000000000E+00 0. -1.
</event>
<event>
 4    1  0.3065783E+006  0.2883580E+02  0.7546771E-02  0.1429990E+00
         21   -1    0    0  502  501  0.00000000000E+00  0.00000000000E+00  0.23875446296E+02  0.23875446296E+02  0.00000000000E+00 0. -1.
         21   -1    0    0  503  502 -0.00000000000E+00 -0.00000000000E+00 -0.21744046522E+03  0.21744046522E+03  0.00000000000E+00 0.  1.
         21    1    1    2  503  504 -0.21724173993E+02 -0.18962158986E+02 -0.20735638310E+03  0.20935179202E+03  0.00000000000E+00 0.  1.
         21    1    1    2  504  501  0.21724173993E+02  0.18962158986E+02  0.13791364180E+02  0.31964119494E+02  0.00000000000E+00 0. -1.
</event>
<event>
 4    1  0.3065783E+006  0.2346567E+02  0.7546771E-02  0.1486732E+00
         21   -1    0    0  504  501  0.00000000000E+00  0.00000000000E+00  0.67776127825E+01  0.67776127825E+01  0.00000000000E+00 0.  1.
         21   -1    0    0  503  502 -0.00000000000E+00 -0.00000000000E+00 -0.12186497313E+03  0.12186497313E+03  0.00000000000E+00 0.  1.
         21    1    1    2  503  501  0.16425598632E+02 -0.16758206672E+02 -0.20407902505E+02  0.31098557296E+02  0.00000000000E+00 0.  1.
         21    1    1    2  504  502 -0.16425598632E+02  0.16758206672E+02 -0.94679457842E+02  0.97544028615E+02  0.00000000000E+00 0.  1.
</event>
<event>
 4    1  0.3065783E+006  0.3831619E+02  0.7546771E-02  0.1358646E+00
         21   -1    0    0  504  501  0.00000000000E+00  0.00000000000E+00  0.12606456978E+03  0.12606456978E+03  0.00000000000E+00 0.  1.
         21   -1    0    0  503  502 -0.00000000000E+00 -0.00000000000E+00 -0.89967417475E+02  0.89967417475E+02  0.00000000000E+00 0. -1.
         21    1    1    2  503  501  0.25823970297E+02  0.28306413072E+02 -0.82734147869E+02  0.91176036800E+02  0.00000000000E+00 0. -1.
         21    1    1    2  504  502 -0.25823970297E+02 -0.28306413072E+02  0.11883130017E+03  0.12485595045E+03  0.00000000000E+00 0.  1.
</event>
<event>
 4    1  0.3065783E+006  0.2427884E+02  0.7546771E-02  0.1477035E+00
         21   -1    0    0  503  501  0.00000000000E+00  0.00000000000E+00  0.12573068210E+03  0.12573068210E+03  0.00000000000E+00 0.  1.
         21   -1    0    0  504  502 -0.00000000000E+00 -0.00000000000E+00 -0.48088881732E+01  0.48088881732E+01  0.00000000000E+00 0.  1.
         21    1    1    2  503  502  0.57744280970E+01 -0.23582158665E+02  0.50124825163E+02  0.55695245082E+02  0.00000000000E+00 0.  1.
         21    1    1    2  504  501 -0.57744280970E+01  0.23582158665E+02  0.70796968767E+02  0.74844325194E+02  0.00000000000E+00 0.  1.
</event>
<event>
 4    1  0.3065783E+006  0.2050397E+02  0.7546771E-02  0.1526466E+00
         21   -1    0    0  504  501  0.00000000000E+00  0.00000000000E+00  0.16974084673E+02  0.16974084673E+02  0.00000000000E+00 0.  1.
         21   -1    0    0  503  502 -0.00000000000E+00 -0.00000000000E+00 -0.51308285593E+03  0.51308285593E+03  0.00000000000E+00 0.  1.
         21    1    1    2  503  501  0.15459549863E+02  0.13469042207E+02 -0.50660690979E+03  0.50702166998E+03  0.00000000000E+00 0.  1.
         21    1    1    2  504  502 -0.15459549863E+02 -0.13469042207E+02  0.10498138536E+02  0.23035270623E+02  0.00000000000E+00 0.  1.
</event>
<event>
 4    1  0.3065783E+006  0.8644453E+02  0.7546771E-02  0.1189628E+00
         21   -1    0    0  503  501  0.00000000000E+00  0.00000000000E+00  0.43658145903E+03  0.43658145903E+03  0.00000000000E+00 0.  1.
         21   -1    0    0  504  502 -0.00000000000E+00 -0.00000000000E+00 -0.17141796093E+02  0.17141796093E+02  0.00000000000E+00 0.  1.
         21    1    1    2  503  502  0.27781665027E+02 -0.81858631539E+02  0.20096952025E+03  0.21877249493E+03  0.00000000000E+00 0.  1.
         21    1    1    2  504  501 -0.27781665027E+02  0.81858631539E+02  0.21847014269E+03  0.23495076020E+03  0.00000000000E+00 0.  1.
</event>
<event>
 4    1  0.3065783E+006  0.2360086E+02  0.7546771E-02  0.1485088E+00
         21   -1    0    0  503  501  0.00000000000E+00  0.00000000000E+00  0.94205363518E+02  0.94205363518E+02  0.00000000000E+00 0.  1.
         21   -1    0    0  504  502 -0.00000000000E+00 -0.00000000000E+00 -0.16305309233E+03  0.16305309233E+03  0.00000000000E+00 0.  1.
         21    1    1    2  503  502 -0.16043493494E+02 -0.17309158363E+02 -0.16069938516E+03  0.16242319120E+03  0.00000000000E+00 0.  1.
         21    1    1    2  504  501  0.16043493494E+02  0.17309158363E+02  0.91851656352E+02  0.94835264650E+02  0.00000000000E+00 0.  1.
</event>
<event>
 4    1  0.3065783E+006  0.2714774E+02  0.7546771E-02  0.1446130E+00
         21   -1    0    0  502  501  0.00000000000E+00  0.00000000000E+00  0.13428520523E+03  0.13428520523E+03  0.00000000000E+00 0.  1.
         21   -1    0    0  504  502 -0.00000000000E+00 -0.00000000000E+00 -0.43557574648E+02  0.43557574648E+02  0.00000000000E+00 0. -1.
         21    1    1    2  503  501  0.13647526981E+02 -0.23467948744E+02  0.12849454809E+03  0.13133106448E+03  0.00000000000E+00 0.  1.
         21    1    1    2  504  503 -0.13647526981E+02  0.23467948744E+02 -0.37766917505E+02  0.46511715392E+02  0.00000000000E+00 0. -1.
</event>
<event>
 4    1  0.3065783E+006  0.2389089E+02  0.7546771E-02  0.1481604E+00
         21   -1    0    0  502  501  0.00000000000E+00  0.00000000000E+00  0.69894091420E+02  0.69894091420E+02  0.00000000000E+00 0. -1.
         21   -1    0    0  504  502 -0.00000000000E+00 -0.00000000000E+00 -0.30121022912E+02  0.30121022912E+02  0.00000000000E+00 0. -1.
         21    1    1    2  503  501  0.23637879541E+02  0.34677737928E+01  0.62580347695E+02  0.66985630712E+02  0.00000000000E+00 0. -1.
         21    1    1    2  504  503 -0.23637879541E+02 -0.34677737928E+01 -0.22807279187E+02  0.33029483619E+02  0.00000000000E+00 0. -1.
</event>
<event>
 4    1  0.3065783E+006  0.3167196E+02  0.7546771E-02  0.1405603E+00
         21   -1    0    0  503  501  0.00000000000E+00  0.00000000000E+00  0.10409138742E+02  0.10409138742E+02  0.00000000000E+00 0.  1.
         21   -1    0    0  504  502 -0.00000000000E+00 -0.00000000000E+00 -0.30068932308E+03  0.30068932308E+03  0.00000000000E+00 0.  1.
         21    1    1    2  503  502 -0.31555735688E+02 -0.27108211043E+01 -0.16917312512E+02  0.35906941787E+02  0.00000000000E+00 0.  1.
         21    1    1    2  504  501  0.31555735688E+02  0.27108211043E+01 -0.27336287182E+03  0.27519152003E+03  0.00000000000E+00 0.  1.
</event>
<event>
 4    1  0.3065783E+006  0.4113338E+02  0.7546771E-02  0.1341969E+00
         21   -1    0    0  504  501  0.00000000000E+00  0.00000000000E+00  0.51692484069E+03  0.51692484069E+03  0.00000000000E+00 0.  1.
         21   -1    0    0  503  502 -0.00000000000E+00 -0.00000000000E+00 -0.43977889982E+01  0.43977889982E+01  0.00000000000E+00 0.  1.
         21    1    1    2  503  501 -0.20767848143E+02 -0.35505656538E+02  0.38808083698E+03  0.39025464917E+03  0.00000000000E+00 0.  1.
         21    1    1    2  504  502  0.20767848143E+02  0.35505656538E+02  0.12444621471E+03  0.13106798052E+03  0.00000000000E+00 0.  1.
</event>
<event>
 4    1  0.3065783E+006  0.2802409E+02  0.7546771E-02  0.1437584E+00
         21   -1    0    0  504  501  0.00000000000E+00  0.00000000000E+00  0.35830213564E+03  0.35830213564E+03  0.00000000000E+00 0. -1.
         21   -1    0    0  501  502 -0.00000000000E+00 -0.00000000000E+00 -0.22226009198E+01  0.22226009198E+01  0.00000000000E+00 0. -1.
         21    1    1    2  503  502  0.18208715401E+02 -0.21302400178E+02  0.19923821950E+03  0.20119944752E+03  0.00000000000E+00 0. -1.
         21    1    1    2  504  503 -0.18208715401E+02  0.21302400178E+02  0.15684131522E+03  0.15932528905E+03  0.00000000000E+00 0. -1.
</event>
<event>
 4    1  0.3065783E+006  0.6015922E+02  0.7546771E-02  0.1259293E+00
         21   -1    0    0  504  501  0.00000000000E+00  0.00000000000E+00  0.25080103119E+03  0.25080103119E+03  0.00000000000E+00 0. -1.
         21   -1    0    0  503  502 -0.00000000000E+00 -0.00000000000E+00 -0.87739655483E+02  0.87739655483E+02  0.00000000000E+00 0. -1.
         21    1    1    2  503  501 -0.46846672116E+02 -0.37742820539E+02  0.23625645619E+03  0.24379549684E+03  0.00000000000E+00 0. -1.
         21    1    1    2  504  502  0.46846672116E+02  0.37742820539E+02 -0.73195080477E+02  0.94745189834E+02  0.00000000000E+00 0. -1.
</event>
<event>
 4    1  0.3065783E+006  0.2039070E+02  0.7546771E-02  0.1528145E+00
         21   -1    0    0  503  501  0.00000000000E+00  0.00000000000E+00  0.10518204908E+03  0.10518204908E+03  0.00000000000E+00 0.  1.
         21   -1    0    0  501  502 -0.00000000000E+00 -0.00000000000E+00 -0.55878454591E+02  0.55878454591E+02  0.00000000000E+00 0. -1.
         21    1    1    2  503  504  0.22007492325E+01 -0.20271587246E+02  0.10228136722E+03  0.10429409679E+03  0.00000000000E+00 0.  1.
         21    1    1    2  504  502 -0.22007492325E+01  0.20271587246E+02 -0.52977772726E+02  0.56766406877E+02  0.00000000000E+00 0. -1.
</event>
<event>
 4    1  0.3065783E+006  0.6217937E+02  0.7546771E-02  0.1252602E+00
         21   -1    0    0  503  501  0.00000000000E+00  0.00000000000E+00  0.18121556697E+04  0.18121556697E+04  0.00000000000E+00 0. -1.
         21   -1    0    0  504  502 -0.00000000000E+00 -0.00000000000E+00 -0.26188044278E+02  0.26188044278E+02  0.00000000000E+00 0.  1.
         21    1    1    2  503  502  0.42961776064E+02 -0.44950639611E+02  0.12049446685E+02  0.63336114259E+02  0.00000000000E+00 0.  1.
         21    1    1    2  504  501 -0.42961776064E+02  0.44950639611E+02  0.17739181787E+04  0.17750075997E+04  0.00000000000E+00 0. -1.
</event>
<event>
 4    1  0.3065783E+006  0.2263093E+02  0.7546771E-02  0.1497185E+00
         21   -1    0    0  504  501  0.00000000000E+00  0.00000000000E+00  0.15467397694E+02  0.15467397694E+02  0.00000000000E+00 0.  1.
         21   -1    0    0  503  502 -0.00000000000E+00 -0.00000000000E+00 -0.10872918116E+04  0.10872918116E+04  0.00000000000E+00 0.  1.
         21    1    1    2  503  501  0.16219435605E+01  0.22572729417E+02 -0.10788311003E+04  0.10790684417E+04  0.00000000000E+00 0.  1.
         21    1    1    2  504  502 -0.16219435605E+01 -0.22572729417E+02  0.70066864363E+01  0.23690767591E+02  0.00000000000E+00 0.  1.
</event>
<event>
 4    1  0.3065783E+006  0.2619095E+02  0.7546771E-02  0.1455909E+00
         21   -1    0    0  504  501  0.00000000000E+00  0.00000000000E+00  0.35429425964E+02  0.35429425964E+02  0.00000000000E+00 0.  1.
         21   -1    0    0  503  502 -0.00000000000E+00 -0.00000000000E+00 -0.19448282951E+02  0.19448282951E+02  0.00000000000E+00 0.  1.
         21    1    1    2  503  501  0.26064791869E+02 -0.25676345805E+01  0.61574444443E+01  0.26905022664E+02  0.00000000000E+00 0.  1.
         21    1    1    2  504  502 -0.26064791869E+02  0.25676345805E+01  0.98236985685E+01  0.27972686250E+02  0.00000000000E+00 0.  1.
</event>
<event>
 4    1  0.3065783E+006  0.2655949E+02  0.7546771E-02  0.1452084E+00
         21   -1    0    0  503  501  0.00000000000E+00  0.00000000000E+00  0.31710134759E+03  0.31710134759E+03  0.00000000000E+00 0.  1.
         21   -1    0    0  501  502 -0.00000000000E+00 -0.00000000000E+00 -0.41251627209E+01  0.41251627209E+01  0.00000000000E+00 0.  1.
         21    1    1    2  503  504 -0.12140995394E+02  0.23622080800E+02  0.26550858446E+03  0.26683368396E+03  0.00000000000E+00 0.  1.
         21    1    1    2  504  502  0.12140995394E+02 -0.23622080800E+02  0.47467600409E+02  0.54392826357E+02  0.00000000000E+00 0.  1.
</event>
<event>
 4    1  0.3065783E+006  0.2286954E+02  0.7546771E-02  0.1494143E+00
         21   -1    0    0  502  501  0.00000000000E+00  0.00000000000E+00  0.54404036620E+03  0.54404036620E+03  0.00000000000E+00 0.  1.
         21   -1    0    0  504  502 -0.00000000000E+00 -0.00000000000E+00 -0.10891419087E+03  0.10891419087E+03  0.00000000000E+00 0. -1.
         21    1    1    2  503  501 -0.63943343912E+01  0.21957423900E+02  0.54259631076E+03  0.54307805372E+03  0.00000000000E+00 0.  1.
         21    1    1    2  504  503  0.63943343912E+01 -0.21957423900E+02 -0.10747013543E+03  0.10987650334E+03  0.00000000000E+00 0. -1.
</event>
<event>
 4    1  0.3065783E+006  0.2223705E+02  0.7546771E-02  0.1502307E+00
         21   -1    0    0  503  501  0.00000000000E+00  0.00000000000E+00  0.57088218570E+01  0.57088218570E+01  0.00000000000E+00 0.  1.
         21   -1    0    0  501  502 -0.00000000000E+00 -0.00000000000E+00 -0.29959311090E+03  0.29959311090E+03  0.00000000000E+00 0. -1.
         21    1    1    2  503  504  0.63542379645E+01 -0.21309854633E+02 -0.18236332129E+02  0.28758477952E+02  0.00000000000E+00 0.  1.
         21    1    1    2  504  502 -0.63542379645E+01  0.21309854633E+02 -0.27564795692E+03  0.27654345481E+03  0.00000000000E+00 0. -1.
</event>
<event>
 4    1  0.3065783E+006  0.2433052E+02  0.7546771E-02  0.1476434E+00
         21   -1    0    0  504  501  0.00000000000E+00  0.00000000000E+00  0.13999357250E+04  0.13999357250E+04  0.00000000000E+00 0. -1.
         21   -1    0    0  503  502 -0.00000000000E+00 -0.00000000000E+00 -0.12781477195E+01  0.12781477195E+01  0.00000000000E+00 0. -1.
         21    1    1    2  503  501 -0.15344459295E+02 -0.18881787034E+02  0.12621549664E+03  0.12853919988E+03  0.00000000000E+00 0. -1.
         21    1    1    2  504  502  0.15344459295E+02  0.18881787034E+02  0.12724420807E+04  0.12726746729E+04  0.00000000000E+00 0. -1.
</event>
<event>
 4    1  0.3065783E+006  0.2933344E+02  0.7546771E-02  0.1425479E+00
         21   -1    0    0  504  501  0.00000000000E+00  0.00000000000E+00  0.55458772368E+02  0.55458772368E+02  0.00000000000E+00 0. -1.
         21   -1    0    0  503  502 -0.00000000000E+00 -0.00000000000E+00 -0.23429606061E+02  0.23429606061E+02  0.00000000000E+00 0.  1.
         21    1    1    2  503  501  0.49697619692E+01 -0.28909377923E+02  0.38939687800E+02  0.48751922545E+02  0.00000000000E+00 0. -1.
         21    1    1    2  504  502 -0.49697619692E+01  0.28909377923E+02 -0.69105214927E+01  0.30136455883E+02  0.00000000000E+00 0.  1.
</event>
<event>
 4    1  0.3065783E+006  0.4565716E+02  0.7546771E-02  0.1318186E+00
         21   -1    0    0  504  501  0.00000000000E+00  0.00000000000E+00  0.65166848526E+03  0.65166848526E+03  0.00000000000E+00 0. -1.
         21   -1    0    0  501  502 -0.00000000000E+00 -0.00000000000E+00 -0.99470519460E+01  0.99470519460E+01  0.00000000000E+00 0. -1.
         21    1    1    2  503  502 -0.30746220908E+02 -0.33752714764E+02  0.48387870883E+02  0.66527903188E+02  0.00000000000E+00 0. -1.
         21    1    1    2  504  503  0.30746220908E+02  0.33752714764E+02  0.59333356243E+03  0.59508763402E+03  0.00000000000E+00 0. -1.
</event>
<event>
 4    1  0.3065783E+006  0.2203507E+02  0.7546771E-02  0.1504984E+00
         21   -1    0    0  503  501  0.00000000000E+00  0.00000000000E+00  0.10527049231E+02  0.10527049231E+02  0.00000000000E+00 0. -1.
         21   -1    0    0  504  502 -0.00000000000E+00 -0.00000000000E+00 -0.46698213739E+02  0.46698213739E+02  0.00000000000E+00 0. -1.
         21    1    1    2  503  502 -0.20692478395E+02  0.75740122822E+01 -0.14911380183E+02  0.26606269621E+02  0.00000000000E+00 0. -1.
         21    1    1    2  504  501  0.20692478395E+02 -0.75740122822E+01 -0.21259784325E+02  0.30618993349E+02  0.00000000000E+00 0. -1.
</event>
<event>
 4    1  0.3065783E+006  0.2091956E+02  0.7546771E-02  0.1520416E+00
         21   -1    0    0  504  501  0.00000000000E+00  0.00000000000E+00  0.44289268567E+01  0.44289268567E+01  0.00000000000E+00 0. -1.
         21   -1    0    0  503  502 -0.00000000000E+00 -0.00000000000E+00 -0.10200696558E+03  0.10200696558E+03  0.00000000000E+00 0. -1.
         21    1    1    2  503  501 -0.19704677456E+02  0.70252049712E+01 -0.39369538789E+02  0.44582377718E+02  0.00000000000E+00 0. -1.
         21    1    1    2  504  502  0.19704677456E+02 -0.70252049712E+01 -0.58208499939E+02  0.61853514723E+02  0.00000000000E+00 0. -1.
</event>
<event>
 4    1  0.3065783E+006  0.3097494E+02  0.7546771E-02  0.1411309E+00
         21   -1    0    0  503  501  0.00000000000E+00  0.00000000000E+00  0.32794096623E+02  0.32794096623E+02  0.00000000000E+00 0.  1.
         21   -1    0    0  504  502 -0.00000000000E+00 -0.00000000000E+00 -0.72610789794E+03  0.72610789794E+03  0.00000000000E+00 0. -1.
         21    1    1    2  503  502 -0.37091091908E+00  0.30972720050E+02  0.25070987616E+02  0.39849735034E+02  0.00000000000E+00 0.  1.
         21    1    1    2  504  501  0.37091091908E+00 -0.30972720050E+02 -0.71838478893E+03  0.71905225953E+03  0.00000000000E+00 0. -1.
</event>
<event>
 4    1  0.3065783E+006  0.2197330E+02  0.7546771E-02  0.1505809E+00
         21   -1    0    0  504  501  0.00000000000E+00  0.00000000000E+00  0.33914995315E+03  0.33914995315E+03  0.00000000000E+00 0. -1.
         21   -1    0    0  503  502 -0.00000000000E+00 -0.00000000000E+00 -0.14870524906E+01  0.14870524906E+01  0.00000000000E+00 0. -1.
         21    1    1    2  503  501 -0.19355935762E+02 -0.10400657519E+02  0.20400379867E+03  0.20518376105E+03  0.00000000000E+00 0. -1.
         21    1    1    2  504  502  0.19355935762E+02  0.10400657519E+02  0.13365910200E+03  0.13545324460E+03  0.00000000000E+00 0. -1.
</event>
<event>
 4    1  0.3065783E+006  0.2111264E+02  0.7546771E-02  0.1517663E+00
         21   -1    0    0  504  501  0.00000000000E+00  0.00000000000E+00  0.15550387331E+04  0.15550387331E+04  0.00000000000E+00 0.  1.
         21   -1    0    0  501  502 -0.00000000000E+00 -0.00000000000E+00 -0.60555232016E+00  0.60555232016E+00  0.00000000000E+00 0.  1.
         21    1    1    2  503  502  0.10734226701E+02  0.18180210793E+02  0.21275176895E+03  0.21379677003E+03  0.00000000000E+00 0.  1.
         21    1    1    2  504  503 -0.10734226701E+02 -0.18180210793E+02  0.13416814119E+04  0.13418475154E+04  0.00000000000E+00 0.  1.
</event>
<event>
 4    1  0.3065783E+006  0.2830950E+02  0.7546771E-02  0.1434879E+00
         21   -1    0    0  503  501  0.00000000000E+00  0.00000000000E+00  0.43125576506E+02  0.43125576506E+02  0.00000000000E+00 0. -1.
         21   -1    0    0  501  502 -0.00000000000E+00 -0.00000000000E+00 -0.29704991688E+02  0.29704991688E+02  0.00000000000E+00 0.  1.
         21    1    1    2  503  504  0.16714340106E+01 -0.28260119773E+02  0.28992013585E+02  0.40521166233E+02  0.00000000000E+00 0. -1.
         21    1    1    2  504  502 -0.16714340106E+01  0.28260119773E+02 -0.15571428766E+02  0.32309401961E+02  0.00000000000E+00 0.  1.
</event>
<event>
 4    1  0.3065783E+006  0.2001742E+02  0.7546771E-02  0.1533770E+00
         21   -1    0    0  502  501  0.00000000000E+00  0.00000000000E+00  0.38143414799E+03  0.38143414799E+03  0.00000000000E+00 0.  1.
         21   -1    0    0  503  502 -0.00000000000E+00 -0.00000000000E+00 -0.50292821709E+01  0.50292821709E+01  0.00000000000E+00 0. -1.
         21    1    1    2  503  504 -0.10750998384E+02  0.16885289672E+02  0.16332292621E+02  0.25834874798E+02  0.00000000000E+00 0. -1.
         21    1    1    2  504  501  0.10750998384E+02 -0.16885289672E+02  0.36007257320E+03  0.36062855536E+03  0.00000000000E+00 0.  1.
</event>
<event>
 4    1  0.3065783E+006  0.2123549E+02  0.7546771E-02  0.1515929E+00
         21   -1    0    0  503  501  0.00000000000E+00  0.00000000000E+00  0.10066205499E+02  0.10066205499E+02  0.00000000000E+00 0.  1.
         21   -1    0    0  504  502 -0.00000000000E+00 -0.00000000000E+00 -0.15874513804E+03  0.15874513804E+03  0.00000000000E+00 0.  1.
         21    1    1    2  503  502 -0.21142100641E+02  0.19893842753E+01 -0.14585050528E+03  0.14738831690E+03  0.00000000000E+00 0.  1.
         21    1    1    2  504  501  0.21142100641E+02 -0.19893842753E+01 -0.28284272574E+01  0.21423026632E+02  0.00000000000E+00 0.  1.
</event>
<event>
 4    1  0.3065783E+006  0.3023964E+02  0.7546771E-02  0.1417525E+00
         21   -1    0    0  503  501  0.00000000000E+00  0.00000000000E+00  0.38807713944E+02  0.38807713944E+02  0.00000000000E+00 0.  1.
         21   -1    0    0  504  502 -0.00000000000E+00 -0.00000000000E+00 -0.31584067286E+02  0.31584067286E+02  0.00000000000E+00 0. -1.
         21    1    1    2  503  502 -0.28945090293E+02 -0.87531606817E+01  0.21348289603E+02  0.37016017384E+02  0.00000000000E+00 0. -1.
         21    1    1    2  504  501  0.28945090293E+02  0.87531606817E+01 -0.14124642945E+02  0.33375763846E+02  0.00000000000E+00 0.  1.
</event>
<event>
 4    1  0.3065783E+006  0.2680782E+02  0.7546771E-02  0.1449548E+00
         21   -1    0    0  503  501  0.00000000000E+00  0.00000000000E+00  0.15114248793E+03  0.15114248793E+03  0.00000000000E+00 0. -1.
         21   -1    0    0  501  502 -0.00000000000E+00 -0.00000000000E+00 -0.34826763473E+02  0.34826763473E+02  0.00000000000E+00 0. -1.
         21    1    1    2  503  504  0.26650641012E+02 -0.28987209601E+01  0.14456212115E+03  0.14702675308E+03  0.00000000000E+00 0. -1.
         21    1    1    2  504  502 -0.26650641012E+02  0.28987209601E+01 -0.28246396694E+02  0.38942498324E+02  0.00000000000E+00 0. -1.
</event>
<event>
 4    1  0.3065783E+006  0.2964778E+02  0.7546771E-02  0.1422682E+00
         21   -1    0    0  503  501  0.00000000000E+00  0.00000000000E+00  0.14442526790E+03  0.14442526790E+03  0.00000000000E+00 0. -1.
         21   -1    0    0  504  502 -0.00000000000E+00 -0.00000000000E+00 -0.60904354322E+01  0.60904354322E+01  0.00000000000E+00 0. -1.
         21    1    1    2  503  502 -0.13223126318E+02  0.26535636678E+02  0.71168159597E+02  0.77096679720E+02  0.00000000000E+00 0. -1.
         21    1    1    2  504  501  0.13223126318E+02 -0.26535636678E+02  0.67166672872E+02  0.73419023613E+02  0.00000000000E+00 0. -1.
</event>
<event>
 4    1  0.3065783E+006  0.2084168E+02  0.7546771E-02  0.1521537E+00
         21   -1    0    0  504  501  0.00000000000E+00  0.00000000000E+00  0.67795869166E+01  0.67795869166E+01  0.00000000000E+00 0. -1.
         21   -1    0    0  503  502 -0.00000000000E+00 -0.00000000000E+00 -0.96314923231E+03  0.96314923231E+03  0.00000000000E+00 0. -1.
         21    1    1    2  503  501 -0.13795580230E+02  0.15622336817E+02 -0.94674114173E+03  0.94697051954E+03  0.00000000000E+00 0. -1.
         21    1    1    2  504  502  0.13795580230E+02 -0.15622336817E+02 -0.96285036632E+01  0.22958299682E+02  0.00000000000E+00 0. -1.
</event>
<event>
 4    1  0.3065783E+006  0.2006665E+02  0.7546771E-02  0.1533019E+00
         21   -1    0    0  504  501  0.00000000000E+00  0.00000000000E+00  0.19983998725E+03  0.19983998725E+03  0.00000000000E+00 0.  1.
         21   -1    0    0  503  502 -0.00000000000E+00 -0.00000000000E+00 -0.68839885585E+01  0.68839885585E+01  0.00000000000E+00 0.  1.
         21    1    1    2  503  501  0.27612297898E+01  0.19875770290E+02  0.95495947429E+01  0.22223082467E+02  0.00000000000E+00 0.  1.
         21    1    1    2  504  502 -0.27612297898E+01 -0.19875770290E+02  0.18340640395E+03  0.18450089334E+03  0.00000000000E+00 0.  1.
</event>
<event>
 4    1  0.3065783E+006  0.3087629E+02  0.7546771E-02  0.1412131E+00
         21   -1    0    0  503  501  0.00000000000E+00  0.00000000000E+00  0.15443269354E+03  0.15443269354E+03  0.00000000000E+00 0. -1.
         21   -1    0    0  504  502 -0.00000000000E+00 -0.00000000000E+00 -0.37601324169E+02  0.37601324169E+02  0.00000000000E+00 0.  1.
         21    1    1    2  503  502 -0.30873994389E+02 -0.37625764303E+00 -0.29366377599E+02  0.42611374451E+02  0.00000000000E+00 0.  1.
         21    1    1    2  504  501  0.30873994389E+02  0.37625764303E+00  0.14619774697E+03  0.14942264326E+03  0.00000000000E+00 0. -1.
</event>
<event>
 4    1  0.3065783E+006  0.2113299E+02  0.7546771E-02  0.1517374E+00
         21   -1    0    0  504  501  0.00000000000E+00  0.00000000000E+00  0.30526361855E+01  0.30526361855E+01  0.00000000000E+00 0. -1.
         21   -1    0    0  501  502 -0.00000000000E+00 -0.00000000000E+00 -0.18031245809E+03  0.18031245809E+03  0.00000000000E+00 0. -1.
         21    1    1    2  503  502  0.75174760796E+01 -0.19750717918E+02 -0.12844863239E+03  0.13017547567E+03  0.00000000000E+00 0. -1.
         21    1    1    2  504  503 -0.75174760796E+01  0.19750717918E+02 -0.48811189522E+02  0.53189618606E+02  0.00000000000E+00 0. -1.
</event>
<event>
 4    1  0.3065783E+006  0.2112560E+02  0.7546771E-02  0.1517479E+00
         21   -1    0    0  503  501  0.00000000000E+00  0.00000000000E+00  0.63849848139E+02  0.63849848139E+02  0.00000000000E+00 0.  1.
         21   -1    0    0  504  502 -0.00000000000E+00 -0.00000000000E+00 -0.13173193857E+02  0.13173193857E+02  0.00000000000E+00 0.  1.
         21    1    1    2  503  502  0.20452463254E+02  0.52903269015E+01  0.51723646557E+02  0.55871517118E+02  0.00000000000E+00 0.  1.
         21    1    1    2  504  501 -0.20452463254E+02 -0.52903269015E+01 -0.10469922755E+01  0.21151524879E+02  0.00000000000E+00 0.  1.
</event>
<event>
 4    1  0.3065783E+006  0.2194671E+02  0.7546771E-02  0.1506166E+00
         21   -1    0    0  504  501  0.00000000000E+00  0.00000000000E+00  0.19650571455E+02  0.19650571455E+02  0.00000000000E+00 0. -1.
         21   -1    0    0  503  502 -0.00000000000E+00 -0.00000000000E+00 -0.14644843009E+03  0.14644843009E+03  0.00000000000E+00 0. -1.
         21    1    1    2  503  501  0.14227130743E+02  0.16710677641E+02  0.12382523594E+02  0.25198906464E+02  0.00000000000E+00 0. -1.
         21    1    1    2  504  502 -0.14227130743E+02 -0.16710677641E+02 -0.13918038223E+03  0.14090009508E+03  0.00000000000E+00 0. -1.
</event>
<event>
 4    1  0.3065783E+006  0.2651092E+02  0.7546771E-02  0.1452584E+00
         21   -1    0    0  503  501  0.00000000000E+00  0.00000000000E+00  0.63598216681E+02  0.63598216681E+02  0.00000000000E+00 0.  1.
         21   -1    0    0  504  502 -0.00000000000E+00 -0.00000000000E+00 -0.73939127716E+03  0.73939127716E+03  0.00000000000E+00 0. -1.
         21    1    1    2  503  502 -0.91064704142E+01 -0.24897812959E+02  0.60586513615E+02  0.66132855114E+02  0.00000000000E+00 0.  1.
         21    1    1    2  504  501  0.91064704142E+01  0.24897812959E+02 -0.73637957410E+03  0.73685663873E+03  0.00000000000E+00 0. -1.
</event>
<event>
 4    1  0.3065783E+006  0.2435484E+02  0.7546771E-02  0.1476152E+00
         21   -1    0    0  504  501  0.00000000000E+00  0.00000000000E+00  0.11353127554E+01  0.11353127554E+01  0.00000000000E+00 0.  1.
         21   -1    0    0  503  502 -0.00000000000E+00 -0.00000000000E+00 -0.52868823397E+03  0.52868823397E+03  0.00000000000E+00 0. -1.
         21    1    1    2  503  501 -0.13544027800E+02 -0.20241477707E+02 -0.23502871239E+03  0.23628722724E+03  0.00000000000E+00 0.  1.
         21    1    1    2  504  502  0.13544027800E+02  0.20241477707E+02 -0.29252420882E+03  0.29353631948E+03  0.00000000000E+00 0. -1.
</event>
<event>
 4    1  0.3065783E+006  0.2828420E+02  0.7546771E-02  0.1435118E+00
         21   -1    0    0  504  501  0.00000000000E+00  0.00000000000E+00  0.26210124459E+02  0.26210124459E+02  0.00000000000E+00 0. -1.
         21   -1    0    0  503  502 -0.00000000000E+00 -0.00000000000E+00 -0.42987008500E+02  0.42987008500E+02  0.00000000000E+00 0. -1.
         21    1    1    2  503  501 -0.17493393365E+02  0.22225591482E+02  0.10242247597E+02  0.30081545239E+02  0.00000000000E+00 0. -1.
         21    1    1    2  504  502  0.17493393365E+02 -0.22225591482E+02 -0.27019131639E+02  0.39115587720E+02  0.00000000000E+00 0. -1.
</event>
<event>
 4    1  0.3065783E+006  0.2171324E+02  0.7546771E-02  0.1509321E+00
         21   -1    0    0  503  501  0.00000000000E+00  0.00000000000E+00  0.83806912622E+02  0.83806912622E+02  0.00000000000E+00 0.  1.
         21   -1    0    0  504  502 -0.00000000000E+00 -0.00000000000E+00 -0.10144534878E+02  0.10144534878E+02  0.00000000000E+00 0.  1.
         21    1    1    2  503  502  0.11304412840E+02 -0.18538475727E+02  0.54784799393E+01  0.22393717297E+02  0.00000000000E+00 0.  1.
         21    1    1    2  504  501 -0.11304412840E+02  0.18538475727E+02  0.68183897805E+02  0.71557730203E+02  0.00000000000E+00 0.  1.
</event>
<event>
 4    1  0.3065783E+006  0.2489570E+02  0.7546771E-02  0.1469974E+00
         21   -1    0    0  504  501  0.00000000000E+00  0.00000000000E+00  0.72668163661E+02  0.72668163661E+02  0.00000000000E+00 0.  1.
         21   -1    0    0  501  502 -0.00000000000E+00 -0.00000000000E+00 -0.22762735969E+02  0.22762735969E+02  0.00000000000E+00 0. -1.
         21    1    1    2  503  502  0.24268300335E+02 -0.55538686933E+01 -0.12778809208E+02  0.27983813596E+02  0.00000000000E+00 0. -1.
         21    1    1    2  504  503 -0.24268300335E+02  0.55538686933E+01  0.62684236900E+02  0.67447086033E+02  0.00000000000E+00 0.  1.
</event>
<event>
 4    1  0.3065783E+006  0.3169388E+02  0.7546771E-02  0.1405426E+00
         21   -1    0    0  503  501  0.00000000000E+00  0.00000000000E+00  0.28715708708E+02  0.28715708708E+02  0.00000000000E+00 0. -1.
         21   -1    0    0  504  502 -0.00000000000E+00 -0.00000000000E+00 -0.61459600953E+02  0.61459600953E+02  0.00000000000E+00 0. -1.
         21    1    1    2  503  502  0.14352022533E+02  0.28258124788E+02 -0.45966437351E+02  0.55833820666E+02  0.00000000000E+00 0. -1.
         21    1    1    2  504  501 -0.14352022533E+02 -0.28258124788E+02  0.13222545107E+02  0.34341488996E+02  0.00000000000E+00 0. -1.
</event>
<event>
 4    1  0.3065783E+006  0.3353017E+02  0.7546771E-02  0.1391202E+00
         21   -1    0    0  503  501  0.00000000000E+00  0.00000000000E+00  0.12024712751E+02  0.12024712751E+02  0.00000000000E+00 0. -1.
         21   -1    0    0  504  502 -0.00000000000E+00 -0.00000000000E+00 -0.93503429974E+02  0.93503429974E+02  0.00000000000E+00 0. -1.
         21    1    1    2  503  502 -0.16999779335E+02 -0.28901205299E+02 -0.40295060185E+02  0.52421026702E+02  0.00000000000E+00 0. -1.
         21    1    1    2  504  501  0.16999779335E+02  0.28901205299E+02 -0.41183657038E+02  0.53107116022E+02  0.00000000000E+00 0. -1.
</event>
<event>
 4    1  0.3065783E+006  0.2563318E+02  0.7546771E-02  0.1461843E+00
         21   -1    0    0  504  501  0.00000000000E+00  0.00000000000E+00  0.31222188736E+03  0.31222188736E+03  0.00000000000E+00 0. -1.
         21   -1    0    0  503  502 -0.00000000000E+00 -0.00000000000E+00 -0.13728689230E+02  0.13728689230E+02  0.00000000000E+00 0.  1.
         21    1    1    2  503  501  0.10263259707E+01  0.25612626360E+02  0.29921135805E+03  0.30030733717E+03  0.00000000000E+00 0. -1.
         21    1    1    2  504  502 -0.10263259707E+01 -0.25612626360E+02 -0.71815992059E+00  0.25643239416E+02  0.00000000000E+00 0.  1.
</event>
<event>
 4    1  0.3065783E+006  0.2148142E+02  0.7546771E-02  0.1512501E+00
         21   -1    0    0  503  501  0.00000000000E+00  0.00000000000E+00  0.23173383367E+03  0.23173383367E+03  0.00000000000E+00 0. -1.
         21   -1    0    0  501  502 -0.00000000000E+00 -0.00000000000E+00 -0.27161942932E+01  0.27161942932E+01  0.00000000000E+00 0.  1.
         21    1    1    2  503  504  0.18687631235E+02 -0.10593585304E+02  0.17506760862E+03  0.17638060891E+03  0.00000000000E+00 0. -1.
         21    1    1    2  504  502 -0.18687631235E+02  0.10593585304E+02  0.53950030757E+02  0.58069419055E+02  0.00000000000E+00 0.  1.
</event>
<event>
 4    1  0.3065783E+006  0.2639989E+02  0.7546771E-02  0.1453731E+00
         21   -1    0    0  503  501  0.00000000000E+00  0.00000000000E+00  0.50218343932E+02  0.50218343932E+02  0.00000000000E+00 0.  1.
         21   -1    0    0  504  502 -0.00000000000E+00 -0.00000000000E+00 -0.76040081039E+02  0.76040081039E+02  0.00000000000E+00 0.  1.
         21    1    1    2  503  502 -0.20247551633E+02 -0.16940806788E+02  0.44167320029E+02  0.51455868862E+02  0.00000000000E+00 0.  1.
         21    1    1    2  504  501  0.20247551633E+02  0.16940806788E+02 -0.69989057136E+02  0.74802556109E+02  0.00000000000E+00 0.  1.
</event>
<event>
 4    1  0.3065783E+006  0.2355222E+02  0.7546771E-02  0.1485678E+00
         21   -1    0    0  502  501  0.00000000000E+00  0.00000000000E+00  0.74491045776E+01  0.74491045776E+01  0.00000000000E+00 0. -1.
         21   -1    0    0  504  502 -0.00000000000E+00 -0.00000000000E+00 -0.87616825585E+02  0.87616825585E+02  0.00000000000E+00 0. -1.
         21    1    1    2  503  501 -0.68771481027E+01  0.22525805057E+02 -0.21668800413E+02  0.32003811817E+02  0.00000000000E+00 0. -1.
         21    1    1    2  504  503  0.68771481027E+01 -0.22525805057E+02 -0.58498920594E+02  0.63062118345E+02  0.00000000000E+00 0. -1.
</event>
<event>
 4    1  0.3065783E+006  0.2320152E+02  0.7546771E-02  0.1489983E+00
         21   -1    0    0  503  501  0.00000000000E+00  0.00000000000E+00  0.72724247544E+02  0.72724247544E+02  0.00000000000E+00 0.  1.
         21   -1    0    0  504  502 -0.00000000000E+00 -0.00000000000E+00 -0.32930961478E+02  0.32930961478E+02  0.00000000000E+00 0.  1.
         21    1    1    2  503  502  0.22239024901E+02  0.66133465582E+01  0.66409671742E+02  0.70345967063E+02  0.00000000000E+00 0.  1.
         21    1    1    2  504  501 -0.22239024901E+02 -0.66133465582E+01 -0.26616385676E+02  0.35309241959E+02  0.00000000000E+00 0.  1.
</event>
<event>
 4    1  0.3065783E+006  0.2171900E+02  0.7546771E-02  0.1509242E+00
         21   -1    0    0  503  501  0.00000000000E+00  0.00000000000E+00  0.47112714110E+01  0.47112714110E+01  0.00000000000E+00 0.  1.
         21   -1    0    0  504  502 -0.00000000000E+00 -0.00000000000E+00 -0.10294533270E+03  0.10294533270E+03  0.00000000000E+00 0.  1.
         21    1    1    2  503  502 -0.13299524555E+02  0.17170839867E+02 -0.40207124569E+02  0.45698227113E+02  0.00000000000E+00 0.  1.
         21    1    1    2  504  501  0.13299524555E+02 -0.17170839867E+02 -0.58026936715E+02  0.61958376994E+02  0.00000000000E+00 0.  1.
</event>
<event>
 4    1  0.3065783E+006  0.2056180E+02  0.7546771E-02  0.1525614E+00
         21   -1    0    0  504  501  0.00000000000E+00  0.00000000000E+00  0.36377749342E+02  0.36377749342E+02  0.00000000000E+00 0. -1.
         21   -1    0    0  503  502 -0.00000000000E+00 -0.00000000000E+00 -0.19890007907E+02  0.19890007907E+02  0.00000000000E+00 0.  1.
         21    1    1    2  503  501  0.11772714496E+01 -0.20528065508E+02 -0.98949392551E+01  0.22818791914E+02  0.00000000000E+00 0.  1.
         21    1    1    2  504  502 -0.11772714496E+01  0.20528065508E+02  0.26382680690E+02  0.33448965334E+02  0.00000000000E+00 0. -1.
</event>
<event>
 4    1  0.3065783E+006  0.3612152E+02  0.7546771E-02  0.1372845E+00
         21   -1    0    0  504  501  0.00000000000E+00  0.00000000000E+00  0.15638962047E+02  0.15638962047E+02  0.00000000000E+00 0.  1.
         21   -1    0    0  503  502 -0.00000000000E+00 -0.00000000000E+00 -0.92222696765E+02  0.92222696765E+02  0.00000000000E+00 0.  1.
         21    1    1    2  503  501 -0.50255700147E+01  0.35770212756E+02 -0.21639730673E+02  0.42107510235E+02  0.00000000000E+00 0.  1.
         21    1    1    2  504  502  0.50255700147E+01 -0.35770212756E+02 -0.54944004044E+02  0.65754148576E+02  0.00000000000E+00 0.  1.
</event>
<event>
 4    1  0.3065783E+006  0.2852952E+02  0.7546771E-02  0.1432821E+00
         21   -1    0    0  503  501  0.00000000000E+00  0.00000000000E+00  0.25362210495E+02  0.25362210495E+02  0.00000000000E+00 0. -1.
         21   -1    0    0  504  502 -0.00000000000E+00 -0.00000000000E+00 -0.32433859544E+03  0.32433859544E+03  0.00000000000E+00 0. -1.
         21    1    1    2  503  502  0.28453491779E+02 -0.20814097007E+01 -0.31546284822E+03  0.31675028345E+03  0.00000000000E+00 0. -1.
         21    1    1    2  504  501 -0.28453491779E+02  0.20814097007E+01  0.16486463272E+02  0.32950522484E+02  0.00000000000E+00 0. -1.
</event>
<event>
 4    1  0.3065783E+006  0.2235452E+02  0.7546771E-02  0.1500766E+00
         21   -1    0    0  503  501  0.00000000000E+00  0.00000000000E+00  0.14333071177E+02  0.14333071177E+02  0.00000000000E+00 0.  1.
         21   -1    0    0  504  502 -0.00000000000E+00 -0.00000000000E+00 -0.77594041691E+03  0.77594041691E+03  0.00000000000E+00 0. -1.
         21    1    1    2  503  502  0.18940333507E+02 -0.11873853184E+02 -0.76696109859E+03  0.76728681168E+03  0.00000000000E+00 0. -1.
         21    1    1    2  504  501 -0.18940333507E+02  0.11873853184E+02  0.53537528561E+01  0.22986676411E+02  0.00000000000E+00 0.  1.
</event>
<event>
 4    1  0.3065783E+006  0.4049732E+02  0.7546771E-02  0.1345596E+00
         21   -1    0    0  502  501  0.00000000000E+00  0.00000000000E+00  0.86792335988E+02  0.86792335988E+02  0.00000000000E+00 0. -1.
         21   -1    0    0  503  502 -0.00000000000E+00 -0.00000000000E+00 -0.15238843773E+03  0.15238843773E+03  0.00000000000E+00 0.  1.
         21    1    1    2  503  504  0.11998307989E+02  0.38679108986E+02 -0.14472856607E+03  0.15028769312E+03  0.00000000000E+00 0.  1.
         21    1    1    2  504  501 -0.11998307989E+02 -0.38679108986E+02  0.79132464331E+02  0.88893080595E+02  0.00000000000E+00 0. -1.
</event>
<event>
 4    1  0.3065783E+006  0.3508006E+02  0.7546771E-02  0.1380001E+00
         21   -1    0    0  502  501  0.00000000000E+00  0.00000000000E+00  0.20210736898E+01  0.20210736898E+01  0.00000000000E+00 0.  1.
         21   -1    0    0  503  502 -0.00000000000E+00 -0.00000000000E+00 -0.65948132907E+03  0.65948132907E+03  0.00000000000E+00 0.  1.
         21    1    1    2  503  504  0.32841865594E+02 -0.12329746599E+02 -0.42033949047E+03  0.42180078003E+03  0.00000000000E+00 0.  1.
         21    1    1    2  504  501 -0.32841865594E+02  0.12329746599E+02 -0.23712076491E+03  0.23970162273E+03  0.00000000000E+00 0.  1.
</event>
<event>
 4    1  0.3065783E+006  0.2625680E+02  0.7546771E-02  0.1455220E+00
         21   -1    0    0  503  501  0.00000000000E+00  0.00000000000E+00  0.10897946402E+03  0.10897946402E+03  0.00000000000E+00 0. -1.
         21   -1    0    0  504  502 -0.00000000000E+00 -0.00000000000E+00 -0.55813378032E+02  0.55813378032E+02  0.00000000000E+00 0.  1.
         21    1    1    2  503  502 -0.25231197557E+02  0.72667806410E+01  0.10416947822E+03  0.10742764832E+03  0.00000000000E+00 0. -1.
         21    1    1    2  504  501  0.25231197557E+02 -0.72667806410E+01 -0.51003392240E+02  0.57365193724E+02  0.00000000000E+00 0.  1.
</event>
<event>
 4    1  0.3065783E+006  0.2325461E+02  0.7546771E-02  0.1489325E+00
         21   -1    0    0  503  501  0.00000000000E+00  0.00000000000E+00  0.14169445961E+02  0.14169445961E+02  0.00000000000E+00 0.  1.
         21   -1    0    0  504  502 -0.00000000000E+00 -0.00000000000E+00 -0.25242134485E+03  0.25242134485E+03  0.00000000000E+00 0. -1.
         21    1    1    2  503  502  0.11160248330E+02  0.20401612909E+02  0.36798712124E+01  0.23543967470E+02  0.00000000000E+00 0.  1.
         21    1    1    2  504  501 -0.11160248330E+02 -0.20401612909E+02 -0.24193177010E+03  0.24304682334E+03  0.00000000000E+00 0. -1.
</event>
<event>
 4    1  0.3065783E+006  0.2020924E+02  0.7546771E-02  0.1530861E+00
         21   -1    0    0  503  501  0.00000000000E+00  0.00000000000E+00  0.65511906769E+02  0.65511906769E+02  0.00000000000E+00 0.  1.
         21   -1    0    0  504  502 -0.00000000000E+00 -0.00000000000E+00 -0.19322348680E+02  0.19322348680E+02  0.00000000000E+00 0. -1.
         21    1    1    2  503  502 -0.15923566974E+01  0.20146410848E+02 -0.11815283513E+02  0.23409707269E+02  0.00000000000E+00 0. -1.
         21    1    1    2  504  501  0.15923566974E+01 -0.20146410848E+02  0.58004841602E+02  0.61424548180E+02  0.00000000000E+00 0.  1.
</event>
<event>
 4    1  0.3065783E+006  0.5243255E+02  0.7546771E-02  0.1287957E+00
         21   -1    0    0  502  501  0.00000000000E+00  0.00000000000E+00  0.53863497356E+01  0.53863497356E+01  0.00000000000E+00 0.  1.
         21   -1    0    0  503  502 -0.00000000000E+00 -0.00000000000E+00 -0.51105827157E+03  0.51105827157E+03  0.00000000000E+00 0.  1.
         21    1    1    2  503  504  0.37834642483E+02  0.36300298487E+02 -0.24354100704E+03  0.24912124347E+03  0.00000000000E+00 0.  1.
         21    1    1    2  504  501 -0.37834642483E+02 -0.36300298487E+02 -0.26213091480E+03  0.26732337783E+03  0.00000000000E+00 0.  1.
</event>
<event>
 4    1  0.3065783E+006  0.2757616E+02  0.7546771E-02  0.1441905E+00
         21   -1    0    0  503  501  0.00000000000E+00  0.00000000000E+00  0.73762714716E+02  0.73762714716E+02  0.00000000000E+00 0.  1.
         21   -1    0    0  501  502 -0.00000000000E+00 -0.00000000000E+00 -0.77539602597E+02  0.77539602597E+02  0.00000000000E+00 0. -1.
         21    1    1    2  503  504  0.11289348031E+02 -0.25159396052E+02  0.68554292149E+02  0.73892730094E+02  0.00000000000E+00 0.  1.
         21    1    1    2  504  502 -0.11289348031E+02  0.25159396052E+02 -0.72331180030E+02  0.77409587218E+02  0.00000000000E+00 0. -1.
</event>
<event>
 4    1  0.3065783E+006  0.3450666E+02  0.7546771E-02  0.1384065E+00
         21   -1    0    0  503  501  0.00000000000E+00  0.00000000000E+00  0.39020103487E+01  0.39020103487E+01  0.00000000000E+00 0. -1.
         21   -1    0    0  504  502 -0.00000000000E+00 -0.00000000000E+00 -0.42655987035E+03  0.42655987035E+03  0.00000000000E+00 0.  1.
         21    1    1    2  503  502  0.18250584927E+02  0.29285252234E+02 -0.96503922680E+02  0.10248764287E+03  0.00000000000E+00 0. -1.
         21    1    1    2  504  501 -0.18250584927E+02 -0.29285252234E+02 -0.32615393732E+03  0.32797423783E+03  0.00000000000E+00 0.  1.
</event>
<event>
 4    1  0.3065783E+006  0.2766941E+02  0.7546771E-02  0.1440997E+00
         21   -1    0    0  504  501  0.00000000000E+00  0.00000000000E+00  0.46401810169E+03  0.46401810169E+03  0.00000000000E+00 0. -1.
         21   -1    0    0  503  502 -0.00000000000E+00 -0.00000000000E+00 -0.18671773120E+01  0.18671773120E+01  0.00000000000E+00 0. -1.
         21    1    1    2  503  501 -0.91373113296E+01  0.26117158104E+02  0.31053307805E+03  0.31176335412E+03  0.00000000000E+00 0. -1.
         21    1    1    2  504  502  0.91373113296E+01 -0.26117158104E+02  0.15161784633E+03  0.15412192489E+03  0.00000000000E+00 0. -1.
</event>
<event>
 4    1  0.3065783E+006  0.2083998E+02  0.7546771E-02  0.1521562E+00
         21   -1    0    0  503  501  0.00000000000E+00  0.00000000000E+00  0.48474428680E+01  0.48474428680E+01  0.00000000000E+00 0. -1.
         21   -1    0    0  504  502 -0.00000000000E+00 -0.00000000000E+00 -0.11837243755E+03  0.11837243755E+03  0.00000000000E+00 0. -1.
         21    1    1    2  503  502  0.20838298189E+02 -0.26439076635E+00 -0.87140189310E+02  0.89597528799E+02  0.00000000000E+00 0. -1.
         21    1    1    2  504  501 -0.20838298189E+02  0.26439076635E+00 -0.26384805371E+02  0.33622351618E+02  0.00000000000E+00 0. -1.
</event>
<event>
 4    1  0.3065783E+006  0.2940969E+02  0.7546771E-02  0.1424797E+00
         21   -1    0    0  504  501  0.00000000000E+00  0.00000000000E+00  0.30233636128E+02  0.30233636128E+02  0.00000000000E+00 0.  1.
         21   -1    0    0  501  502 -0.00000000000E+00 -0.00000000000E+00 -0.13389853567E+03  0.13389853567E+03  0.00000000000E+00 0.  1.
         21    1    1    2  503  502  0.16728057198E+02  0.24188878617E+02 -0.12460541529E+03  0.12802905633E+03  0.00000000000E+00 0.  1.
         21    1    1    2  504  503 -0.16728057198E+02 -0.24188878617E+02  0.20940515748E+02  0.36103115464E+02  0.00000000000E+00 0.  1.
</event>
<event>
 4    1  0.3065783E+006  0.2099953E+02  0.7546771E-02  0.1519271E+00
         21   -1    0    0  502  501  0.00000000000E+00  0.00000000000E+00  0.65723279368E+02  0.65723279368E+02  0.00000000000E+00 0. -1.
         21   -1    0    0  503  502 -0.00000000000E+00 -0.00000000000E+00 -0.22815829798E+02  0.22815829798E+02  0.00000000000E+00 0. -1.
         21    1    1    2  503  504  0.49333261680E+01 -0.20411827398E+02 -0.15741162580E+02  0.26244325180E+02  0.00000000000E+00 0. -1.
         21    1    1    2  504  501 -0.49333261680E+01  0.20411827398E+02  0.58648612149E+02  0.62294783986E+02  0.00000000000E+00 0. -1.
</event>
<event>
 4    1  0.3065783E+006  0.2059750E+02  0.7546771E-02  0.1525090E+00
         21   -1    0    0  504  501  0.00000000000E+00  0.00000000000E+00  0.81584290587E+02  0.81584290587E+02  0.00000000000E+00 0.  1.
         21   -1    0    0  503  502 -0.00000000000E+00 -0.00000000000E+00 -0.63370470084E+01  0.63370470084E+01  0.00000000000E+00 0.  1.
         21    1    1    2  503  501  0.15115269846E+02  0.13992334768E+02  0.19004177364E+02  0.28025266673E+02  0.00000000000E+00 0.  1.
         21    1    1    2  504  502 -0.15115269846E+02 -0.13992334768E+02  0.56243066214E+02  0.59896070922E+02  0.00000000000E+00 0.  1.
</event>
<event>
 4    1  0.3065783E+006  0.2755311E+02  0.7546771E-02  0.1442130E+00
         21   -1    0    0  503  501  0.00000000000E+00  0.00000000000E+00  0.68603800504E+01  0.68603800504E+01  0.00000000000E+00 0. -1.
         21   -1    0    0  501  502 -0.00000000000E+00 -0.00000000000E+00 -0.25323878473E+03  0.25323878473E+03  0.00000000000E+00 0. -1.
         21    1    1    2  503  504 -0.61092083348E+01 -0.26867293558E+02 -0.25607056028E+02  0.37615092822E+02  0.00000000000E+00 0. -1.
         21    1    1    2  504  502  0.61092083348E+01  0.26867293558E+02 -0.22077134865E+03  0.22248407195E+03  0.00000000000E+00 0. -1.
</event>
<event>
 4    1  0.3065783E+006  0.2760531E+02  0.7546771E-02  0.1441621E+00
         21   -1    0    0  504  501  0.00000000000E+00  0.00000000000E+00  0.31975080316E+02  0.31975080316E+02  0.00000000000E+00 0.  1.
         21   -1    0    0  503  502 -0.00000000000E+00 -0.00000000000E+00 -0.25108618205E+02  0.25108618205E+02  0.00000000000E+00 0.  1.
         21    1    1    2  503  501 -0.13301078197E+02 -0.24189556257E+02  0.98671824087E+01  0.29315773942E+02  0.00000000000E+00 0.  1.
         21    1    1    2  504  502  0.13301078197E+02  0.24189556257E+02 -0.30007202970E+01  0.27767924579E+02  0.00000000000E+00 0.  1.
</event>
<event>
 4    1  0.3065783E+006  0.2006364E+02  0.7546771E-02  0.1533065E+00
         21   -1    0    0  502  501  0.00000000000E+00  0.00000000000E+00  0.15315262612E+02  0.15315262612E+02  0.00000000000E+00 0.  1.
         21   -1    0    0  503  502 -0.00000000000E+00 -0.00000000000E+00 -0.63269507789E+02  0.63269507789E+02  0.00000000000E+00 0.  1.
         21    1    1    2  503  504 -0.39314025844E+01 -0.19674697681E+02 -0.54018904958E+02  0.57624575903E+02  0.00000000000E+00 0.  1.
         21    1    1    2  504  501  0.39314025844E+01  0.19674697681E+02  0.60646597810E+01  0.20960194498E+02  0.00000000000E+00 0.  1.
</event>
<event>
 4    1  0.3065783E+006  0.3711766E+02  0.7546771E-02  0.1366258E+00
         21   -1    0    0  504  501  0.00000000000E+00  0.00000000000E+00  0.20165975128E+02  0.20165975128E+02  0.00000000000E+00 0. -1.
         21   -1    0    0  503  502 -0.00000000000E+00 -0.00000000000E+00 -0.68884104400E+02  0.68884104400E+02  0.00000000000E+00 0. -1.
         21    1    1    2  503  501 -0.33744389310E+02 -0.15460826559E+02 -0.20326544845E+02  0.42318901134E+02  0.00000000000E+00 0. -1.
         21    1    1    2  504  502  0.33744389310E+02  0.15460826559E+02 -0.28391584427E+02  0.46731178394E+02  0.00000000000E+00 0. -1.
</event>
<event>
 4    1  0.3065783E+006  0.4441276E+02  0.7546771E-02  0.1324402E+00
         21   -1    0    0  504  501  0.00000000000E+00  0.00000000000E+00  0.67635638030E+01  0.67635638030E+01  0.00000000000E+00 0. -1.
         21   -1    0    0  503  502 -0.00000000000E+00 -0.00000000000E+00 -0.30293839775E+03  0.30293839775E+03  0.00000000000E+00 0. -1.
         21    1    1    2  503  501  0.27930790241E+02 -0.34530625747E+02 -0.17799889093E+03  0.18345598473E+03  0.00000000000E+00 0. -1.
         21    1    1    2  504  502 -0.27930790241E+02  0.34530625747E+02 -0.11817594301E+03  0.12624597683E+03  0.00000000000E+00 0. -1.
</event>
<event>
 4    1  0.3065783E+006  0.3278252E+02  0.7546771E-02  0.1396861E+00
         21   -1    0    0  504  501  0.00000000000E+00  0.00000000000E+00  0.19611576023E+03  0.19611576023E+03  0.00000000000E+00 0.  1.
         21   -1    0    0  503  502 -0.00000000000E+00 -0.00000000000E+00 -0.80489278558E+01  0.80489278558E+01  0.00000000000E+00 0.  1.
         21    1    1    2  503  501  0.10768365098E+02  0.30963456777E+02  0.36361201160E+02  0.48957433473E+02  0.00000000000E+00 0.  1.
         21    1    1    2  504  502 -0.10768365098E+02 -0.30963456777E+02  0.15170563121E+03  0.15520725461E+03  0.00000000000E+00 0.  1.
</event>
<event>
 4    1  0.3065783E+006  0.2177568E+02  0.7546771E-02  0.1508472E+00
         21   -1    0    0  503  501  0.00000000000E+00  0.00000000000E+00  0.91658193419E+02  0.91658193419E+02  0.00000000000E+00 0.  1.
         21   -1    0    0  504  502 -0.00000000000E+00 -0.00000000000E+00 -0.79180378629E+01  0.79180378629E+01  0.00000000000E+00 0. -1.
         21    1    1    2  503  502 -0.32330722415E+01  0.21534327611E+02  0.12556873722E+02  0.25136728097E+02  0.00000000000E+00 0. -1.
         21    1    1    2  504  501  0.32330722415E+01 -0.21534327611E+02  0.71183281833E+02  0.74439503184E+02  0.00000000000E+00 0.  1.
</event>
<event>
 4    1  0.3065783E+006  0.2897014E+02  0.7546771E-02  0.1428762E+00
         21   -1    0    0  504  501  0.00000000000E+00  0.00000000000E+00  0.51063506399E+02  0.51063506399E+02  0.00000000000E+00 0.  1.
         21   -1    0    0  503  502 -0.00000000000E+00 -0.00000000000E+00 -0.24114686652E+02  0.24114686652E+02  0.00000000000E+00 0.  1.
         21    1    1    2  503  501 -0.19395569202E+02  0.21519316887E+02 -0.77370454744E+01  0.29985512779E+02  0.00000000000E+00 0.  1.
         21    1    1    2  504  502  0.19395569202E+02 -0.21519316887E+02  0.34685865222E+02  0.45192680272E+02  0.00000000000E+00 0.  1.
</event>
<event>
 4    1  0.3065783E+006  0.2020605E+02  0.7546771E-02  0.1530909E+00
         21   -1    0    0  503  501  0.00000000000E+00  0.00000000000E+00  0.46786106863E+01  0.46786106863E+01  0.00000000000E+00 0.  1.
         21   -1    0    0  504  502 -0.00000000000E+00 -0.00000000000E+00 -0.14507766640E+03  0.14507766640E+03  0.00000000000E+00 0. -1.
         21    1    1    2  503  502 -0.35559748294E+01  0.19890690393E+02 -0.11746693670E+03  0.11919213790E+03  0.00000000000E+00 0. -1.
         21    1    1    2  504  501  0.35559748294E+01 -0.19890690393E+02 -0.22932119016E+02  0.30564139181E+02  0.00000000000E+00 0.  1.
</event>
<event>
 4    1  0.3065783E+006  0.2144954E+02  0.7546771E-02  0.1512942E+00
         21   -1    0    0  502  501  0.00000000000E+00  0.00000000000E+00  0.40688833680E+01  0.40688833680E+01  0.00000000000E+00 0.  1.
         21   -1    0    0  504  502 -0.00000000000E+00 -0.00000000000E+00 -0.14508085744E+03  0.14508085744E+03  0.00000000000E+00 0.  1.
         21    1    1    2  503  501 -0.20440703286E+02  0.65007857157E+01 -0.35478184705E+02  0.41458221811E+02  0.00000000000E+00 0.  1.
         21    1    1    2  504  503  0.20440703286E+02 -0.65007857157E+01 -0.10553378936E+03  0.10769151899E+03  0.00000000000E+00 0.  1.
</event>
<event>
 4    1  0.3065783E+006  0.2380626E+02  0.7546771E-02  0.1482615E+00
         21   -1    0    0  504  501  0.00000000000E+00  0.00000000000E+00  0.23196374868E+01  0.23196374868E+01  0.00000000000E+00 0. -1.
         21   -1    0    0  503  502 -0.00000000000E+00 -0.00000000000E+00 -0.29925635698E+03  0.29925635698E+03  0.00000000000E+00 0. -1.
         21    1    1    2  503  501  0.21948088774E+02 -0.92205845652E+01 -0.83863040299E+02  0.87176529575E+02  0.00000000000E+00 0. -1.
         21    1    1    2  504  502 -0.21948088774E+02  0.92205845652E+01 -0.21307367919E+03  0.21439946489E+03  0.00000000000E+00 0. -1.
</event>
<event>
 4    1  0.3065783E+006  0.4249169E+02  0.7546771E-02  0.1334472E+00
         21   -1    0    0  502  501  0.00000000000E+00  0.00000000000E+00  0.19053241708E+02  0.19053241708E+02  0.00000000000E+00 0. -1.
         21   -1    0    0  504  502 -0.00000000000E+00 -0.00000000000E+00 -0.56354757326E+03  0.56354757326E+03  0.00000000000E+00 0.  1.
         21    1    1    2  503  501 -0.21658145334E+02 -0.36557742580E+02 -0.65649892350E+01  0.42995847305E+02  0.00000000000E+00 0. -1.
         21    1    1    2  504  503  0.21658145334E+02  0.36557742580E+02 -0.53792934232E+03  0.53960496766E+03  0.00000000000E+00 0.  1.
</event>
<event>
 4    1  0.3065783E+006  0.2374209E+02  0.7546771E-02  0.1483384E+00
         21   -1    0    0  504  501  0.00000000000E+00  0.00000000000E+00  0.28831084396E+03  0.28831084396E+03  0.00000000000E+00 0. -1.
         21   -1    0    0  501  502 -0.00000000000E+00 -0.00000000000E+00 -0.50133042213E+01  0.50133042213E+01  0.00000000000E+00 0. -1.
         21    1    1    2  503  502 -0.21957656936E+02 -0.90304111637E+01  0.27101049617E+02  0.36029903056E+02  0.00000000000E+00 0. -1.
         21    1    1    2  504  503  0.21957656936E+02  0.90304111637E+01  0.25619649012E+03  0.25729424512E+03  0.00000000000E+00 0. -1.
</event>
<event>
 4    1  0.3065783E+006  0.2372115E+02  0.7546771E-02  0.1483636E+00
         21   -1    0    0  502  501  0.00000000000E+00  0.00000000000E+00  0.11035545111E+03  0.11035545111E+03  0.00000000000E+00 0. -1.
         21   -1    0    0  504  502 -0.00000000000E+00 -0.00000000000E+00 -0.15555189643E+03  0.15555189643E+03  0.00000000000E+00 0. -1.
         21    1    1    2  503  501 -0.23700670358E+02 -0.98542368671E+00  0.10815821776E+03  0.11072891630E+03  0.00000000000E+00 0. -1.
         21    1    1    2  504  503  0.23700670358E+02  0.98542368671E+00 -0.15335466308E+03  0.15517843125E+03  0.00000000000E+00 0. -1.
</event>
<event>
 4    1  0.3065783E+006  0.2213628E+02  0.7546771E-02  0.1503638E+00
         21   -1    0    0  503  501  0.00000000000E+00  0.00000000000E+00  0.62500110235E+02  0.62500110235E+02  0.00000000000E+00 0.  1.
         21   -1    0    0  504  502 -0.00000000000E+00 -0.00000000000E+00 -0.10939129379E+03  0.10939129379E+03  0.00000000000E+00 0.  1.
         21    1    1    2  503  502 -0.14459503866E+02  0.16761189266E+02 -0.10625411513E+03  0.10853548590E+03  0.00000000000E+00 0.  1.
         21    1    1    2  504  501  0.14459503866E+02 -0.16761189266E+02  0.59362931569E+02  0.63355918130E+02  0.00000000000E+00 0.  1.
</event>
<event>
 4    1  0.3065783E+006  0.2613961E+02  0.7546771E-02  0.1456448E+00
         21   -1    0    0  502  501  0.00000000000E+00  0.00000000000E+00  0.14585555546E+03  0.14585555546E+03  0.00000000000E+00 0. -1.
         21   -1    0    0  504  502 -0.00000000000E+00 -0.00000000000E+00 -0.19232866766E+03  0.19232866766E+03  0.00000000000E+00 0. -1.
         21    1    1    2  503  501  0.25974429918E+02 -0.29339332034E+01  0.14378353772E+03  0.14614029113E+03  0.00000000000E+00 0. -1.
         21    1    1    2  504  503 -0.25974429918E+02  0.29339332034E+01 -0.19025664992E+03  0.19204393198E+03  0.00000000000E+00 0. -1.
</event>
<event>
 4    1  0.3065783E+006  0.2731521E+02  0.7546771E-02  0.1444467E+00
         21   -1    0    0  503  501  0.00000000000E+00  0.00000000000E+00  0.66658761312E+02  0.66658761312E+02  0.00000000000E+00 0. -1.
         21   -1    0    0  504  502 -0.00000000000E+00 -0.00000000000E+00 -0.12045979631E+02  0.12045979631E+02  0.00000000000E+00 0. -1.
         21    1    1    2  503  502 -0.18011370362E+02 -0.20535605959E+02  0.37777304199E+02  0.46618078972E+02  0.00000000000E+00 0. -1.
         21    1    1    2  504  501  0.18011370362E+02  0.20535605959E+02  0.16835477481E+02  0.32086661971E+02  0.00000000000E+00 0. -1.
</event>
<event>
 4    1  0.3065783E+006  0.2032165E+02  0.7546771E-02  0.1529174E+00
         21   -1    0    0  504  501  0.00000000000E+00  0.00000000000E+00  0.11324489032E+04  0.11324489032E+04  0.00000000000E+00 0.  1.
         21   -1    0    0  503  502 -0.00000000000E+00 -0.00000000000E+00 -0.17487265425E+01  0.17487265425E+01  0.00000000000E+00 0.  1.
         21    1    1    2  503  501 -0.30032839663E+00 -0.20319431908E+02  0.60834264101E+02  0.64138733998E+02  0.00000000000E+00 0.  1.
         21    1    1    2  504  502  0.30032839663E+00  0.20319431908E+02  0.10698659126E+04  0.10700588958E+04  0.00000000000E+00 0.  1.
</event>
<event>
 4    1  0.3065783E+006  0.3393853E+02  0.7546771E-02  0.1388183E+00
         21   -1    0    0  503  501  0.00000000000E+00  0.00000000000E+00  0.22418951018E+03  0.22418951018E+03  0.00000000000E+00 0.  1.
         21   -1    0    0  504  502 -0.00000000000E+00 -0.00000000000E+00 -0.54938228599E+01  0.54938228599E+01  0.00000000000E+00 0.  1.
         21    1    1    2  503  502 -0.66903950373E+01 -0.33272550984E+02  0.80109895841E+02  0.87002410578E+02  0.00000000000E+00 0.  1.
         21    1    1    2  504  501  0.66903950373E+01  0.33272550984E+02  0.13858579148E+03  0.14268092247E+03  0.00000000000E+00 0.  1.
</event>
<event>
 4    1  0.3065783E+006  0.2002026E+02  0.7546771E-02  0.1533726E+00
         21   -1    0    0  503  501  0.00000000000E+00  0.00000000000E+00  0.19135862406E+02  0.19135862406E+02  0.00000000000E+00 0.  1.
         21   -1    0    0  504  502 -0.00000000000E+00 -0.00000000000E+00 -0.51397195490E+03  0.51397195490E+03  0.00000000000E+00 0. -1.
         21    1    1    2  503  502  0.18199913985E+02 -0.83411039164E+01  0.13648029009E+02  0.24229725121E+02  0.00000000000E+00 0.  1.
         21    1    1    2  504  501 -0.18199913985E+02  0.83411039164E+01 -0.50848412151E+03  0.50887809219E+03  0.00000000000E+00 0. -1.
</event>
<event>
 4    1  0.3065783E+006  0.2331661E+02  0.7546771E-02  0.1488560E+00
         21   -1    0    0  504  501  0.00000000000E+00  0.00000000000E+00  0.61473215674E+03  0.61473215674E+03  0.00000000000E+00 0.  1.
         21   -1    0    0  501  502 -0.00000000000E+00 -0.00000000000E+00 -0.23572913398E+02  0.23572913398E+02  0.00000000000E+00 0. -1.
         21    1    1    2  503  502  0.23282804724E+02  0.12550521909E+01 -0.17528812172E+02  0.29170591491E+02  0.00000000000E+00 0. -1.
         21    1    1    2  504  503 -0.23282804724E+02 -0.12550521909E+01  0.60868805551E+03  0.60913447865E+03  0.00000000000E+00 0.  1.
</event>
<event>
 4    1  0.3065783E+006  0.2749084E+02  0.7546771E-02  0.1442739E+00
         21   -1    0    0  503  501  0.00000000000E+00  0.00000000000E+00  0.13272964942E+02  0.13272964942E+02  0.00000000000E+00 0. -1.
         21   -1    0    0  504  502 -0.00000000000E+00 -0.00000000000E+00 -0.95400728788E+03  0.95400728788E+03  0.00000000000E+00 0. -1.
         21    1    1    2  503  502  0.27350527249E+02  0.27739411863E+01 -0.13817954641E+01  0.27525541761E+02  0.00000000000E+00 0. -1.
         21    1    1    2  504  501 -0.27350527249E+02 -0.27739411863E+01 -0.93935252747E+03  0.93975471106E+03  0.00000000000E+00 0. -1.
</event>
<event>
 4    1  0.3065783E+006  0.2055452E+02  0.7546771E-02  0.1525721E+00
         21   -1    0    0  504  501  0.00000000000E+00  0.00000000000E+00  0.43792971404E+02  0.43792971404E+02  0.00000000000E+00 0.  1.
         21   -1    0    0  503  502 -0.00000000000E+00 -0.00000000000E+00 -0.10347712663E+02  0.10347712663E+02  0.00000000000E+00 0.  1.
         21    1    1    2  503  501  0.13861592949E+02 -0.15177101555E+02  0.96802639704E+01  0.22719940168E+02  0.00000000000E+00 0.  1.
         21    1    1    2  504  502 -0.13861592949E+02  0.15177101555E+02  0.23764994771E+02  0.31420743899E+02  0.00000000000E+00 0.  1.
</event>
<event>
 4    1  0.3065783E+006  0.2605536E+02  0.7546771E-02  0.1457335E+00
         21   -1    0    0  504  501  0.00000000000E+00  0.00000000000E+00  0.72987847149E+03  0.72987847149E+03  0.00000000000E+00 0. -1.
         21   -1    0    0  501  502 -0.00000000000E+00 -0.00000000000E+00 -0.11724381073E+01  0.11724381073E+01  0.00000000000E+00 0. -1.
         21    1    1    2  503  502 -0.23844810731E+02  0.10502695307E+02  0.19818136017E+03  0.19988680078E+03  0.00000000000E+00 0. -1.
         21    1    1    2  504  503  0.23844810731E+02 -0.10502695307E+02  0.53052467321E+03  0.53116410881E+03  0.00000000000E+00 0. -1.
</event>
<event>
 4    1  0.3065783E+006  0.2071351E+02  0.7546771E-02  0.1523395E+00
         21   -1    0    0  504  501  0.00000000000E+00  0.00000000000E+00  0.44931602999E+02  0.44931602999E+02  0.00000000000E+00 0. -1.
         21   -1    0    0  503  502 -0.00000000000E+00 -0.00000000000E+00 -0.11413357830E+02  0.11413357830E+02  0.00000000000E+00 0. -1.
         21    1    1    2  503  501  0.61936527235E+01 -0.19765832572E+02  0.28145596105E+02  0.34946016245E+02  0.00000000000E+00 0. -1.
         21    1    1    2  504  502 -0.61936527235E+01  0.19765832572E+02  0.53726490640E+01  0.21398944583E+02  0.00000000000E+00 0. -1.
</event>
<event>
 4    1  0.3065783E+006  0.3106666E+02  0.7546771E-02  0.1410548E+00
         21   -1    0    0  504  501  0.00000000000E+00  0.00000000000E+00  0.92965531139E+02  0.92965531139E+02  0.00000000000E+00 0. -1.
         21   -1    0    0  503  502 -0.00000000000E+00 -0.00000000000E+00 -0.13661521676E+02  0.13661521676E+02  0.00000000000E+00 0. -1.
         21    1    1    2  503  501  0.70118929977E+01 -0.30265006077E+02  0.65774528765E+02  0.72742187694E+02  0.00000000000E+00 0. -1.
         21    1    1    2  504  502 -0.70118929977E+01  0.30265006077E+02  0.13529480699E+02  0.33884865121E+02  0.00000000000E+00 0. -1.
</event>
<event>
 4    1  0.3065783E+006  0.2401251E+02  0.7546771E-02  0.1480161E+00
         21   -1    0    0  503  501  0.00000000000E+00  0.00000000000E+00  0.55424712954E+01  0.55424712954E+01  0.00000000000E+00 0.  1.
         21   -1    0    0  501  502 -0.00000000000E+00 -0.00000000000E+00 -0.15198573937E+03  0.15198573937E+03  0.00000000000E+00 0.  1.
         21    1    1    2  503  504  0.22642798201E+02  0.79940135640E+01 -0.28979801616E+02  0.37635481463E+02  0.00000000000E+00 0.  1.
         21    1    1    2  504  502 -0.22642798201E+02 -0.79940135640E+01 -0.11746346646E+03  0.11989272920E+03  0.00000000000E+00 0.  1.
</event>
<event>
 4    1  0.3065783E+006  0.2139864E+02  0.7546771E-02  0.1513649E+00
         21   -1    0    0  503  501  0.00000000000E+00  0.00000000000E+00  0.84781996080E+03  0.84781996080E+03  0.00000000000E+00 0. -1.
         21   -1    0    0  504  502 -0.00000000000E+00 -0.00000000000E+00 -0.14873441146E+01  0.14873441146E+01  0.00000000000E+00 0. -1.
         21    1    1    2  503  502 -0.17555795817E+02 -0.12235024424E+02  0.84274046437E+02  0.86948356467E+02  0.00000000000E+00 0. -1.
         21    1    1    2  504  501  0.17555795817E+02  0.12235024424E+02  0.76205857025E+03  0.76235894845E+03  0.00000000000E+00 0. -1.
</event>
<event>
 4    1  0.3065783E+006  0.3704170E+02  0.7546771E-02  0.1366751E+00
         21   -1    0    0  504  501  0.00000000000E+00  0.00000000000E+00  0.69637808953E+02  0.69637808953E+02  0.00000000000E+00 0.  1.
         21   -1    0    0  503  502 -0.00000000000E+00 -0.00000000000E+00 -0.53993907009E+02  0.53993907009E+02  0.00000000000E+00 0.  1.
         21    1    1    2  503  501  0.37025816587E+02  0.10845673454E+01  0.57084374208E+02  0.68049343561E+02  0.00000000000E+00 0.  1.
         21    1    1    2  504  502 -0.37025816587E+02 -0.10845673454E+01 -0.41440472264E+02  0.55582372401E+02  0.00000000000E+00 0.  1.
</event>
<event>
 4    1  0.3065783E+006  0.2151082E+02  0.7546771E-02  0.1512095E+00
         21   -1    0    0  503  501  0.00000000000E+00  0.00000000000E+00  0.10904230502E+04  0.10904230502E+04  0.00000000000E+00 0.  1.
         21   -1    0    0  504  502 -0.00000000000E+00 -0.00000000000E+00 -0.54635147323E+02  0.54635147323E+02  0.00000000000E+00 0. -1.
         21    1    1    2  503  502 -0.15673268924E+02 -0.14733097975E+02 -0.52407429122E+02  0.56650279451E+02  0.00000000000E+00 0. -1.
         21    1    1    2  504  501  0.15673268924E+02  0.14733097975E+02  0.10881953320E+04  0.10884079181E+04  0.00000000000E+00 0.  1.
</event>
<event>
 4    1  0.3065783E+006  0.2387781E+02  0.7546771E-02  0.1481760E+00
         21   -1    0    0  504  501  0.00000000000E+00  0.00000000000E+00  0.78558126614E+02  0.78558126614E+02  0.00000000000E+00 0. -1.
         21   -1    0    0  503  502 -0.00000000000E+00 -0.00000000000E+00 -0.18345413055E+03  0.18345413055E+03  0.00000000000E+00 0. -1.
         21    1    1    2  503  501 -0.23876632029E+02 -0.23734535500E+00  0.75940591464E+02  0.79606050786E+02  0.00000000000E+00 0. -1.
         21    1    1    2  504  502  0.23876632029E+02  0.23734535500E+00 -0.18083659540E+03  0.18240620638E+03  0.00000000000E+00 0. -1.
</event>
<event>
 4    1  0.3065783E+006  0.2948762E+02  0.7546771E-02  0.1424102E+00
         21   -1    0    0  503  501  0.00000000000E+00  0.00000000000E+00  0.76371639724E+02  0.76371639724E+02  0.00000000000E+00 0.  1.
         21   -1    0    0  504  502 -0.00000000000E+00 -0.00000000000E+00 -0.11609128719E+02  0.11609128719E+02  0.00000000000E+00 0.  1.
         21    1    1    2  503  502  0.26510754487E+02  0.12911218692E+02  0.38488483962E+02  0.48485905883E+02  0.00000000000E+00 0.  1.
         21    1    1    2  504  501 -0.26510754487E+02 -0.12911218692E+02  0.26274027043E+02  0.39494862560E+02  0.00000000000E+00 0.  1.
</event>
<event>
 4    1  0.3065783E+006  0.2837612E+02  0.7546771E-02  0.1434254E+00
         21   -1    0    0  504  501  0.00000000000E+00  0.00000000000E+00  0.20013260716E+02  0.20013260716E+02  0.00000000000E+00 0. -1.
         21   -1    0    0  503  502 -0.00000000000E+00 -0.00000000000E+00 -0.46204863727E+02  0.46204863727E+02  0.00000000000E+00 0.  1.
         21    1    1    2  503  501 -0.28373042428E+02 -0.41787045342E+00 -0.24998314276E+02  0.37816925695E+02  0.00000000000E+00 0.  1.
         21    1    1    2  504  502  0.28373042428E+02  0.41787045342E+00 -0.11932887347E+01  0.28401198749E+02  0.00000000000E+00 0. -1.
</event>
<event>
 4    1  0.3065783E+006  0.3079432E+02  0.7546771E-02  0.1412817E+00
         21   -1    0    0  504  501  0.00000000000E+00  0.00000000000E+00  0.23385969213E+03  0.23385969213E+03  0.00000000000E+00 0. -1.
         21   -1    0    0  501  502 -0.00000000000E+00 -0.00000000000E+00 -0.64108124301E+01  0.64108124301E+01  0.00000000000E+00 0. -1.
         21    1    1    2  503  502 -0.23790909683E+02  0.19552051148E+02  0.40898079552E+02  0.51195146241E+02  0.00000000000E+00 0. -1.
         21    1    1    2  504  503  0.23790909683E+02 -0.19552051148E+02  0.18655080015E+03  0.18907535832E+03  0.00000000000E+00 0. -1.
</event>
<event>
 4    1  0.3065783E+006  0.2070562E+02  0.7546771E-02  0.1523510E+00
         21   -1    0    0  504  501  0.00000000000E+00  0.00000000000E+00  0.32611336678E+01  0.32611336678E+01  0.00000000000E+00 0.  1.
         21   -1    0    0  503  502 -0.00000000000E+00 -0.00000000000E+00 -0.18707894997E+03  0.18707894997E+03  0.00000000000E+00 0.  1.
         21    1    1    2  503  501  0.12366906492E+02  0.16606689749E+02 -0.40019040480E+02  0.45058252535E+02  0.00000000000E+00 0.  1.
         21    1    1    2  504  502 -0.12366906492E+02 -0.16606689749E+02 -0.14379877582E+03  0.14528183110E+03  0.00000000000E+00 0.  1.
</event>
<event>
 4    1  0.3065783E+006  0.2257156E+02  0.7546771E-02  0.1497949E+00
         21   -1    0    0  502  501  0.00000000000E+00  0.00000000000E+00  0.65682532353E+02  0.65682532353E+02  0.00000000000E+00 0. -1.
         21   -1    0    0  503  502 -0.00000000000E+00 -0.00000000000E+00 -0.10981725045E+02  0.10981725045E+02  0.00000000000E+00 0.  1.
         21    1    1    2  503  504  0.21894331632E+02  0.54875712293E+01  0.65774230012E+01  0.23510374071E+02  0.00000000000E+00 0.  1.
         21    1    1    2  504  501 -0.21894331632E+02 -0.54875712293E+01  0.48123384307E+02  0.53153883327E+02  0.00000000000E+00 0. -1.
</event>
<event>
 4    1  0.3065783E+006  0.2276423E+02  0.7546771E-02  0.1495480E+00
         21   -1    0    0  502  501  0.00000000000E+00  0.00000000000E+00  0.12167390895E+01  0.12167390895E+01  0.00000000000E+00 0.  1.
         21   -1    0    0  504  502 -0.00000000000E+00 -0.00000000000E+00 -0.15335878769E+04  0.15335878769E+04  0.00000000000E+00 0. -1.
         21    1    1    2  503  501  0.22175888322E+02  0.51420024599E+01 -0.11399081316E+03  0.11624162635E+03  0.00000000000E+00 0.  1.
         21    1    1    2  504  503 -0.22175888322E+02 -0.51420024599E+01 -0.14183803246E+04  0.14185629896E+04  0.00000000000E+00 0. -1.
</event>
<event>
 4    1  0.3065783E+006  0.2942463E+02  0.7546771E-02  0.1424663E+00
         21   -1    0    0  502  501  0.00000000000E+00  0.00000000000E+00  0.13198880774E+03  0.13198880774E+03  0.00000000000E+00 0. -1.
         21   -1    0    0  503  502 -0.00000000000E+00 -0.00000000000E+00 -0.19272436945E+02  0.19272436945E+02  0.00000000000E+00 0.  1.
         21    1    1    2  503  504  0.28910909489E+02  0.54743400527E+01 -0.50673025834E+01  0.29857773560E+02  0.00000000000E+00 0.  1.
         21    1    1    2  504  501 -0.28910909489E+02 -0.54743400527E+01  0.11778367338E+03  0.12140347112E+03  0.00000000000E+00 0. -1.
</event>
<event>
 4    1  0.3065783E+006  0.2126772E+02  0.7546771E-02  0.1515477E+00
         21   -1    0    0  504  501  0.00000000000E+00  0.00000000000E+00  0.61676754442E+02  0.61676754442E+02  0.00000000000E+00 0.  1.
         21   -1    0    0  503  502 -0.00000000000E+00 -0.00000000000E+00 -0.19521774327E+02  0.19521774327E+02  0.00000000000E+00 0.  1.
         21    1    1    2  503  501 -0.28991593525E+01  0.21069191240E+02  0.53156938796E+02  0.57253611996E+02  0.00000000000E+00 0.  1.
         21    1    1    2  504  502  0.28991593525E+01 -0.21069191240E+02 -0.11001958681E+02  0.23944916773E+02  0.00000000000E+00 0.  1.
</event>
<event>
 4    1  0.3065783E+006  0.2335653E+02  0.7546771E-02  0.1488069E+00
         21   -1    0    0  504  501  0.00000000000E+00  0.00000000000E+00  0.17877046250E+02  0.17877046250E+02  0.00000000000E+00 0. -1.
         21   -1    0    0  503  502 -0.00000000000E+00 -0.00000000000E+00 -0.17975878792E+03  0.17975878792E+03  0.00000000000E+00 0.  1.
         21    1    1    2  503  501 -0.13264292397E+02  0.19224614909E+02 -0.17098139455E+03  0.17256930363E+03  0.00000000000E+00 0.  1.
         21    1    1    2  504  502  0.13264292397E+02 -0.19224614909E+02  0.90996528788E+01  0.25066530548E+02  0.00000000000E+00 0. -1.
</event>
<event>
 4    1  0.3065783E+006  0.2074779E+02  0.7546771E-02  0.1522896E+00
         21   -1    0    0  503  501  0.00000000000E+00  0.00000000000E+00  0.40989298869E+02  0.40989298869E+02  0.00000000000E+00 0.  1.
         21   -1    0    0  504  502 -0.00000000000E+00 -0.00000000000E+00 -0.45737137741E+02  0.45737137741E+02  0.00000000000E+00 0.  1.
         21    1    1    2  503  502  0.85218486030E+01 -0.18916889924E+02  0.35686612203E+02  0.41279594457E+02  0.00000000000E+00 0.  1.
         21    1    1    2  504  501 -0.85218486030E+01  0.18916889924E+02 -0.40434451074E+02  0.45446842153E+02  0.00000000000E+00 0.  1.
</event>
<event>
 4    1  0.3065783E+006  0.2396593E+02  0.7546771E-02  0.1480712E+00
         21   -1    0    0  503  501  0.00000000000E+00  0.00000000000E+00  0.11752105574E+02  0.11752105574E+02  0.00000000000E+00 0.  1.
         21   -1    0    0  504  502 -0.00000000000E+00 -0.00000000000E+00 -0.71078055548E+02  0.71078055548E+02  0.00000000000E+00 0.  1.
         21    1    1    2  503  502  0.21541414329E+02 -0.10503968793E+02 -0.52810913294E+02  0.57994469172E+02  0.00000000000E+00 0.  1.
         21    1    1    2  504  501 -0.21541414329E+02  0.10503968793E+02 -0.65150366804E+01  0.24835691950E+02  0.00000000000E+00 0.  1.
</event>
<event>
 4    1  0.3065783E+006  0.2493668E+02  0.7546771E-02  0.1469513E+00
         21   -1    0    0  504  501  0.00000000000E+00  0.00000000000E+00  0.78140650239E+02  0.78140650239E+02  0.00000000000E+00 0.  1.
         21   -1    0    0  503  502 -0.00000000000E+00 -0.00000000000E+00 -0.20202191234E+02  0.20202191234E+02  0.00000000000E+00 0. -1.
         21    1    1    2  503  501  0.14407442617E+02 -0.20353466896E+02 -0.93114614049E+01  0.26618439679E+02  0.00000000000E+00 0. -1.
         21    1    1    2  504  502 -0.14407442617E+02  0.20353466896E+02  0.67249920410E+02  0.71724401794E+02  0.00000000000E+00 0.  1.
</event>
<event>
 4    1  0.3065783E+006  0.2188719E+02  0.7546771E-02  0.1506965E+00
         21   -1    0    0  504  501  0.00000000000E+00  0.00000000000E+00  0.46848923717E+01  0.46848923717E+01  0.00000000000E+00 0. -1.
         21   -1    0    0  503  502 -0.00000000000E+00 -0.00000000000E+00 -0.22925498307E+03  0.22925498307E+03  0.00000000000E+00 0. -1.
         21    1    1    2  503  501  0.92082694514E+01  0.19855904728E+02 -0.19934498004E+03  0.20054293866E+03  0.00000000000E+00 0. -1.
         21    1    1    2  504  502 -0.92082694514E+01 -0.19855904728E+02 -0.25225110664E+02  0.33396936788E+02  0.00000000000E+00 0. -1.
</event>
<event>
 4    1  0.3065783E+006  0.2484121E+02  0.7546771E-02  0.1470588E+00
         21   -1    0    0  503  501  0.00000000000E+00  0.00000000000E+00  0.12535576331E+03  0.12535576331E+03  0.00000000000E+00 0.  1.
         21   -1    0    0  501  502 -0.00000000000E+00 -0.00000000000E+00 -0.59702493352E+03  0.59702493352E+03  0.00000000000E+00 0.  1.
         21    1    1    2  503  504  0.14813410251E+01 -0.24797004112E+02  0.12386361183E+03  0.12633004441E+03  0.00000000000E+00 0.  1.
         21    1    1    2  504  502 -0.14813410251E+01  0.24797004112E+02 -0.59553278203E+03  0.59605065243E+03  0.00000000000E+00 0.  1.
</event>
<event>
 4    1  0.3065783E+006  0.2302332E+02  0.7546771E-02  0.1492206E+00
         21   -1    0    0  504  501  0.00000000000E+00  0.00000000000E+00  0.24702502291E+03  0.24702502291E+03  0.00000000000E+00 0. -1.
         21   -1    0    0  503  502 -0.00000000000E+00 -0.00000000000E+00 -0.39398211600E+02  0.39398211600E+02  0.00000000000E+00 0. -1.
         21    1    1    2  503  501 -0.29520567602E+01 -0.22833275941E+02 -0.35443592774E+02  0.42264895576E+02  0.00000000000E+00 0. -1.
         21    1    1    2  504  502  0.29520567602E+01  0.22833275941E+02  0.24307040408E+03  0.24415833893E+03  0.00000000000E+00 0. -1.
</event>
<event>
 4    1  0.3065783E+006  0.2317660E+02  0.7546771E-02  0.1490292E+00
         21   -1    0    0  503  501  0.00000000000E+00  0.00000000000E+00  0.45058683098E+03  0.45058683098E+03  0.00000000000E+00 0.  1.
         21   -1    0    0  504  502 -0.00000000000E+00 -0.00000000000E+00 -0.60391511735E+02  0.60391511735E+02  0.00000000000E+00 0. -1.
         21    1    1    2  503  502 -0.22890871727E+02  0.36280635368E+01  0.44805259597E+03  0.44865162834E+03  0.00000000000E+00 0.  1.
         21    1    1    2  504  501  0.22890871727E+02 -0.36280635368E+01 -0.57857276733E+02  0.62326714371E+02  0.00000000000E+00 0. -1.
</event>
<event>
 4    1  0.3065783E+006  0.2512176E+02  0.7546771E-02  0.1467446E+00
         21   -1    0    0  503  501  0.00000000000E+00  0.00000000000E+00  0.21318952530E+03  0.21318952530E+03  0.00000000000E+00 0.  1.
         21   -1    0    0  504  502 -0.00000000000E+00 -0.00000000000E+00 -0.47306665759E+01  0.47306665759E+01  0.00000000000E+00 0.  1.
         21    1    1    2  503  502  0.20436459061E+02 -0.14610055677E+02  0.37573426142E+02  0.45198063431E+02  0.00000000000E+00 0.  1.
         21    1    1    2  504  501 -0.20436459061E+02  0.14610055677E+02  0.17088543258E+03  0.17272212844E+03  0.00000000000E+00 0.  1.
</event>
<event>
 4    1  0.3065783E+006  0.2096690E+02  0.7546771E-02  0.1519738E+00
         21   -1    0    0  504  501  0.00000000000E+00  0.00000000000E+00  0.34695431983E+01  0.34695431983E+01  0.00000000000E+00 0.  1.
         21   -1    0    0  503  502 -0.00000000000E+00 -0.00000000000E+00 -0.24449142955E+03  0.24449142955E+03  0.00000000000E+00 0.  1.
         21    1    1    2  503  501  0.89162340732E+00 -0.20947937341E+02 -0.34457596940E+02  0.40335307833E+02  0.00000000000E+00 0.  1.
         21    1    1    2  504  502 -0.89162340732E+00  0.20947937341E+02 -0.20656428941E+03  0.20762566491E+03  0.00000000000E+00 0.  1.
</event>
<event>
 4    1  0.3065783E+006  0.2477028E+02  0.7546771E-02  0.1471390E+00
         21   -1    0    0  503  501  0.00000000000E+00  0.00000000000E+00  0.47244778456E+02  0.47244778456E+02  0.00000000000E+00 0.  1.
         21   -1    0    0  504  502 -0.00000000000E+00 -0.00000000000E+00 -0.21171810139E+02  0.21171810139E+02  0.00000000000E+00 0.  1.
         21    1    1    2  503  502 -0.19249990689E+02 -0.15588607091E+02 -0.82330197818E+01  0.26102670884E+02  0.00000000000E+00 0.  1.
         21    1    1    2  504  501  0.19249990689E+02  0.15588607091E+02  0.34305988100E+02  0.42313917711E+02  0.00000000000E+00 0.  1.
</event>
<event>
 4    1  0.3065783E+006  0.2048068E+02  0.7546771E-02  0.1526810E+00
         21   -1    0    0  504  501  0.00000000000E+00  0.00000000000E+00  0.14587932739E+03  0.14587932739E+03  0.00000000000E+00 0. -1.
         21   -1    0    0  503  502 -0.00000000000E+00 -0.00000000000E+00 -0.10756168968E+02  0.10756168968E+02  0.00000000000E+00 0.  1.
         21    1    1    2  503  501 -0.19555718848E+02  0.60854047952E+01  0.13459884191E+03  0.13614810514E+03  0.00000000000E+00 0. -1.
         21    1    1    2  504  502  0.19555718848E+02 -0.60854047952E+01  0.52431651988E+00  0.20487391220E+02  0.00000000000E+00 0.  1.
</event>
<event>
 4    1  0.3065783E+006  0.2281300E+02  0.7546771E-02  0.1494860E+00
         21   -1    0    0  503  501  0.00000000000E+00  0.00000000000E+00  0.76213538521E+03  0.76213538521E+03  0.00000000000E+00 0.  1.
         21   -1    0    0  504  502 -0.00000000000E+00 -0.00000000000E+00 -0.17102412077E+01  0.17102412077E+01  0.00000000000E+00 0.  1.
         21    1    1    2  503  502  0.20088788346E+02  0.10810808390E+02  0.84198480209E+02  0.87234265428E+02  0.00000000000E+00 0.  1.
         21    1    1    2  504  501 -0.20088788346E+02 -0.10810808390E+02  0.67622666380E+03  0.67661136099E+03  0.00000000000E+00 0.  1.
</event>
<event>
 4    1  0.3065783E+006  0.2040359E+02  0.7546771E-02  0.1527953E+00
         21   -1    0    0  502  501  0.00000000000E+00  0.00000000000E+00  0.50088720590E+03  0.50088720590E+03  0.00000000000E+00 0.  1.
         21   -1    0    0  503  502 -0.00000000000E+00 -0.00000000000E+00 -0.19119093182E+02  0.19119093182E+02  0.00000000000E+00 0.  1.
         21    1    1    2  503  504  0.18621871437E+02 -0.83385984044E+01 -0.13404923745E+02  0.24413076409E+02  0.00000000000E+00 0.  1.
         21    1    1    2  504  501 -0.18621871437E+02  0.83385984044E+01  0.49517303646E+03  0.49559322267E+03  0.00000000000E+00 0.  1.
</event>
<event>
 4    1  0.3065783E+006  0.2269619E+02  0.7546771E-02  0.1496349E+00
         21   -1    0    0  504  501  0.00000000000E+00  0.00000000000E+00  0.54910170405E+01  0.54910170405E+01  0.00000000000E+00 0.  1.
         21   -1    0    0  503  502 -0.00000000000E+00 -0.00000000000E+00 -0.19803061781E+03  0.19803061781E+03  0.00000000000E+00 0.  1.
         21    1    1    2  503  501  0.14591865739E+02  0.17383738720E+02 -0.17009242618E+03  0.17159997191E+03  0.00000000000E+00 0.  1.
         21    1    1    2  504  502 -0.14591865739E+02 -0.17383738720E+02 -0.22447174596E+02  0.31921662942E+02  0.00000000000E+00 0.  1.
</event>
<event>
 4    1  0.3065783E+006  0.2117025E+02  0.7546771E-02  0.1516848E+00
         21   -1    0    0  503  501  0.00000000000E+00  0.00000000000E+00  0.21307580965E+03  0.21307580965E+03  0.00000000000E+00 0. -1.
         21   -1    0    0  504  502 -0.00000000000E+00 -0.00000000000E+00 -0.11513476504E+02  0.11513476504E+02  0.00000000000E+00 0. -1.
         21    1    1    2  503  502 -0.42620466776E+01 -0.20736793380E+02 -0.73911454622E+00  0.21183152077E+02  0.00000000000E+00 0. -1.
         21    1    1    2  504  501  0.42620466776E+01  0.20736793380E+02  0.20230144769E+03  0.20340613408E+03  0.00000000000E+00 0. -1.
</event>
<event>
 4    1  0.3065783E+006  0.2996164E+02  0.7546771E-02  0.1419930E+00
         21   -1    0    0  502  501  0.00000000000E+00  0.00000000000E+00  0.20173900961E+01  0.20173900961E+01  0.00000000000E+00 0.  1.
         21   -1    0    0  503  502 -0.00000000000E+00 -0.00000000000E+00 -0.45878749349E+03  0.45878749349E+03  0.00000000000E+00 0. -1.
         21    1    1    2  503  504 -0.49060355235E+01  0.29557245919E+02 -0.26835423377E+03  0.27002165608E+03  0.00000000000E+00 0. -1.
         21    1    1    2  504  501  0.49060355235E+01 -0.29557245919E+02 -0.18841586963E+03  0.19078322751E+03  0.00000000000E+00 0.  1.
</event>
<event>
 4    1  0.3065783E+006  0.2409762E+02  0.7546771E-02  0.1479157E+00
         21   -1    0    0  503  501  0.00000000000E+00  0.00000000000E+00  0.12720342906E+04  0.12720342906E+04  0.00000000000E+00 0.  1.
         21   -1    0    0  504  502 -0.00000000000E+00 -0.00000000000E+00 -0.11715280767E+01  0.11715280767E+01  0.00000000000E+00 0. -1.
         21    1    1    2  503  502  0.19822094977E+02 -0.13703275463E+02  0.11327687103E+04  0.11330249981E+04  0.00000000000E+00 0.  1.
         21    1    1    2  504  501 -0.19822094977E+02  0.13703275463E+02  0.13809405224E+03  0.14018082062E+03  0.00000000000E+00 0. -1.
</event>
<event>
 4    1  0.3065783E+006  0.2253546E+02  0.7546771E-02  0.1498415E+00
         21   -1    0    0  503  501  0.00000000000E+00  0.00000000000E+00  0.92224488652E+01  0.92224488652E+01  0.00000000000E+00 0. -1.
         21   -1    0    0  504  502 -0.00000000000E+00 -0.00000000000E+00 -0.25667558902E+03  0.25667558902E+03  0.00000000000E+00 0. -1.
         21    1    1    2  503  502 -0.22444742509E+02  0.20199712539E+01 -0.24155444650E+03  0.24260337461E+03  0.00000000000E+00 0. -1.
         21    1    1    2  504  501  0.22444742509E+02 -0.20199712539E+01 -0.58986936570E+01  0.23294663273E+02  0.00000000000E+00 0. -1.
</event>
<event>
 4    1  0.3065783E+006  0.2319921E+02  0.7546771E-02  0.1490012E+00
         21   -1    0    0  504  501  0.00000000000E+00  0.00000000000E+00  0.74044333650E+03  0.74044333650E+03  0.00000000000E+00 0.  1.
         21   -1    0    0  501  502 -0.00000000000E+00 -0.00000000000E+00 -0.22285523307E+01  0.22285523307E+01  0.00000000000E+00 0.  1.
         21    1    1    2  503  502  0.18585446784E+02  0.13884687831E+02  0.64286221610E+02  0.68344141499E+02  0.00000000000E+00 0.  1.
         21    1    1    2  504  503 -0.18585446784E+02 -0.13884687831E+02  0.67392856256E+03  0.67432774733E+03  0.00000000000E+00 0.  1.
</event>
<event>
 4    1  0.3065783E+006  0.3010108E+02  0.7546771E-02  0.1418720E+00
         21   -1    0    0  502  501  0.00000000000E+00  0.00000000000E+00  0.86022478866E+02  0.86022478866E+02  0.00000000000E+00 0.  1.
         21   -1    0    0  503  502 -0.00000000000E+00 -0.00000000000E+00 -0.25183618395E+03  0.25183618395E+03  0.00000000000E+00 0. -1.
         21    1    1    2  503  504 -0.19310811609E+02  0.23090424876E+02 -0.24826573186E+03  0.25008388349E+03  0.00000000000E+00 0. -1.
         21    1    1    2  504  501  0.19310811609E+02 -0.23090424876E+02  0.82452026776E+02  0.87774779324E+02  0.00000000000E+00 0.  1.
</event>
<event>
 4    1  0.3065783E+006  0.7118339E+02  0.7546771E-02  0.1225942E+00
         21   -1    0    0  504  501  0.00000000000E+00  0.00000000000E+00  0.43952003079E+03  0.43952003079E+03  0.00000000000E+00 0.  1.
         21   -1    0    0  501  502 -0.00000000000E+00 -0.00000000000E+00 -0.25729558420E+02  0.25729558420E+02  0.00000000000E+00 0.  1.
         21    1    1    2  503  502  0.43430772701E+02  0.56398956560E+02  0.34073708442E+02  0.78918261039E+02  0.00000000000E+00 0.  1.
         21    1    1    2  504  503 -0.43430772701E+02 -0.56398956560E+02  0.37971676393E+03  0.38633132817E+03  0.00000000000E+00 0.  1.
</event>
<event>
 4    1  0.3065783E+006  0.2041699E+02  0.7546771E-02  0.1527754E+00
         21   -1    0    0  504  501  0.00000000000E+00  0.00000000000E+00  0.96614831449E+02  0.96614831449E+02  0.00000000000E+00 0. -1.
         21   -1    0    0  503  502 -0.00000000000E+00 -0.00000000000E+00 -0.29565548228E+02  0.29565548228E+02  0.00000000000E+00 0. -1.
         21    1    1    2  503  501 -0.20329608939E+02 -0.18869271347E+01  0.91829908559E+02  0.94072236072E+02  0.00000000000E+00 0. -1.
         21    1    1    2  504  502  0.20329608939E+02  0.18869271347E+01 -0.24780625338E+02  0.32108143605E+02  0.00000000000E+00 0. -1.
</event>
<event>
 4    1  0.3065783E+006  0.2109579E+02  0.7546771E-02  0.1517902E+00
         21   -1    0    0  504  501  0.00000000000E+00  0.00000000000E+00  0.13914871787E+01  0.13914871787E+01  0.00000000000E+00 0. -1.
         21   -1    0    0  503  502 -0.00000000000E+00 -0.00000000000E+00 -0.39697686901E+03  0.39697686901E+03  0.00000000000E+00 0.  1.
         21    1    1    2  503  501  0.69902737357E+01 -0.19903979625E+02 -0.10998236804E+03  0.11198729219E+03  0.00000000000E+00 0. -1.
         21    1    1    2  504  502 -0.69902737357E+01  0.19903979625E+02 -0.28560301379E+03  0.28638106400E+03  0.00000000000E+00 0.  1.
</event>
<event>
 4    1  0.3065783E+006  0.2121805E+02  0.7546771E-02  0.1516174E+00
         21   -1    0    0  503  501  0.00000000000E+00  0.00000000000E+00  0.73261534706E+02  0.73261534706E+02  0.00000000000E+00 0.  1.
         21   -1    0    0  501  502 -0.00000000000E+00 -0.00000000000E+00 -0.25673027839E+02  0.25673027839E+02  0.00000000000E+00 0. -1.
         21    1    1    2  503  504 -0.13419028088E+02  0.16435796647E+02  0.66936884334E+02  0.70219315082E+02  0.00000000000E+00 0.  1.
         21    1    1    2  504  502  0.13419028088E+02 -0.16435796647E+02 -0.19348377467E+02  0.28715247463E+02  0.00000000000E+00 0. -1.
</event>
<event>
 4    1  0.3065783E+006  0.2212058E+02  0.7546771E-02  0.1503847E+00
         21   -1    0    0  502  501  0.00000000000E+00  0.00000000000E+00  0.29433561906E+01  0.29433561906E+01  0.00000000000E+00 0.  1.
         21   -1    0    0  504  502 -0.00000000000E+00 -0.00000000000E+00 -0.27977026415E+03  0.27977026415E+03  0.00000000000E+00 0. -1.
         21    1    1    2  503  501  0.21024308034E+02  0.68773822438E+01 -0.48368135487E+02  0.53186431027E+02  0.00000000000E+00 0.  1.
         21    1    1    2  504  503 -0.21024308034E+02 -0.68773822438E+01 -0.22845877248E+03  0.22952718932E+03  0.00000000000E+00 0. -1.
</event>
<event>
 4    1  0.3065783E+006  0.2015411E+02  0.7546771E-02  0.1531693E+00
         21   -1    0    0  504  501  0.00000000000E+00  0.00000000000E+00  0.29679471270E+02  0.29679471270E+02  0.00000000000E+00 0.  1.
         21   -1    0    0  501  502 -0.00000000000E+00 -0.00000000000E+00 -0.13760169599E+02  0.13760169599E+02  0.00000000000E+00 0.  1.
         21    1    1    2  503  502  0.97889937250E+01 -0.17617144212E+02  0.63631932146E+01  0.21134767475E+02  0.00000000000E+00 0.  1.
         21    1    1    2  504  503 -0.97889937250E+01  0.17617144212E+02  0.95561084562E+01  0.22304873395E+02  0.00000000000E+00 0.  1.
</event>
<event>
 4    1  0.3065783E+006  0.2471132E+02  0.7546771E-02  0.1472059E+00
         21   -1    0    0  504  501  0.00000000000E+00  0.00000000000E+00  0.12695828813E+01  0.12695828813E+01  0.00000000000E+00 0. -1.
         21   -1    0    0  503  502 -0.00000000000E+00 -0.00000000000E+00 -0.10651682390E+04  0.10651682390E+04  0.00000000000E+00 0.  1.
         21    1    1    2  503  501 -0.62032325523E+01  0.23920063174E+02 -0.92683485944E+03  0.92716422827E+03  0.00000000000E+00 0.  1.
         21    1    1    2  504  502  0.62032325523E+01 -0.23920063174E+02 -0.13706379664E+03  0.13927359357E+03  0.00000000000E+00 0. -1.
</event>
<event>
 4    1  0.3065783E+006  0.2350902E+02  0.7546771E-02  0.1486203E+00
         21   -1    0    0  504  501  0.00000000000E+00  0.00000000000E+00  0.60239979767E+01  0.60239979767E+01  0.00000000000E+00 0.  1.
         21   -1    0    0  503  502 -0.00000000000E+00 -0.00000000000E+00 -0.93124798684E+02  0.93124798684E+02  0.00000000000E+00 0.  1.
         21    1    1    2  503  501 -0.16955404697E+02 -0.16284599616E+02 -0.37516833238E+02  0.44273995858E+02  0.00000000000E+00 0.  1.
         21    1    1    2  504  502  0.16955404697E+02  0.16284599616E+02 -0.49583967469E+02  0.54874800802E+02  0.00000000000E+00 0.  1.
</event>
<event>
 4    1  0.3065783E+006  0.3449213E+02  0.7546771E-02  0.1384169E+00
         21   -1    0    0  504  501  0.00000000000E+00  0.00000000000E+00  0.19892950994E+03  0.19892950994E+03  0.00000000000E+00 0.  1.
         21   -1    0    0  503  502 -0.00000000000E+00 -0.00000000000E+00 -0.69403590827E+01  0.69403590827E+01  0.00000000000E+00 0.  1.
         21    1    1    2  503  501 -0.34468898506E+02  0.12658553222E+01  0.13427395137E+03  0.13863333427E+03  0.00000000000E+00 0.  1.
         21    1    1    2  504  502  0.34468898506E+02 -0.12658553222E+01  0.57715199485E+02  0.67236534752E+02  0.00000000000E+00 0.  1.
</event>
<event>
 4    1  0.3065783E+006  0.2578003E+02  0.7546771E-02  0.1460263E+00
         21   -1    0    0  503  501  0.00000000000E+00  0.00000000000E+00  0.81649916341E+02  0.81649916341E+02  0.00000000000E+00 0. -1.
         21   -1    0    0  504  502 -0.00000000000E+00 -0.00000000000E+00 -0.14835564941E+02  0.14835564941E+02  0.00000000000E+00 0. -1.
         21    1    1    2  503  502  0.15204135968E+02  0.20819322478E+02  0.65817370065E+02  0.70686180695E+02  0.00000000000E+00 0. -1.
         21    1    1    2  504  501 -0.15204135968E+02 -0.20819322478E+02  0.99698133452E+00  0.25799300587E+02  0.00000000000E+00 0. -1.
</event>
<event>
 4    1  0.3065783E+006  0.2505237E+02  0.7546771E-02  0.1468218E+00
         21   -1    0    0  504  501  0.00000000000E+00  0.00000000000E+00  0.60435381663E+02  0.60435381663E+02  0.00000000000E+00 0.  1.
         21   -1    0    0  503  502 -0.00000000000E+00 -0.00000000000E+00 -0.10823877628E+02  0.10823877628E+02  0.00000000000E+00 0.  1.
         21    1    1    2  503  501 -0.83062060451E+01  0.23635319713E+02  0.17631247149E+02  0.30634658034E+02  0.00000000000E+00 0.  1.
         21    1    1    2  504  502  0.83062060451E+01 -0.23635319713E+02  0.31980256885E+02  0.40624601257E+02  0.00000000000E+00 0.  1.
</event>
<event>
 4    1  0.3065783E+006  0.2629038E+02  0.7546771E-02  0.1454870E+00
         21   -1    0    0  503  501  0.00000000000E+00  0.00000000000E+00  0.84552781356E+02  0.84552781356E+02  0.00000000000E+00 0.  1.
         21   -1    0    0  504  502 -0.00000000000E+00 -0.00000000000E+00 -0.12953908381E+02  0.12953908381E+02  0.00000000000E+00 0.  1.
         21    1    1    2  503  502 -0.24212580382E+02  0.10243782676E+02  0.65412755784E+02  0.70498317366E+02  0.00000000000E+00 0.  1.
         21    1    1    2  504  501  0.24212580382E+02 -0.10243782676E+02  0.61861171913E+01  0.27008372371E+02  0.00000000000E+00 0.  1.
</event>
<event>
 4    1  0.3065783E+006  0.2377101E+02  0.7546771E-02  0.1483037E+00
         21   -1    0    0  503  501  0.00000000000E+00  0.00000000000E+00  0.22658285163E+03  0.22658285163E+03  0.00000000000E+00 0. -1.
         21   -1    0    0  504  502 -0.00000000000E+00 -0.00000000000E+00 -0.21728421428E+02  0.21728421428E+02  0.00000000000E+00 0.  1.
         21    1    1    2  503  502 -0.74794985369E+01  0.22563644860E+02  0.21924090519E+03  0.22052581589E+03  0.00000000000E+00 0. -1.
         21    1    1    2  504  501  0.74794985369E+01 -0.22563644860E+02 -0.14386474981E+02  0.27785457169E+02  0.00000000000E+00 0.  1.
</event>
<event>
 4    1  0.3065783E+006  0.3230801E+02  0.7546771E-02  0.1400545E+00
         21   -1    0    0  503  501  0.00000000000E+00  0.00000000000E+00  0.51113176478E+02  0.51113176478E+02  0.00000000000E+00 0. -1.
         21   -1    0    0  504  502 -0.00000000000E+00 -0.00000000000E+00 -0.64080296764E+02  0.64080296764E+02  0.00000000000E+00 0.  1.
         21    1    1    2  503  502  0.30454355118E+02 -0.10786099471E+02  0.41057789413E+02  0.52245093156E+02  0.00000000000E+00 0. -1.
         21    1    1    2  504  501 -0.30454355118E+02  0.10786099471E+02 -0.54024909699E+02  0.62948380086E+02  0.00000000000E+00 0.  1.
</event>
<event>
 4    1  0.3065783E+006  0.2217583E+02  0.7546771E-02  0.1503115E+00
         21   -1    0    0  503  501  0.00000000000E+00  0.00000000000E+00  0.65499552758E+01  0.65499552758E+01  0.00000000000E+00 0. -1.
         21   -1    0    0  504  502 -0.00000000000E+00 -0.00000000000E+00 -0.93112959071E+02  0.93112959071E+02  0.00000000000E+00 0.  1.
         21    1    1    2  503  502  0.22059528455E+02  0.22681337088E+01 -0.21351518589E+02  0.30783998640E+02  0.00000000000E+00 0. -1.
         21    1    1    2  504  501 -0.22059528455E+02 -0.22681337088E+01 -0.65211485206E+02  0.68878915707E+02  0.00000000000E+00 0.  1.
</event>
<event>
 4    1  0.3065783E+006  0.2184625E+02  0.7546771E-02  0.1507517E+00
         21   -1    0    0  504  501  0.00000000000E+00  0.00000000000E+00  0.13549898037E+02  0.13549898037E+02  0.00000000000E+00 0.  1.
         21   -1    0    0  503  502 -0.00000000000E+00 -0.00000000000E+00 -0.47750505243E+02  0.47750505243E+02  0.00000000000E+00 0.  1.
         21    1    1    2  503  501 -0.17456613323E+02 -0.13134891442E+02 -0.14007034908E+01  0.21891109889E+02  0.00000000000E+00 0.  1.
         21    1    1    2  504  502  0.17456613323E+02  0.13134891442E+02 -0.32799903715E+02  0.39409293391E+02  0.00000000000E+00 0.  1.
</event>
<event>
 4    1  0.3065783E+006  0.2823168E+02  0.7546771E-02  0.1435613E+00
         21   -1    0    0  504  501  0.00000000000E+00  0.00000000000E+00  0.38984273314E+02  0.38984273314E+02  0.00000000000E+00 0.  1.
         21   -1    0    0  503  502 -0.00000000000E+00 -0.00000000000E+00 -0.11672139763E+03  0.11672139763E+03  0.00000000000E+00 0. -1.
         21    1    1    2  503  501  0.16703670037E+02  0.22759948172E+02 -0.10957507793E+03  0.11315354850E+03  0.00000000000E+00 0. -1.
         21    1    1    2  504  502 -0.16703670037E+02 -0.22759948172E+02  0.31837953622E+02  0.42552122442E+02  0.00000000000E+00 0.  1.
</event>
<event>
 4    1  0.3065783E+006  0.2083945E+02  0.7546771E-02  0.1521569E+00
         21   -1    0    0  504  501  0.00000000000E+00  0.00000000000E+00  0.27439224678E+02  0.27439224678E+02  0.00000000000E+00 0.  1.
         21   -1    0    0  503  502 -0.00000000000E+00 -0.00000000000E+00 -0.47663604601E+02  0.47663604601E+02  0.00000000000E+00 0. -1.
         21    1    1    2  503  501  0.80793863275E+01  0.19209538518E+02  0.20577724273E+02  0.29286952551E+02  0.00000000000E+00 0.  1.
         21    1    1    2  504  502 -0.80793863275E+01 -0.19209538518E+02 -0.40802104196E+02  0.45815876728E+02  0.00000000000E+00 0. -1.
</event>
<event>
 4    1  0.3065783E+006  0.2758771E+02  0.7546771E-02  0.1441792E+00
         21   -1    0    0  503  501  0.00000000000E+00  0.00000000000E+00  0.18914433134E+02  0.18914433134E+02  0.00000000000E+00 0. -1.
         21   -1    0    0  504  502 -0.00000000000E+00 -0.00000000000E+00 -0.66550366686E+02  0.66550366686E+02  0.00000000000E+00 0. -1.
         21    1    1    2  503  502 -0.27310865905E+02 -0.38985059509E+01 -0.50687541894E+02  0.57708826434E+02  0.00000000000E+00 0. -1.
         21    1    1    2  504  501  0.27310865905E+02  0.38985059509E+01  0.30516083426E+01  0.27755973386E+02  0.00000000000E+00 0. -1.
</event>
<event>
 4    1  0.3065783E+006  0.3068098E+02  0.7546771E-02  0.1413769E+00
         21   -1    0    0  502  501  0.00000000000E+00  0.00000000000E+00  0.65287479061E+03  0.65287479061E+03  0.00000000000E+00 0.  1.
         21   -1    0    0  504  502 -0.00000000000E+00 -0.00000000000E+00 -0.53899744974E+01  0.53899744974E+01  0.00000000000E+00 0. -1.
         21    1    1    2  503  501 -0.49127657204E+01  0.30285101393E+02  0.60543457726E+03  0.60621147299E+03  0.00000000000E+00 0.  1.
         21    1    1    2  504  503  0.49127657204E+01 -0.30285101393E+02  0.42050238847E+02  0.52053292120E+02  0.00000000000E+00 0. -1.
</event>
<event>
 4    1  0.3065783E+006  0.2172170E+02  0.7546771E-02  0.1509205E+00
         21   -1    0    0  503  501  0.00000000000E+00  0.00000000000E+00  0.12648978469E+02  0.12648978469E+02  0.00000000000E+00 0. -1.
         21   -1    0    0  504  502 -0.00000000000E+00 -0.00000000000E+00 -0.54905169137E+02  0.54905169137E+02  0.00000000000E+00 0. -1.
         21    1    1    2  503  502 -0.14999417053E+02 -0.15711452844E+02 -0.20026845898E+01  0.21813826073E+02  0.00000000000E+00 0. -1.
         21    1    1    2  504  501  0.14999417053E+02  0.15711452844E+02 -0.40253506078E+02  0.45740321533E+02  0.00000000000E+00 0. -1.
</event>
<event>
 4    1  0.3065783E+006  0.2278443E+02  0.7546771E-02  0.1495223E+00
         21   -1    0    0  502  501  0.00000000000E+00  0.00000000000E+00  0.69798569519E+02  0.69798569519E+02  0.00000000000E+00 0.  1.
         21   -1    0    0  504  502 -0.00000000000E+00 -0.00000000000E+00 -0.14278734878E+02  0.14278734878E+02  0.00000000000E+00 0.  1.
         21    1    1    2  503  501  0.20273257351E+02 -0.10398335325E+02  0.56858349283E+02  0.61253589481E+02  0.00000000000E+00 0.  1.
         21    1    1    2  504  503 -0.20273257351E+02  0.10398335325E+02 -0.13385146423E+01  0.22823714916E+02  0.00000000000E+00 0.  1.
</event>
<event>
 4    1  0.3065783E+006  0.2701996E+02  0.7546771E-02  0.1447408E+00
         21   -1    0    0  502  501  0.00000000000E+00  0.00000000000E+00  0.12305805789E+04  0.12305805789E+04  0.00000000000E+00 0.  1.
         21   -1    0    0  504  502 -0.00000000000E+00 -0.00000000000E+00 -0.20285207995E+01  0.20285207995E+01  0.00000000000E+00 0.  1.
         21    1    1    2  503  501 -0.24469500424E+02 -0.11459580736E+02  0.11326797103E+04  0.11330019438E+04  0.00000000000E+00 0.  1.
         21    1    1    2  504  503  0.24469500424E+02  0.11459580736E+02  0.95872347846E+02  0.99607155984E+02  0.00000000000E+00 0.  1.
</event>
<event>
 4    1  0.3065783E+006  0.2097317E+02  0.7546771E-02  0.1519648E+00
         21   -1    0    0  504  501  0.00000000000E+00  0.00000000000E+00  0.99651615720E+03  0.99651615720E+03  0.00000000000E+00 0. -1.
         21   -1    0    0  503  502 -0.00000000000E+00 -0.00000000000E+00 -0.80378270698E+00  0.80378270698E+00  0.00000000000E+00 0. -1.
         21    1    1    2  503  501  0.18855839688E+02 -0.91832068986E+01  0.16303583750E+03  0.16437931223E+03  0.00000000000E+00 0. -1.
         21    1    1    2  504  502 -0.18855839688E+02  0.91832068986E+01  0.83267653699E+03  0.83294062768E+03  0.00000000000E+00 0. -1.
</event>
<event>
 4    1  0.3065783E+006  0.2005524E+02  0.7546771E-02  0.1533193E+00
         21   -1    0    0  503  501  0.00000000000E+00  0.00000000000E+00  0.70770615775E+02  0.70770615775E+02  0.00000000000E+00 0. -1.
         21   -1    0    0  504  502 -0.00000000000E+00 -0.00000000000E+00 -0.57793935136E+01  0.57793935136E+01  0.00000000000E+00 0. -1.
         21    1    1    2  503  502 -0.14957734330E+02  0.13359590886E+02  0.37430328208E+02  0.42464596486E+02  0.00000000000E+00 0. -1.
         21    1    1    2  504  501  0.14957734330E+02 -0.13359590886E+02  0.27560894054E+02  0.34085412803E+02  0.00000000000E+00 0. -1.
</event>
<event>
 4    1  0.3065783E+006  0.3513878E+02  0.7546771E-02  0.1379590E+00
         21   -1    0    0  503  501  0.00000000000E+00  0.00000000000E+00  0.12966086284E+03  0.12966086284E+03  0.00000000000E+00 0. -1.
         21   -1    0    0  504  502 -0.00000000000E+00 -0.00000000000E+00 -0.99615979552E+02  0.99615979552E+02  0.00000000000E+00 0.  1.
         21    1    1    2  503  502  0.10479554187E+02 -0.33539724897E+02  0.12404381620E+03  0.12892479412E+03  0.00000000000E+00 0. -1.
         21    1    1    2  504  501 -0.10479554187E+02  0.33539724897E+02 -0.93998932915E+02  0.10035204827E+03  0.00000000000E+00 0.  1.
</event>
<event>
 4    1  0.3065783E+006  0.2032875E+02  0.7546771E-02  0.1529068E+00
         21   -1    0    0  503  501  0.00000000000E+00  0.00000000000E+00  0.12888052767E+02  0.12888052767E+02  0.00000000000E+00 0.  1.
         21   -1    0    0  501  502 -0.00000000000E+00 -0.00000000000E+00 -0.47579123866E+02  0.47579123866E+02  0.00000000000E+00 0.  1.
         21    1    1    2  503  504 -0.20192116144E+02 -0.23529883017E+01 -0.81505878292E-01  0.20328914175E+02  0.00000000000E+00 0.  1.
         21    1    1    2  504  502  0.20192116144E+02  0.23529883017E+01 -0.34609565221E+02  0.40138262458E+02  0.00000000000E+00 0.  1.
</event>
<event>
 4    1  0.3065783E+006  0.3893109E+02  0.7546771E-02  0.1354866E+00
         21   -1    0    0  504  501  0.00000000000E+00  0.00000000000E+00  0.10335367061E+03  0.10335367061E+03  0.00000000000E+00 0. -1.
         21   -1    0    0  503  502 -0.00000000000E+00 -0.00000000000E+00 -0.53645518392E+02  0.53645518392E+02  0.00000000000E+00 0.  1.
         21    1    1    2  503  501 -0.35766096514E+02  0.15375837543E+02  0.91769660218E+02  0.99686009933E+02  0.00000000000E+00 0. -1.
         21    1    1    2  504  502  0.35766096514E+02 -0.15375837543E+02 -0.42061507999E+02  0.57313179070E+02  0.00000000000E+00 0.  1.
</event>
<event>
 4    1  0.3065783E+006  0.2306986E+02  0.7546771E-02  0.1491623E+00
         21   -1    0    0  502  501  0.00000000000E+00  0.00000000000E+00  0.69777349752E+02  0.69777349752E+02  0.00000000000E+00 0.  1.
         21   -1    0    0  503  502 -0.00000000000E+00 -0.00000000000E+00 -0.98196262176E+02  0.98196262176E+02  0.00000000000E+00 0.  1.
         21    1    1    2  503  504  0.43672295133E+01 -0.22652718660E+02 -0.94868504036E+02  0.97633249533E+02  0.00000000000E+00 0.  1.
         21    1    1    2  504  501 -0.43672295133E+01  0.22652718660E+02  0.66449591613E+02  0.70340362394E+02  0.00000000000E+00 0.  1.
</event>
<event>
 4    1  0.3065783E+006  0.4805754E+02  0.7546771E-02  0.1306821E+00
         21   -1    0    0  503  501  0.00000000000E+00  0.00000000000E+00  0.77158938633E+02  0.77158938633E+02  0.00000000000E+00 0.  1.
         21   -1    0    0  504  502 -0.00000000000E+00 -0.00000000000E+00 -0.31152623473E+02  0.31152623473E+02  0.00000000000E+00 0.  1.
         21    1    1    2  503  502  0.19698931199E+02 -0.43834677304E+02  0.12283627453E+02  0.49602563726E+02  0.00000000000E+00 0.  1.
         21    1    1    2  504  501 -0.19698931199E+02  0.43834677304E+02  0.33722687707E+02  0.58708998381E+02  0.00000000000E+00 0.  1.
</event>
<event>
 4    1  0.3065783E+006  0.2298475E+02  0.7546771E-02  0.1492690E+00
         21   -1    0    0  504  501  0.00000000000E+00  0.00000000000E+00  0.37351570518E+02  0.37351570518E+02  0.00000000000E+00 0.  1.
         21   -1    0    0  503  502 -0.00000000000E+00 -0.00000000000E+00 -0.21848872438E+02  0.21848872438E+02  0.00000000000E+00 0. -1.
         21    1    1    2  503  501  0.12265951812E+02  0.19438236057E+02 -0.98264581164E+01  0.24997157318E+02  0.00000000000E+00 0. -1.
         21    1    1    2  504  502 -0.12265951812E+02 -0.19438236057E+02  0.25329156196E+02  0.34203285638E+02  0.00000000000E+00 0.  1.
</event>
<event>
 4    1  0.3065783E+006  0.3536342E+02  0.7546771E-02  0.1378026E+00
         21   -1    0    0  503  501  0.00000000000E+00  0.00000000000E+00  0.23687635457E+03  0.23687635457E+03  0.00000000000E+00 0. -1.
         21   -1    0    0  504  502 -0.00000000000E+00 -0.00000000000E+00 -0.71350495640E+01  0.71350495640E+01  0.00000000000E+00 0. -1.
         21    1    1    2  503  502  0.34890724063E+02  0.57627184394E+01  0.17709013444E+03  0.18058650909E+03  0.00000000000E+00 0. -1.
         21    1    1    2  504  501 -0.34890724063E+02 -0.57627184394E+01  0.52651170571E+02  0.63424895049E+02  0.00000000000E+00 0. -1.
</event>
<event>
 4    1  0.3065783E+006  0.2308318E+02  0.7546771E-02  0.1491456E+00
         21   -1    0    0  503  501  0.00000000000E+00  0.00000000000E+00  0.34282907196E+02  0.34282907196E+02  0.00000000000E+00 0. -1.
         21   -1    0    0  504  502 -0.00000000000E+00 -0.00000000000E+00 -0.18796837361E+02  0.18796837361E+02  0.00000000000E+00 0. -1.
         21    1    1    2  503  502  0.18713468054E+01 -0.23007200867E+02 -0.33004198232E+01  0.23317933048E+02  0.00000000000E+00 0. -1.
         21    1    1    2  504  501 -0.18713468054E+01  0.23007200867E+02  0.18786489658E+02  0.29761811509E+02  0.00000000000E+00 0. -1.
</event>
<event>
 4    1  0.3065783E+006  0.3217852E+02  0.7546771E-02  0.1401564E+00
         21   -1    0    0  503  501  0.00000000000E+00  0.00000000000E+00  0.27501646269E+02  0.27501646269E+02  0.00000000000E+00 0. -1.
         21   -1    0    0  504  502 -0.00000000000E+00 -0.00000000000E+00 -0.37695693126E+02  0.37695693126E+02  0.00000000000E+00 0. -1.
         21    1    1    2  503  502 -0.89773833415E+01 -0.30900866776E+02 -0.62229138872E+01  0.32774710318E+02  0.00000000000E+00 0. -1.
         21    1    1    2  504  501  0.89773833415E+01  0.30900866776E+02 -0.39711329695E+01  0.32422629077E+02  0.00000000000E+00 0. -1.
</event>
<event>
 4    1  0.3065783E+006  0.2845267E+02  0.7546771E-02  0.1433537E+00
         21   -1    0    0  503  501  0.00000000000E+00  0.00000000000E+00  0.32008406580E+02  0.32008406580E+02  0.00000000000E+00 0. -1.
         21   -1    0    0  504  502 -0.00000000000E+00 -0.00000000000E+00 -0.28161871528E+03  0.28161871528E+03  0.00000000000E+00 0. -1.
         21    1    1    2  503  502  0.27814625596E+02  0.59917479602E+01  0.24801135985E+02  0.37744546451E+02  0.00000000000E+00 0. -1.
         21    1    1    2  504  501 -0.27814625596E+02 -0.59917479602E+01 -0.27441144469E+03  0.27588257541E+03  0.00000000000E+00 0. -1.
</event>
<event>
 4    1  0.3065783E+006  0.3068023E+02  0.7546771E-02  0.1413776E+00
         21   -1    0    0  502  501  0.00000000000E+00  0.00000000000E+00  0.60446128029E+02  0.60446128029E+02  0.00000000000E+00 0. -1.
         21   -1    0    0  503  502 -0.00000000000E+00 -0.00000000000E+00 -0.94128868915E+02  0.94128868915E+02  0.00000000000E+00 0. -1.
         21    1    1    2  503  504  0.17901799290E+02  0.24915898754E+02 -0.87447025584E+02  0.92672858551E+02  0.00000000000E+00 0. -1.
         21    1    1    2  504  501 -0.17901799290E+02 -0.24915898754E+02  0.53764284698E+02  0.61902138393E+02  0.00000000000E+00 0. -1.
</event>
<event>
 4    1  0.3065783E+006  0.2227653E+02  0.7546771E-02  0.1501788E+00
         21   -1    0    0  504  501  0.00000000000E+00  0.00000000000E+00  0.59411870522E+02  0.59411870522E+02  0.00000000000E+00 0. -1.
         21   -1    0    0  503  502 -0.00000000000E+00 -0.00000000000E+00 -0.23879633775E+03  0.23879633775E+03  0.00000000000E+00 0. -1.
         21    1    1    2  503  501  0.13367839468E+02  0.17819785601E+02 -0.23616544967E+03  0.23721375067E+03  0.00000000000E+00 0. -1.
         21    1    1    2  504  502 -0.13367839468E+02 -0.17819785601E+02  0.56780982440E+02  0.60994457599E+02  0.00000000000E+00 0. -1.
</event>
<event>
 4    1  0.3065783E+006  0.2316451E+02  0.7546771E-02  0.1490443E+00
         21   -1    0    0  504  501  0.00000000000E+00  0.00000000000E+00  0.19640213631E+01  0.19640213631E+01  0.00000000000E+00 0. -1.
         21   -1    0    0  501  502 -0.00000000000E+00 -0.00000000000E+00 -0.28908833515E+03  0.28908833515E+03  0.00000000000E+00 0.  1.
         21    1    1    2  503  502 -0.20829580190E+02  0.10135251393E+02 -0.17766552708E+03  0.17916928934E+03  0.00000000000E+00 0. -1.
         21    1    1    2  504  503  0.20829580190E+02 -0.10135251393E+02 -0.10945878671E+03  0.11188306717E+03  0.00000000000E+00 0.  1.
</event>
<event>
 4    1  0.3065783E+006  0.2794012E+02  0.7546771E-02  0.1438386E+00
         21   -1    0    0  504  501  0.00000000000E+00  0.00000000000E+00  0.56224688898E+02  0.56224688898E+02  0.00000000000E+00 0.  1.
         21   -1    0    0  503  502 -0.00000000000E+00 -0.00000000000E+00 -0.17085366605E+02  0.17085366605E+02  0.00000000000E+00 0. -1.
         21    1    1    2  503  501  0.16632159547E+02  0.22450418840E+02  0.37040360715E+01  0.28184568837E+02  0.00000000000E+00 0. -1.
         21    1    1    2  504  502 -0.16632159547E+02 -0.22450418840E+02  0.35435286222E+02  0.45125486667E+02  0.00000000000E+00 0.  1.
</event>
<event>
 4    1  0.3065783E+006  0.2035346E+02  0.7546771E-02  0.1528699E+00
         21   -1    0    0  504  501  0.00000000000E+00  0.00000000000E+00  0.91363428749E+01  0.91363428749E+01  0.00000000000E+00 0. -1.
         21   -1    0    0  503  502 -0.00000000000E+00 -0.00000000000E+00 -0.46170643574E+02  0.46170643574E+02  0.00000000000E+00 0. -1.
         21    1    1    2  503  501 -0.20228424061E+02  0.22526092306E+01 -0.14813283252E+02  0.25173334086E+02  0.00000000000E+00 0. -1.
         21    1    1    2  504  502  0.20228424061E+02 -0.22526092306E+01 -0.22221017448E+02  0.30133652363E+02  0.00000000000E+00 0. -1.
</event>
<event>
 4    1  0.3065783E+006  0.2017209E+02  0.7546771E-02  0.1531421E+00
         21   -1    0    0  504  501  0.00000000000E+00  0.00000000000E+00  0.56402920684E+01  0.56402920684E+01  0.00000000000E+00 0.  1.
         21   -1    0    0  503  502 -0.00000000000E+00 -0.00000000000E+00 -0.79796118558E+02  0.79796118558E+02  0.00000000000E+00 0. -1.
         21    1    1    2  503  501  0.13826513067E+02  0.14688109705E+02 -0.23849310644E+02  0.31236239346E+02  0.00000000000E+00 0.  1.
         21    1    1    2  504  502 -0.13826513067E+02 -0.14688109705E+02 -0.50306515846E+02  0.54200171280E+02  0.00000000000E+00 0. -1.
</event>
<event>
 4    1  0.3065783E+006  0.2354736E+02  0.7546771E-02  0.1485737E+00
         21   -1    0    0  503  501  0.00000000000E+00  0.00000000000E+00  0.38395907489E+02  0.38395907489E+02  0.00000000000E+00 0.  1.
         21   -1    0    0  504  502 -0.00000000000E+00 -0.00000000000E+00 -0.55531672198E+02  0.55531672198E+02  0.00000000000E+00 0. -1.
         21    1    1    2  503  502 -0.23317023879E+02 -0.32855213714E+01  0.31830500139E+02  0.39593673640E+02  0.00000000000E+00 0.  1.
         21    1    1    2  504  501  0.23317023879E+02  0.32855213714E+01 -0.48966264848E+02  0.54333906048E+02  0.00000000000E+00 0. -1.
</event>
<event>
 4    1  0.3065783E+006  0.2136560E+02  0.7546771E-02  0.1514109E+00
         21   -1    0    0  502  501  0.00000000000E+00  0.00000000000E+00  0.63378679308E+02  0.63378679308E+02  0.00000000000E+00 0. -1.
         21   -1    0    0  504  502 -0.00000000000E+00 -0.00000000000E+00 -0.21857465301E+02  0.21857465301E+02  0.00000000000E+00 0.  1.
         21    1    1    2  503  501  0.21150720536E+02 -0.30225541911E+01  0.55657390117E+02  0.59617395848E+02  0.00000000000E+00 0. -1.
         21    1    1    2  504  503 -0.21150720536E+02  0.30225541911E+01 -0.14136176110E+02  0.25618748761E+02  0.00000000000E+00 0.  1.
</event>
<event>
 4    1  0.3065783E+006  0.2019795E+02  0.7546771E-02  0.1531031E+00
         21   -1    0    0  502  501  0.00000000000E+00  0.00000000000E+00  0.50032809095E+02  0.50032809095E+02  0.00000000000E+00 0.  1.
         21   -1    0    0  504  502 -0.00000000000E+00 -0.00000000000E+00 -0.10855548894E+02  0.10855548894E+02  0.00000000000E+00 0.  1.
         21    1    1    2  503  501  0.15273596310E+02  0.13216439699E+02  0.34776667612E+02  0.40216584052E+02  0.00000000000E+00 0.  1.
         21    1    1    2  504  503 -0.15273596310E+02 -0.13216439699E+02  0.44005925885E+01  0.20671773937E+02  0.00000000000E+00 0.  1.
</event>
<event>
 4    1  0.3065783E+006  0.2273507E+02  0.7546771E-02  0.1495852E+00
         21   -1    0    0  502  501  0.00000000000E+00  0.00000000000E+00  0.44930384892E+03  0.44930384892E+03  0.00000000000E+00 0.  1.
         21   -1    0    0  504  502 -0.00000000000E+00 -0.00000000000E+00 -0.14312914334E+01  0.14312914334E+01  0.00000000000E+00 0.  1.
         21    1    1    2  503  501 -0.16957732704E+02 -0.15143268429E+02  0.32377282037E+03  0.32457005791E+03  0.00000000000E+00 0.  1.
         21    1    1    2  504  503  0.16957732704E+02  0.15143268429E+02  0.12409973711E+03  0.12616508244E+03  0.00000000000E+00 0.  1.
</event>
<event>
 4    1  0.3065783E+006  0.2524003E+02  0.7546771E-02  0.1466136E+00
         21   -1    0    0  503  501  0.00000000000E+00  0.00000000000E+00  0.44332336312E+03  0.44332336312E+03  0.00000000000E+00 0. -1.
         21   -1    0    0  504  502 -0.00000000000E+00 -0.00000000000E+00 -0.16353831045E+01  0.16353831045E+01  0.00000000000E+00 0. -1.
         21    1    1    2  503  502 -0.20632627811E+02 -0.14538008482E+02  0.14335784181E+03  0.14556280373E+03  0.00000000000E+00 0. -1.
         21    1    1    2  504  501  0.20632627811E+02  0.14538008482E+02  0.29833013821E+03  0.29939594250E+03  0.00000000000E+00 0. -1.
</event>
<event>
 4    1  0.3065783E+006  0.2006986E+02  0.7546771E-02  0.1532970E+00
         21   -1    0    0  503  501  0.00000000000E+00  0.00000000000E+00  0.15244867529E+03  0.15244867529E+03  0.00000000000E+00 0. -1.
         21   -1    0    0  504  502 -0.00000000000E+00 -0.00000000000E+00 -0.25090585522E+02  0.25090585522E+02  0.00000000000E+00 0.  1.
         21    1    1    2  503  502  0.12978192845E+02  0.15309011290E+02 -0.20286595784E+02  0.28536735706E+02  0.00000000000E+00 0.  1.
         21    1    1    2  504  501 -0.12978192845E+02 -0.15309011290E+02  0.14764468555E+03  0.14900252510E+03  0.00000000000E+00 0. -1.
</event>
<event>
 4    1  0.3065783E+006  0.2028200E+02  0.7546771E-02  0.1529768E+00
         21   -1    0    0  504  501  0.00000000000E+00  0.00000000000E+00  0.83106117218E+01  0.83106117218E+01  0.00000000000E+00 0. -1.
         21   -1    0    0  503  502 -0.00000000000E+00 -0.00000000000E+00 -0.71379630947E+02  0.71379630947E+02  0.00000000000E+00 0. -1.
         21    1    1    2  503  501  0.29023408664E+01 -0.20073266185E+02 -0.94734317207E+01  0.22385386000E+02  0.00000000000E+00 0. -1.
         21    1    1    2  504  502 -0.29023408664E+01  0.20073266185E+02 -0.53595587504E+02  0.57304856668E+02  0.00000000000E+00 0. -1.
</event>
<event>
 4    1  0.3065783E+006  0.2008871E+02  0.7546771E-02  0.1532684E+00
         21   -1    0    0  502  501  0.00000000000E+00  0.00000000000E+00  0.27006432797E+02  0.27006432797E+02  0.00000000000E+00 0.  1.
         21   -1    0    0  503  502 -0.00000000000E+00 -0.00000000000E+00 -0.47543162495E+03  0.47543162495E+03  0.00000000000E+00 0. -1.
         21    1    1    2  503  504 -0.90860668630E+01 -0.17916459878E+02 -0.47145216029E+03  0.47187995887E+03  0.00000000000E+00 0. -1.
         21    1    1    2  504  501  0.90860668630E+01  0.17916459878E+02  0.23026968132E+02  0.30558098877E+02  0.00000000000E+00 0.  1.
</event>
<event>
 4    1  0.3065783E+006  0.2219275E+02  0.7546771E-02  0.1502891E+00
         21   -1    0    0  504  501  0.00000000000E+00  0.00000000000E+00  0.66895274020E+02  0.66895274020E+02  0.00000000000E+00 0.  1.
         21   -1    0    0  503  502 -0.00000000000E+00 -0.00000000000E+00 -0.13721092592E+02  0.13721092592E+02  0.00000000000E+00 0.  1.
         21    1    1    2  503  501 -0.11530843876E+02  0.18962007351E+02 -0.85255792586E+00  0.22209118359E+02  0.00000000000E+00 0.  1.
         21    1    1    2  504  502  0.11530843876E+02 -0.18962007351E+02  0.54026739354E+02  0.58407248253E+02  0.00000000000E+00 0.  1.
</event>
<event>
 4    1  0.3065783E+006  0.2005383E+02  0.7546771E-02  0.1533214E+00
         21   -1    0    0  504  501  0.00000000000E+00  0.00000000000E+00  0.37435196514E+02  0.37435196514E+02  0.00000000000E+00 0. -1.
         21   -1    0    0  503  502 -0.00000000000E+00 -0.00000000000E+00 -0.29412711909E+03  0.29412711909E+03  0.00000000000E+00 0. -1.
         21    1    1    2  503  501  0.18633147960E+02 -0.74136199357E+01  0.34379533236E+02  0.39800857642E+02  0.00000000000E+00 0. -1.
         21    1    1    2  504  502 -0.18633147960E+02  0.74136199357E+01 -0.29107145581E+03  0.29176145796E+03  0.00000000000E+00 0. -1.
</event>
<event>
 4    1  0.3065783E+006  0.2280164E+02  0.7546771E-02  0.1495004E+00
         21   -1    0    0  503  501  0.00000000000E+00  0.00000000000E+00  0.14889444271E+03  0.14889444271E+03  0.00000000000E+00 0.  1.
         21   -1    0    0  504  502 -0.00000000000E+00 -0.00000000000E+00 -0.38874358587E+01  0.38874358587E+01  0.00000000000E+00 0.  1.
         21    1    1    2  503  502  0.20840528278E+02 -0.92513347038E+01  0.48134436815E+02  0.53261982879E+02  0.00000000000E+00 0.  1.
         21    1    1    2  504  501 -0.20840528278E+02  0.92513347038E+01  0.96872570040E+02  0.99519895694E+02  0.00000000000E+00 0.  1.
</event>
<event>
 4    1  0.3065783E+006  0.3648796E+02  0.7546771E-02  0.1370394E+00
         21   -1    0    0  503  501  0.00000000000E+00  0.00000000000E+00  0.10939614859E+04  0.10939614859E+04  0.00000000000E+00 0. -1.
         21   -1    0    0  504  502 -0.00000000000E+00 -0.00000000000E+00 -0.14441814306E+01  0.14441814306E+01  0.00000000000E+00 0.  1.
         21    1    1    2  503  502  0.14056613046E+02  0.33671691230E+02  0.32903704585E+03  0.33105399666E+03  0.00000000000E+00 0.  1.
         21    1    1    2  504  501 -0.14056613046E+02 -0.33671691230E+02  0.76348025863E+03  0.76435167068E+03  0.00000000000E+00 0. -1.
</event>
<event>
 4    1  0.3065783E+006  0.2578757E+02  0.7546771E-02  0.1460183E+00
         21   -1    0    0  502  501  0.00000000000E+00  0.00000000000E+00  0.15465364838E+03  0.15465364838E+03  0.00000000000E+00 0.  1.
         21   -1    0    0  503  502 -0.00000000000E+00 -0.00000000000E+00 -0.77085763739E+02  0.77085763739E+02  0.00000000000E+00 0. -1.
         21    1    1    2  503  504  0.24807227534E+02  0.70427395064E+01 -0.73807729563E+02  0.78182988309E+02  0.00000000000E+00 0. -1.
         21    1    1    2  504  501 -0.24807227534E+02 -0.70427395064E+01  0.15137561420E+03  0.15355642381E+03  0.00000000000E+00 0.  1.
</event>
<event>
 4    1  0.3065783E+006  0.3377117E+02  0.7546771E-02  0.1389414E+00
         21   -1    0    0  503  501  0.00000000000E+00  0.00000000000E+00  0.27836873527E+02  0.27836873527E+02  0.00000000000E+00 0. -1.
         21   -1    0    0  501  502 -0.00000000000E+00 -0.00000000000E+00 -0.76599893485E+02  0.76599893485E+02  0.00000000000E+00 0.  1.
         21    1    1    2  503  504 -0.17467325130E+02 -0.28903018301E+02  0.11231876566E+02  0.35589984058E+02  0.00000000000E+00 0. -1.
         21    1    1    2  504  502  0.17467325130E+02  0.28903018301E+02 -0.59994896524E+02  0.68846782953E+02  0.00000000000E+00 0.  1.
</event>
<event>
 4    1  0.3065783E+006  0.2297157E+02  0.7546771E-02  0.1492856E+00
         21   -1    0    0  503  501  0.00000000000E+00  0.00000000000E+00  0.80092084822E+01  0.80092084822E+01  0.00000000000E+00 0. -1.
         21   -1    0    0  501  502 -0.00000000000E+00 -0.00000000000E+00 -0.14388561499E+03  0.14388561499E+03  0.00000000000E+00 0. -1.
         21    1    1    2  503  504 -0.13967193171E+02 -0.18237608390E+02 -0.12020262839E+02  0.25926425970E+02  0.00000000000E+00 0. -1.
         21    1    1    2  504  502  0.13967193171E+02  0.18237608390E+02 -0.12385614367E+03  0.12596839751E+03  0.00000000000E+00 0. -1.
</event>
<event>
 4    1  0.3065783E+006  0.2557194E+02  0.7546771E-02  0.1462506E+00
         21   -1    0    0  502  501  0.00000000000E+00  0.00000000000E+00  0.90817350112E+01  0.90817350112E+01  0.00000000000E+00 0.  1.
         21   -1    0    0  504  502 -0.00000000000E+00 -0.00000000000E+00 -0.13094532509E+03  0.13094532509E+03  0.00000000000E+00 0.  1.
         21    1    1    2  503  501 -0.16063517261E+02 -0.19896920918E+02 -0.13959066580E+02  0.29133822073E+02  0.00000000000E+00 0.  1.
         21    1    1    2  504  503  0.16063517261E+02  0.19896920918E+02 -0.10790452350E+03  0.11089323803E+03  0.00000000000E+00 0.  1.
</event>
<event>
 4    1  0.3065783E+006  0.3855854E+02  0.7546771E-02  0.1357146E+00
         21   -1    0    0  504  501  0.00000000000E+00  0.00000000000E+00  0.19878571392E+03  0.19878571392E+03  0.00000000000E+00 0.  1.
         21   -1    0    0  503  502 -0.00000000000E+00 -0.00000000000E+00 -0.23446126227E+02  0.23446126227E+02  0.00000000000E+00 0.  1.
         21    1    1    2  503  501 -0.38272573679E+02 -0.46873174339E+01  0.17936596673E+03  0.18346364998E+03  0.00000000000E+00 0.  1.
         21    1    1    2  504  502  0.38272573679E+02  0.46873174339E+01 -0.40263790420E+01  0.38768190169E+02  0.00000000000E+00 0.  1.
</event>
<event>
 4    1  0.3065783E+006  0.2010183E+02  0.7546771E-02  0.1532485E+00
         21   -1    0    0  503  501  0.00000000000E+00  0.00000000000E+00  0.47337435228E+01  0.47337435228E+01  0.00000000000E+00 0.  1.
         21   -1    0    0  504  502 -0.00000000000E+00 -0.00000000000E+00 -0.19585158659E+03  0.19585158659E+03  0.00000000000E+00 0.  1.
         21    1    1    2  503  502 -0.15489202563E+02  0.12812810778E+02 -0.20229333434E+02  0.28518580737E+02  0.00000000000E+00 0.  1.
         21    1    1    2  504  501  0.15489202563E+02 -0.12812810778E+02 -0.17088850963E+03  0.17206674937E+03  0.00000000000E+00 0.  1.
</event>
<event>
 4    1  0.3065783E+006  0.2459102E+02  0.7546771E-02  0.1473431E+00
         21   -1    0    0  503  501  0.00000000000E+00  0.00000000000E+00  0.10325930007E+02  0.10325930007E+02  0.00000000000E+00 0.  1.
         21   -1    0    0  504  502 -0.00000000000E+00 -0.00000000000E+00 -0.97725818642E+02  0.97725818642E+02  0.00000000000E+00 0.  1.
         21    1    1    2  503  502 -0.22628798675E+02  0.96257962398E+01 -0.77900530970E+02  0.81689725229E+02  0.00000000000E+00 0.  1.
         21    1    1    2  504  501  0.22628798675E+02 -0.96257962398E+01 -0.94993576652E+01  0.26362023420E+02  0.00000000000E+00 0.  1.
</event>
<event>
 4    1  0.3065783E+006  0.2077457E+02  0.7546771E-02  0.1522508E+00
         21   -1    0    0  503  501  0.00000000000E+00  0.00000000000E+00  0.16793820695E+02  0.16793820695E+02  0.00000000000E+00 0.  1.
         21   -1    0    0  504  502 -0.00000000000E+00 -0.00000000000E+00 -0.78017752133E+02  0.78017752133E+02  0.00000000000E+00 0. -1.
         21    1    1    2  503  502  0.88846323050E+01  0.18778877887E+02 -0.69432694692E+02  0.72474009397E+02  0.00000000000E+00 0. -1.
         21    1    1    2  504  501 -0.88846323050E+01 -0.18778877887E+02  0.82087632545E+01  0.22337563431E+02  0.00000000000E+00 0.  1.
</event>
<event>
 4    1  0.3065783E+006  0.2168233E+02  0.7546771E-02  0.1509742E+00
         21   -1    0    0  504  501  0.00000000000E+00  0.00000000000E+00  0.32382080256E+03  0.32382080256E+03  0.00000000000E+00 0. -1.
         21   -1    0    0  503  502 -0.00000000000E+00 -0.00000000000E+00 -0.93958550056E+01  0.93958550056E+01  0.00000000000E+00 0.  1.
         21    1    1    2  503  501 -0.56992036401E+01 -0.20919902798E+02  0.40156863288E+01  0.22051054213E+02  0.00000000000E+00 0.  1.
         21    1    1    2  504  502  0.56992036401E+01  0.20919902798E+02  0.31040926122E+03  0.31116560335E+03  0.00000000000E+00 0. -1.
</event>
<event>
 4    1  0.3065783E+006  0.2111743E+02  0.7546771E-02  0.1517595E+00
         21   -1    0    0  502  501  0.00000000000E+00  0.00000000000E+00  0.17738256211E+02  0.17738256211E+02  0.00000000000E+00 0.  1.
         21   -1    0    0  504  502 -0.00000000000E+00 -0.00000000000E+00 -0.33151531272E+03  0.33151531272E+03  0.00000000000E+00 0.  1.
         21    1    1    2  503  501 -0.85787279207E+01 -0.19296409537E+02  0.10986343992E+02  0.23804322046E+02  0.00000000000E+00 0.  1.
         21    1    1    2  504  503  0.85787279207E+01  0.19296409537E+02 -0.32476340050E+03  0.32544924689E+03  0.00000000000E+00 0.  1.
</event>
<event>
 4    1  0.3065783E+006  0.2579918E+02  0.7546771E-02  0.1460058E+00
         21   -1    0    0  504  501  0.00000000000E+00  0.00000000000E+00  0.75856946411E+02  0.75856946411E+02  0.00000000000E+00 0.  1.
         21   -1    0    0  503  502 -0.00000000000E+00 -0.00000000000E+00 -0.20230157468E+02  0.20230157468E+02  0.00000000000E+00 0.  1.
         21    1    1    2  503  501  0.14979597622E+02 -0.21004979043E+02  0.63966682965E+02  0.68973429805E+02  0.00000000000E+00 0.  1.
         21    1    1    2  504  502 -0.14979597622E+02  0.21004979043E+02 -0.83398940223E+01  0.27113674074E+02  0.00000000000E+00 0.  1.
</event>
<event>
 4    1  0.3065783E+006  0.2170976E+02  0.7546771E-02  0.1509368E+00
         21   -1    0    0  503  501  0.00000000000E+00  0.00000000000E+00  0.20683310235E+03  0.20683310235E+03  0.00000000000E+00 0. -1.
         21   -1    0    0  501  502 -0.00000000000E+00 -0.00000000000E+00 -0.67605632593E+02  0.67605632593E+02  0.00000000000E+00 0. -1.
         21    1    1    2  503  504 -0.21491143740E+02  0.30731759902E+01  0.20450072266E+03  0.20564984619E+03  0.00000000000E+00 0. -1.
         21    1    1    2  504  502  0.21491143740E+02 -0.30731759902E+01 -0.65273252908E+02  0.68788888747E+02  0.00000000000E+00 0. -1.
</event>
<event>
 4    1  0.3065783E+006  0.2278272E+02  0.7546771E-02  0.1495245E+00
         21   -1    0    0  504  501  0.00000000000E+00  0.00000000000E+00  0.20733645703E+02  0.20733645703E+02  0.00000000000E+00 0. -1.
         21   -1    0    0  503  502 -0.00000000000E+00 -0.00000000000E+00 -0.64317731099E+02  0.64317731099E+02  0.00000000000E+00 0. -1.
         21    1    1    2  503  501 -0.22752543948E+02 -0.11723014146E+01  0.11442571168E+02  0.25494803032E+02  0.00000000000E+00 0. -1.
         21    1    1    2  504  502  0.22752543948E+02  0.11723014146E+01 -0.55026656564E+02  0.59556573771E+02  0.00000000000E+00 0. -1.
</event>
<event>
 4    1  0.3065783E+006  0.2899916E+02  0.7546771E-02  0.1428498E+00
         21   -1    0    0  503  501  0.00000000000E+00  0.00000000000E+00  0.37932669918E+02  0.37932669918E+02  0.00000000000E+00 0.  1.
         21   -1    0    0  504  502 -0.00000000000E+00 -0.00000000000E+00 -0.31041906057E+02  0.31041906057E+02  0.00000000000E+00 0.  1.
         21    1    1    2  503  502 -0.26529775501E+02  0.11709931721E+02 -0.14992181073E+02  0.32645320987E+02  0.00000000000E+00 0.  1.
         21    1    1    2  504  501  0.26529775501E+02 -0.11709931721E+02  0.21882944933E+02  0.36329254988E+02  0.00000000000E+00 0.  1.
</event>
<event>
 4    1  0.3065783E+006  0.2007701E+02  0.7546771E-02  0.1532862E+00
         21   -1    0    0  504  501  0.00000000000E+00  0.00000000000E+00  0.14667485936E+02  0.14667485936E+02  0.00000000000E+00 0.  1.
         21   -1    0    0  503  502 -0.00000000000E+00 -0.00000000000E+00 -0.14763829685E+04  0.14763829685E+04  0.00000000000E+00 0.  1.
         21    1    1    2  503  501  0.13674965654E+02  0.14699713735E+02 -0.14694117144E+04  0.14695488671E+04  0.00000000000E+00 0.  1.
         21    1    1    2  504  502 -0.13674965654E+02 -0.14699713735E+02  0.76962319316E+01  0.21501587278E+02  0.00000000000E+00 0.  1.
</event>
<event>
 4    1  0.3065783E+006  0.2279308E+02  0.7546771E-02  0.1495113E+00
         21   -1    0    0  504  501  0.00000000000E+00  0.00000000000E+00  0.21456935657E+01  0.21456935657E+01  0.00000000000E+00 0.  1.
         21   -1    0    0  503  502 -0.00000000000E+00 -0.00000000000E+00 -0.48487375271E+03  0.48487375271E+03  0.00000000000E+00 0.  1.
         21    1    1    2  503  501  0.19942461110E+02 -0.11037336548E+02 -0.41366237171E+03  0.41428985302E+03  0.00000000000E+00 0.  1.
         21    1    1    2  504  502 -0.19942461110E+02  0.11037336548E+02 -0.69065687435E+02  0.72729593248E+02  0.00000000000E+00 0.  1.
</event>
<event>
 4    1  0.3065783E+006  0.2197318E+02  0.7546771E-02  0.1505811E+00
         21   -1    0    0  504  501  0.00000000000E+00  0.00000000000E+00  0.10598450768E+03  0.10598450768E+03  0.00000000000E+00 0. -1.
         21   -1    0    0  503  502 -0.00000000000E+00 -0.00000000000E+00 -0.22563799312E+02  0.22563799312E+02  0.00000000000E+00 0. -1.
         21    1    1    2  503  501  0.37172515036E+01  0.21656473934E+02  0.99130679174E+02  0.10153675382E+03  0.00000000000E+00 0. -1.
         21    1    1    2  504  502 -0.37172515036E+01 -0.21656473934E+02 -0.15709970808E+02  0.27011553173E+02  0.00000000000E+00 0. -1.
</event>
<event>
 4    1  0.3065783E+006  0.2904874E+02  0.7546771E-02  0.1428047E+00
         21   -1    0    0  503  501  0.00000000000E+00  0.00000000000E+00  0.43344436427E+02  0.43344436427E+02  0.00000000000E+00 0.  1.
         21   -1    0    0  501  502 -0.00000000000E+00 -0.00000000000E+00 -0.28213396257E+02  0.28213396257E+02  0.00000000000E+00 0.  1.
         21    1    1    2  503  504  0.95522201566E+01 -0.27433273500E+02  0.27485518172E+02  0.39991037921E+02  0.00000000000E+00 0.  1.
         21    1    1    2  504  502 -0.95522201566E+01  0.27433273500E+02 -0.12354478002E+02  0.31566794762E+02  0.00000000000E+00 0.  1.
</event>
<event>
 4    1  0.3065783E+006  0.2040763E+02  0.7546771E-02  0.1527893E+00
         21   -1    0    0  503  501  0.00000000000E+00  0.00000000000E+00  0.95533563043E+02  0.95533563043E+02  0.00000000000E+00 0.  1.
         21   -1    0    0  501  502 -0.00000000000E+00 -0.00000000000E+00 -0.25348151601E+03  0.25348151601E+03  0.00000000000E+00 0.  1.
         21    1    1    2  503  504 -0.90940662501E+01 -0.18269357470E+02  0.94026447299E+02  0.96215613364E+02  0.00000000000E+00 0.  1.
         21    1    1    2  504  502  0.90940662501E+01  0.18269357470E+02 -0.25197440026E+03  0.25279946569E+03  0.00000000000E+00 0.  1.
</event>
<event>
 4    1  0.3065783E+006  0.4217731E+02  0.7546771E-02  0.1336178E+00
         21   -1    0    0  504  501  0.00000000000E+00  0.00000000000E+00  0.93261572758E+01  0.93261572758E+01  0.00000000000E+00 0. -1.
         21   -1    0    0  503  502 -0.00000000000E+00 -0.00000000000E+00 -0.29885088077E+03  0.29885088077E+03  0.00000000000E+00 0. -1.
         21    1    1    2  503  501  0.13095103270E+02 -0.40092937373E+02 -0.52086622670E+02  0.67021948777E+02  0.00000000000E+00 0. -1.
         21    1    1    2  504  502 -0.13095103270E+02  0.40092937373E+02 -0.23743810082E+03  0.24115508927E+03  0.00000000000E+00 0. -1.
</event>
<event>
 4    1  0.3065783E+006  0.2291712E+02  0.7546771E-02  0.1493541E+00
         21   -1    0    0  503  501  0.00000000000E+00  0.00000000000E+00  0.21613825338E+02  0.21613825338E+02  0.00000000000E+00 0. -1.
         21   -1    0    0  504  502 -0.00000000000E+00 -0.00000000000E+00 -0.33790304916E+02  0.33790304916E+02  0.00000000000E+00 0.  1.
         21    1    1    2  503  502 -0.22083365112E+02  0.61253203926E+01  0.85935437824E+01  0.24475366377E+02  0.00000000000E+00 0. -1.
         21    1    1    2  504  501  0.22083365112E+02 -0.61253203926E+01 -0.20770023360E+02  0.30928763877E+02  0.00000000000E+00 0.  1.
</event>
<event>
 4    1  0.3065783E+006  0.3927104E+02  0.7546771E-02  0.1352811E+00
         21   -1    0    0  504  501  0.00000000000E+00  0.00000000000E+00  0.12120383410E+02  0.12120383410E+02  0.00000000000E+00 0. -1.
         21   -1    0    0  501  502 -0.00000000000E+00 -0.00000000000E+00 -0.21253777795E+03  0.21253777795E+03  0.00000000000E+00 0. -1.
         21    1    1    2  503  502 -0.29713279162E+02 -0.25677537960E+02 -0.17136925704E+03  0.17581136815E+03  0.00000000000E+00 0. -1.
         21    1    1    2  504  503  0.29713279162E+02  0.25677537960E+02 -0.29048137503E+02  0.48846793207E+02  0.00000000000E+00 0. -1.
</event>
<event>
 4    1  0.3065783E+006  0.2573804E+02  0.7546771E-02  0.1460714E+00
         21   -1    0    0  504  501  0.00000000000E+00  0.00000000000E+00  0.14712031066E+02  0.14712031066E+02  0.00000000000E+00 0. -1.
         21   -1    0    0  503  502 -0.00000000000E+00 -0.00000000000E+00 -0.45203500479E+02  0.45203500479E+02  0.00000000000E+00 0. -1.
         21    1    1    2  503  501  0.14019007612E+02 -0.21585038231E+02 -0.17114870295E+02  0.30908983081E+02  0.00000000000E+00 0. -1.
         21    1    1    2  504  502 -0.14019007612E+02  0.21585038231E+02 -0.13376599118E+02  0.29006548465E+02  0.00000000000E+00 0. -1.
</event>
<event>
 4    1  0.3065783E+006  0.2250829E+02  0.7546771E-02  0.1498767E+00
         21   -1    0    0  503  501  0.00000000000E+00  0.00000000000E+00  0.32094854865E+02  0.32094854865E+02  0.00000000000E+00 0. -1.
         21   -1    0    0  504  502 -0.00000000000E+00 -0.00000000000E+00 -0.35937471866E+03  0.35937471866E+03  0.00000000000E+00 0. -1.
         21    1    1    2  503  502  0.10336737590E+02  0.19994369634E+02 -0.35502772040E+03  0.35574050263E+03  0.00000000000E+00 0. -1.
         21    1    1    2  504  501 -0.10336737590E+02 -0.19994369634E+02  0.27747856602E+02  0.35729070896E+02  0.00000000000E+00 0. -1.
</event>
<event>
 4    1  0.3065783E+006  0.2381543E+02  0.7546771E-02  0.1482505E+00
         21   -1    0    0  502  501  0.00000000000E+00  0.00000000000E+00  0.66093115170E+02  0.66093115170E+02  0.00000000000E+00 0. -1.
         21   -1    0    0  503  502 -0.00000000000E+00 -0.00000000000E+00 -0.16438188816E+02  0.16438188816E+02  0.00000000000E+00 0. -1.
         21    1    1    2  503  504 -0.13049621668E+02 -0.19921898457E+02 -0.37012989951E+01  0.24101333532E+02  0.00000000000E+00 0. -1.
         21    1    1    2  504  501  0.13049621668E+02  0.19921898457E+02  0.53356225349E+02  0.58429970454E+02  0.00000000000E+00 0. -1.
</event>
<event>
 4    1  0.3065783E+006  0.2680961E+02  0.7546771E-02  0.1449530E+00
         21   -1    0    0  504  501  0.00000000000E+00  0.00000000000E+00  0.30236943350E+03  0.30236943350E+03  0.00000000000E+00 0.  1.
         21   -1    0    0  501  502 -0.00000000000E+00 -0.00000000000E+00 -0.30871462572E+02  0.30871462572E+02  0.00000000000E+00 0.  1.
         21    1    1    2  503  502  0.19041999921E+02 -0.18872138699E+02 -0.24328165007E+02  0.36202416945E+02  0.00000000000E+00 0.  1.
         21    1    1    2  504  503 -0.19041999921E+02  0.18872138699E+02  0.29582613594E+03  0.29703847913E+03  0.00000000000E+00 0.  1.
</event>
<event>
 4    1  0.3065783E+006  0.3133005E+02  0.7546771E-02  0.1408380E+00
         21   -1    0    0  502  501  0.00000000000E+00  0.00000000000E+00  0.78222717336E+01  0.78222717336E+01  0.00000000000E+00 0. -1.
         21   -1    0    0  503  502 -0.00000000000E+00 -0.00000000000E+00 -0.13587933181E+03  0.13587933181E+03  0.00000000000E+00 0. -1.
         21    1    1    2  503  504  0.26131368005E+02  0.17283615422E+02 -0.83901796842E+02  0.89560500608E+02  0.00000000000E+00 0. -1.
         21    1    1    2  504  501 -0.26131368005E+02 -0.17283615422E+02 -0.44155263239E+02  0.54141102940E+02  0.00000000000E+00 0. -1.
</event>
<event>
 4    1  0.3065783E+006  0.2911448E+02  0.7546771E-02  0.1427451E+00
         21   -1    0    0  504  501  0.00000000000E+00  0.00000000000E+00  0.16180493321E+02  0.16180493321E+02  0.00000000000E+00 0. -1.
         21   -1    0    0  503  502 -0.00000000000E+00 -0.00000000000E+00 -0.11078331893E+03  0.11078331893E+03  0.00000000000E+00 0.  1.
         21    1    1    2  503  501 -0.19727992019E+02 -0.21411666390E+02 -0.93391148350E+02  0.97824126456E+02  0.00000000000E+00 0.  1.
         21    1    1    2  504  502  0.19727992019E+02  0.21411666390E+02 -0.12116772629E+01  0.29139685799E+02  0.00000000000E+00 0. -1.
</event>
<event>
 4    1  0.3413283E+006  0.2004716E+02  0.7546771E-02  0.1533316E+00
         21   -1    0    0  504  501  0.00000000000E+00  0.00000000000E+00  0.12604318444E+03  0.12604318444E+03  0.00000000000E+00 0.  1.
         21   -1    0    0  503  502 -0.00000000000E+00 -0.00000000000E+00 -0.95229177376E+02  0.95229177376E+02  0.00000000000E+00 0.  1.
         21    1    1    2  503  501  0.19703171702E+02 -0.36977998631E+01 -0.93361226757E+02  0.95489304954E+02  0.00000000000E+00 0.  1.
         21    1    1    2  504  502 -0.19703171702E+02  0.36977998631E+01  0.12417523382E+03  0.12578305686E+03  0.00000000000E+00 0.  1.
</event>
<event>
 4    1  0.3065783E+006  0.3463487E+02  0.7546771E-02  0.1383148E+00
         21   -1    0    0  504  501  0.00000000000E+00  0.00000000000E+00  0.31534850606E+02  0.31534850606E+02  0.00000000000E+00 0.  1.
         21   -1    0    0  501  502 -0.00000000000E+00 -0.00000000000E+00 -0.16545929349E+03  0.16545929349E+03  0.00000000000E+00 0.  1.
         21    1    1    2  503  502  0.64056560131E+01  0.34037361731E+02 -0.15339847696E+03  0.15725987141E+03  0.00000000000E+00 0.  1.
         21    1    1    2  504  503 -0.64056560131E+01 -0.34037361731E+02  0.19474034076E+02  0.39734272685E+02  0.00000000000E+00 0.  1.
</event>
<event>
 4    1  0.3065783E+006  0.3284693E+02  0.7546771E-02  0.1396366E+00
         21   -1    0    0  503  501  0.00000000000E+00  0.00000000000E+00  0.89580407365E+01  0.89580407365E+01  0.00000000000E+00 0.  1.
         21   -1    0    0  504  502 -0.00000000000E+00 -0.00000000000E+00 -0.12568859603E+03  0.12568859603E+03  0.00000000000E+00 0.  1.
         21    1    1    2  503  502  0.41347718121E+01  0.32585645445E+02 -0.44609867159E+02  0.55398202814E+02  0.00000000000E+00 0.  1.
         21    1    1    2  504  501 -0.41347718121E+01 -0.32585645445E+02 -0.72120688131E+02  0.79248433950E+02  0.00000000000E+00 0.  1.
</event>
<event>
 4    1  0.3065783E+006  0.2297163E+02  0.7546771E-02  0.1492855E+00
         21   -1    0    0  502  501  0.00000000000E+00  0.00000000000E+00  0.52394552596E+02  0.52394552596E+02  0.00000000000E+00 0.  1.
         21   -1    0    0  504  502 -0.00000000000E+00 -0.00000000000E+00 -0.11029412585E+02  0.11029412585E+02  0.00000000000E+00 0.  1.
         21    1    1    2  503  501  0.15778181587E+02 -0.16695655673E+02  0.30027842883E+02  0.37806973969E+02  0.00000000000E+00 0.  1.
         21    1    1    2  504  503 -0.15778181587E+02  0.16695655673E+02  0.11337297129E+02  0.25616991211E+02  0.00000000000E+00 0.  1.
</event>
<event>
 4    1  0.3065783E+006  0.2780011E+02  0.7546771E-02  0.1439732E+00
         21   -1    0    0  504  501  0.00000000000E+00  0.00000000000E+00  0.18235234911E+03  0.18235234911E+03  0.00000000000E+00 0. -1.
         21   -1    0    0  501  502 -0.00000000000E+00 -0.00000000000E+00 -0.49135674273E+01  0.49135674273E+01  0.00000000000E+00 0. -1.
         21    1    1    2  503  502 -0.22540065473E+02 -0.16272418325E+02  0.54005795768E+02  0.60741025067E+02  0.00000000000E+00 0. -1.
         21    1    1    2  504  503  0.22540065473E+02  0.16272418325E+02  0.12343298591E+03  0.12652489147E+03  0.00000000000E+00 0. -1.
</event>
<event>
 4    1  0.3065783E+006  0.3226892E+02  0.7546771E-02  0.1400852E+00
         21   -1    0    0  503  501  0.00000000000E+00  0.00000000000E+00  0.12620181838E+03  0.12620181838E+03  0.00000000000E+00 0. -1.
         21   -1    0    0  501  502 -0.00000000000E+00 -0.00000000000E+00 -0.42155887452E+03  0.42155887452E+03  0.00000000000E+00 0. -1.
         21    1    1    2  503  504 -0.13308954020E+02 -0.29396516579E+02  0.12350831945E+03  0.12765417508E+03  0.00000000000E+00 0. -1.
         21    1    1    2  504  502  0.13308954020E+02  0.29396516579E+02 -0.41886537559E+03  0.42010651782E+03  0.00000000000E+00 0. -1.
</event>
<event>
 4    1  0.3065783E+006  0.2691287E+02  0.7546771E-02  0.1448485E+00
         21   -1    0    0  504  501  0.00000000000E+00  0.00000000000E+00  0.71202055579E+02  0.71202055579E+02  0.00000000000E+00 0. -1.
         21   -1    0    0  503  502 -0.00000000000E+00 -0.00000000000E+00 -0.14124014709E+02  0.14124014709E+02  0.00000000000E+00 0. -1.
         21    1    1    2  503  501 -0.26299824123E+02  0.57115469048E+01  0.59730105827E+01  0.27567723380E+02  0.00000000000E+00 0. -1.
         21    1    1    2  504  502  0.26299824123E+02 -0.57115469048E+01  0.51105030287E+02  0.57758346908E+02  0.00000000000E+00 0. -1.
</event>
<event>
 4    1  0.3065783E+006  0.3593807E+02  0.7546771E-02  0.1374086E+00
         21   -1    0    0  504  501  0.00000000000E+00  0.00000000000E+00  0.21234444405E+02  0.21234444405E+02  0.00000000000E+00 0.  1.
         21   -1    0    0  503  502 -0.00000000000E+00 -0.00000000000E+00 -0.65835287878E+02  0.65835287878E+02  0.00000000000E+00 0.  1.
         21    1    1    2  503  501  0.32420551753E+02 -0.15506531887E+02 -0.34312594583E+02  0.49688015196E+02  0.00000000000E+00 0.  1.
         21    1    1    2  504  502 -0.32420551753E+02  0.15506531887E+02 -0.10288248890E+02  0.37381717087E+02  0.00000000000E+00 0.  1.
</event>
<event>
 4    1  0.3065783E+006  0.2317560E+02  0.7546771E-02  0.1490305E+00
         21   -1    0    0  504  501  0.00000000000E+00  0.00000000000E+00  0.23566585111E+03  0.23566585111E+03  0.00000000000E+00 0. -1.
         21   -1    0    0  501  502 -0.00000000000E+00 -0.00000000000E+00 -0.14005031082E+03  0.14005031082E+03  0.00000000000E+00 0.  1.
         21    1    1    2  503  502  0.21981505247E+02 -0.73431509977E+01 -0.13851548575E+03  0.14044090655E+03  0.00000000000E+00 0.  1.
         21    1    1    2  504  503 -0.21981505247E+02  0.73431509977E+01  0.23413102604E+03  0.23527525538E+03  0.00000000000E+00 0. -1.
</event>
<event>
 4    1  0.3065783E+006  0.2767023E+02  0.7546771E-02  0.1440989E+00
         21   -1    0    0  503  501  0.00000000000E+00  0.00000000000E+00  0.80364212206E+02  0.80364212206E+02  0.00000000000E+00 0.  1.
         21   -1    0    0  501  502 -0.00000000000E+00 -0.00000000000E+00 -0.14954394413E+03  0.14954394413E+03  0.00000000000E+00 0.  1.
         21    1    1    2  503  504  0.15957013736E+02  0.22605645356E+02  0.76642209471E+02  0.81484168781E+02  0.00000000000E+00 0.  1.
         21    1    1    2  504  502 -0.15957013736E+02 -0.22605645356E+02 -0.14582194139E+03  0.14842398755E+03  0.00000000000E+00 0.  1.
</event>
<event>
 4    1  0.3065783E+006  0.2026437E+02  0.7546771E-02  0.1530032E+00
         21   -1    0    0  502  501  0.00000000000E+00  0.00000000000E+00  0.91251062069E+01  0.91251062069E+01  0.00000000000E+00 0. -1.
         21   -1    0    0  503  502 -0.00000000000E+00 -0.00000000000E+00 -0.14926274274E+03  0.14926274274E+03  0.00000000000E+00 0. -1.
         21    1    1    2  503  504  0.14733271187E+01  0.20210737317E+02 -0.13625652702E+03  0.13775516597E+03  0.00000000000E+00 0. -1.
         21    1    1    2  504  501 -0.14733271187E+01 -0.20210737317E+02 -0.38811095103E+01  0.20632682975E+02  0.00000000000E+00 0. -1.
</event>
<event>
 4    1  0.3065783E+006  0.2325964E+02  0.7546771E-02  0.1489263E+00
         21   -1    0    0  504  501  0.00000000000E+00  0.00000000000E+00  0.84252558822E+02  0.84252558822E+02  0.00000000000E+00 0. -1.
         21   -1    0    0  503  502 -0.00000000000E+00 -0.00000000000E+00 -0.23175585250E+03  0.23175585250E+03  0.00000000000E+00 0.  1.
         21    1    1    2  503  501  0.19164541858E+02  0.13180706447E+02  0.82048258831E+02  0.85281460261E+02  0.00000000000E+00 0. -1.
         21    1    1    2  504  502 -0.19164541858E+02 -0.13180706447E+02 -0.22955155251E+03  0.23072695106E+03  0.00000000000E+00 0.  1.
</event>
<event>
 4    1  0.3065783E+006  0.3230312E+02  0.7546771E-02  0.1400584E+00
         21   -1    0    0  502  501  0.00000000000E+00  0.00000000000E+00  0.36895967004E+03  0.36895967004E+03  0.00000000000E+00 0.  1.
         21   -1    0    0  504  502 -0.00000000000E+00 -0.00000000000E+00 -0.23765364986E+02  0.23765364986E+02  0.00000000000E+00 0. -1.
         21    1    1    2  503  501  0.24879185033E+02 -0.20603820655E+02  0.35690562422E+03  0.35836450141E+03  0.00000000000E+00 0.  1.
         21    1    1    2  504  503 -0.24879185033E+02  0.20603820655E+02 -0.11711319167E+02  0.34360533612E+02  0.00000000000E+00 0. -1.
</event>
<event>
 4    1  0.3065783E+006  0.2502842E+02  0.7546771E-02  0.1468486E+00
         21   -1    0    0  503  501  0.00000000000E+00  0.00000000000E+00  0.44726179138E+02  0.44726179138E+02  0.00000000000E+00 0.  1.
         21   -1    0    0  501  502 -0.00000000000E+00 -0.00000000000E+00 -0.27202838680E+02  0.27202838680E+02  0.00000000000E+00 0.  1.
         21    1    1    2  503  504 -0.22510416622E+02 -0.10940892447E+02  0.33811611622E+02  0.42067173241E+02  0.00000000000E+00 0.  1.
         21    1    1    2  504  502  0.22510416622E+02  0.10940892447E+02 -0.16288271164E+02  0.29861844577E+02  0.00000000000E+00 0.  1.
</event>
<event>
 4    1  0.3065783E+006  0.2431098E+02  0.7546771E-02  0.1476661E+00
         21   -1    0    0  504  501  0.00000000000E+00  0.00000000000E+00  0.25387802477E+03  0.25387802477E+03  0.00000000000E+00 0. -1.
         21   -1    0    0  503  502 -0.00000000000E+00 -0.00000000000E+00 -0.30611841158E+02  0.30611841158E+02  0.00000000000E+00 0. -1.
         21    1    1    2  503  501 -0.11329250151E+02 -0.21509807097E+02 -0.25096149873E+02  0.34940527311E+02  0.00000000000E+00 0. -1.
         21    1    1    2  504  502  0.11329250151E+02  0.21509807097E+02  0.24836233349E+03  0.24954933862E+03  0.00000000000E+00 0. -1.
</event>
<event>
 4    1  0.3065783E+006  0.2107531E+02  0.7546771E-02  0.1518192E+00
         21   -1    0    0  502  501  0.00000000000E+00  0.00000000000E+00  0.75311423034E+02  0.75311423034E+02  0.00000000000E+00 0. -1.
         21   -1    0    0  504  502 -0.00000000000E+00 -0.00000000000E+00 -0.47298104612E+02  0.47298104612E+02  0.00000000000E+00 0.  1.
         21    1    1    2  503  501 -0.15180735894E+02 -0.14618962368E+02  0.71362060899E+02  0.74409089087E+02  0.00000000000E+00 0. -1.
         21    1    1    2  504  503  0.15180735894E+02  0.14618962368E+02 -0.43348742477E+02  0.48200438560E+02  0.00000000000E+00 0.  1.
</event>
<event>
 4    1  0.3065783E+006  0.2310280E+02  0.7546771E-02  0.1491211E+00
         21   -1    0    0  504  501  0.00000000000E+00  0.00000000000E+00  0.26722624493E+02  0.26722624493E+02  0.00000000000E+00 0.  1.
         21   -1    0    0  503  502 -0.00000000000E+00 -0.00000000000E+00 -0.20824375482E+02  0.20824375482E+02  0.00000000000E+00 0.  1.
         21    1    1    2  503  501 -0.18989759818E+02  0.13157830972E+02 -0.18569048133E+01  0.23177307637E+02  0.00000000000E+00 0.  1.
         21    1    1    2  504  502  0.18989759818E+02 -0.13157830972E+02  0.77551538248E+01  0.24369692338E+02  0.00000000000E+00 0.  1.
</event>
<event>
 4    1  0.3065783E+006  0.3791161E+02  0.7546771E-02  0.1361178E+00
         21   -1    0    0  503  501  0.00000000000E+00  0.00000000000E+00  0.13265708340E+03  0.13265708340E+03  0.00000000000E+00 0. -1.
         21   -1    0    0  504  502 -0.00000000000E+00 -0.00000000000E+00 -0.16917115906E+02  0.16917115906E+02  0.00000000000E+00 0. -1.
         21    1    1    2  503  502  0.18054592625E+02  0.33336492511E+02  0.10271396715E+03  0.10948720974E+03  0.00000000000E+00 0. -1.
         21    1    1    2  504  501 -0.18054592625E+02 -0.33336492511E+02  0.13026000341E+02  0.40086989569E+02  0.00000000000E+00 0. -1.
</event>
<event>
 4    1  0.3065783E+006  0.2205685E+02  0.7546771E-02  0.1504693E+00
         21   -1    0    0  503  501  0.00000000000E+00  0.00000000000E+00  0.41907361028E+01  0.41907361028E+01  0.00000000000E+00 0. -1.
         21   -1    0    0  504  502 -0.00000000000E+00 -0.00000000000E+00 -0.68849547422E+03  0.68849547422E+03  0.00000000000E+00 0. -1.
         21    1    1    2  503  502 -0.20660725467E+02 -0.77226437948E+01 -0.26355596642E+02  0.34367459585E+02  0.00000000000E+00 0. -1.
         21    1    1    2  504  501  0.20660725467E+02  0.77226437948E+01 -0.65794914148E+03  0.65831875074E+03  0.00000000000E+00 0. -1.
</event>
<event>
 4    1  0.3065783E+006  0.2066794E+02  0.7546771E-02  0.1524059E+00
         21   -1    0    0  502  501  0.00000000000E+00  0.00000000000E+00  0.26165005078E+02  0.26165005078E+02  0.00000000000E+00 0. -1.
         21   -1    0    0  503  502 -0.00000000000E+00 -0.00000000000E+00 -0.18450114346E+03  0.18450114346E+03  0.00000000000E+00 0.  1.
         21    1    1    2  503  504 -0.42096223857E+01 -0.20234697067E+02 -0.17973296953E+03  0.18091739613E+03  0.00000000000E+00 0.  1.
         21    1    1    2  504  501  0.42096223857E+01  0.20234697067E+02  0.21396831155E+02  0.29748752402E+02  0.00000000000E+00 0. -1.
</event>
<event>
 4    1  0.3065783E+006  0.2012206E+02  0.7546771E-02  0.1532178E+00
         21   -1    0    0  502  501  0.00000000000E+00  0.00000000000E+00  0.23301533339E+03  0.23301533339E+03  0.00000000000E+00 0.  1.
         21   -1    0    0  503  502 -0.00000000000E+00 -0.00000000000E+00 -0.17658678793E+01  0.17658678793E+01  0.00000000000E+00 0.  1.
         21    1    1    2  503  504  0.18205523194E+02  0.85706577671E+01  0.10078324896E+03  0.10277237236E+03  0.00000000000E+00 0.  1.
         21    1    1    2  504  501 -0.18205523194E+02 -0.85706577671E+01  0.13046621656E+03  0.13200882892E+03  0.00000000000E+00 0.  1.
</event>
<event>
 4    1  0.3065783E+006  0.2072063E+02  0.7546771E-02  0.1523291E+00
         21   -1    0    0  503  501  0.00000000000E+00  0.00000000000E+00  0.13256448186E+02  0.13256448186E+02  0.00000000000E+00 0. -1.
         21   -1    0    0  501  502 -0.00000000000E+00 -0.00000000000E+00 -0.13287267085E+03  0.13287267085E+03  0.00000000000E+00 0. -1.
         21    1    1    2  503  504  0.10690405601E+02  0.17749917010E+02  0.37307963856E+01  0.21053815982E+02  0.00000000000E+00 0. -1.
         21    1    1    2  504  502 -0.10690405601E+02 -0.17749917010E+02 -0.12334701905E+03  0.12507530306E+03  0.00000000000E+00 0. -1.
</event>
<event>
 4    1  0.3065783E+006  0.2744590E+02  0.7546771E-02  0.1443180E+00
         21   -1    0    0  504  501  0.00000000000E+00  0.00000000000E+00  0.23663200665E+01  0.23663200665E+01  0.00000000000E+00 0. -1.
         21   -1    0    0  503  502 -0.00000000000E+00 -0.00000000000E+00 -0.61692044196E+03  0.61692044196E+03  0.00000000000E+00 0. -1.
         21    1    1    2  503  501 -0.16082159581E+02 -0.22240535847E+02 -0.91858492648E+02  0.95871059049E+02  0.00000000000E+00 0. -1.
         21    1    1    2  504  502  0.16082159581E+02  0.22240535847E+02 -0.52269562925E+03  0.52341570298E+03  0.00000000000E+00 0. -1.
</event>
<event>
 4    1  0.3065783E+006  0.2029677E+02  0.7546771E-02  0.1529546E+00
         21   -1    0    0  502  501  0.00000000000E+00  0.00000000000E+00  0.22758321612E+02  0.22758321612E+02  0.00000000000E+00 0.  1.
         21   -1    0    0  504  502 -0.00000000000E+00 -0.00000000000E+00 -0.36188525578E+02  0.36188525578E+02  0.00000000000E+00 0.  1.
         21    1    1    2  503  501 -0.18272127998E+02  0.88367438256E+01  0.14121614121E+02  0.24726073048E+02  0.00000000000E+00 0.  1.
         21    1    1    2  504  503  0.18272127998E+02 -0.88367438256E+01 -0.27551818086E+02  0.34220774142E+02  0.00000000000E+00 0.  1.
</event>
<event>
 4    1  0.3065783E+006  0.2366254E+02  0.7546771E-02  0.1484342E+00
         21   -1    0    0  504  501  0.00000000000E+00  0.00000000000E+00  0.54347034992E+02  0.54347034992E+02  0.00000000000E+00 0. -1.
         21   -1    0    0  503  502 -0.00000000000E+00 -0.00000000000E+00 -0.10536292949E+02  0.10536292949E+02  0.00000000000E+00 0. -1.
         21    1    1    2  503  501  0.32329133898E+01  0.23440649999E+02  0.26736863930E+02  0.35704001095E+02  0.00000000000E+00 0. -1.
         21    1    1    2  504  502 -0.32329133898E+01 -0.23440649999E+02  0.17073878112E+02  0.29179326846E+02  0.00000000000E+00 0. -1.
</event>
<event>
 4    1  0.3065783E+006  0.2257531E+02  0.7546771E-02  0.1497901E+00
         21   -1    0    0  503  501  0.00000000000E+00  0.00000000000E+00  0.28433597584E+02  0.28433597584E+02  0.00000000000E+00 0.  1.
         21   -1    0    0  504  502 -0.00000000000E+00 -0.00000000000E+00 -0.12525765178E+03  0.12525765178E+03  0.00000000000E+00 0. -1.
         21    1    1    2  503  502  0.15743689492E+02  0.16179637588E+02 -0.11954728667E+03  0.12166017500E+03  0.00000000000E+00 0. -1.
         21    1    1    2  504  501 -0.15743689492E+02 -0.16179637588E+02  0.22723232469E+02  0.32031074367E+02  0.00000000000E+00 0.  1.
</event>
<event>
 4    1  0.3065783E+006  0.2186183E+02  0.7546771E-02  0.1507307E+00
         21   -1    0    0  504  501  0.00000000000E+00  0.00000000000E+00  0.27547954562E+02  0.27547954562E+02  0.00000000000E+00 0. -1.
         21   -1    0    0  503  502 -0.00000000000E+00 -0.00000000000E+00 -0.59649848480E+03  0.59649848480E+03  0.00000000000E+00 0.  1.
         21    1    1    2  503  501  0.76678591200E+01  0.20472991482E+02  0.22976820056E+02  0.31715512034E+02  0.00000000000E+00 0. -1.
         21    1    1    2  504  502 -0.76678591200E+01 -0.20472991482E+02 -0.59192735029E+03  0.59233092733E+03  0.00000000000E+00 0.  1.
</event>
<event>
 4    1  0.3065783E+006  0.2143352E+02  0.7546771E-02  0.1513164E+00
         21   -1    0    0  504  501  0.00000000000E+00  0.00000000000E+00  0.52603905705E+01  0.52603905705E+01  0.00000000000E+00 0.  1.
         21   -1    0    0  501  502 -0.00000000000E+00 -0.00000000000E+00 -0.10524522705E+03  0.10524522705E+03  0.00000000000E+00 0.  1.
         21    1    1    2  503  502  0.10554211743E+01  0.21407523753E+02 -0.72787980447E+02  0.75878100165E+02  0.00000000000E+00 0.  1.
         21    1    1    2  504  503 -0.10554211743E+01 -0.21407523753E+02 -0.27196856033E+02  0.34627517456E+02  0.00000000000E+00 0.  1.
</event>
<event>
 4    1  0.3065783E+006  0.2390094E+02  0.7546771E-02  0.1481485E+00
         21   -1    0    0  503  501  0.00000000000E+00  0.00000000000E+00  0.30709198152E+02  0.30709198152E+02  0.00000000000E+00 0.  1.
         21   -1    0    0  504  502 -0.00000000000E+00 -0.00000000000E+00 -0.24183277226E+02  0.24183277226E+02  0.00000000000E+00 0. -1.
         21    1    1    2  503  502 -0.23788953224E+02 -0.23109929019E+01 -0.99223056267E+01  0.25878700366E+02  0.00000000000E+00 0. -1.
         21    1    1    2  504  501  0.23788953224E+02  0.23109929019E+01  0.16448226553E+02  0.29013775012E+02  0.00000000000E+00 0.  1.
</event>
<event>
 4    1  0.3065783E+006  0.3216585E+02  0.7546771E-02  0.1401664E+00
         21   -1    0    0  504  501  0.00000000000E+00  0.00000000000E+00  0.12981408796E+03  0.12981408796E+03  0.00000000000E+00 0. -1.
         21   -1    0    0  503  502 -0.00000000000E+00 -0.00000000000E+00 -0.17024859650E+02  0.17024859650E+02  0.00000000000E+00 0. -1.
         21    1    1    2  503  501 -0.11487683848E+02 -0.30044547568E+02  0.10993802449E+03  0.11454698140E+03  0.00000000000E+00 0. -1.
         21    1    1    2  504  502  0.11487683848E+02  0.30044547568E+02  0.28512038236E+01  0.32291966215E+02  0.00000000000E+00 0. -1.
</event>
<event>
 4    1  0.3065783E+006  0.2035824E+02  0.7546771E-02  0.1528628E+00
         21   -1    0    0  503  501  0.00000000000E+00  0.00000000000E+00  0.24962126665E+03  0.24962126665E+03  0.00000000000E+00 0.  1.
         21   -1    0    0  504  502 -0.00000000000E+00 -0.00000000000E+00 -0.17734274283E+01  0.17734274283E+01  0.00000000000E+00 0.  1.
         21    1    1    2  503  502 -0.48827604697E+01 -0.19764023662E+02  0.15566433913E+03  0.15698995018E+03  0.00000000000E+00 0.  1.
         21    1    1    2  504  501  0.48827604697E+01  0.19764023662E+02  0.92183500093E+02  0.94404743898E+02  0.00000000000E+00 0.  1.
</event>
<event>
 4    1  0.3065783E+006  0.3477052E+02  0.7546771E-02  0.1382184E+00
         21   -1    0    0  503  501  0.00000000000E+00  0.00000000000E+00  0.16815848553E+02  0.16815848553E+02  0.00000000000E+00 0.  1.
         21   -1    0    0  504  502 -0.00000000000E+00 -0.00000000000E+00 -0.26078339083E+03  0.26078339083E+03  0.00000000000E+00 0. -1.
         21    1    1    2  503  502  0.12893777122E+02 -0.32291477360E+02 -0.24011100057E+03  0.24261550155E+03  0.00000000000E+00 0. -1.
         21    1    1    2  504  501 -0.12893777122E+02  0.32291477360E+02 -0.38565417050E+01  0.34983737829E+02  0.00000000000E+00 0.  1.
</event>
<event>
 4    1  0.3065783E+006  0.3537803E+02  0.7546771E-02  0.1377925E+00
         21   -1    0    0  504  501  0.00000000000E+00  0.00000000000E+00  0.10360468300E+03  0.10360468300E+03  0.00000000000E+00 0.  1.
         21   -1    0    0  503  502 -0.00000000000E+00 -0.00000000000E+00 -0.12350822527E+02  0.12350822527E+02  0.00000000000E+00 0.  1.
         21    1    1    2  503  501  0.12114721805E+02  0.33239106520E+02  0.37050825272E+02  0.51228589088E+02  0.00000000000E+00 0.  1.
         21    1    1    2  504  502 -0.12114721805E+02 -0.33239106520E+02  0.54203035202E+02  0.64726916440E+02  0.00000000000E+00 0.  1.
</event>
<event>
 4    1  0.3065783E+006  0.2073996E+02  0.7546771E-02  0.1523010E+00
         21   -1    0    0  504  501  0.00000000000E+00  0.00000000000E+00  0.29630333513E+02  0.29630333513E+02  0.00000000000E+00 0. -1.
         21   -1    0    0  503  502 -0.00000000000E+00 -0.00000000000E+00 -0.35944905861E+02  0.35944905861E+02  0.00000000000E+00 0.  1.
         21    1    1    2  503  501 -0.11705117246E+02  0.17121219156E+02  0.22157850135E+02  0.30349896832E+02  0.00000000000E+00 0. -1.
         21    1    1    2  504  502  0.11705117246E+02 -0.17121219156E+02 -0.28472422483E+02  0.35225342542E+02  0.00000000000E+00 0.  1.
</event>
<event>
 4    1  0.3065783E+006  0.2419714E+02  0.7546771E-02  0.1477989E+00
         21   -1    0    0  503  501  0.00000000000E+00  0.00000000000E+00  0.14282405168E+03  0.14282405168E+03  0.00000000000E+00 0. -1.
         21   -1    0    0  504  502 -0.00000000000E+00 -0.00000000000E+00 -0.32672266884E+02  0.32672266884E+02  0.00000000000E+00 0. -1.
         21    1    1    2  503  502 -0.54484099992E-01  0.24197080848E+02 -0.26982843621E+02  0.36243282687E+02  0.00000000000E+00 0. -1.
         21    1    1    2  504  501  0.54484099992E-01 -0.24197080848E+02  0.13713462842E+03  0.13925303588E+03  0.00000000000E+00 0. -1.
</event>
<event>
 4    1  0.3065783E+006  0.2012149E+02  0.7546771E-02  0.1532187E+00
         21   -1    0    0  502  501  0.00000000000E+00  0.00000000000E+00  0.15645983486E+02  0.15645983486E+02  0.00000000000E+00 0. -1.
         21   -1    0    0  504  502 -0.00000000000E+00 -0.00000000000E+00 -0.78674240666E+02  0.78674240666E+02  0.00000000000E+00 0. -1.
         21    1    1    2  503  501  0.15260859918E+02  0.13114135422E+02  0.71193042213E+01  0.21343825475E+02  0.00000000000E+00 0. -1.
         21    1    1    2  504  503 -0.15260859918E+02 -0.13114135422E+02 -0.70147561401E+02  0.72976398677E+02  0.00000000000E+00 0. -1.
</event>
<event>
 4    1  0.3065783E+006  0.2131882E+02  0.7546771E-02  0.1514761E+00
         21   -1    0    0  502  501  0.00000000000E+00  0.00000000000E+00  0.44663610242E+01  0.44663610242E+01  0.00000000000E+00 0.  1.
         21   -1    0    0  503  502 -0.00000000000E+00 -0.00000000000E+00 -0.15114586878E+03  0.15114586878E+03  0.00000000000E+00 0.  1.
         21    1    1    2  503  504 -0.17985993529E+02 -0.11445349713E+02 -0.11781534889E+03  0.11972864497E+03  0.00000000000E+00 0.  1.
         21    1    1    2  504  501  0.17985993529E+02  0.11445349713E+02 -0.28864158869E+02  0.35883584833E+02  0.00000000000E+00 0.  1.
</event>
<event>
 4    1  0.3065783E+006  0.2870508E+02  0.7546771E-02  0.1431193E+00
         21   -1    0    0  504  501  0.00000000000E+00  0.00000000000E+00  0.74502757688E+01  0.74502757688E+01  0.00000000000E+00 0. -1.
         21   -1    0    0  503  502 -0.00000000000E+00 -0.00000000000E+00 -0.12298594008E+03  0.12298594008E+03  0.00000000000E+00 0. -1.
         21    1    1    2  503  501  0.19837818831E+02 -0.20747113976E+02 -0.78466813027E+02  0.83552513673E+02  0.00000000000E+00 0. -1.
         21    1    1    2  504  502 -0.19837818831E+02  0.20747113976E+02 -0.37068851287E+02  0.46883702180E+02  0.00000000000E+00 0. -1.
</event>
<event>
 4    1  0.3065783E+006  0.2328295E+02  0.7546771E-02  0.1488975E+00
         21   -1    0    0  504  501  0.00000000000E+00  0.00000000000E+00  0.16886051786E+02  0.16886051786E+02  0.00000000000E+00 0. -1.
         21   -1    0    0  503  502 -0.00000000000E+00 -0.00000000000E+00 -0.34324072470E+02  0.34324072470E+02  0.00000000000E+00 0. -1.
         21    1    1    2  503  501  0.14053852651E+02  0.18563000800E+02 -0.22058573879E+01  0.23387209749E+02  0.00000000000E+00 0. -1.
         21    1    1    2  504  502 -0.14053852651E+02 -0.18563000800E+02 -0.15232163296E+02  0.27822914508E+02  0.00000000000E+00 0. -1.
</event>
<event>
 4    1  0.3065783E+006  0.2285439E+02  0.7546771E-02  0.1494335E+00
         21   -1    0    0  503  501  0.00000000000E+00  0.00000000000E+00  0.37742876715E+01  0.37742876715E+01  0.00000000000E+00 0. -1.
         21   -1    0    0  504  502 -0.00000000000E+00 -0.00000000000E+00 -0.20628335762E+03  0.20628335762E+03  0.00000000000E+00 0. -1.
         21    1    1    2  503  502 -0.21045674035E+02 -0.89108273303E+01 -0.40999906844E+02  0.46939488711E+02  0.00000000000E+00 0. -1.
         21    1    1    2  504  501  0.21045674035E+02  0.89108273303E+01 -0.16150916310E+03  0.16311815658E+03  0.00000000000E+00 0. -1.
</event>
<event>
 4    1  0.3065783E+006  0.3175599E+02  0.7546771E-02  0.1404927E+00
         21   -1    0    0  503  501  0.00000000000E+00  0.00000000000E+00  0.13580883442E+02  0.13580883442E+02  0.00000000000E+00 0. -1.
         21   -1    0    0  504  502 -0.00000000000E+00 -0.00000000000E+00 -0.76813780982E+02  0.76813780982E+02  0.00000000000E+00 0. -1.
         21    1    1    2  503  502 -0.25558315624E+02 -0.18847164208E+02 -0.39866251258E+02  0.50968236045E+02  0.00000000000E+00 0. -1.
         21    1    1    2  504  501  0.25558315624E+02  0.18847164208E+02 -0.23366646282E+02  0.39426428378E+02  0.00000000000E+00 0. -1.
</event>
<event>
 4    1  0.3065783E+006  0.2018299E+02  0.7546771E-02  0.1531257E+00
         21   -1    0    0  503  501  0.00000000000E+00  0.00000000000E+00  0.27544123003E+03  0.27544123003E+03  0.00000000000E+00 0.  1.
         21   -1    0    0  501  502 -0.00000000000E+00 -0.00000000000E+00 -0.17287634444E+01  0.17287634444E+01  0.00000000000E+00 0.  1.
         21    1    1    2  503  504  0.82749240891E+01 -0.18408657135E+02  0.18954164209E+03  0.19061318714E+03  0.00000000000E+00 0.  1.
         21    1    1    2  504  502 -0.82749240891E+01  0.18408657135E+02  0.84170824493E+02  0.86556806330E+02  0.00000000000E+00 0.  1.
</event>
<event>
 4    1  0.3065783E+006  0.2482806E+02  0.7546771E-02  0.1470736E+00
         21   -1    0    0  503  501  0.00000000000E+00  0.00000000000E+00  0.11184481532E+02  0.11184481532E+02  0.00000000000E+00 0. -1.
         21   -1    0    0  501  502 -0.00000000000E+00 -0.00000000000E+00 -0.58059991818E+02  0.58059991818E+02  0.00000000000E+00 0. -1.
         21    1    1    2  503  504  0.16293558652E+02 -0.18733732333E+02 -0.15640205507E+02  0.29343633193E+02  0.00000000000E+00 0. -1.
         21    1    1    2  504  502 -0.16293558652E+02  0.18733732333E+02 -0.31235304778E+02  0.39900840157E+02  0.00000000000E+00 0. -1.
</event>
<event>
 4    1  0.3065783E+006  0.2015436E+02  0.7546771E-02  0.1531689E+00
         21   -1    0    0  502  501  0.00000000000E+00  0.00000000000E+00  0.18333261245E+02  0.18333261245E+02  0.00000000000E+00 0. -1.
         21   -1    0    0  504  502 -0.00000000000E+00 -0.00000000000E+00 -0.53320540131E+02  0.53320540131E+02  0.00000000000E+00 0. -1.
         21    1    1    2  503  501 -0.55861373155E+01 -0.19364738858E+02  0.98962282805E+01  0.22452914629E+02  0.00000000000E+00 0. -1.
         21    1    1    2  504  503  0.55861373155E+01  0.19364738858E+02 -0.44883507167E+02  0.49200886747E+02  0.00000000000E+00 0. -1.
</event>
<event>
 4    1  0.3065783E+006  0.2148006E+02  0.7546771E-02  0.1512520E+00
         21   -1    0    0  504  501  0.00000000000E+00  0.00000000000E+00  0.32003580124E+02  0.32003580124E+02  0.00000000000E+00 0.  1.
         21   -1    0    0  501  502 -0.00000000000E+00 -0.00000000000E+00 -0.82703298132E+02  0.82703298132E+02  0.00000000000E+00 0.  1.
         21    1    1    2  503  502  0.10790101694E+02 -0.18573283345E+02 -0.77465139585E+02  0.80388065033E+02  0.00000000000E+00 0.  1.
         21    1    1    2  504  503 -0.10790101694E+02  0.18573283345E+02  0.26765421577E+02  0.34318813222E+02  0.00000000000E+00 0.  1.
</event>
<event>
 4    1  0.3065783E+006  0.3338356E+02  0.7546771E-02  0.1392298E+00
         21   -1    0    0  504  501  0.00000000000E+00  0.00000000000E+00  0.68646387483E+03  0.68646387483E+03  0.00000000000E+00 0. -1.
         21   -1    0    0  503  502 -0.00000000000E+00 -0.00000000000E+00 -0.13311102676E+02  0.13311102676E+02  0.00000000000E+00 0. -1.
         21    1    1    2  503  501 -0.29271800265E+02 -0.16050655436E+02  0.66443337676E+03  0.66527150396E+03  0.00000000000E+00 0. -1.
         21    1    1    2  504  502  0.29271800265E+02  0.16050655436E+02  0.87193953959E+01  0.34503473547E+02  0.00000000000E+00 0. -1.
</event>
<event>
 4    1  0.3065783E+006  0.2359067E+02  0.7546771E-02  0.1485211E+00
         21   -1    0    0  503  501  0.00000000000E+00  0.00000000000E+00  0.85605139083E+02  0.85605139083E+02  0.00000000000E+00 0. -1.
         21   -1    0    0  501  502 -0.00000000000E+00 -0.00000000000E+00 -0.85654636550E+01  0.85654636550E+01  0.00000000000E+00 0. -1.
         21    1    1    2  503  504 -0.18354463498E+02  0.14820032180E+02  0.61635838874E+02  0.65996184116E+02  0.00000000000E+00 0. -1.
         21    1    1    2  504  502  0.18354463498E+02 -0.14820032180E+02  0.15403836553E+02  0.28174418622E+02  0.00000000000E+00 0. -1.
</event>
<event>
 4    1  0.3065783E+006  0.2537504E+02  0.7546771E-02  0.1464651E+00
         21   -1    0    0  503  501  0.00000000000E+00  0.00000000000E+00  0.11346892353E+02  0.11346892353E+02  0.00000000000E+00 0.  1.
         21   -1    0    0  501  502 -0.00000000000E+00 -0.00000000000E+00 -0.13282277185E+03  0.13282277185E+03  0.00000000000E+00 0. -1.
         21    1    1    2  503  504 -0.10297917892E+02  0.23191496971E+02 -0.61831126229E+01  0.26117494642E+02  0.00000000000E+00 0.  1.
         21    1    1    2  504  502  0.10297917892E+02 -0.23191496971E+02 -0.11529276687E+03  0.11805216956E+03  0.00000000000E+00 0. -1.
</event>
<event>
 4    1  0.3065783E+006  0.2304030E+02  0.7546771E-02  0.1491993E+00
         21   -1    0    0  504  501  0.00000000000E+00  0.00000000000E+00  0.10108584851E+03  0.10108584851E+03  0.00000000000E+00 0.  1.
         21   -1    0    0  503  502 -0.00000000000E+00 -0.00000000000E+00 -0.52580800677E+01  0.52580800677E+01  0.00000000000E+00 0. -1.
         21    1    1    2  503  501  0.14642051763E+02  0.17789489389E+02  0.49790222488E+02  0.54862754834E+02  0.00000000000E+00 0. -1.
         21    1    1    2  504  502 -0.14642051763E+02 -0.17789489389E+02  0.46037545955E+02  0.51481173745E+02  0.00000000000E+00 0.  1.
</event>
<event>
 4    1  0.3065783E+006  0.3810958E+02  0.7546771E-02  0.1359934E+00
         21   -1    0    0  502  501  0.00000000000E+00  0.00000000000E+00  0.72904052922E+00  0.72904052922E+00  0.00000000000E+00 0.  1.
         21   -1    0    0  504  502 -0.00000000000E+00 -0.00000000000E+00 -0.27942066790E+04  0.27942066790E+04  0.00000000000E+00 0.  1.
         21    1    1    2  503  501 -0.29342642353E+02 -0.24317683743E+02 -0.64801497634E+03  0.64913461621E+03  0.00000000000E+00 0.  1.
         21    1    1    2  504  503  0.29342642353E+02  0.24317683743E+02 -0.21454626622E+04  0.21458011033E+04  0.00000000000E+00 0.  1.
</event>
<event>
 4    1  0.3065783E+006  0.2142850E+02  0.7546771E-02  0.1513234E+00
         21   -1    0    0  504  501  0.00000000000E+00  0.00000000000E+00  0.34181053344E+03  0.34181053344E+03  0.00000000000E+00 0. -1.
         21   -1    0    0  503  502 -0.00000000000E+00 -0.00000000000E+00 -0.15408766996E+01  0.15408766996E+01  0.00000000000E+00 0. -1.
         21    1    1    2  503  501 -0.17634335422E+02 -0.12174191863E+02  0.23159688269E+03  0.23258610622E+03  0.00000000000E+00 0. -1.
         21    1    1    2  504  502  0.17634335422E+02  0.12174191863E+02  0.10867277405E+03  0.11076530392E+03  0.00000000000E+00 0. -1.
</event>
<event>
 4    1  0.3065783E+006  0.3069003E+02  0.7546771E-02  0.1413693E+00
         21   -1    0    0  504  501  0.00000000000E+00  0.00000000000E+00  0.15274848717E+02  0.15274848717E+02  0.00000000000E+00 0. -1.
         21   -1    0    0  503  502 -0.00000000000E+00 -0.00000000000E+00 -0.57744857251E+03  0.57744857251E+03  0.00000000000E+00 0.  1.
         21    1    1    2  503  501 -0.23321946234E+02 -0.19949054756E+02 -0.56117869521E+03  0.56201726479E+03  0.00000000000E+00 0.  1.
         21    1    1    2  504  502  0.23321946234E+02  0.19949054756E+02 -0.99502859007E+00  0.30706156446E+02  0.00000000000E+00 0. -1.
</event>
<event>
 4    1  0.3065783E+006  0.3284142E+02  0.7546771E-02  0.1396409E+00
         21   -1    0    0  504  501  0.00000000000E+00  0.00000000000E+00  0.29271112986E+02  0.29271112986E+02  0.00000000000E+00 0. -1.
         21   -1    0    0  501  502 -0.00000000000E+00 -0.00000000000E+00 -0.12872198906E+03  0.12872198906E+03  0.00000000000E+00 0. -1.
         21    1    1    2  503  502 -0.29176777136E+02  0.15075628259E+02 -0.11646447103E+03  0.12100633002E+03  0.00000000000E+00 0. -1.
         21    1    1    2  504  503  0.29176777136E+02 -0.15075628259E+02  0.17013594961E+02  0.36986772027E+02  0.00000000000E+00 0. -1.
</event>
<event>
 4    1  0.3065783E+006  0.2220144E+02  0.7546771E-02  0.1502777E+00
         21   -1    0    0  504  501  0.00000000000E+00  0.00000000000E+00  0.24157704802E+03  0.24157704802E+03  0.00000000000E+00 0.  1.
         21   -1    0    0  503  502 -0.00000000000E+00 -0.00000000000E+00 -0.20615709624E+01  0.20615709624E+01  0.00000000000E+00 0.  1.
         21    1    1    2  503  501  0.72472863861E+01  0.20985246957E+02  0.10740071273E+03  0.10967140395E+03  0.00000000000E+00 0.  1.
         21    1    1    2  504  502 -0.72472863861E+01 -0.20985246957E+02  0.13211476433E+03  0.13396721504E+03  0.00000000000E+00 0.  1.
</event>
<event>
 4    1  0.3065783E+006  0.2137014E+02  0.7546771E-02  0.1514045E+00
         21   -1    0    0  502  501  0.00000000000E+00  0.00000000000E+00  0.94039856376E+02  0.94039856376E+02  0.00000000000E+00 0.  1.
         21   -1    0    0  504  502 -0.00000000000E+00 -0.00000000000E+00 -0.17686232845E+02  0.17686232845E+02  0.00000000000E+00 0.  1.
         21    1    1    2  503  501  0.21113082182E+02  0.33046315371E+01  0.85756287309E+02  0.88378864226E+02  0.00000000000E+00 0.  1.
         21    1    1    2  504  503 -0.21113082182E+02 -0.33046315371E+01 -0.94026637777E+01  0.23347224994E+02  0.00000000000E+00 0.  1.
</event>
<event>
 4    1  0.3065783E+006  0.6111783E+02  0.7546771E-02  0.1256081E+00
         21   -1    0    0  503  501  0.00000000000E+00  0.00000000000E+00  0.96227307481E+02  0.96227307481E+02  0.00000000000E+00 0. -1.
         21   -1    0    0  504  502 -0.00000000000E+00 -0.00000000000E+00 -0.53999013173E+02  0.53999013173E+02  0.00000000000E+00 0. -1.
         21    1    1    2  503  502  0.38590796827E+02 -0.47393457631E+02  0.60940256554E+02  0.86308193671E+02  0.00000000000E+00 0. -1.
         21    1    1    2  504  501 -0.38590796827E+02  0.47393457631E+02 -0.18711962246E+02  0.63918126983E+02  0.00000000000E+00 0. -1.
</event>
<event>
 4    1  0.3065783E+006  0.2262978E+02  0.7546771E-02  0.1497200E+00
         21   -1    0    0  504  501  0.00000000000E+00  0.00000000000E+00  0.85911801419E+01  0.85911801419E+01  0.00000000000E+00 0.  1.
         21   -1    0    0  503  502 -0.00000000000E+00 -0.00000000000E+00 -0.28810388868E+03  0.28810388868E+03  0.00000000000E+00 0. -1.
         21    1    1    2  503  501 -0.19352105670E+02 -0.11730419569E+02 -0.27186905218E+03  0.27280925253E+03  0.00000000000E+00 0. -1.
         21    1    1    2  504  502  0.19352105670E+02  0.11730419569E+02 -0.76436563612E+01  0.23885816287E+02  0.00000000000E+00 0.  1.
</event>
<event>
 4    1  0.3065783E+006  0.2235006E+02  0.7546771E-02  0.1500825E+00
         21   -1    0    0  502  501  0.00000000000E+00  0.00000000000E+00  0.16302003438E+03  0.16302003438E+03  0.00000000000E+00 0. -1.
         21   -1    0    0  503  502 -0.00000000000E+00 -0.00000000000E+00 -0.10523028413E+02  0.10523028413E+02  0.00000000000E+00 0. -1.
         21    1    1    2  503  504  0.11349996787E+02 -0.19253646436E+02  0.31947861268E+01  0.22577244883E+02  0.00000000000E+00 0. -1.
         21    1    1    2  504  501 -0.11349996787E+02  0.19253646436E+02  0.14930221984E+03  0.15096581791E+03  0.00000000000E+00 0. -1.
</event>
<event>
 4    1  0.3065783E+006  0.2060247E+02  0.7546771E-02  0.1525017E+00
         21   -1    0    0  504  501  0.00000000000E+00  0.00000000000E+00  0.11115236180E+03  0.11115236180E+03  0.00000000000E+00 0. -1.
         21   -1    0    0  503  502 -0.00000000000E+00 -0.00000000000E+00 -0.54986427988E+03  0.54986427988E+03  0.00000000000E+00 0.  1.
         21    1    1    2  503  501 -0.70771220585E+01  0.19348797866E+02  0.11000269328E+03  0.11191538841E+03  0.00000000000E+00 0. -1.
         21    1    1    2  504  502  0.70771220585E+01 -0.19348797866E+02 -0.54871461135E+03  0.54910125327E+03  0.00000000000E+00 0.  1.
</event>
<event>
 4    1  0.3065783E+006  0.2180100E+02  0.7546771E-02  0.1508129E+00
         21   -1    0    0  503  501  0.00000000000E+00  0.00000000000E+00  0.13656711051E+03  0.13656711051E+03  0.00000000000E+00 0.  1.
         21   -1    0    0  501  502 -0.00000000000E+00 -0.00000000000E+00 -0.33433718867E+02  0.33433718867E+02  0.00000000000E+00 0. -1.
         21    1    1    2  503  504  0.21076631557E+02 -0.55730617609E+01  0.13202159416E+03  0.13380950915E+03  0.00000000000E+00 0.  1.
         21    1    1    2  504  502 -0.21076631557E+02  0.55730617609E+01 -0.28888202515E+02  0.36191320226E+02  0.00000000000E+00 0. -1.
</event>
<event>
 4    1  0.3065783E+006  0.4410611E+02  0.7546771E-02  0.1325970E+00
         21   -1    0    0  504  501  0.00000000000E+00  0.00000000000E+00  0.10181863073E+03  0.10181863073E+03  0.00000000000E+00 0. -1.
         21   -1    0    0  503  502 -0.00000000000E+00 -0.00000000000E+00 -0.37586357281E+02  0.37586357281E+02  0.00000000000E+00 0. -1.
         21    1    1    2  503  501 -0.28840242721E+02 -0.33370481435E+02  0.80991293602E+02  0.92222222217E+02  0.00000000000E+00 0. -1.
         21    1    1    2  504  502  0.28840242721E+02  0.33370481435E+02 -0.16759020152E+02  0.47182765793E+02  0.00000000000E+00 0. -1.
</event>
<event>
 4    1  0.3065783E+006  0.2765488E+02  0.7546771E-02  0.1441138E+00
         21   -1    0    0  504  501  0.00000000000E+00  0.00000000000E+00  0.21856279139E+03  0.21856279139E+03  0.00000000000E+00 0. -1.
         21   -1    0    0  503  502 -0.00000000000E+00 -0.00000000000E+00 -0.37545179279E+01  0.37545179279E+01  0.00000000000E+00 0. -1.
         21    1    1    2  503  501  0.93269869130E+01 -0.26034587430E+02  0.13639202266E+03  0.13916743970E+03  0.00000000000E+00 0. -1.
         21    1    1    2  504  502 -0.93269869130E+01  0.26034587430E+02  0.78416250802E+02  0.83149869617E+02  0.00000000000E+00 0. -1.
</event>
<event>
 4    1  0.3065783E+006  0.3317591E+02  0.7546771E-02  0.1393861E+00
         21   -1    0    0  503  501  0.00000000000E+00  0.00000000000E+00  0.13171682354E+02  0.13171682354E+02  0.00000000000E+00 0.  1.
         21   -1    0    0  504  502 -0.00000000000E+00 -0.00000000000E+00 -0.11678143962E+03  0.11678143962E+03  0.00000000000E+00 0.  1.
         21    1    1    2  503  502 -0.24636541015E+02 -0.22218958682E+02 -0.17149444693E+02  0.37346281360E+02  0.00000000000E+00 0.  1.
         21    1    1    2  504  501  0.24636541015E+02  0.22218958682E+02 -0.86460312569E+02  0.92606840609E+02  0.00000000000E+00 0.  1.
</event>
<event>
 4    1  0.3065783E+006  0.2200990E+02  0.7546771E-02  0.1505320E+00
         21   -1    0    0  504  501  0.00000000000E+00  0.00000000000E+00  0.81262098600E+02  0.81262098600E+02  0.00000000000E+00 0.  1.
         21   -1    0    0  503  502 -0.00000000000E+00 -0.00000000000E+00 -0.59975615366E+01  0.59975615366E+01  0.00000000000E+00 0.  1.
         21    1    1    2  503  501  0.20806711936E+02  0.71774910907E+01  0.41020218150E+02  0.46552056206E+02  0.00000000000E+00 0.  1.
         21    1    1    2  504  502 -0.20806711936E+02 -0.71774910907E+01  0.34244318913E+02  0.40707603930E+02  0.00000000000E+00 0.  1.
</event>
<event>
 4    1  0.3065783E+006  0.2316462E+02  0.7546771E-02  0.1490441E+00
         21   -1    0    0  503  501  0.00000000000E+00  0.00000000000E+00  0.13624636240E+04  0.13624636240E+04  0.00000000000E+00 0.  1.
         21   -1    0    0  501  502 -0.00000000000E+00 -0.00000000000E+00 -0.53966556418E+00  0.53966556418E+00  0.00000000000E+00 0.  1.
         21    1    1    2  503  504 -0.17765220648E+02  0.14865945751E+02  0.10352153796E+04  0.10354745200E+04  0.00000000000E+00 0.  1.
         21    1    1    2  504  502  0.17765220648E+02 -0.14865945751E+02  0.32670857888E+03  0.32752876961E+03  0.00000000000E+00 0.  1.
</event>
<event>
 4    1  0.3065783E+006  0.5457402E+02  0.7546771E-02  0.1279472E+00
         21   -1    0    0  503  501  0.00000000000E+00  0.00000000000E+00  0.76052979793E+02  0.76052979793E+02  0.00000000000E+00 0. -1.
         21   -1    0    0  504  502 -0.00000000000E+00 -0.00000000000E+00 -0.36133196998E+03  0.36133196998E+03  0.00000000000E+00 0. -1.
         21    1    1    2  503  502 -0.31196600520E+01 -0.54484785667E+02 -0.34914124132E+03  0.35338071614E+03  0.00000000000E+00 0. -1.
         21    1    1    2  504  501  0.31196600520E+01  0.54484785667E+02  0.63862251136E+02  0.84004233632E+02  0.00000000000E+00 0. -1.
</event>
<event>
 4    1  0.3065783E+006  0.2151213E+02  0.7546771E-02  0.1512077E+00
         21   -1    0    0  503  501  0.00000000000E+00  0.00000000000E+00  0.62684340976E+01  0.62684340976E+01  0.00000000000E+00 0. -1.
         21   -1    0    0  504  502 -0.00000000000E+00 -0.00000000000E+00 -0.10289131610E+03  0.10289131610E+03  0.00000000000E+00 0. -1.
         21    1    1    2  503  502 -0.17224860102E+02 -0.12887051807E+02 -0.77320423522E+02  0.80257210289E+02  0.00000000000E+00 0. -1.
         21    1    1    2  504  501  0.17224860102E+02  0.12887051807E+02 -0.19302458484E+02  0.28902539912E+02  0.00000000000E+00 0. -1.
</event>
<event>
 4    1  0.3065783E+006  0.4919400E+02  0.7546771E-02  0.1301705E+00
         21   -1    0    0  503  501  0.00000000000E+00  0.00000000000E+00  0.75878393033E+02  0.75878393033E+02  0.00000000000E+00 0. -1.
         21   -1    0    0  504  502 -0.00000000000E+00 -0.00000000000E+00 -0.31956773129E+02  0.31956773129E+02  0.00000000000E+00 0. -1.
         21    1    1    2  503  502  0.31851422944E+02 -0.37490478861E+02  0.24354558472E+02  0.54892564772E+02  0.00000000000E+00 0. -1.
         21    1    1    2  504  501 -0.31851422944E+02  0.37490478861E+02  0.19567061432E+02  0.52942601390E+02  0.00000000000E+00 0. -1.
</event>
<event>
 4    1  0.3065783E+006  0.2050642E+02  0.7546771E-02  0.1526430E+00
         21   -1    0    0  503  501  0.00000000000E+00  0.00000000000E+00  0.48127488213E+02  0.48127488213E+02  0.00000000000E+00 0.  1.
         21   -1    0    0  501  502 -0.00000000000E+00 -0.00000000000E+00 -0.52931372824E+02  0.52931372824E+02  0.00000000000E+00 0. -1.
         21    1    1    2  503  504  0.14070543438E+02  0.14917544385E+02  0.43769019036E+02  0.48334670273E+02  0.00000000000E+00 0.  1.
         21    1    1    2  504  502 -0.14070543438E+02 -0.14917544385E+02 -0.48572903646E+02  0.52724190764E+02  0.00000000000E+00 0. -1.
</event>
<event>
 4    1  0.3065783E+006  0.3764641E+02  0.7546771E-02  0.1362858E+00
         21   -1    0    0  504  501  0.00000000000E+00  0.00000000000E+00  0.17419789099E+03  0.17419789099E+03  0.00000000000E+00 0.  1.
         21   -1    0    0  503  502 -0.00000000000E+00 -0.00000000000E+00 -0.11874882679E+03  0.11874882679E+03  0.00000000000E+00 0. -1.
         21    1    1    2  503  501  0.13900795900E+02 -0.34985994165E+02 -0.11364211966E+03  0.11971542622E+03  0.00000000000E+00 0. -1.
         21    1    1    2  504  502 -0.13900795900E+02  0.34985994165E+02  0.16909118386E+03  0.17323129156E+03  0.00000000000E+00 0.  1.
</event>
<event>
 4    1  0.3065783E+006  0.2343762E+02  0.7546771E-02  0.1487075E+00
         21   -1    0    0  502  501  0.00000000000E+00  0.00000000000E+00  0.17491855899E+03  0.17491855899E+03  0.00000000000E+00 0.  1.
         21   -1    0    0  503  502 -0.00000000000E+00 -0.00000000000E+00 -0.11236257126E+02  0.11236257126E+02  0.00000000000E+00 0. -1.
         21    1    1    2  503  504 -0.22323084005E+02 -0.71415694131E+01  0.28344985969E+01  0.23608398410E+02  0.00000000000E+00 0. -1.
         21    1    1    2  504  501  0.22323084005E+02  0.71415694131E+01  0.16084780326E+03  0.16254641770E+03  0.00000000000E+00 0.  1.
</event>
<event>
 4    1  0.3065783E+006  0.2422246E+02  0.7546771E-02  0.1477693E+00
         21   -1    0    0  503  501  0.00000000000E+00  0.00000000000E+00  0.22677231709E+02  0.22677231709E+02  0.00000000000E+00 0.  1.
         21   -1    0    0  504  502 -0.00000000000E+00 -0.00000000000E+00 -0.50308325577E+02  0.50308325577E+02  0.00000000000E+00 0. -1.
         21    1    1    2  503  502  0.22541963522E+02  0.88649600867E+01  0.11617372468E+02  0.26864306800E+02  0.00000000000E+00 0.  1.
         21    1    1    2  504  501 -0.22541963522E+02 -0.88649600867E+01 -0.39248466335E+02  0.46121250487E+02  0.00000000000E+00 0. -1.
</event>
<event>
 4    1  0.3065783E+006  0.2113214E+02  0.7546771E-02  0.1517387E+00
         21   -1    0    0  503  501  0.00000000000E+00  0.00000000000E+00  0.15280906350E+02  0.15280906350E+02  0.00000000000E+00 0.  1.
         21   -1    0    0  504  502 -0.00000000000E+00 -0.00000000000E+00 -0.16845483053E+03  0.16845483053E+03  0.00000000000E+00 0. -1.
         21    1    1    2  503  502 -0.13238461614E+02 -0.16471499848E+02 -0.16010683402E+03  0.16149540388E+03  0.00000000000E+00 0. -1.
         21    1    1    2  504  501  0.13238461614E+02  0.16471499848E+02  0.69329098426E+01  0.22240333002E+02  0.00000000000E+00 0.  1.
</event>
<event>
 4    1  0.3065783E+006  0.3642811E+02  0.7546771E-02  0.1370792E+00
         21   -1    0    0  503  501  0.00000000000E+00  0.00000000000E+00  0.53796462915E+03  0.53796462915E+03  0.00000000000E+00 0.  1.
         21   -1    0    0  504  502 -0.00000000000E+00 -0.00000000000E+00 -0.67736571082E+02  0.67736571082E+02  0.00000000000E+00 0.  1.
         21    1    1    2  503  502  0.35320004794E+02  0.89165408157E+01  0.53239913362E+03  0.53364393084E+03  0.00000000000E+00 0.  1.
         21    1    1    2  504  501 -0.35320004794E+02 -0.89165408157E+01 -0.62171075548E+02  0.72057269401E+02  0.00000000000E+00 0.  1.
</event>
<event>
 4    1  0.3065783E+006  0.2902333E+02  0.7546771E-02  0.1428278E+00
         21   -1    0    0  503  501  0.00000000000E+00  0.00000000000E+00  0.17017087311E+01  0.17017087311E+01  0.00000000000E+00 0. -1.
         21   -1    0    0  504  502 -0.00000000000E+00 -0.00000000000E+00 -0.66145571884E+03  0.66145571884E+03  0.00000000000E+00 0. -1.
         21    1    1    2  503  502 -0.18020060314E+02 -0.22751507968E+02 -0.16354355933E+03  0.16609891477E+03  0.00000000000E+00 0. -1.
         21    1    1    2  504  501  0.18020060314E+02  0.22751507968E+02 -0.49621045078E+03  0.49705851280E+03  0.00000000000E+00 0. -1.
</event>
<event>
 4    1  0.3065783E+006  0.2755806E+02  0.7546771E-02  0.1442081E+00
         21   -1    0    0  504  501  0.00000000000E+00  0.00000000000E+00  0.10121273942E+03  0.10121273942E+03  0.00000000000E+00 0.  1.
         21   -1    0    0  501  502 -0.00000000000E+00 -0.00000000000E+00 -0.17379008952E+02  0.17379008952E+02  0.00000000000E+00 0.  1.
         21    1    1    2  503  502  0.85064317402E+01  0.26212348681E+02 -0.27815790945E+01  0.27698082724E+02  0.00000000000E+00 0.  1.
         21    1    1    2  504  503 -0.85064317402E+01 -0.26212348681E+02  0.86615309566E+02  0.90893665651E+02  0.00000000000E+00 0.  1.
</event>
<event>
 4    1  0.3065783E+006  0.2267041E+02  0.7546771E-02  0.1496679E+00
         21   -1    0    0  503  501  0.00000000000E+00  0.00000000000E+00  0.69828829957E+01  0.69828829957E+01  0.00000000000E+00 0. -1.
         21   -1    0    0  504  502 -0.00000000000E+00 -0.00000000000E+00 -0.34457403246E+03  0.34457403246E+03  0.00000000000E+00 0.  1.
         21    1    1    2  503  502  0.12148193902E+01 -0.22637841587E+02 -0.12916665932E+02  0.26091912860E+02  0.00000000000E+00 0. -1.
         21    1    1    2  504  501 -0.12148193902E+01  0.22637841587E+02 -0.32467448353E+03  0.32546500260E+03  0.00000000000E+00 0.  1.
</event>
<event>
 4    1  0.3065783E+006  0.2028826E+02  0.7546771E-02  0.1529674E+00
         21   -1    0    0  502  501  0.00000000000E+00  0.00000000000E+00  0.52423891170E+03  0.52423891170E+03  0.00000000000E+00 0.  1.
         21   -1    0    0  503  502 -0.00000000000E+00 -0.00000000000E+00 -0.36772821449E+02  0.36772821449E+02  0.00000000000E+00 0.  1.
         21    1    1    2  503  504  0.11921667694E+02  0.16416074750E+02 -0.33762016927E+02  0.39388925573E+02  0.00000000000E+00 0.  1.
         21    1    1    2  504  501 -0.11921667694E+02 -0.16416074750E+02  0.52122810717E+03  0.52162280757E+03  0.00000000000E+00 0.  1.
</event>
<event>
 4    1  0.3065783E+006  0.2153620E+02  0.7546771E-02  0.1511745E+00
         21   -1    0    0  503  501  0.00000000000E+00  0.00000000000E+00  0.27593268205E+03  0.27593268205E+03  0.00000000000E+00 0. -1.
         21   -1    0    0  504  502 -0.00000000000E+00 -0.00000000000E+00 -0.15706209779E+03  0.15706209779E+03  0.00000000000E+00 0.  1.
         21    1    1    2  503  502 -0.11005972464E+02  0.18511520559E+02 -0.15590050785E+03  0.15738099050E+03  0.00000000000E+00 0.  1.
         21    1    1    2  504  501  0.11005972464E+02 -0.18511520559E+02  0.27477109210E+03  0.27561378934E+03  0.00000000000E+00 0. -1.
</event>
<event>
 4    1  0.3065783E+006  0.3317007E+02  0.7546771E-02  0.1393906E+00
         21   -1    0    0  504  501  0.00000000000E+00  0.00000000000E+00  0.37938180290E+02  0.37938180290E+02  0.00000000000E+00 0. -1.
         21   -1    0    0  503  502 -0.00000000000E+00 -0.00000000000E+00 -0.38387979886E+03  0.38387979886E+03  0.00000000000E+00 0.  1.
         21    1    1    2  503  501 -0.22195830832E+02  0.24649513246E+02 -0.37575652323E+03  0.37721773309E+03  0.00000000000E+00 0.  1.
         21    1    1    2  504  502  0.22195830832E+02 -0.24649513246E+02  0.29814904653E+02  0.44600246065E+02  0.00000000000E+00 0. -1.
</event>
<event>
 4    1  0.3065783E+006  0.2267236E+02  0.7546771E-02  0.1496654E+00
         21   -1    0    0  502  501  0.00000000000E+00  0.00000000000E+00  0.38872130582E+01  0.38872130582E+01  0.00000000000E+00 0. -1.
         21   -1    0    0  504  502 -0.00000000000E+00 -0.00000000000E+00 -0.17371947726E+03  0.17371947726E+03  0.00000000000E+00 0. -1.
         21    1    1    2  503  501  0.16254395704E+02 -0.15806032987E+02 -0.41521718765E+02  0.47308447319E+02  0.00000000000E+00 0. -1.
         21    1    1    2  504  503 -0.16254395704E+02  0.15806032987E+02 -0.12831054544E+03  0.13029824300E+03  0.00000000000E+00 0. -1.
</event>
<event>
 4    1  0.3065783E+006  0.2087495E+02  0.7546771E-02  0.1521058E+00
         21   -1    0    0  503  501  0.00000000000E+00  0.00000000000E+00  0.19884170834E+03  0.19884170834E+03  0.00000000000E+00 0. -1.
         21   -1    0    0  504  502 -0.00000000000E+00 -0.00000000000E+00 -0.40852490685E+01  0.40852490685E+01  0.00000000000E+00 0.  1.
         21    1    1    2  503  502 -0.20807249540E+02  0.16798062569E+01  0.28296903063E+02  0.35163590622E+02  0.00000000000E+00 0.  1.
         21    1    1    2  504  501  0.20807249540E+02 -0.16798062569E+01  0.16645955620E+03  0.16776336678E+03  0.00000000000E+00 0. -1.
</event>
<event>
 4    1  0.3065783E+006  0.4010967E+02  0.7546771E-02  0.1347844E+00
         21   -1    0    0  503  501  0.00000000000E+00  0.00000000000E+00  0.99702756049E+01  0.99702756049E+01  0.00000000000E+00 0. -1.
         21   -1    0    0  504  502 -0.00000000000E+00 -0.00000000000E+00 -0.11714563830E+04  0.11714563830E+04  0.00000000000E+00 0. -1.
         21    1    1    2  503  502  0.56972496327E+01 -0.39702982672E+02 -0.11292668957E+04  0.11299789853E+04  0.00000000000E+00 0. -1.
         21    1    1    2  504  501 -0.56972496327E+01  0.39702982672E+02 -0.32219211689E+02  0.51447673303E+02  0.00000000000E+00 0. -1.
</event>
<event>
 4    1  0.3065783E+006  0.2490695E+02  0.7546771E-02  0.1469847E+00
         21   -1    0    0  503  501  0.00000000000E+00  0.00000000000E+00  0.27368976858E+02  0.27368976858E+02  0.00000000000E+00 0. -1.
         21   -1    0    0  504  502 -0.00000000000E+00 -0.00000000000E+00 -0.99507260243E+02  0.99507260243E+02  0.00000000000E+00 0.  1.
         21    1    1    2  503  502  0.20075039263E+02  0.14742764630E+02 -0.91815821314E+02  0.95134122974E+02  0.00000000000E+00 0.  1.
         21    1    1    2  504  501 -0.20075039263E+02 -0.14742764630E+02  0.19677537929E+02  0.31742114128E+02  0.00000000000E+00 0. -1.
</event>
<event>
 4    1  0.3065783E+006  0.2127388E+02  0.7546771E-02  0.1515390E+00
         21   -1    0    0  504  501  0.00000000000E+00  0.00000000000E+00  0.35721588254E+02  0.35721588254E+02  0.00000000000E+00 0. -1.
         21   -1    0    0  503  502 -0.00000000000E+00 -0.00000000000E+00 -0.53243706280E+02  0.53243706280E+02  0.00000000000E+00 0.  1.
         21    1    1    2  503  501 -0.31084428957E+01  0.21045556394E+02  0.30070159867E+02  0.36834662691E+02  0.00000000000E+00 0. -1.
         21    1    1    2  504  502  0.31084428957E+01 -0.21045556394E+02 -0.47592277894E+02  0.52130631842E+02  0.00000000000E+00 0.  1.
</event>
<event>
 4    1  0.3065783E+006  0.2209357E+02  0.7546771E-02  0.1504205E+00
         21   -1    0    0  503  501  0.00000000000E+00  0.00000000000E+00  0.14120665858E+02  0.14120665858E+02  0.00000000000E+00 0. -1.
         21   -1    0    0  504  502 -0.00000000000E+00 -0.00000000000E+00 -0.45606753523E+02  0.45606753523E+02  0.00000000000E+00 0. -1.
         21    1    1    2  503  502 -0.16365518479E+02 -0.14842358790E+02 -0.30435199704E+02  0.37608871168E+02  0.00000000000E+00 0. -1.
         21    1    1    2  504  501  0.16365518479E+02  0.14842358790E+02 -0.10508879608E+01  0.22118548212E+02  0.00000000000E+00 0. -1.
</event>
<event>
 4    1  0.3065783E+006  0.2764722E+02  0.7546771E-02  0.1441213E+00
         21   -1    0    0  503  501  0.00000000000E+00  0.00000000000E+00  0.92705629144E+01  0.92705629144E+01  0.00000000000E+00 0. -1.
         21   -1    0    0  504  502 -0.00000000000E+00 -0.00000000000E+00 -0.83175030776E+02  0.83175030776E+02  0.00000000000E+00 0.  1.
         21    1    1    2  503  502  0.18982527692E+02 -0.20100563203E+02 -0.32640226530E+02  0.42775616729E+02  0.00000000000E+00 0. -1.
         21    1    1    2  504  501 -0.18982527692E+02  0.20100563203E+02 -0.41264241332E+02  0.49669976962E+02  0.00000000000E+00 0.  1.
</event>
<event>
 4    1  0.3065783E+006  0.2489803E+02  0.7546771E-02  0.1469947E+00
         21   -1    0    0  503  501  0.00000000000E+00  0.00000000000E+00  0.16514526361E+03  0.16514526361E+03  0.00000000000E+00 0.  1.
         21   -1    0    0  504  502 -0.00000000000E+00 -0.00000000000E+00 -0.31359539732E+03  0.31359539732E+03  0.00000000000E+00 0. -1.
         21    1    1    2  503  502 -0.14537622228E+02 -0.20213103208E+02  0.16370831888E+03  0.16559083813E+03  0.00000000000E+00 0.  1.
         21    1    1    2  504  501  0.14537622228E+02  0.20213103208E+02 -0.31215845259E+03  0.31314982280E+03  0.00000000000E+00 0. -1.
</event>
<event>
 4    1  0.3065783E+006  0.2615909E+02  0.7546771E-02  0.1456243E+00
         21   -1    0    0  503  501  0.00000000000E+00  0.00000000000E+00  0.12114007657E+01  0.12114007657E+01  0.00000000000E+00 0.  1.
         21   -1    0    0  504  502 -0.00000000000E+00 -0.00000000000E+00 -0.68018794875E+03  0.68018794875E+03  0.00000000000E+00 0.  1.
         21    1    1    2  503  502  0.24359906655E+02 -0.95337883598E+01 -0.47976434663E+03  0.48047697808E+03  0.00000000000E+00 0.  1.
         21    1    1    2  504  501 -0.24359906655E+02  0.95337883598E+01 -0.19921220135E+03  0.20092237143E+03  0.00000000000E+00 0.  1.
</event>
<event>
 4    1  0.3065783E+006  0.3372067E+02  0.7546771E-02  0.1389787E+00
         21   -1    0    0  504  501  0.00000000000E+00  0.00000000000E+00  0.51087374556E+02  0.51087374556E+02  0.00000000000E+00 0. -1.
         21   -1    0    0  501  502 -0.00000000000E+00 -0.00000000000E+00 -0.15104175663E+03  0.15104175663E+03  0.00000000000E+00 0.  1.
         21    1    1    2  503  502  0.31245174513E+02 -0.12681586136E+02 -0.14329866269E+03  0.14721273819E+03  0.00000000000E+00 0.  1.
         21    1    1    2  504  503 -0.31245174513E+02  0.12681586136E+02  0.43344280616E+02  0.54916392994E+02  0.00000000000E+00 0. -1.
</event>
<event>
 4    1  0.3065783E+006  0.2412269E+02  0.7546771E-02  0.1478862E+00
         21   -1    0    0  503  501  0.00000000000E+00  0.00000000000E+00  0.32996127312E+02  0.32996127312E+02  0.00000000000E+00 0. -1.
         21   -1    0    0  504  502 -0.00000000000E+00 -0.00000000000E+00 -0.38670846100E+02  0.38670846100E+02  0.00000000000E+00 0. -1.
         21    1    1    2  503  502 -0.30296437491E+01  0.23931684209E+02 -0.29265811927E+02  0.37926138718E+02  0.00000000000E+00 0. -1.
         21    1    1    2  504  501  0.30296437491E+01 -0.23931684209E+02  0.23591093139E+02  0.33740834694E+02  0.00000000000E+00 0. -1.
</event>
<event>
 4    1  0.3065783E+006  0.2142794E+02  0.7546771E-02  0.1513242E+00
         21   -1    0    0  502  501  0.00000000000E+00  0.00000000000E+00  0.10847705722E+03  0.10847705722E+03  0.00000000000E+00 0.  1.
         21   -1    0    0  504  502 -0.00000000000E+00 -0.00000000000E+00 -0.64892748043E+01  0.64892748043E+01  0.00000000000E+00 0.  1.
         21    1    1    2  503  501  0.21371315773E+02 -0.15567965815E+01  0.84890965761E+02  0.87553599705E+02  0.00000000000E+00 0.  1.
         21    1    1    2  504  503 -0.21371315773E+02  0.15567965815E+01  0.17096816653E+02  0.27412732318E+02  0.00000000000E+00 0.  1.
</event>
<event>
 4    1  0.3065783E+006  0.2671580E+02  0.7546771E-02  0.1450484E+00
         21   -1    0    0  503  501  0.00000000000E+00  0.00000000000E+00  0.28925304911E+02  0.28925304911E+02  0.00000000000E+00 0.  1.
         21   -1    0    0  504  502 -0.00000000000E+00 -0.00000000000E+00 -0.30923770208E+02  0.30923770208E+02  0.00000000000E+00 0.  1.
         21    1    1    2  503  502 -0.75133272137E+01  0.25637549154E+02  0.12452429985E+02  0.29475363016E+02  0.00000000000E+00 0.  1.
         21    1    1    2  504  501  0.75133272137E+01 -0.25637549154E+02 -0.14450895282E+02  0.30373712102E+02  0.00000000000E+00 0.  1.
</event>
<event>
 4    1  0.3065783E+006  0.2342541E+02  0.7546771E-02  0.1487224E+00
         21   -1    0    0  503  501  0.00000000000E+00  0.00000000000E+00  0.25354408437E+03  0.25354408437E+03  0.00000000000E+00 0.  1.
         21   -1    0    0  501  502 -0.00000000000E+00 -0.00000000000E+00 -0.13025457883E+02  0.13025457883E+02  0.00000000000E+00 0.  1.
         21    1    1    2  503  504 -0.53793079732E+01 -0.22799403215E+02  0.24196805063E+03  0.24309933622E+03  0.00000000000E+00 0.  1.
         21    1    1    2  504  502  0.53793079732E+01  0.22799403215E+02 -0.14494241427E+01  0.23470206041E+02  0.00000000000E+00 0.  1.
</event>
<event>
 4    1  0.3065783E+006  0.3002161E+02  0.7546771E-02  0.1419409E+00
         21   -1    0    0  503  501  0.00000000000E+00  0.00000000000E+00  0.12987809842E+03  0.12987809842E+03  0.00000000000E+00 0.  1.
         21   -1    0    0  504  502 -0.00000000000E+00 -0.00000000000E+00 -0.15504361400E+02  0.15504361400E+02  0.00000000000E+00 0. -1.
         21    1    1    2  503  502 -0.15009842885E+02 -0.26000034144E+02  0.11121421836E+03  0.11519504991E+03  0.00000000000E+00 0.  1.
         21    1    1    2  504  501  0.15009842885E+02  0.26000034144E+02  0.31595186635E+01  0.30187409911E+02  0.00000000000E+00 0. -1.
</event>
<event>
 4    1  0.3065783E+006  0.3423255E+02  0.7546771E-02  0.1386040E+00
         21   -1    0    0  504  501  0.00000000000E+00  0.00000000000E+00  0.11610315482E+03  0.11610315482E+03  0.00000000000E+00 0. -1.
         21   -1    0    0  501  502 -0.00000000000E+00 -0.00000000000E+00 -0.63390373576E+02  0.63390373576E+02  0.00000000000E+00 0. -1.
         21    1    1    2  503  502  0.25662285032E+02 -0.22656448812E+02 -0.55935814494E+02  0.65579592015E+02  0.00000000000E+00 0. -1.
         21    1    1    2  504  503 -0.25662285032E+02  0.22656448812E+02  0.10864859574E+03  0.11391393638E+03  0.00000000000E+00 0. -1.
</event>
<event>
 4    1  0.3065783E+006  0.2102031E+02  0.7546771E-02  0.1518975E+00
         21   -1    0    0  504  501  0.00000000000E+00  0.00000000000E+00  0.31214461468E+03  0.31214461468E+03  0.00000000000E+00 0. -1.
         21   -1    0    0  503  502 -0.00000000000E+00 -0.00000000000E+00 -0.23114794160E+02  0.23114794160E+02  0.00000000000E+00 0.  1.
         21    1    1    2  503  501 -0.19794485789E+02  0.70732988254E+01 -0.17900923620E+02  0.27609713696E+02  0.00000000000E+00 0.  1.
         21    1    1    2  504  502  0.19794485789E+02 -0.70732988254E+01  0.30693074414E+03  0.30764969514E+03  0.00000000000E+00 0. -1.
</event>
<event>
 4    1  0.3065783E+006  0.3498623E+02  0.7546771E-02  0.1380660E+00
         21   -1    0    0  503  501  0.00000000000E+00  0.00000000000E+00  0.56553858506E+02  0.56553858506E+02  0.00000000000E+00 0.  1.
         21   -1    0    0  501  502 -0.00000000000E+00 -0.00000000000E+00 -0.29079816657E+02  0.29079816657E+02  0.00000000000E+00 0.  1.
         21    1    1    2  503  504  0.34922740404E+02 -0.21067826416E+01  0.35388672774E+02  0.49763385045E+02  0.00000000000E+00 0.  1.
         21    1    1    2  504  502 -0.34922740404E+02  0.21067826416E+01 -0.79146309255E+01  0.35870290118E+02  0.00000000000E+00 0.  1.
</event>
<event>
 4    1  0.3065783E+006  0.3427938E+02  0.7546771E-02  0.1385701E+00
         21   -1    0    0  504  501  0.00000000000E+00  0.00000000000E+00  0.46057549705E+03  0.46057549705E+03  0.00000000000E+00 0. -1.
         21   -1    0    0  503  502 -0.00000000000E+00 -0.00000000000E+00 -0.12132305675E+03  0.12132305675E+03  0.00000000000E+00 0. -1.
         21    1    1    2  503  501 -0.17783842888E+02 -0.29305470841E+02 -0.11824759462E+03  0.12311608068E+03  0.00000000000E+00 0. -1.
         21    1    1    2  504  502  0.17783842888E+02  0.29305470841E+02  0.45750003492E+03  0.45878247312E+03  0.00000000000E+00 0. -1.
</event>
<event>
 4    1  0.3065783E+006  0.3348070E+02  0.7546771E-02  0.1391571E+00
         21   -1    0    0  503  501  0.00000000000E+00  0.00000000000E+00  0.64377741287E+01  0.64377741287E+01  0.00000000000E+00 0. -1.
         21   -1    0    0  504  502 -0.00000000000E+00 -0.00000000000E+00 -0.17636100205E+03  0.17636100205E+03  0.00000000000E+00 0. -1.
         21    1    1    2  503  502 -0.19161792171E+01  0.33425819975E+02 -0.74662896119E+02  0.81826067000E+02  0.00000000000E+00 0. -1.
         21    1    1    2  504  501  0.19161792171E+01 -0.33425819975E+02 -0.95260331800E+02  0.10097270918E+03  0.00000000000E+00 0. -1.
</event>
<event>
 4    1  0.3065783E+006  0.2275270E+02  0.7546771E-02  0.1495627E+00
         21   -1    0    0  503  501  0.00000000000E+00  0.00000000000E+00  0.34951260107E+02  0.34951260107E+02  0.00000000000E+00 0.  1.
         21   -1    0    0  501  502 -0.00000000000E+00 -0.00000000000E+00 -0.20527479175E+03  0.20527479175E+03  0.00000000000E+00 0.  1.
         21    1    1    2  503  504 -0.18059842101E+02  0.13839339843E+02  0.30536750478E+02  0.38081207358E+02  0.00000000000E+00 0.  1.
         21    1    1    2  504  502  0.18059842101E+02 -0.13839339843E+02 -0.20086028212E+03  0.20214484450E+03  0.00000000000E+00 0.  1.
</event>
<event>
 4    1  0.3065783E+006  0.2414702E+02  0.7546771E-02  0.1478576E+00
         21   -1    0    0  503  501  0.00000000000E+00  0.00000000000E+00  0.62406624784E+01  0.62406624784E+01  0.00000000000E+00 0. -1.
         21   -1    0    0  504  502 -0.00000000000E+00 -0.00000000000E+00 -0.16498207462E+03  0.16498207462E+03  0.00000000000E+00 0. -1.
         21    1    1    2  503  502  0.84419871515E+01  0.22623249011E+02 -0.13574974066E+03  0.13788063908E+03  0.00000000000E+00 0. -1.
         21    1    1    2  504  501 -0.84419871515E+01 -0.22623249011E+02 -0.22991671476E+02  0.33342098016E+02  0.00000000000E+00 0. -1.
</event>
<event>
 4    1  0.3065783E+006  0.2272930E+02  0.7546771E-02  0.1495926E+00
         21   -1    0    0  504  501  0.00000000000E+00  0.00000000000E+00  0.77882283977E+02  0.77882283977E+02  0.00000000000E+00 0. -1.
         21   -1    0    0  503  502 -0.00000000000E+00 -0.00000000000E+00 -0.10441134901E+02  0.10441134901E+02  0.00000000000E+00 0. -1.
         21    1    1    2  503  501  0.22247315081E+02 -0.46559610958E+01  0.70515076363E+01  0.23797999117E+02  0.00000000000E+00 0. -1.
         21    1    1    2  504  502 -0.22247315081E+02  0.46559610958E+01  0.60389641440E+02  0.64525419761E+02  0.00000000000E+00 0. -1.
</event>
<event>
 4    1  0.3065783E+006  0.2325147E+02  0.7546771E-02  0.1489364E+00
         21   -1    0    0  502  501  0.00000000000E+00  0.00000000000E+00  0.24856788562E+03  0.24856788562E+03  0.00000000000E+00 0.  1.
         21   -1    0    0  504  502 -0.00000000000E+00 -0.00000000000E+00 -0.21933801862E+01  0.21933801862E+01  0.00000000000E+00 0.  1.
         21    1    1    2  503  501 -0.22068797378E+02  0.73211377921E+01  0.13467015163E+03  0.13666265261E+03  0.00000000000E+00 0.  1.
         21    1    1    2  504  503  0.22068797378E+02 -0.73211377921E+01  0.11170435380E+03  0.11409861320E+03  0.00000000000E+00 0.  1.
</event>
<event>
 4    1  0.3065783E+006  0.2061080E+02  0.7546771E-02  0.1524895E+00
         21   -1    0    0  504  501  0.00000000000E+00  0.00000000000E+00  0.29920869618E+01  0.29920869618E+01  0.00000000000E+00 0.  1.
         21   -1    0    0  503  502 -0.00000000000E+00 -0.00000000000E+00 -0.15928066473E+03  0.15928066473E+03  0.00000000000E+00 0.  1.
         21    1    1    2  503  501 -0.88262836089E+01 -0.18625305317E+02 -0.51401139023E+02  0.55379439987E+02  0.00000000000E+00 0.  1.
         21    1    1    2  504  502  0.88262836089E+01  0.18625305317E+02 -0.10488743874E+03  0.10689331170E+03  0.00000000000E+00 0.  1.
</event>
<event>
 4    1  0.3065783E+006  0.2335359E+02  0.7546771E-02  0.1488105E+00
         21   -1    0    0  502  501  0.00000000000E+00  0.00000000000E+00  0.21483949513E+02  0.21483949513E+02  0.00000000000E+00 0.  1.
         21   -1    0    0  503  502 -0.00000000000E+00 -0.00000000000E+00 -0.31319653137E+02  0.31319653137E+02  0.00000000000E+00 0.  1.
         21    1    1    2  503  504  0.20518726920E+02 -0.11152214995E+02 -0.16409668776E+02  0.28542376969E+02  0.00000000000E+00 0.  1.
         21    1    1    2  504  501 -0.20518726920E+02  0.11152214995E+02  0.65739651520E+01  0.24261225681E+02  0.00000000000E+00 0.  1.
</event>
<event>
 4    1  0.3065783E+006  0.3058696E+02  0.7546771E-02  0.1414563E+00
         21   -1    0    0  504  501  0.00000000000E+00  0.00000000000E+00  0.43409715023E+02  0.43409715023E+02  0.00000000000E+00 0.  1.
         21   -1    0    0  501  502 -0.00000000000E+00 -0.00000000000E+00 -0.44951802349E+02  0.44951802349E+02  0.00000000000E+00 0.  1.
         21    1    1    2  503  502  0.30586529709E+02  0.16139331340E+00 -0.32647250414E+02  0.44737063013E+02  0.00000000000E+00 0.  1.
         21    1    1    2  504  503 -0.30586529709E+02 -0.16139331340E+00  0.31105163087E+02  0.43624454359E+02  0.00000000000E+00 0.  1.
</event>
<event>
 4    1  0.3065783E+006  0.4159654E+02  0.7546771E-02  0.1339376E+00
         21   -1    0    0  504  501  0.00000000000E+00  0.00000000000E+00  0.21965575205E+03  0.21965575205E+03  0.00000000000E+00 0. -1.
         21   -1    0    0  503  502 -0.00000000000E+00 -0.00000000000E+00 -0.78772022088E+01  0.78772022088E+01  0.00000000000E+00 0. -1.
         21    1    1    2  503  501  0.12273036723E+02 -0.39744746885E+02  0.10583191422E+03  0.11371308809E+03  0.00000000000E+00 0. -1.
         21    1    1    2  504  502 -0.12273036723E+02  0.39744746885E+02  0.10594663562E+03  0.11381986617E+03  0.00000000000E+00 0. -1.
</event>
<event>
 4    1  0.3065783E+006  0.2090912E+02  0.7546771E-02  0.1520566E+00
         21   -1    0    0  503  501  0.00000000000E+00  0.00000000000E+00  0.38318469981E+03  0.38318469981E+03  0.00000000000E+00 0.  1.
         21   -1    0    0  501  502 -0.00000000000E+00 -0.00000000000E+00 -0.46553599903E+02  0.46553599903E+02  0.00000000000E+00 0. -1.
         21    1    1    2  503  504 -0.86897853519E+01 -0.19017862597E+02  0.38053534547E+03  0.38110935520E+03  0.00000000000E+00 0.  1.
         21    1    1    2  504  502  0.86897853519E+01  0.19017862597E+02 -0.43904245558E+02  0.48628944521E+02  0.00000000000E+00 0. -1.
</event>
<event>
 4    1  0.3065783E+006  0.2302823E+02  0.7546771E-02  0.1492144E+00
         21   -1    0    0  504  501  0.00000000000E+00  0.00000000000E+00  0.49238879228E+01  0.49238879228E+01  0.00000000000E+00 0.  1.
         21   -1    0    0  501  502 -0.00000000000E+00 -0.00000000000E+00 -0.11241231007E+04  0.11241231007E+04  0.00000000000E+00 0. -1.
         21    1    1    2  503  502  0.82522153650E+01 -0.21498842495E+02 -0.10963995945E+04  0.10966414045E+04  0.00000000000E+00 0. -1.
         21    1    1    2  504  503 -0.82522153650E+01  0.21498842495E+02 -0.22799618256E+02  0.32405584082E+02  0.00000000000E+00 0.  1.
</event>
<event>
 4    1  0.3065783E+006  0.2289854E+02  0.7546771E-02  0.1493776E+00
         21   -1    0    0  504  501  0.00000000000E+00  0.00000000000E+00  0.72890276835E+01  0.72890276835E+01  0.00000000000E+00 0.  1.
         21   -1    0    0  503  502 -0.00000000000E+00 -0.00000000000E+00 -0.14443723125E+03  0.14443723125E+03  0.00000000000E+00 0.  1.
         21    1    1    2  503  501 -0.15395068565E+01  0.22846729961E+02 -0.14825891318E+02  0.27279116640E+02  0.00000000000E+00 0.  1.
         21    1    1    2  504  502  0.15395068565E+01 -0.22846729961E+02 -0.12232231225E+03  0.12444714229E+03  0.00000000000E+00 0.  1.
</event>
<event>
 4    1  0.3065783E+006  0.3427323E+02  0.7546771E-02  0.1385746E+00
         21   -1    0    0  503  501  0.00000000000E+00  0.00000000000E+00  0.13684533465E+03  0.13684533465E+03  0.00000000000E+00 0.  1.
         21   -1    0    0  504  502 -0.00000000000E+00 -0.00000000000E+00 -0.12358604808E+02  0.12358604808E+02  0.00000000000E+00 0. -1.
         21    1    1    2  503  502  0.27379487393E+02 -0.20615967558E+02  0.21013472090E+02  0.40202244434E+02  0.00000000000E+00 0. -1.
         21    1    1    2  504  501 -0.27379487393E+02  0.20615967558E+02  0.10347325775E+03  0.10900169502E+03  0.00000000000E+00 0.  1.
</event>
<event>
 4    1  0.3065783E+006  0.4232644E+02  0.7546771E-02  0.1335367E+00
         21   -1    0    0  503  501  0.00000000000E+00  0.00000000000E+00  0.13359982175E+02  0.13359982175E+02  0.00000000000E+00 0. -1.
         21   -1    0    0  501  502 -0.00000000000E+00 -0.00000000000E+00 -0.32085353494E+03  0.32085353494E+03  0.00000000000E+00 0. -1.
         21    1    1    2  503  504 -0.42321657161E+02 -0.63600605317E+00 -0.26255914167E+02  0.49808635770E+02  0.00000000000E+00 0. -1.
         21    1    1    2  504  502  0.42321657161E+02  0.63600605317E+00 -0.28123763860E+03  0.28440488135E+03  0.00000000000E+00 0. -1.
</event>
<event>
 4    1  0.3065783E+006  0.2718890E+02  0.7546771E-02  0.1445720E+00
         21   -1    0    0  503  501  0.00000000000E+00  0.00000000000E+00  0.47226937402E+02  0.47226937402E+02  0.00000000000E+00 0. -1.
         21   -1    0    0  504  502 -0.00000000000E+00 -0.00000000000E+00 -0.21225190516E+02  0.21225190516E+02  0.00000000000E+00 0. -1.
         21    1    1    2  503  502  0.44116852457E+01 -0.26828589201E+02  0.30537658716E+02  0.40887464645E+02  0.00000000000E+00 0. -1.
         21    1    1    2  504  501 -0.44116852457E+01  0.26828589201E+02 -0.45359118302E+01  0.27564663273E+02  0.00000000000E+00 0. -1.
</event>
<event>
 4    1  0.3065783E+006  0.2112317E+02  0.7546771E-02  0.1517513E+00
         21   -1    0    0  502  501  0.00000000000E+00  0.00000000000E+00  0.28134105346E+02  0.28134105346E+02  0.00000000000E+00 0.  1.
         21   -1    0    0  503  502 -0.00000000000E+00 -0.00000000000E+00 -0.15971148408E+02  0.15971148408E+02  0.00000000000E+00 0. -1.
         21    1    1    2  503  504  0.11173638184E+02  0.17925910957E+02  0.42363763769E+01  0.21543800935E+02  0.00000000000E+00 0. -1.
         21    1    1    2  504  501 -0.11173638184E+02 -0.17925910957E+02  0.79265805611E+01  0.22561452819E+02  0.00000000000E+00 0.  1.
</event>
<event>
 4    1  0.3065783E+006  0.3002273E+02  0.7546771E-02  0.1419399E+00
         21   -1    0    0  504  501  0.00000000000E+00  0.00000000000E+00  0.19640886101E+03  0.19640886101E+03  0.00000000000E+00 0. -1.
         21   -1    0    0  503  502 -0.00000000000E+00 -0.00000000000E+00 -0.12071793824E+02  0.12071793824E+02  0.00000000000E+00 0.  1.
         21    1    1    2  503  501 -0.41315546166E+01  0.29737095657E+02  0.17423678884E+03  0.17680447728E+03  0.00000000000E+00 0. -1.
         21    1    1    2  504  502  0.41315546166E+01 -0.29737095657E+02  0.10100278347E+02  0.31676177553E+02  0.00000000000E+00 0.  1.
</event>
<event>
 4    1  0.3065783E+006  0.2214286E+02  0.7546771E-02  0.1503551E+00
         21   -1    0    0  503  501  0.00000000000E+00  0.00000000000E+00  0.24865519298E+01  0.24865519298E+01  0.00000000000E+00 0.  1.
         21   -1    0    0  501  502 -0.00000000000E+00 -0.00000000000E+00 -0.42334569979E+03  0.42334569979E+03  0.00000000000E+00 0.  1.
         21    1    1    2  503  504 -0.15333957238E+02  0.15974222908E+02 -0.54807440955E+02  0.59111433971E+02  0.00000000000E+00 0.  1.
         21    1    1    2  504  502  0.15333957238E+02 -0.15974222908E+02 -0.36605170691E+03  0.36672081775E+03  0.00000000000E+00 0.  1.
</event>
<event>
 4    1  0.3065783E+006  0.3365047E+02  0.7546771E-02  0.1390307E+00
         21   -1    0    0  502  501  0.00000000000E+00  0.00000000000E+00  0.16608569614E+02  0.16608569614E+02  0.00000000000E+00 0.  1.
         21   -1    0    0  503  502 -0.00000000000E+00 -0.00000000000E+00 -0.84478893430E+02  0.84478893430E+02  0.00000000000E+00 0. -1.
         21    1    1    2  503  504  0.32509089311E+02 -0.86898431581E+01 -0.56136886116E+02  0.65450013329E+02  0.00000000000E+00 0. -1.
         21    1    1    2  504  501 -0.32509089311E+02  0.86898431581E+01 -0.11733437700E+02  0.35637449715E+02  0.00000000000E+00 0.  1.
</event>
<event>
 4    1  0.3065783E+006  0.2245144E+02  0.7546771E-02  0.1499504E+00
         21   -1    0    0  503  501  0.00000000000E+00  0.00000000000E+00  0.28567744324E+03  0.28567744324E+03  0.00000000000E+00 0.  1.
         21   -1    0    0  504  502 -0.00000000000E+00 -0.00000000000E+00 -0.19811778862E+02  0.19811778862E+02  0.00000000000E+00 0. -1.
         21    1    1    2  503  502 -0.13539261683E+02  0.17909646403E+02  0.27871703983E+03  0.27961984073E+03  0.00000000000E+00 0.  1.
         21    1    1    2  504  501  0.13539261683E+02 -0.17909646403E+02 -0.12851375453E+02  0.25869381365E+02  0.00000000000E+00 0. -1.
</event>
<event>
 4    1  0.3065783E+006  0.2103042E+02  0.7546771E-02  0.1518831E+00
         21   -1    0    0  503  501  0.00000000000E+00  0.00000000000E+00  0.31707046463E+02  0.31707046463E+02  0.00000000000E+00 0. -1.
         21   -1    0    0  504  502 -0.00000000000E+00 -0.00000000000E+00 -0.17344738050E+02  0.17344738050E+02  0.00000000000E+00 0.  1.
         21    1    1    2  503  502  0.20561260367E+02  0.44173889585E+01  0.18033253471E+02  0.27703374954E+02  0.00000000000E+00 0. -1.
         21    1    1    2  504  501 -0.20561260367E+02 -0.44173889585E+01 -0.36709450570E+01  0.21348409559E+02  0.00000000000E+00 0.  1.
</event>
<event>
 4    1  0.3065783E+006  0.2980418E+02  0.7546771E-02  0.1421306E+00
         21   -1    0    0  502  501  0.00000000000E+00  0.00000000000E+00  0.79081128945E+02  0.79081128945E+02  0.00000000000E+00 0.  1.
         21   -1    0    0  503  502 -0.00000000000E+00 -0.00000000000E+00 -0.20936467733E+03  0.20936467733E+03  0.00000000000E+00 0.  1.
         21    1    1    2  503  504  0.11909271511E+02  0.27321390615E+02 -0.20544249103E+03  0.20759312670E+03  0.00000000000E+00 0.  1.
         21    1    1    2  504  501 -0.11909271511E+02 -0.27321390615E+02  0.75158942650E+02  0.80852679568E+02  0.00000000000E+00 0.  1.
</event>
<event>
 4    1  0.3065783E+006  0.2126803E+02  0.7546771E-02  0.1515472E+00
         21   -1    0    0  503  501  0.00000000000E+00  0.00000000000E+00  0.22790613143E+02  0.22790613143E+02  0.00000000000E+00 0. -1.
         21   -1    0    0  504  502 -0.00000000000E+00 -0.00000000000E+00 -0.46625638420E+02  0.46625638420E+02  0.00000000000E+00 0.  1.
         21    1    1    2  503  502 -0.19060136159E+02 -0.94361187202E+01 -0.38220898174E+02  0.43739755191E+02  0.00000000000E+00 0.  1.
         21    1    1    2  504  501  0.19060136159E+02  0.94361187202E+01  0.14385872897E+02  0.25676496372E+02  0.00000000000E+00 0. -1.
</event>
<event>
 4    1  0.3065783E+006  0.2297350E+02  0.7546771E-02  0.1492831E+00
         21   -1    0    0  503  501  0.00000000000E+00  0.00000000000E+00  0.53993605307E+01  0.53993605307E+01  0.00000000000E+00 0. -1.
         21   -1    0    0  504  502 -0.00000000000E+00 -0.00000000000E+00 -0.10412052652E+03  0.10412052652E+03  0.00000000000E+00 0. -1.
         21    1    1    2  503  502 -0.18460766622E+02  0.13674126732E+02 -0.35814323870E+02  0.42549352996E+02  0.00000000000E+00 0. -1.
         21    1    1    2  504  501  0.18460766622E+02 -0.13674126732E+02 -0.62906842117E+02  0.66970534052E+02  0.00000000000E+00 0. -1.
</event>
<event>
 4    1  0.3065783E+006  0.3277968E+02  0.7546771E-02  0.1396883E+00
         21   -1    0    0  503  501  0.00000000000E+00  0.00000000000E+00  0.49999040656E+03  0.49999040656E+03  0.00000000000E+00 0.  1.
         21   -1    0    0  504  502 -0.00000000000E+00 -0.00000000000E+00 -0.58011102971E+01  0.58011102971E+01  0.00000000000E+00 0.  1.
         21    1    1    2  503  502 -0.32071092376E+02 -0.67788480410E+01  0.44775175844E+03  0.44895004726E+03  0.00000000000E+00 0.  1.
         21    1    1    2  504  501  0.32071092376E+02  0.67788480410E+01  0.46437537814E+02  0.56841469590E+02  0.00000000000E+00 0.  1.
</event>
<event>
 4    1  0.3065783E+006  0.2222432E+02  0.7546771E-02  0.1502475E+00
         21   -1    0    0  503  501  0.00000000000E+00  0.00000000000E+00  0.19828109468E+03  0.19828109468E+03  0.00000000000E+00 0.  1.
         21   -1    0    0  504  502 -0.00000000000E+00 -0.00000000000E+00 -0.14130577183E+02  0.14130577183E+02  0.00000000000E+00 0. -1.
         21    1    1    2  503  502 -0.18478074036E+02  0.12348323334E+02 -0.43158187943E+01  0.22639492068E+02  0.00000000000E+00 0. -1.
         21    1    1    2  504  501  0.18478074036E+02 -0.12348323334E+02  0.18846633629E+03  0.18977217980E+03  0.00000000000E+00 0.  1.
</event>
<event>
 4    1  0.3065783E+006  0.2178255E+02  0.7546771E-02  0.1508379E+00
         21   -1    0    0  504  501  0.00000000000E+00  0.00000000000E+00  0.12796800487E+03  0.12796800487E+03  0.00000000000E+00 0.  1.
         21   -1    0    0  501  502 -0.00000000000E+00 -0.00000000000E+00 -0.77830086011E+01  0.77830086011E+01  0.00000000000E+00 0. -1.
         21    1    1    2  503  502  0.61450510503E+01  0.20897791801E+02  0.10977466946E+02  0.24392296635E+02  0.00000000000E+00 0. -1.
         21    1    1    2  504  503 -0.61450510503E+01 -0.20897791801E+02  0.10920752932E+03  0.11135871684E+03  0.00000000000E+00 0.  1.
</event>
<event>
 4    1  0.3065783E+006  0.2435639E+02  0.7546771E-02  0.1476134E+00
         21   -1    0    0  504  501  0.00000000000E+00  0.00000000000E+00  0.33563041893E+03  0.33563041893E+03  0.00000000000E+00 0.  1.
         21   -1    0    0  501  502 -0.00000000000E+00 -0.00000000000E+00 -0.89360057454E+02  0.89360057454E+02  0.00000000000E+00 0. -1.
         21    1    1    2  503  502 -0.16107725979E+02 -0.18269507779E+02 -0.87248008546E+02  0.90583932052E+02  0.00000000000E+00 0. -1.
         21    1    1    2  504  503  0.16107725979E+02  0.18269507779E+02  0.33351837002E+03  0.33440654433E+03  0.00000000000E+00 0.  1.
</event>
<event>
 4    1  0.3065783E+006  0.5917829E+02  0.7546771E-02  0.1262650E+00
         21   -1    0    0  503  501  0.00000000000E+00  0.00000000000E+00  0.56600567860E+02  0.56600567860E+02  0.00000000000E+00 0. -1.
         21   -1    0    0  504  502 -0.00000000000E+00 -0.00000000000E+00 -0.36630572713E+03  0.36630572713E+03  0.00000000000E+00 0.  1.
         21    1    1    2  503  502 -0.21388057975E+02  0.55178088387E+02  0.37916632423E+02  0.70283294433E+02  0.00000000000E+00 0. -1.
         21    1    1    2  504  501  0.21388057975E+02 -0.55178088387E+02 -0.34762179169E+03  0.35262300055E+03  0.00000000000E+00 0.  1.
</event>
<event>
 4    1  0.3065783E+006  0.6069661E+02  0.7546771E-02  0.1257484E+00
         21   -1    0    0  504  501  0.00000000000E+00  0.00000000000E+00  0.35856633219E+03  0.35856633219E+03  0.00000000000E+00 0.  1.
         21   -1    0    0  503  502 -0.00000000000E+00 -0.00000000000E+00 -0.16632536950E+02  0.16632536950E+02  0.00000000000E+00 0. -1.
         21    1    1    2  503  501  0.43175912334E+01  0.60542854869E+02  0.28695537292E+03  0.29330438953E+03  0.00000000000E+00 0.  1.
         21    1    1    2  504  502 -0.43175912334E+01 -0.60542854869E+02  0.54978422315E+02  0.81894479606E+02  0.00000000000E+00 0. -1.
</event>
<event>
 4    1  0.3065783E+006  0.2836553E+02  0.7546771E-02  0.1434353E+00
         21   -1    0    0  502  501  0.00000000000E+00  0.00000000000E+00  0.29572852449E+03  0.29572852449E+03  0.00000000000E+00 0. -1.
         21   -1    0    0  503  502 -0.00000000000E+00 -0.00000000000E+00 -0.79794617814E+01  0.79794617814E+01  0.00000000000E+00 0. -1.
         21    1    1    2  503  504  0.12141984610E+02 -0.25635433284E+02  0.20598364262E+02  0.35055610681E+02  0.00000000000E+00 0. -1.
         21    1    1    2  504  501 -0.12141984610E+02  0.25635433284E+02  0.26715069844E+03  0.26865237559E+03  0.00000000000E+00 0. -1.
</event>
<event>
 4    1  0.3065783E+006  0.2533672E+02  0.7546771E-02  0.1465072E+00
         21   -1    0    0  502  501  0.00000000000E+00  0.00000000000E+00  0.15936007609E+02  0.15936007609E+02  0.00000000000E+00 0. -1.
         21   -1    0    0  504  502 -0.00000000000E+00 -0.00000000000E+00 -0.12407304868E+03  0.12407304868E+03  0.00000000000E+00 0. -1.
         21    1    1    2  503  501  0.23630677049E+02 -0.91400359659E+01  0.34600782578E+01  0.25571884890E+02  0.00000000000E+00 0. -1.
         21    1    1    2  504  503 -0.23630677049E+02  0.91400359659E+01 -0.11159711933E+03  0.11443717140E+03  0.00000000000E+00 0. -1.
</event>
<event>
 4    1  0.3065783E+006  0.3741456E+02  0.7546771E-02  0.1364341E+00
         21   -1    0    0  504  501  0.00000000000E+00  0.00000000000E+00  0.27610952584E+03  0.27610952584E+03  0.00000000000E+00 0.  1.
         21   -1    0    0  501  502 -0.00000000000E+00 -0.00000000000E+00 -0.58247510815E+01  0.58247510815E+01  0.00000000000E+00 0.  1.
         21    1    1    2  503  502 -0.34954743752E+02  0.13342235356E+02  0.84395653069E+02  0.92317255224E+02  0.00000000000E+00 0.  1.
         21    1    1    2  504  503  0.34954743752E+02 -0.13342235356E+02  0.18588912169E+03  0.18961702170E+03  0.00000000000E+00 0.  1.
</event>
<event>
 4    1  0.3065783E+006  0.2351305E+02  0.7546771E-02  0.1486154E+00
         21   -1    0    0  503  501  0.00000000000E+00  0.00000000000E+00  0.13291118970E+02  0.13291118970E+02  0.00000000000E+00 0.  1.
         21   -1    0    0  501  502 -0.00000000000E+00 -0.00000000000E+00 -0.32638804965E+03  0.32638804965E+03  0.00000000000E+00 0. -1.
         21    1    1    2  503  504  0.16350412521E+02 -0.16897558140E+02  0.20998174576E+01  0.23606623944E+02  0.00000000000E+00 0.  1.
         21    1    1    2  504  502 -0.16350412521E+02  0.16897558140E+02 -0.31519674813E+03  0.31607254467E+03  0.00000000000E+00 0. -1.
</event>
<event>
 4    1  0.3065783E+006  0.2076160E+02  0.7546771E-02  0.1522696E+00
         21   -1    0    0  503  501  0.00000000000E+00  0.00000000000E+00  0.39095934136E+02  0.39095934136E+02  0.00000000000E+00 0. -1.
         21   -1    0    0  504  502 -0.00000000000E+00 -0.00000000000E+00 -0.61909796659E+02  0.61909796659E+02  0.00000000000E+00 0. -1.
         21    1    1    2  503  502  0.17141011309E+02 -0.11714507487E+02 -0.57192553540E+02  0.60844327055E+02  0.00000000000E+00 0. -1.
         21    1    1    2  504  501 -0.17141011309E+02  0.11714507487E+02  0.34378691017E+02  0.40161403740E+02  0.00000000000E+00 0. -1.
</event>
<event>
 4    1  0.3065783E+006  0.2112242E+02  0.7546771E-02  0.1517524E+00
         21   -1    0    0  504  501  0.00000000000E+00  0.00000000000E+00  0.24147342034E+02  0.24147342034E+02  0.00000000000E+00 0. -1.
         21   -1    0    0  503  502 -0.00000000000E+00 -0.00000000000E+00 -0.10480501825E+03  0.10480501825E+03  0.00000000000E+00 0.  1.
         21    1    1    2  503  501  0.42945466833E+01 -0.20681231949E+02 -0.98846316049E+02  0.10107794360E+03  0.00000000000E+00 0.  1.
         21    1    1    2  504  502 -0.42945466833E+01  0.20681231949E+02  0.18188639836E+02  0.27874416680E+02  0.00000000000E+00 0. -1.
</event>
<event>
 4    1  0.3065783E+006  0.2675426E+02  0.7546771E-02  0.1450092E+00
         21   -1    0    0  504  501  0.00000000000E+00  0.00000000000E+00  0.10086918569E+03  0.10086918569E+03  0.00000000000E+00 0.  1.
         21   -1    0    0  503  502 -0.00000000000E+00 -0.00000000000E+00 -0.76188715041E+02  0.76188715041E+02  0.00000000000E+00 0.  1.
         21    1    1    2  503  501  0.17781291494E+02 -0.19990398620E+02 -0.71965168913E+02  0.76777443959E+02  0.00000000000E+00 0.  1.
         21    1    1    2  504  502 -0.17781291494E+02  0.19990398620E+02  0.96645639564E+02  0.10028045677E+03  0.00000000000E+00 0.  1.
</event>
<event>
 4    1  0.3065783E+006  0.2608964E+02  0.7546771E-02  0.1456974E+00
         21   -1    0    0  503  501  0.00000000000E+00  0.00000000000E+00  0.42239175244E+03  0.42239175244E+03  0.00000000000E+00 0. -1.
         21   -1    0    0  504  502 -0.00000000000E+00 -0.00000000000E+00 -0.43997070781E+01  0.43997070781E+01  0.00000000000E+00 0.  1.
         21    1    1    2  503  502  0.25677463189E+02  0.46192199022E+01  0.37887479801E+03  0.37977201303E+03  0.00000000000E+00 0. -1.
         21    1    1    2  504  501 -0.25677463189E+02 -0.46192199022E+01  0.39117247352E+02  0.47019446495E+02  0.00000000000E+00 0.  1.
</event>
<event>
 4    1  0.3065783E+006  0.3162185E+02  0.7546771E-02  0.1406007E+00
         21   -1    0    0  503  501  0.00000000000E+00  0.00000000000E+00  0.64215564910E+03  0.64215564910E+03  0.00000000000E+00 0. -1.
         21   -1    0    0  504  502 -0.00000000000E+00 -0.00000000000E+00 -0.25339106854E+02  0.25339106854E+02  0.00000000000E+00 0.  1.
         21    1    1    2  503  502 -0.31221370896E+02  0.50167258056E+01 -0.14921636582E+02  0.34965651384E+02  0.00000000000E+00 0.  1.
         21    1    1    2  504  501  0.31221370896E+02 -0.50167258056E+01  0.63173817883E+03  0.63252910457E+03  0.00000000000E+00 0. -1.
</event>
<event>
 4    1  0.3065783E+006  0.2203941E+02  0.7546771E-02  0.1504926E+00
         21   -1    0    0  504  501  0.00000000000E+00  0.00000000000E+00  0.77474757854E+01  0.77474757854E+01  0.00000000000E+00 0. -1.
         21   -1    0    0  503  502 -0.00000000000E+00 -0.00000000000E+00 -0.10332608225E+03  0.10332608225E+03  0.00000000000E+00 0. -1.
         21    1    1    2  503  501 -0.22036939497E+02  0.32981429301E+00 -0.82614993907E+02  0.85504226200E+02  0.00000000000E+00 0. -1.
         21    1    1    2  504  502  0.22036939497E+02 -0.32981429301E+00 -0.12963612555E+02  0.25569331832E+02  0.00000000000E+00 0. -1.
</event>
<event>
 4    1  0.3065783E+006  0.3197870E+02  0.7546771E-02  0.1403146E+00
         21   -1    0    0  503  501  0.00000000000E+00  0.00000000000E+00  0.22972081167E+02  0.22972081167E+02  0.00000000000E+00 0. -1.
         21   -1    0    0  504  502 -0.00000000000E+00 -0.00000000000E+00 -0.79577013267E+02  0.79577013267E+02  0.00000000000E+00 0. -1.
         21    1    1    2  503  502  0.31628451544E+02  0.47200106166E+01  0.57318428892E+01  0.32488328214E+02  0.00000000000E+00 0. -1.
         21    1    1    2  504  501 -0.31628451544E+02 -0.47200106166E+01 -0.62336774989E+02  0.70060766220E+02  0.00000000000E+00 0. -1.
</event>
<event>
 4    1  0.3065783E+006  0.2239567E+02  0.7546771E-02  0.1500229E+00
         21   -1    0    0  502  501  0.00000000000E+00  0.00000000000E+00  0.13260122058E+03  0.13260122058E+03  0.00000000000E+00 0.  1.
         21   -1    0    0  504  502 -0.00000000000E+00 -0.00000000000E+00 -0.82709750607E+01  0.82709750607E+01  0.00000000000E+00 0.  1.
         21    1    1    2  503  501  0.95213540931E+01 -0.20270906628E+02  0.11405297709E+03  0.11623100886E+03  0.00000000000E+00 0.  1.
         21    1    1    2  504  503 -0.95213540931E+01  0.20270906628E+02  0.10277268431E+02  0.24641186775E+02  0.00000000000E+00 0.  1.
</event>
<event>
 4    1  0.3065783E+006  0.2770109E+02  0.7546771E-02  0.1440690E+00
         21   -1    0    0  504  501  0.00000000000E+00  0.00000000000E+00  0.90276035230E+02  0.90276035230E+02  0.00000000000E+00 0.  1.
         21   -1    0    0  503  502 -0.00000000000E+00 -0.00000000000E+00 -0.62697635669E+02  0.62697635669E+02  0.00000000000E+00 0. -1.
         21    1    1    2  503  501  0.14197480572E+02 -0.23786176674E+02 -0.57324142097E+02  0.63666379844E+02  0.00000000000E+00 0. -1.
         21    1    1    2  504  502 -0.14197480572E+02  0.23786176674E+02  0.84902541659E+02  0.89307291054E+02  0.00000000000E+00 0.  1.
</event>
<event>
 4    1  0.3065783E+006  0.2494511E+02  0.7546771E-02  0.1469418E+00
         21   -1    0    0  503  501  0.00000000000E+00  0.00000000000E+00  0.52439049107E+01  0.52439049107E+01  0.00000000000E+00 0. -1.
         21   -1    0    0  504  502 -0.00000000000E+00 -0.00000000000E+00 -0.22578325246E+03  0.22578325246E+03  0.00000000000E+00 0. -1.
         21    1    1    2  503  502 -0.23985521577E+02 -0.68522460286E+01 -0.18983476609E+03  0.19146669929E+03  0.00000000000E+00 0. -1.
         21    1    1    2  504  501  0.23985521577E+02  0.68522460286E+01 -0.30704581465E+02  0.39560458085E+02  0.00000000000E+00 0. -1.
</event>
<event>
 4    1  0.3065783E+006  0.2182649E+02  0.7546771E-02  0.1507784E+00
         21   -1    0    0  503  501  0.00000000000E+00  0.00000000000E+00  0.11790015406E+02  0.11790015406E+02  0.00000000000E+00 0.  1.
         21   -1    0    0  501  502 -0.00000000000E+00 -0.00000000000E+00 -0.49880938923E+02  0.49880938923E+02  0.00000000000E+00 0.  1.
         21    1    1    2  503  504 -0.19305076516E+02 -0.10183797661E+02 -0.56068211966E+01  0.22535131640E+02  0.00000000000E+00 0.  1.
         21    1    1    2  504  502  0.19305076516E+02  0.10183797661E+02 -0.32484102320E+02  0.39135822690E+02  0.00000000000E+00 0.  1.
</event>
<event>
 4    1  0.3065783E+006  0.3184546E+02  0.7546771E-02  0.1404209E+00
         21   -1    0    0  502  501  0.00000000000E+00  0.00000000000E+00  0.12233479688E+02  0.12233479688E+02  0.00000000000E+00 0. -1.
         21   -1    0    0  504  502 -0.00000000000E+00 -0.00000000000E+00 -0.66526216780E+03  0.66526216780E+03  0.00000000000E+00 0.  1.
         21    1    1    2  503  501 -0.31459554054E+02  0.49426434090E+01 -0.95741247059E+01  0.33253528069E+02  0.00000000000E+00 0. -1.
         21    1    1    2  504  503  0.31459554054E+02 -0.49426434090E+01 -0.64345456340E+03  0.64424211942E+03  0.00000000000E+00 0.  1.
</event>
<event>
 4    1  0.3065783E+006  0.2004944E+02  0.7546771E-02  0.1533281E+00
         21   -1    0    0  503  501  0.00000000000E+00  0.00000000000E+00  0.15441448045E+03  0.15441448045E+03  0.00000000000E+00 0. -1.
         21   -1    0    0  501  502 -0.00000000000E+00 -0.00000000000E+00 -0.41453725057E+01  0.41453725057E+01  0.00000000000E+00 0.  1.
         21    1    1    2  503  504  0.49556640939E+01 -0.19427341047E+02  0.12348942902E+03  0.12510643175E+03  0.00000000000E+00 0. -1.
         21    1    1    2  504  502 -0.49556640939E+01  0.19427341047E+02  0.26779678927E+02  0.33453421203E+02  0.00000000000E+00 0.  1.
</event>
<event>
 4    1  0.3065783E+006  0.2092615E+02  0.7546771E-02  0.1520322E+00
         21   -1    0    0  504  501  0.00000000000E+00  0.00000000000E+00  0.62977199352E+02  0.62977199352E+02  0.00000000000E+00 0.  1.
         21   -1    0    0  503  502 -0.00000000000E+00 -0.00000000000E+00 -0.69961652973E+01  0.69961652973E+01  0.00000000000E+00 0. -1.
         21    1    1    2  503  501  0.19732276106E+02  0.69671410997E+01  0.30726857982E+02  0.37175846687E+02  0.00000000000E+00 0.  1.
         21    1    1    2  504  502 -0.19732276106E+02 -0.69671410997E+01  0.25254176072E+02  0.32797517962E+02  0.00000000000E+00 0. -1.
</event>
<event>
 4    1  0.3065783E+006  0.3071220E+02  0.7546771E-02  0.1413506E+00
         21   -1    0    0  503  501  0.00000000000E+00  0.00000000000E+00  0.93865737222E+03  0.93865737222E+03  0.00000000000E+00 0.  1.
         21   -1    0    0  504  502 -0.00000000000E+00 -0.00000000000E+00 -0.48756794856E+01  0.48756794856E+01  0.00000000000E+00 0. -1.
         21    1    1    2  503  502 -0.18075730058E+02  0.24829560009E+02  0.88723965690E+03  0.88777105598E+03  0.00000000000E+00 0.  1.
         21    1    1    2  504  501  0.18075730058E+02 -0.24829560009E+02  0.46542035843E+02  0.55761995730E+02  0.00000000000E+00 0. -1.
</event>
<event>
 4    1  0.3065783E+006  0.3413444E+02  0.7546771E-02  0.1386753E+00
         21   -1    0    0  503  501  0.00000000000E+00  0.00000000000E+00  0.11364308152E+02  0.11364308152E+02  0.00000000000E+00 0. -1.
         21   -1    0    0  504  502 -0.00000000000E+00 -0.00000000000E+00 -0.69712152201E+03  0.69712152201E+03  0.00000000000E+00 0. -1.
         21    1    1    2  503  502  0.19552596345E+02 -0.27979560214E+02 -0.67003620682E+03  0.67090511867E+03  0.00000000000E+00 0. -1.
         21    1    1    2  504  501 -0.19552596345E+02  0.27979560214E+02 -0.15721007039E+02  0.37580711488E+02  0.00000000000E+00 0. -1.
</event>
<event>
 4    1  0.3065783E+006  0.2274346E+02  0.7546771E-02  0.1495745E+00
         21   -1    0    0  504  501  0.00000000000E+00  0.00000000000E+00  0.53924379838E+02  0.53924379838E+02  0.00000000000E+00 0. -1.
         21   -1    0    0  503  502 -0.00000000000E+00 -0.00000000000E+00 -0.96393860606E+01  0.96393860606E+01  0.00000000000E+00 0. -1.
         21    1    1    2  503  501 -0.60317086981E+01  0.21929052589E+02  0.24361127141E+02  0.33327606767E+02  0.00000000000E+00 0. -1.
         21    1    1    2  504  502  0.60317086981E+01 -0.21929052589E+02  0.19923866636E+02  0.30236159131E+02  0.00000000000E+00 0. -1.
</event>
<event>
 4    1  0.3065783E+006  0.2288042E+02  0.7546771E-02  0.1494005E+00
         21   -1    0    0  503  501  0.00000000000E+00  0.00000000000E+00  0.25846344459E+03  0.25846344459E+03  0.00000000000E+00 0.  1.
         21   -1    0    0  504  502 -0.00000000000E+00 -0.00000000000E+00 -0.25587647329E+01  0.25587647329E+01  0.00000000000E+00 0.  1.
         21    1    1    2  503  502 -0.21157185993E+02 -0.87113267188E+01  0.18753364074E+03  0.18892427092E+03  0.00000000000E+00 0.  1.
         21    1    1    2  504  501  0.21157185993E+02  0.87113267188E+01  0.68371039111E+02  0.72097938399E+02  0.00000000000E+00 0.  1.
</event>
<event>
 4    1  0.3065783E+006  0.2521751E+02  0.7546771E-02  0.1466385E+00
         21   -1    0    0  504  501  0.00000000000E+00  0.00000000000E+00  0.27940138154E+02  0.27940138154E+02  0.00000000000E+00 0.  1.
         21   -1    0    0  503  502 -0.00000000000E+00 -0.00000000000E+00 -0.44884263181E+02  0.44884263181E+02  0.00000000000E+00 0. -1.
         21    1    1    2  503  501 -0.25189171706E+02 -0.11951030960E+01 -0.34036279458E+02  0.42360252147E+02  0.00000000000E+00 0. -1.
         21    1    1    2  504  502  0.25189171706E+02  0.11951030960E+01  0.17092154432E+02  0.30464149188E+02  0.00000000000E+00 0.  1.
</event>
<event>
 4    1  0.3065783E+006  0.2589831E+02  0.7546771E-02  0.1459000E+00
         21   -1    0    0  504  501  0.00000000000E+00  0.00000000000E+00  0.31778817935E+02  0.31778817935E+02  0.00000000000E+00 0. -1.
         21   -1    0    0  503  502 -0.00000000000E+00 -0.00000000000E+00 -0.21121630817E+02  0.21121630817E+02  0.00000000000E+00 0.  1.
         21    1    1    2  503  501 -0.38521623967E+01 -0.25610216226E+02  0.46080369742E+01  0.26305062916E+02  0.00000000000E+00 0.  1.
         21    1    1    2  504  502  0.38521623967E+01  0.25610216226E+02  0.60491501441E+01  0.26595385835E+02  0.00000000000E+00 0. -1.
</event>
<event>
 4    1  0.3065783E+006  0.2049615E+02  0.7546771E-02  0.1526582E+00
         21   -1    0    0  503  501  0.00000000000E+00  0.00000000000E+00  0.10475134656E+01  0.10475134656E+01  0.00000000000E+00 0. -1.
         21   -1    0    0  504  502 -0.00000000000E+00 -0.00000000000E+00 -0.61510734325E+03  0.61510734325E+03  0.00000000000E+00 0. -1.
         21    1    1    2  503  502  0.32627750951E+01  0.20234779185E+02 -0.48877486622E+03  0.48920441723E+03  0.00000000000E+00 0. -1.
         21    1    1    2  504  501 -0.32627750951E+01 -0.20234779185E+02 -0.12528496357E+03  0.12695043949E+03  0.00000000000E+00 0. -1.
</event>
<event>
 4    1  0.3065783E+006  0.2009274E+02  0.7546771E-02  0.1532623E+00
         21   -1    0    0  503  501  0.00000000000E+00  0.00000000000E+00  0.14739889403E+03  0.14739889403E+03  0.00000000000E+00 0.  1.
         21   -1    0    0  501  502 -0.00000000000E+00 -0.00000000000E+00 -0.61237118064E+01  0.61237118064E+01  0.00000000000E+00 0.  1.
         21    1    1    2  503  504 -0.92288334812E+01  0.17847882614E+02  0.12770642344E+03  0.12927741052E+03  0.00000000000E+00 0.  1.
         21    1    1    2  504  502  0.92288334812E+01 -0.17847882614E+02  0.13568758779E+02  0.24245195318E+02  0.00000000000E+00 0.  1.
</event>
<event>
 4    1  0.3065783E+006  0.3005361E+02  0.7546771E-02  0.1419131E+00
         21   -1    0    0  504  501  0.00000000000E+00  0.00000000000E+00  0.32165755390E+03  0.32165755390E+03  0.00000000000E+00 0.  1.
         21   -1    0    0  503  502 -0.00000000000E+00 -0.00000000000E+00 -0.68372779879E+01  0.68372779879E+01  0.00000000000E+00 0. -1.
         21    1    1    2  503  501 -0.27937597756E+02  0.11077461507E+02  0.31323319531E+02  0.43409329276E+02  0.00000000000E+00 0. -1.
         21    1    1    2  504  502  0.27937597756E+02 -0.11077461507E+02  0.28349695638E+03  0.28508550261E+03  0.00000000000E+00 0.  1.
</event>
<event>
 4    1  0.3065783E+006  0.2324307E+02  0.7546771E-02  0.1489468E+00
         21   -1    0    0  504  501  0.00000000000E+00  0.00000000000E+00  0.12103147374E+01  0.12103147374E+01  0.00000000000E+00 0.  1.
         21   -1    0    0  501  502 -0.00000000000E+00 -0.00000000000E+00 -0.80149614372E+03  0.80149614372E+03  0.00000000000E+00 0.  1.
         21    1    1    2  503  502 -0.32943544153E+01 -0.23008424407E+02 -0.66730284313E+03  0.66770751442E+03  0.00000000000E+00 0.  1.
         21    1    1    2  504  503  0.32943544153E+01  0.23008424407E+02 -0.13298298585E+03  0.13499894403E+03  0.00000000000E+00 0.  1.
</event>
<event>
 4    1  0.3065783E+006  0.2463697E+02  0.7546771E-02  0.1472906E+00
         21   -1    0    0  504  501  0.00000000000E+00  0.00000000000E+00  0.17828491185E+01  0.17828491185E+01  0.00000000000E+00 0. -1.
         21   -1    0    0  501  502 -0.00000000000E+00 -0.00000000000E+00 -0.36299043948E+03  0.36299043948E+03  0.00000000000E+00 0. -1.
         21    1    1    2  503  502  0.48698166272E+00 -0.24632153641E+02 -0.22604785447E+03  0.22738648301E+03  0.00000000000E+00 0. -1.
         21    1    1    2  504  503 -0.48698166272E+00  0.24632153641E+02 -0.13515973589E+03  0.13738680558E+03  0.00000000000E+00 0. -1.
</event>
<event>
 4    1  0.3065783E+006  0.2473580E+02  0.7546771E-02  0.1471781E+00
         21   -1    0    0  504  501  0.00000000000E+00  0.00000000000E+00  0.54421216479E+02  0.54421216479E+02  0.00000000000E+00 0.  1.
         21   -1    0    0  501  502 -0.00000000000E+00 -0.00000000000E+00 -0.68119402739E+02  0.68119402739E+02  0.00000000000E+00 0.  1.
         21    1    1    2  503  502  0.22417481822E+02 -0.10455447509E+02 -0.62835238778E+02  0.67528713198E+02  0.00000000000E+00 0.  1.
         21    1    1    2  504  503 -0.22417481822E+02  0.10455447509E+02  0.49137052517E+02  0.55011906020E+02  0.00000000000E+00 0.  1.
</event>
<event>
 4    1  0.3065783E+006  0.2820942E+02  0.7546771E-02  0.1435823E+00
         21   -1    0    0  503  501  0.00000000000E+00  0.00000000000E+00  0.51637896814E+02  0.51637896814E+02  0.00000000000E+00 0.  1.
         21   -1    0    0  504  502 -0.00000000000E+00 -0.00000000000E+00 -0.22964589462E+02  0.22964589462E+02  0.00000000000E+00 0.  1.
         21    1    1    2  503  502  0.89195193214E+00 -0.28195310920E+02 -0.70568570478E+01  0.29078692672E+02  0.00000000000E+00 0.  1.
         21    1    1    2  504  501 -0.89195193214E+00  0.28195310920E+02  0.35730164399E+02  0.45523793604E+02  0.00000000000E+00 0.  1.
</event>
<event>
 4    1  0.4117024E+006  0.2024409E+02  0.7546771E-02  0.1530336E+00
         21   -1    0    0  502  501  0.00000000000E+00  0.00000000000E+00  0.27213977299E+03  0.27213977299E+03  0.00000000000E+00 0.  1.
         21   -1    0    0  504  502 -0.00000000000E+00 -0.00000000000E+00 -0.11326718340E+03  0.11326718340E+03  0.00000000000E+00 0. -1.
         21    1    1    2  503  501 -0.11780095941E+02  0.16463675424E+02  0.27085445428E+03  0.27160993847E+03  0.00000000000E+00 0.  1.
         21    1    1    2  504  503  0.11780095941E+02 -0.16463675424E+02 -0.11198186469E+03  0.11379701793E+03  0.00000000000E+00 0. -1.
</event>
<event>
 4    1  0.3065783E+006  0.3365371E+02  0.7546771E-02  0.1390283E+00
         21   -1    0    0  503  501  0.00000000000E+00  0.00000000000E+00  0.12943455534E+02  0.12943455534E+02  0.00000000000E+00 0.  1.
         21   -1    0    0  504  502 -0.00000000000E+00 -0.00000000000E+00 -0.33763035472E+03  0.33763035472E+03  0.00000000000E+00 0. -1.
         21    1    1    2  503  502  0.33598490031E+02 -0.19271287217E+01 -0.11470775179E+02  0.35554901781E+02  0.00000000000E+00 0.  1.
         21    1    1    2  504  501 -0.33598490031E+02  0.19271287217E+01 -0.31321612401E+03  0.31501890847E+03  0.00000000000E+00 0. -1.
</event>
<event>
 4    1  0.3065783E+006  0.2284754E+02  0.7546771E-02  0.1494422E+00
         21   -1    0    0  503  501  0.00000000000E+00  0.00000000000E+00  0.84331370643E+03  0.84331370643E+03  0.00000000000E+00 0.  1.
         21   -1    0    0  501  502 -0.00000000000E+00 -0.00000000000E+00 -0.46959706843E+01  0.46959706843E+01  0.00000000000E+00 0.  1.
         21    1    1    2  503  504  0.12028381946E+02  0.19424935902E+02  0.81438153692E+03  0.81470196869E+03  0.00000000000E+00 0.  1.
         21    1    1    2  504  502 -0.12028381946E+02 -0.19424935902E+02  0.24236198821E+02  0.33307708422E+02  0.00000000000E+00 0.  1.
</event>
<event>
 4    1  0.3065783E+006  0.3182420E+02  0.7546771E-02  0.1404380E+00
         21   -1    0    0  502  501  0.00000000000E+00  0.00000000000E+00  0.24059076371E+02  0.24059076371E+02  0.00000000000E+00 0. -1.
         21   -1    0    0  504  502 -0.00000000000E+00 -0.00000000000E+00 -0.89677542054E+02  0.89677542054E+02  0.00000000000E+00 0. -1.
         21    1    1    2  503  501  0.30383036280E+02 -0.94684095328E+01  0.86145589394E+01  0.32969535914E+02  0.00000000000E+00 0. -1.
         21    1    1    2  504  503 -0.30383036280E+02  0.94684095328E+01 -0.74233024623E+02  0.80767082511E+02  0.00000000000E+00 0. -1.
</event>
<event>
 4    1  0.3065783E+006  0.2345522E+02  0.7546771E-02  0.1486860E+00
         21   -1    0    0  503  501  0.00000000000E+00  0.00000000000E+00  0.26594073333E+01  0.26594073333E+01  0.00000000000E+00 0. -1.
         21   -1    0    0  504  502 -0.00000000000E+00 -0.00000000000E+00 -0.21099732628E+03  0.21099732628E+03  0.00000000000E+00 0. -1.
         21    1    1    2  503  502  0.28796654895E+01 -0.23277777099E+02 -0.89224992956E+02  0.92256418465E+02  0.00000000000E+00 0. -1.
         21    1    1    2  504  501 -0.28796654895E+01  0.23277777099E+02 -0.11911292599E+03  0.12140031514E+03  0.00000000000E+00 0. -1.
</event>
<event>
 4    1  0.3065783E+006  0.2083017E+02  0.7546771E-02  0.1521704E+00
         21   -1    0    0  504  501  0.00000000000E+00  0.00000000000E+00  0.45145265825E+01  0.45145265825E+01  0.00000000000E+00 0. -1.
         21   -1    0    0  503  502 -0.00000000000E+00 -0.00000000000E+00 -0.10435807906E+03  0.10435807906E+03  0.00000000000E+00 0. -1.
         21    1    1    2  503  501 -0.71033202656E+01  0.19581592335E+02 -0.34618860470E+02  0.40402492713E+02  0.00000000000E+00 0. -1.
         21    1    1    2  504  502  0.71033202656E+01 -0.19581592335E+02 -0.65224692009E+02  0.68470112931E+02  0.00000000000E+00 0. -1.
</event>
<event>
 4    1  0.3065783E+006  0.2330480E+02  0.7546771E-02  0.1488706E+00
         21   -1    0    0  504  501  0.00000000000E+00  0.00000000000E+00  0.55074494311E+02  0.55074494311E+02  0.00000000000E+00 0. -1.
         21   -1    0    0  503  502 -0.00000000000E+00 -0.00000000000E+00 -0.98869461083E+01  0.98869461083E+01  0.00000000000E+00 0. -1.
         21    1    1    2  503  501  0.19719389064E+02  0.12420123575E+02  0.20944002390E+02  0.31333129604E+02  0.00000000000E+00 0. -1.
         21    1    1    2  504  502 -0.19719389064E+02 -0.12420123575E+02  0.24243545813E+02  0.33628310815E+02  0.00000000000E+00 0. -1.
</event>
<event>
 4    1  0.3065783E+006  0.3817629E+02  0.7546771E-02  0.1359517E+00
         21   -1    0    0  503  501  0.00000000000E+00  0.00000000000E+00  0.70847988380E+01  0.70847988380E+01  0.00000000000E+00 0. -1.
         21   -1    0    0  504  502 -0.00000000000E+00 -0.00000000000E+00 -0.74387287498E+03  0.74387287498E+03  0.00000000000E+00 0. -1.
         21    1    1    2  503  502  0.34266519052E+02  0.16829580501E+02 -0.49025516543E+02  0.62136385316E+02  0.00000000000E+00 0. -1.
         21    1    1    2  504  501 -0.34266519052E+02 -0.16829580501E+02 -0.68776255960E+03  0.68882128850E+03  0.00000000000E+00 0. -1.
</event>
<event>
 4    1  0.3065783E+006  0.3349244E+02  0.7546771E-02  0.1391483E+00
         21   -1    0    0  503  501  0.00000000000E+00  0.00000000000E+00  0.55637635748E+02  0.55637635748E+02  0.00000000000E+00 0. -1.
         21   -1    0    0  504  502 -0.00000000000E+00 -0.00000000000E+00 -0.10990049221E+04  0.10990049221E+04  0.00000000000E+00 0. -1.
         21    1    1    2  503  502  0.18753571015E+02 -0.27749721712E+02 -0.10936848382E+04  0.10941975456E+04  0.00000000000E+00 0. -1.
         21    1    1    2  504  501 -0.18753571015E+02  0.27749721712E+02  0.50317551854E+02  0.60445012246E+02  0.00000000000E+00 0. -1.
</event>
<event>
 4    1  0.3065783E+006  0.2456688E+02  0.7546771E-02  0.1473707E+00
         21   -1    0    0  503  501  0.00000000000E+00  0.00000000000E+00  0.13630837567E+02  0.13630837567E+02  0.00000000000E+00 0.  1.
         21   -1    0    0  504  502 -0.00000000000E+00 -0.00000000000E+00 -0.78260904195E+02  0.78260904195E+02  0.00000000000E+00 0.  1.
         21    1    1    2  503  502  0.14381487559E+02  0.19917439681E+02 -0.62591916456E+02  0.67240460985E+02  0.00000000000E+00 0.  1.
         21    1    1    2  504  501 -0.14381487559E+02 -0.19917439681E+02 -0.20381501715E+01  0.24651280777E+02  0.00000000000E+00 0.  1.
</event>
<event>
 4    1  0.3065783E+006  0.2528155E+02  0.7546771E-02  0.1465678E+00
         21   -1    0    0  503  501  0.00000000000E+00  0.00000000000E+00  0.89416862704E+01  0.89416862704E+01  0.00000000000E+00 0.  1.
         21   -1    0    0  504  502 -0.00000000000E+00 -0.00000000000E+00 -0.71966293554E+02  0.71966293554E+02  0.00000000000E+00 0.  1.
         21    1    1    2  503  502 -0.70266539041E+01 -0.24285442461E+02 -0.28188740672E+02  0.37865045640E+02  0.00000000000E+00 0.  1.
         21    1    1    2  504  501  0.70266539041E+01  0.24285442461E+02 -0.34835866612E+02  0.43042934185E+02  0.00000000000E+00 0.  1.
</event>
<event>
 4    1  0.3065783E+006  0.2729589E+02  0.7546771E-02  0.1444658E+00
         21   -1    0    0  502  501  0.00000000000E+00  0.00000000000E+00  0.28200232875E+02  0.28200232875E+02  0.00000000000E+00 0.  1.
         21   -1    0    0  503  502 -0.00000000000E+00 -0.00000000000E+00 -0.70696455108E+03  0.70696455108E+03  0.00000000000E+00 0.  1.
         21    1    1    2  503  504 -0.26773838633E+02 -0.53129088563E+01 -0.70003054121E+03  0.70056250546E+03  0.00000000000E+00 0.  1.
         21    1    1    2  504  501  0.26773838633E+02  0.53129088563E+01  0.21266223007E+02  0.34602278489E+02  0.00000000000E+00 0.  1.
</event>
<event>
 4    1  0.3065783E+006  0.2732064E+02  0.7546771E-02  0.1444414E+00
         21   -1    0    0  503  501  0.00000000000E+00  0.00000000000E+00  0.53071598580E+03  0.53071598580E+03  0.00000000000E+00 0.  1.
         21   -1    0    0  504  502 -0.00000000000E+00 -0.00000000000E+00 -0.65185387528E+03  0.65185387528E+03  0.00000000000E+00 0.  1.
         21    1    1    2  503  502 -0.18559232113E+02  0.20049246044E+02 -0.65121565504E+03  0.65178849847E+03  0.00000000000E+00 0.  1.
         21    1    1    2  504  501  0.18559232113E+02 -0.20049246044E+02  0.53007776556E+03  0.53078136262E+03  0.00000000000E+00 0.  1.
</event>
<event>
 4    1  0.3065783E+006  0.3005078E+02  0.7546771E-02  0.1419156E+00
         21   -1    0    0  504  501  0.00000000000E+00  0.00000000000E+00  0.42221638745E+02  0.42221638745E+02  0.00000000000E+00 0. -1.
         21   -1    0    0  503  502 -0.00000000000E+00 -0.00000000000E+00 -0.23914039332E+02  0.23914039332E+02  0.00000000000E+00 0.  1.
         21    1    1    2  503  501  0.28777499531E+02 -0.86547687657E+01  0.19900440734E+02  0.36042711372E+02  0.00000000000E+00 0. -1.
         21    1    1    2  504  502 -0.28777499531E+02  0.86547687657E+01 -0.15928413213E+01  0.30092966705E+02  0.00000000000E+00 0.  1.
</event>
<event>
 4    1  0.3065783E+006  0.2813470E+02  0.7546771E-02  0.1436531E+00
         21   -1    0    0  504  501  0.00000000000E+00  0.00000000000E+00  0.44288718268E+03  0.44288718268E+03  0.00000000000E+00 0.  1.
         21   -1    0    0  503  502 -0.00000000000E+00 -0.00000000000E+00 -0.11907203681E+02  0.11907203681E+02  0.00000000000E+00 0.  1.
         21    1    1    2  503  501 -0.79729050215E+01 -0.26981370459E+02  0.58525164292E+01  0.28736971220E+02  0.00000000000E+00 0.  1.
         21    1    1    2  504  502  0.79729050215E+01  0.26981370459E+02  0.42512746257E+03  0.42605741514E+03  0.00000000000E+00 0.  1.
</event>
<event>
 4    1  0.3065783E+006  0.3344949E+02  0.7546771E-02  0.1391804E+00
         21   -1    0    0  504  501  0.00000000000E+00  0.00000000000E+00  0.20562639464E+03  0.20562639464E+03  0.00000000000E+00 0.  1.
         21   -1    0    0  503  502 -0.00000000000E+00 -0.00000000000E+00 -0.80852469819E+01  0.80852469819E+01  0.00000000000E+00 0.  1.
         21    1    1    2  503  501 -0.14506418668E+02  0.30140207131E+02  0.15987611004E+03  0.16333780588E+03  0.00000000000E+00 0.  1.
         21    1    1    2  504  502  0.14506418668E+02 -0.30140207131E+02  0.37665037618E+02  0.50373835741E+02  0.00000000000E+00 0.  1.
</event>
<event>
 4    1  0.3065783E+006  0.2030860E+02  0.7546771E-02  0.1529369E+00
         21   -1    0    0  504  501  0.00000000000E+00  0.00000000000E+00  0.29422505433E+01  0.29422505433E+01  0.00000000000E+00 0. -1.
         21   -1    0    0  503  502 -0.00000000000E+00 -0.00000000000E+00 -0.31540127669E+03  0.31540127669E+03  0.00000000000E+00 0. -1.
         21    1    1    2  503  501 -0.48166709785E+01  0.19729138568E+02 -0.37589817986E+02  0.42725093846E+02  0.00000000000E+00 0. -1.
         21    1    1    2  504  502  0.48166709785E+01 -0.19729138568E+02 -0.27486920816E+03  0.27561843339E+03  0.00000000000E+00 0. -1.
</event>
<event>
 4    1  0.3065783E+006  0.2393805E+02  0.7546771E-02  0.1481043E+00
         21   -1    0    0  503  501  0.00000000000E+00  0.00000000000E+00  0.49384222452E+01  0.49384222452E+01  0.00000000000E+00 0. -1.
         21   -1    0    0  504  502 -0.00000000000E+00 -0.00000000000E+00 -0.14707076278E+03  0.14707076278E+03  0.00000000000E+00 0. -1.
         21    1    1    2  503  502  0.96608640858E+01  0.21902007663E+02 -0.36151552297E+02  0.43358562800E+02  0.00000000000E+00 0. -1.
         21    1    1    2  504  501 -0.96608640858E+01 -0.21902007663E+02 -0.10598078824E+03  0.10865062222E+03  0.00000000000E+00 0. -1.
</event>
<event>
 4    1  0.3065783E+006  0.2177795E+02  0.7546771E-02  0.1508441E+00
         21   -1    0    0  502  501  0.00000000000E+00  0.00000000000E+00  0.11833486705E+03  0.11833486705E+03  0.00000000000E+00 0. -1.
         21   -1    0    0  503  502 -0.00000000000E+00 -0.00000000000E+00 -0.40562036800E+01  0.40562036800E+01  0.00000000000E+00 0. -1.
         21    1    1    2  503  504 -0.43960320505E+01  0.21329649281E+02  0.50464036299E+02  0.54962696403E+02  0.00000000000E+00 0. -1.
         21    1    1    2  504  501  0.43960320505E+01 -0.21329649281E+02  0.63814627069E+02  0.67428374326E+02  0.00000000000E+00 0. -1.
</event>
<event>
 4    1  0.3065783E+006  0.2393761E+02  0.7546771E-02  0.1481049E+00
         21   -1    0    0  504  501  0.00000000000E+00  0.00000000000E+00  0.11128362325E+03  0.11128362325E+03  0.00000000000E+00 0. -1.
         21   -1    0    0  503  502 -0.00000000000E+00 -0.00000000000E+00 -0.22807379181E+02  0.22807379181E+02  0.00000000000E+00 0.  1.
         21    1    1    2  503  501 -0.71952840387E+00  0.23926794181E+02 -0.14755666050E+02  0.28120079685E+02  0.00000000000E+00 0.  1.
         21    1    1    2  504  502  0.71952840387E+00 -0.23926794181E+02  0.10323191012E+03  0.10597092275E+03  0.00000000000E+00 0. -1.
</event>
<event>
 4    1  0.3065783E+006  0.2485198E+02  0.7546771E-02  0.1470466E+00
         21   -1    0    0  504  501  0.00000000000E+00  0.00000000000E+00  0.17141786445E+03  0.17141786445E+03  0.00000000000E+00 0. -1.
         21   -1    0    0  503  502 -0.00000000000E+00 -0.00000000000E+00 -0.40171450964E+01  0.40171450964E+01  0.00000000000E+00 0.  1.
         21    1    1    2  503  501 -0.95128967279E+01 -0.22959220988E+02  0.11186448226E+03  0.11459181220E+03  0.00000000000E+00 0. -1.
         21    1    1    2  504  502  0.95128967279E+01  0.22959220988E+02  0.55536237096E+02  0.60843197347E+02  0.00000000000E+00 0.  1.
</event>
<event>
 4    1  0.3065783E+006  0.2966806E+02  0.7546771E-02  0.1422503E+00
         21   -1    0    0  503  501  0.00000000000E+00  0.00000000000E+00  0.17371687729E+03  0.17371687729E+03  0.00000000000E+00 0.  1.
         21   -1    0    0  504  502 -0.00000000000E+00 -0.00000000000E+00 -0.50919493767E+01  0.50919493767E+01  0.00000000000E+00 0.  1.
         21    1    1    2  503  502  0.17137967265E+02 -0.24217427240E+02  0.90592040633E+02  0.95326342268E+02  0.00000000000E+00 0.  1.
         21    1    1    2  504  501 -0.17137967265E+02  0.24217427240E+02  0.78032887277E+02  0.83482484396E+02  0.00000000000E+00 0.  1.
</event>
<event>
 4    1  0.3065783E+006  0.2141733E+02  0.7546771E-02  0.1513389E+00
         21   -1    0    0  504  501  0.00000000000E+00  0.00000000000E+00  0.47722782471E+01  0.47722782471E+01  0.00000000000E+00 0. -1.
         21   -1    0    0  503  502 -0.00000000000E+00 -0.00000000000E+00 -0.96367686703E+02  0.96367686703E+02  0.00000000000E+00 0. -1.
         21    1    1    2  503  501  0.79660637483E+01  0.19880738687E+02 -0.48371690555E+02  0.52901062272E+02  0.00000000000E+00 0. -1.
         21    1    1    2  504  502 -0.79660637483E+01 -0.19880738687E+02 -0.43223717901E+02  0.48238902678E+02  0.00000000000E+00 0. -1.
</event>
<event>
 4    1  0.3065783E+006  0.2108433E+02  0.7546771E-02  0.1518064E+00
         21   -1    0    0  503  501  0.00000000000E+00  0.00000000000E+00  0.35224296789E+01  0.35224296789E+01  0.00000000000E+00 0.  1.
         21   -1    0    0  504  502 -0.00000000000E+00 -0.00000000000E+00 -0.14495141478E+03  0.14495141478E+03  0.00000000000E+00 0.  1.
         21    1    1    2  503  502 -0.21067643930E+02 -0.83856424303E+00 -0.44017277779E+02  0.48806449921E+02  0.00000000000E+00 0.  1.
         21    1    1    2  504  501  0.21067643930E+02  0.83856424303E+00 -0.97411707323E+02  0.99667394539E+02  0.00000000000E+00 0.  1.
</event>
<event>
 4    1  0.3065783E+006  0.2641573E+02  0.7546771E-02  0.1453567E+00
         21   -1    0    0  502  501  0.00000000000E+00  0.00000000000E+00  0.34655330832E+02  0.34655330832E+02  0.00000000000E+00 0. -1.
         21   -1    0    0  504  502 -0.00000000000E+00 -0.00000000000E+00 -0.32861253030E+02  0.32861253030E+02  0.00000000000E+00 0. -1.
         21    1    1    2  503  501  0.20337756860E+02 -0.16857233700E+02  0.21905097808E+02  0.34316526515E+02  0.00000000000E+00 0. -1.
         21    1    1    2  504  503 -0.20337756860E+02  0.16857233700E+02 -0.20111020006E+02  0.33200057346E+02  0.00000000000E+00 0. -1.
</event>
<event>
 4    1  0.3065783E+006  0.3358858E+02  0.7546771E-02  0.1390767E+00
         21   -1    0    0  504  501  0.00000000000E+00  0.00000000000E+00  0.53606654427E+02  0.53606654427E+02  0.00000000000E+00 0. -1.
         21   -1    0    0  503  502 -0.00000000000E+00 -0.00000000000E+00 -0.21054439269E+02  0.21054439269E+02  0.00000000000E+00 0. -1.
         21    1    1    2  503  501 -0.31070157363E+02  0.12760797141E+02  0.17034177591E+02  0.37661065152E+02  0.00000000000E+00 0. -1.
         21    1    1    2  504  502  0.31070157363E+02 -0.12760797141E+02  0.15518037568E+02  0.37000028543E+02  0.00000000000E+00 0. -1.
</event>
<event>
 4    1  0.3065783E+006  0.3118934E+02  0.7546771E-02  0.1409535E+00
         21   -1    0    0  504  501  0.00000000000E+00  0.00000000000E+00  0.73166614601E+01  0.73166614601E+01  0.00000000000E+00 0. -1.
         21   -1    0    0  503  502 -0.00000000000E+00 -0.00000000000E+00 -0.15278626822E+03  0.15278626822E+03  0.00000000000E+00 0.  1.
         21    1    1    2  503  501  0.15972790388E+02 -0.26788893585E+02 -0.10157645538E+03  0.10625700513E+03  0.00000000000E+00 0.  1.
         21    1    1    2  504  502 -0.15972790388E+02  0.26788893585E+02 -0.43893151378E+02  0.53845924545E+02  0.00000000000E+00 0. -1.
</event>
<event>
 4    1  0.3065783E+006  0.2629940E+02  0.7546771E-02  0.1454776E+00
         21   -1    0    0  504  501  0.00000000000E+00  0.00000000000E+00  0.20070857667E+02  0.20070857667E+02  0.00000000000E+00 0. -1.
         21   -1    0    0  501  502 -0.00000000000E+00 -0.00000000000E+00 -0.37723449663E+02  0.37723449663E+02  0.00000000000E+00 0. -1.
         21    1    1    2  503  502 -0.25717773543E+02 -0.55004046295E+01 -0.17324612080E+02  0.31492864443E+02  0.00000000000E+00 0. -1.
         21    1    1    2  504  503  0.25717773543E+02  0.55004046295E+01 -0.32797991594E+00  0.26301442887E+02  0.00000000000E+00 0. -1.
</event>
<event>
 4    1  0.3065783E+006  0.3152135E+02  0.7546771E-02  0.1406821E+00
         21   -1    0    0  504  501  0.00000000000E+00  0.00000000000E+00  0.46529536010E+02  0.46529536010E+02  0.00000000000E+00 0. -1.
         21   -1    0    0  501  502 -0.00000000000E+00 -0.00000000000E+00 -0.43801448202E+02  0.43801448202E+02  0.00000000000E+00 0.  1.
         21    1    1    2  503  502  0.10737871918E+02  0.29636018988E+02 -0.30968897116E+02  0.44189004326E+02  0.00000000000E+00 0.  1.
         21    1    1    2  504  503 -0.10737871918E+02 -0.29636018988E+02  0.33696984924E+02  0.46141979885E+02  0.00000000000E+00 0. -1.
</event>
<event>
 4    1  0.3065783E+006  0.2003799E+02  0.7546771E-02  0.1533456E+00
         21   -1    0    0  504  501  0.00000000000E+00  0.00000000000E+00  0.34357246807E+02  0.34357246807E+02  0.00000000000E+00 0.  1.
         21   -1    0    0  503  502 -0.00000000000E+00 -0.00000000000E+00 -0.21250410268E+02  0.21250410268E+02  0.00000000000E+00 0.  1.
         21    1    1    2  503  501 -0.19642881338E+02  0.39595526282E+01  0.25205850204E+02  0.32200244235E+02  0.00000000000E+00 0.  1.
         21    1    1    2  504  502  0.19642881338E+02 -0.39595526282E+01 -0.12099013665E+02  0.23407412841E+02  0.00000000000E+00 0.  1.
</event>
<event>
 4    1  0.3065783E+006  0.2202569E+02  0.7546771E-02  0.1505109E+00
         21   -1    0    0  502  501  0.00000000000E+00  0.00000000000E+00  0.33260486487E+01  0.33260486487E+01  0.00000000000E+00 0.  1.
         21   -1    0    0  504  502 -0.00000000000E+00 -0.00000000000E+00 -0.74079703180E+03  0.74079703180E+03  0.00000000000E+00 0. -1.
         21    1    1    2  503  501 -0.20792116494E+02 -0.72676514835E+01 -0.35308013865E+02  0.41614741492E+02  0.00000000000E+00 0.  1.
         21    1    1    2  504  503  0.20792116494E+02  0.72676514835E+01 -0.70216296929E+03  0.70250833896E+03  0.00000000000E+00 0. -1.
</event>
<event>
 4    1  0.3065783E+006  0.2325861E+02  0.7546771E-02  0.1489276E+00
         21   -1    0    0  503  501  0.00000000000E+00  0.00000000000E+00  0.41678839505E+03  0.41678839505E+03  0.00000000000E+00 0. -1.
         21   -1    0    0  504  502 -0.00000000000E+00 -0.00000000000E+00 -0.17258646857E+01  0.17258646857E+01  0.00000000000E+00 0. -1.
         21    1    1    2  503  502  0.78868556975E+01  0.21880596165E+02  0.10333200399E+03  0.10591726031E+03  0.00000000000E+00 0. -1.
         21    1    1    2  504  501 -0.78868556975E+01 -0.21880596165E+02  0.31173052637E+03  0.31259699943E+03  0.00000000000E+00 0. -1.
</event>
<event>
 4    1  0.3065783E+006  0.2773118E+02  0.7546771E-02  0.1440398E+00
         21   -1    0    0  504  501  0.00000000000E+00  0.00000000000E+00  0.74185593433E+01  0.74185593433E+01  0.00000000000E+00 0.  1.
         21   -1    0    0  501  502 -0.00000000000E+00 -0.00000000000E+00 -0.10695301263E+03  0.10695301263E+03  0.00000000000E+00 0.  1.
         21    1    1    2  503  502  0.14045043705E+02 -0.23911399311E+02 -0.59799416593E+02  0.65916526718E+02  0.00000000000E+00 0.  1.
         21    1    1    2  504  503 -0.14045043705E+02  0.23911399311E+02 -0.39735036695E+02  0.48455045257E+02  0.00000000000E+00 0.  1.
</event>
<event>
 4    1  0.3065783E+006  0.2073001E+02  0.7546771E-02  0.1523155E+00
         21   -1    0    0  502  501  0.00000000000E+00  0.00000000000E+00  0.29022794023E+02  0.29022794023E+02  0.00000000000E+00 0.  1.
         21   -1    0    0  503  502 -0.00000000000E+00 -0.00000000000E+00 -0.48146748691E+03  0.48146748691E+03  0.00000000000E+00 0.  1.
         21    1    1    2  503  504  0.50296153218E+01 -0.20110596646E+02 -0.47751201486E+03  0.47796177407E+03  0.00000000000E+00 0.  1.
         21    1    1    2  504  501 -0.50296153218E+01  0.20110596646E+02  0.25067321979E+02  0.32528506866E+02  0.00000000000E+00 0.  1.
</event>
<event>
 4    1  0.3065783E+006  0.4975441E+02  0.7546771E-02  0.1299241E+00
         21   -1    0    0  503  501  0.00000000000E+00  0.00000000000E+00  0.15207323630E+03  0.15207323630E+03  0.00000000000E+00 0. -1.
         21   -1    0    0  504  502 -0.00000000000E+00 -0.00000000000E+00 -0.17971036641E+03  0.17971036641E+03  0.00000000000E+00 0. -1.
         21    1    1    2  503  502 -0.49068086982E+02 -0.82355513696E+01 -0.17201872812E+03  0.17906966323E+03  0.00000000000E+00 0. -1.
         21    1    1    2  504  501  0.49068086982E+02  0.82355513696E+01  0.14438159801E+03  0.15271393948E+03  0.00000000000E+00 0. -1.
</event>
<event>
 4    1  0.3065783E+006  0.2716821E+02  0.7546771E-02  0.1445926E+00
         21   -1    0    0  504  501  0.00000000000E+00  0.00000000000E+00  0.55930699699E+02  0.55930699699E+02  0.00000000000E+00 0. -1.
         21   -1    0    0  503  502 -0.00000000000E+00 -0.00000000000E+00 -0.19229072318E+02  0.19229072318E+02  0.00000000000E+00 0. -1.
         21    1    1    2  503  501 -0.16121897574E+00  0.27167730351E+02 -0.26973080181E+01  0.27301777131E+02  0.00000000000E+00 0. -1.
         21    1    1    2  504  502  0.16121897574E+00 -0.27167730351E+02  0.39398935399E+02  0.47857994886E+02  0.00000000000E+00 0. -1.
</event>
<event>
 4    1  0.3065783E+006  0.2629715E+02  0.7546771E-02  0.1454799E+00
         21   -1    0    0  503  501  0.00000000000E+00  0.00000000000E+00  0.34711000825E+01  0.34711000825E+01  0.00000000000E+00 0. -1.
         21   -1    0    0  504  502 -0.00000000000E+00 -0.00000000000E+00 -0.43573519816E+03  0.43573519816E+03  0.00000000000E+00 0. -1.
         21    1    1    2  503  502  0.16715144488E+02 -0.20301329711E+02 -0.54342859774E+02  0.60371238613E+02  0.00000000000E+00 0. -1.
         21    1    1    2  504  501 -0.16715144488E+02  0.20301329711E+02 -0.37792123830E+03  0.37883505963E+03  0.00000000000E+00 0. -1.
</event>
<event>
 4    1  0.3065783E+006  0.2204360E+02  0.7546771E-02  0.1504870E+00
         21   -1    0    0  504  501  0.00000000000E+00  0.00000000000E+00  0.60244586488E+02  0.60244586488E+02  0.00000000000E+00 0.  1.
         21   -1    0    0  503  502 -0.00000000000E+00 -0.00000000000E+00 -0.10296443502E+02  0.10296443502E+02  0.00000000000E+00 0. -1.
         21    1    1    2  503  501  0.21329966901E+02  0.55635155766E+01  0.85574335165E+01  0.23646349866E+02  0.00000000000E+00 0.  1.
         21    1    1    2  504  502 -0.21329966901E+02 -0.55635155766E+01  0.41390709469E+02  0.46894680124E+02  0.00000000000E+00 0. -1.
</event>
<event>
 4    1  0.3065783E+006  0.2432191E+02  0.7546771E-02  0.1476534E+00
         21   -1    0    0  504  501  0.00000000000E+00  0.00000000000E+00  0.86550599876E+02  0.86550599876E+02  0.00000000000E+00 0. -1.
         21   -1    0    0  503  502 -0.00000000000E+00 -0.00000000000E+00 -0.13835367925E+02  0.13835367925E+02  0.00000000000E+00 0. -1.
         21    1    1    2  503  501 -0.21293867210E+02  0.11752714421E+02  0.72061432349E+02  0.76055276669E+02  0.00000000000E+00 0. -1.
         21    1    1    2  504  502  0.21293867210E+02 -0.11752714421E+02  0.65379960245E+00  0.24330691132E+02  0.00000000000E+00 0. -1.
</event>
<event>
 4    1  0.3065783E+006  0.3189187E+02  0.7546771E-02  0.1403839E+00
         21   -1    0    0  502  501  0.00000000000E+00  0.00000000000E+00  0.20908137728E+02  0.20908137728E+02  0.00000000000E+00 0.  1.
         21   -1    0    0  503  502 -0.00000000000E+00 -0.00000000000E+00 -0.50920913248E+02  0.50920913248E+02  0.00000000000E+00 0.  1.
         21    1    1    2  503  504  0.20392420687E+02  0.24520201323E+02 -0.22597975978E+02  0.39086565630E+02  0.00000000000E+00 0.  1.
         21    1    1    2  504  501 -0.20392420687E+02 -0.24520201323E+02 -0.74147995420E+01  0.32742485346E+02  0.00000000000E+00 0.  1.
</event>
<event>
 4    1  0.3065783E+006  0.2820037E+02  0.7546771E-02  0.1435909E+00
         21   -1    0    0  504  501  0.00000000000E+00  0.00000000000E+00  0.15656721445E+03  0.15656721445E+03  0.00000000000E+00 0. -1.
         21   -1    0    0  501  502 -0.00000000000E+00 -0.00000000000E+00 -0.55532325745E+02  0.55532325745E+02  0.00000000000E+00 0.  1.
         21    1    1    2  503  502 -0.10927937222E+02 -0.25996946877E+02 -0.50566028757E+02  0.57898051116E+02  0.00000000000E+00 0.  1.
         21    1    1    2  504  503  0.10927937222E+02  0.25996946877E+02  0.15160091746E+03  0.15420148908E+03  0.00000000000E+00 0. -1.
</event>
<event>
 4    1  0.3065783E+006  0.2126486E+02  0.7546771E-02  0.1515517E+00
         21   -1    0    0  503  501  0.00000000000E+00  0.00000000000E+00  0.46343354117E+02  0.46343354117E+02  0.00000000000E+00 0. -1.
         21   -1    0    0  504  502 -0.00000000000E+00 -0.00000000000E+00 -0.23178195139E+03  0.23178195139E+03  0.00000000000E+00 0.  1.
         21    1    1    2  503  502 -0.28887744647E+00 -0.21262898117E+02  0.43384775635E+02  0.48315970894E+02  0.00000000000E+00 0. -1.
         21    1    1    2  504  501  0.28887744647E+00  0.21262898117E+02 -0.22882337291E+03  0.22980933461E+03  0.00000000000E+00 0.  1.
</event>
<event>
 4    1  0.3065783E+006  0.3630263E+02  0.7546771E-02  0.1371629E+00
         21   -1    0    0  503  501  0.00000000000E+00  0.00000000000E+00  0.18210109919E+02  0.18210109919E+02  0.00000000000E+00 0.  1.
         21   -1    0    0  504  502 -0.00000000000E+00 -0.00000000000E+00 -0.87300367134E+02  0.87300367134E+02  0.00000000000E+00 0.  1.
         21    1    1    2  503  502  0.32051432123E+02 -0.17046610301E+02 -0.12728865407E+02  0.38469536499E+02  0.00000000000E+00 0.  1.
         21    1    1    2  504  501 -0.32051432123E+02  0.17046610301E+02 -0.56361391808E+02  0.67040940554E+02  0.00000000000E+00 0.  1.
</event>
<event>
 4    1  0.3065783E+006  0.2363785E+02  0.7546771E-02  0.1484640E+00
         21   -1    0    0  502  501  0.00000000000E+00  0.00000000000E+00  0.58033123986E+03  0.58033123986E+03  0.00000000000E+00 0. -1.
         21   -1    0    0  503  502 -0.00000000000E+00 -0.00000000000E+00 -0.20059338053E+01  0.20059338053E+01  0.00000000000E+00 0. -1.
         21    1    1    2  503  504 -0.21550816327E+02 -0.97113437339E+01  0.79194006185E+02  0.82646466937E+02  0.00000000000E+00 0. -1.
         21    1    1    2  504  501  0.21550816327E+02  0.97113437339E+01  0.49913129986E+03  0.49969070672E+03  0.00000000000E+00 0. -1.
</event>
<event>
 4    1  0.3065783E+006  0.2243619E+02  0.7546771E-02  0.1499702E+00
         21   -1    0    0  504  501  0.00000000000E+00  0.00000000000E+00  0.16040365756E+03  0.16040365756E+03  0.00000000000E+00 0. -1.
         21   -1    0    0  503  502 -0.00000000000E+00 -0.00000000000E+00 -0.69171031954E+02  0.69171031954E+02  0.00000000000E+00 0.  1.
         21    1    1    2  503  501 -0.18727135103E+02  0.12356254987E+02 -0.66536911805E+02  0.70217827216E+02  0.00000000000E+00 0.  1.
         21    1    1    2  504  502  0.18727135103E+02 -0.12356254987E+02  0.15776953741E+03  0.15935686230E+03  0.00000000000E+00 0. -1.
</event>
<event>
 4    1  0.3065783E+006  0.2567268E+02  0.7546771E-02  0.1461417E+00
         21   -1    0    0  504  501  0.00000000000E+00  0.00000000000E+00  0.32768465280E+01  0.32768465280E+01  0.00000000000E+00 0. -1.
         21   -1    0    0  503  502 -0.00000000000E+00 -0.00000000000E+00 -0.23816226410E+03  0.23816226410E+03  0.00000000000E+00 0. -1.
         21    1    1    2  503  501 -0.20284342148E+02 -0.15736319746E+02 -0.16504259956E+03  0.16702738089E+03  0.00000000000E+00 0. -1.
         21    1    1    2  504  502  0.20284342148E+02  0.15736319746E+02 -0.69842818007E+02  0.74411729738E+02  0.00000000000E+00 0. -1.
</event>
<event>
 4    1  0.3065783E+006  0.2594189E+02  0.7546771E-02  0.1458537E+00
         21   -1    0    0  504  501  0.00000000000E+00  0.00000000000E+00  0.92282432519E+01  0.92282432519E+01  0.00000000000E+00 0. -1.
         21   -1    0    0  503  502 -0.00000000000E+00 -0.00000000000E+00 -0.25610540840E+03  0.25610540840E+03  0.00000000000E+00 0. -1.
         21    1    1    2  503  501 -0.16995566606E+02  0.19599290788E+02 -0.11239074356E+02  0.28271863681E+02  0.00000000000E+00 0. -1.
         21    1    1    2  504  502  0.16995566606E+02 -0.19599290788E+02 -0.23563809080E+03  0.23706178798E+03  0.00000000000E+00 0. -1.
</event>
<event>
 4    1  0.3065783E+006  0.2498144E+02  0.7546771E-02  0.1469011E+00
         21   -1    0    0  503  501  0.00000000000E+00  0.00000000000E+00  0.93433937977E+01  0.93433937977E+01  0.00000000000E+00 0. -1.
         21   -1    0    0  504  502 -0.00000000000E+00 -0.00000000000E+00 -0.71596956589E+02  0.71596956589E+02  0.00000000000E+00 0.  1.
         21    1    1    2  503  502  0.23577602565E+02  0.82564508576E+01 -0.20643624778E+02  0.32407276458E+02  0.00000000000E+00 0. -1.
         21    1    1    2  504  501 -0.23577602565E+02 -0.82564508576E+01 -0.41609938014E+02  0.48533073929E+02  0.00000000000E+00 0.  1.
</event>
<event>
 4    1  0.3065783E+006  0.2184353E+02  0.7546771E-02  0.1507554E+00
         21   -1    0    0  503  501  0.00000000000E+00  0.00000000000E+00  0.19305316400E+02  0.19305316400E+02  0.00000000000E+00 0.  1.
         21   -1    0    0  504  502 -0.00000000000E+00 -0.00000000000E+00 -0.37734561462E+03  0.37734561462E+03  0.00000000000E+00 0.  1.
         21    1    1    2  503  502 -0.21167062032E+02 -0.53939989014E+01  0.12700351224E+02  0.25267343755E+02  0.00000000000E+00 0.  1.
         21    1    1    2  504  501  0.21167062032E+02  0.53939989014E+01 -0.37074064944E+03  0.37138358726E+03  0.00000000000E+00 0.  1.
</event>
<event>
 4    1  0.3065783E+006  0.4143258E+02  0.7546771E-02  0.1340289E+00
         21   -1    0    0  504  501  0.00000000000E+00  0.00000000000E+00  0.37737102037E+02  0.37737102037E+02  0.00000000000E+00 0. -1.
         21   -1    0    0  503  502 -0.00000000000E+00 -0.00000000000E+00 -0.46399609183E+03  0.46399609183E+03  0.00000000000E+00 0. -1.
         21    1    1    2  503  501 -0.23003502498E-01 -0.41432578201E+02  0.25122525801E+02  0.48454105793E+02  0.00000000000E+00 0. -1.
         21    1    1    2  504  502  0.23003502498E-01  0.41432578201E+02 -0.45138151560E+03  0.45327908808E+03  0.00000000000E+00 0. -1.
</event>
<event>
 4    1  0.3065783E+006  0.2283733E+02  0.7546771E-02  0.1494551E+00
         21   -1    0    0  503  501  0.00000000000E+00  0.00000000000E+00  0.35587873729E+03  0.35587873729E+03  0.00000000000E+00 0.  1.
         21   -1    0    0  504  502 -0.00000000000E+00 -0.00000000000E+00 -0.16743848669E+01  0.16743848669E+01  0.00000000000E+00 0.  1.
         21    1    1    2  503  502 -0.22796944055E+02  0.13575175065E+01  0.24024543754E+03  0.24132843548E+03  0.00000000000E+00 0.  1.
         21    1    1    2  504  501  0.22796944055E+02 -0.13575175065E+01  0.11395891488E+03  0.11622468667E+03  0.00000000000E+00 0.  1.
</event>
<event>
 4    1  0.3065783E+006  0.2061035E+02  0.7546771E-02  0.1524901E+00
         21   -1    0    0  503  501  0.00000000000E+00  0.00000000000E+00  0.15878531402E+03  0.15878531402E+03  0.00000000000E+00 0. -1.
         21   -1    0    0  504  502 -0.00000000000E+00 -0.00000000000E+00 -0.47535067715E+01  0.47535067715E+01  0.00000000000E+00 0.  1.
         21    1    1    2  503  502 -0.20431795525E+02  0.27070626331E+01  0.13108336919E+03  0.13269376826E+03  0.00000000000E+00 0. -1.
         21    1    1    2  504  501  0.20431795525E+02 -0.27070626331E+01  0.22948438063E+02  0.30845052537E+02  0.00000000000E+00 0.  1.
</event>
<event>
 4    1  0.3065783E+006  0.2063186E+02  0.7546771E-02  0.1524586E+00
         21   -1    0    0  502  501  0.00000000000E+00  0.00000000000E+00  0.76954765130E+01  0.76954765130E+01  0.00000000000E+00 0.  1.
         21   -1    0    0  504  502 -0.00000000000E+00 -0.00000000000E+00 -0.55426375059E+02  0.55426375059E+02  0.00000000000E+00 0. -1.
         21    1    1    2  503  501  0.12833081354E+02 -0.16155052354E+02 -0.22449369050E+02  0.30490127326E+02  0.00000000000E+00 0.  1.
         21    1    1    2  504  503 -0.12833081354E+02  0.16155052354E+02 -0.25281529496E+02  0.32631724246E+02  0.00000000000E+00 0. -1.
</event>
<event>
 4    1  0.3065783E+006  0.2410232E+02  0.7546771E-02  0.1479101E+00
         21   -1    0    0  503  501  0.00000000000E+00  0.00000000000E+00  0.12656054620E+02  0.12656054620E+02  0.00000000000E+00 0.  1.
         21   -1    0    0  504  502 -0.00000000000E+00 -0.00000000000E+00 -0.53808775548E+02  0.53808775548E+02  0.00000000000E+00 0.  1.
         21    1    1    2  503  502 -0.21189223998E+02 -0.11486462255E+02 -0.33316382648E+02  0.41120595588E+02  0.00000000000E+00 0.  1.
         21    1    1    2  504  501  0.21189223998E+02  0.11486462255E+02 -0.78363382800E+01  0.25344234579E+02  0.00000000000E+00 0.  1.
</event>
<event>
 4    1  0.3065783E+006  0.2609204E+02  0.7546771E-02  0.1456948E+00
         21   -1    0    0  503  501  0.00000000000E+00  0.00000000000E+00  0.42419411610E+02  0.42419411610E+02  0.00000000000E+00 0. -1.
         21   -1    0    0  504  502 -0.00000000000E+00 -0.00000000000E+00 -0.31924254654E+03  0.31924254654E+03  0.00000000000E+00 0.  1.
         21    1    1    2  503  502  0.26090250061E+02  0.30579510939E+00  0.37815386173E+02  0.45943422710E+02  0.00000000000E+00 0. -1.
         21    1    1    2  504  501 -0.26090250061E+02 -0.30579510939E+00 -0.31463852111E+03  0.31571853544E+03  0.00000000000E+00 0.  1.
</event>
<event>
 4    1  0.3065783E+006  0.2917617E+02  0.7546771E-02  0.1426893E+00
         21   -1    0    0  503  501  0.00000000000E+00  0.00000000000E+00  0.52020067102E+01  0.52020067102E+01  0.00000000000E+00 0.  1.
         21   -1    0    0  504  502 -0.00000000000E+00 -0.00000000000E+00 -0.16367100717E+03  0.16367100717E+03  0.00000000000E+00 0. -1.
         21    1    1    2  503  502  0.15765886624E+02 -0.24549654297E+02 -0.78045000696E+02  0.83320290691E+02  0.00000000000E+00 0. -1.
         21    1    1    2  504  501 -0.15765886624E+02  0.24549654297E+02 -0.80423999767E+02  0.85552723193E+02  0.00000000000E+00 0.  1.
</event>
<event>
 4    1  0.3065783E+006  0.2003403E+02  0.7546771E-02  0.1533516E+00
         21   -1    0    0  503  501  0.00000000000E+00  0.00000000000E+00  0.22838068218E+01  0.22838068218E+01  0.00000000000E+00 0.  1.
         21   -1    0    0  501  502 -0.00000000000E+00 -0.00000000000E+00 -0.35388509541E+03  0.35388509541E+03  0.00000000000E+00 0. -1.
         21    1    1    2  503  504 -0.14688621975E+02 -0.13623756853E+02 -0.49449693067E+02  0.53353861254E+02  0.00000000000E+00 0.  1.
         21    1    1    2  504  502  0.14688621975E+02  0.13623756853E+02 -0.30215159552E+03  0.30281504098E+03  0.00000000000E+00 0. -1.
</event>
<event>
 4    1  0.3065783E+006  0.2129069E+02  0.7546771E-02  0.1515155E+00
         21   -1    0    0  502  501  0.00000000000E+00  0.00000000000E+00  0.70249874858E+02  0.70249874858E+02  0.00000000000E+00 0.  1.
         21   -1    0    0  503  502 -0.00000000000E+00 -0.00000000000E+00 -0.12262032252E+02  0.12262032252E+02  0.00000000000E+00 0.  1.
         21    1    1    2  503  504 -0.21125252425E+02  0.26490205874E+01  0.59690941979E+00  0.21299058687E+02  0.00000000000E+00 0.  1.
         21    1    1    2  504  501  0.21125252425E+02 -0.26490205874E+01  0.57390933186E+02  0.61212848423E+02  0.00000000000E+00 0.  1.
</event>
<event>
 4    1  0.3065783E+006  0.2017508E+02  0.7546771E-02  0.1531376E+00
         21   -1    0    0  504  501  0.00000000000E+00  0.00000000000E+00  0.15765155998E+03  0.15765155998E+03  0.00000000000E+00 0.  1.
         21   -1    0    0  503  502 -0.00000000000E+00 -0.00000000000E+00 -0.55462948466E+01  0.55462948466E+01  0.00000000000E+00 0.  1.
         21    1    1    2  503  501 -0.12890818754E+02 -0.15519691326E+02  0.13570861951E+03  0.13720008541E+03  0.00000000000E+00 0.  1.
         21    1    1    2  504  502  0.12890818754E+02  0.15519691326E+02  0.16396645625E+02  0.25997769419E+02  0.00000000000E+00 0.  1.
</event>
<event>
 4    1  0.3065783E+006  0.2141125E+02  0.7546771E-02  0.1513474E+00
         21   -1    0    0  504  501  0.00000000000E+00  0.00000000000E+00  0.41892439908E+02  0.41892439908E+02  0.00000000000E+00 0.  1.
         21   -1    0    0  503  502 -0.00000000000E+00 -0.00000000000E+00 -0.11557208237E+03  0.11557208237E+03  0.00000000000E+00 0. -1.
         21    1    1    2  503  501 -0.13334727499E+02  0.16751910563E+02  0.38072256776E+02  0.43679951934E+02  0.00000000000E+00 0.  1.
         21    1    1    2  504  502  0.13334727499E+02 -0.16751910563E+02 -0.11175189924E+03  0.11378457035E+03  0.00000000000E+00 0. -1.
</event>
<event>
 4    1  0.3065783E+006  0.4971266E+02  0.7546771E-02  0.1299423E+00
         21   -1    0    0  504  501  0.00000000000E+00  0.00000000000E+00  0.16750009929E+03  0.16750009929E+03  0.00000000000E+00 0.  1.
         21   -1    0    0  503  502 -0.00000000000E+00 -0.00000000000E+00 -0.20903847818E+02  0.20903847818E+02  0.00000000000E+00 0.  1.
         21    1    1    2  503  501 -0.27216928975E+02 -0.41600334330E+02  0.22204351415E+02  0.54446140919E+02  0.00000000000E+00 0.  1.
         21    1    1    2  504  502  0.27216928975E+02  0.41600334330E+02  0.12439190006E+03  0.13395780619E+03  0.00000000000E+00 0.  1.
</event>
<event>
 4    1  0.3065783E+006  0.2985276E+02  0.7546771E-02  0.1420880E+00
         21   -1    0    0  503  501  0.00000000000E+00  0.00000000000E+00  0.90119779917E+01  0.90119779917E+01  0.00000000000E+00 0.  1.
         21   -1    0    0  501  502 -0.00000000000E+00 -0.00000000000E+00 -0.13789928623E+03  0.13789928623E+03  0.00000000000E+00 0. -1.
         21    1    1    2  503  504 -0.23771862510E+02  0.18057854673E+02 -0.25374646455E+02  0.39179844886E+02  0.00000000000E+00 0.  1.
         21    1    1    2  504  502  0.23771862510E+02 -0.18057854673E+02 -0.10351266178E+03  0.10773141934E+03  0.00000000000E+00 0. -1.
</event>
<event>
 4    1  0.3065783E+006  0.2634743E+02  0.7546771E-02  0.1454276E+00
         21   -1    0    0  502  501  0.00000000000E+00  0.00000000000E+00  0.18518602430E+03  0.18518602430E+03  0.00000000000E+00 0. -1.
         21   -1    0    0  504  502 -0.00000000000E+00 -0.00000000000E+00 -0.10089059521E+02  0.10089059521E+02  0.00000000000E+00 0.  1.
         21    1    1    2  503  501 -0.44446071323E+01 -0.25969841540E+02  0.16495046249E+03  0.16704143881E+03  0.00000000000E+00 0. -1.
         21    1    1    2  504  503  0.44446071323E+01  0.25969841540E+02  0.10146502286E+02  0.28233645014E+02  0.00000000000E+00 0.  1.
</event>
<event>
 4    1  0.3065783E+006  0.2173435E+02  0.7546771E-02  0.1509033E+00
         21   -1    0    0  504  501  0.00000000000E+00  0.00000000000E+00  0.15373960632E+03  0.15373960632E+03  0.00000000000E+00 0.  1.
         21   -1    0    0  503  502 -0.00000000000E+00 -0.00000000000E+00 -0.46440589759E+02  0.46440589759E+02  0.00000000000E+00 0. -1.
         21    1    1    2  503  501 -0.19155013875E+02  0.10269731813E+02 -0.43072842699E+02  0.48245743089E+02  0.00000000000E+00 0. -1.
         21    1    1    2  504  502  0.19155013875E+02 -0.10269731813E+02  0.15037185926E+03  0.15193445299E+03  0.00000000000E+00 0.  1.
</event>
<event>
 4    1  0.3065783E+006  0.3250217E+02  0.7546771E-02  0.1399029E+00
         21   -1    0    0  503  501  0.00000000000E+00  0.00000000000E+00  0.91206666136E+02  0.91206666136E+02  0.00000000000E+00 0. -1.
         21   -1    0    0  501  502 -0.00000000000E+00 -0.00000000000E+00 -0.11596044389E+02  0.11596044389E+02  0.00000000000E+00 0. -1.
         21    1    1    2  503  504 -0.28677127439E+02 -0.15297487158E+02  0.38041182856E+02  0.50035211048E+02  0.00000000000E+00 0. -1.
         21    1    1    2  504  502  0.28677127439E+02  0.15297487158E+02  0.41569438891E+02  0.52767499478E+02  0.00000000000E+00 0. -1.
</event>
<event>
 4    1  0.3065783E+006  0.2119105E+02  0.7546771E-02  0.1516554E+00
         21   -1    0    0  504  501  0.00000000000E+00  0.00000000000E+00  0.44388982065E+02  0.44388982065E+02  0.00000000000E+00 0.  1.
         21   -1    0    0  501  502 -0.00000000000E+00 -0.00000000000E+00 -0.12353759572E+03  0.12353759572E+03  0.00000000000E+00 0. -1.
         21    1    1    2  503  502 -0.54035144386E+01  0.20490553868E+02 -0.12002629937E+03  0.12188262102E+03  0.00000000000E+00 0. -1.
         21    1    1    2  504  503  0.54035144386E+01 -0.20490553868E+02  0.40877685709E+02  0.46043956770E+02  0.00000000000E+00 0.  1.
</event>
<event>
 4    1  0.3065783E+006  0.2196501E+02  0.7546771E-02  0.1505920E+00
         21   -1    0    0  504  501  0.00000000000E+00  0.00000000000E+00  0.11680054434E+02  0.11680054434E+02  0.00000000000E+00 0.  1.
         21   -1    0    0  503  502 -0.00000000000E+00 -0.00000000000E+00 -0.63004878306E+02  0.63004878306E+02  0.00000000000E+00 0. -1.
         21    1    1    2  503  501  0.21882601898E+02  0.19008435821E+01 -0.37479836526E+01  0.22282478623E+02  0.00000000000E+00 0.  1.
         21    1    1    2  504  502 -0.21882601898E+02 -0.19008435821E+01 -0.47576840220E+02  0.52402454117E+02  0.00000000000E+00 0. -1.
</event>
<event>
 4    1  0.3065783E+006  0.3319914E+02  0.7546771E-02  0.1393686E+00
         21   -1    0    0  503  501  0.00000000000E+00  0.00000000000E+00  0.98464501448E+01  0.98464501448E+01  0.00000000000E+00 0. -1.
         21   -1    0    0  504  502 -0.00000000000E+00 -0.00000000000E+00 -0.66828474958E+03  0.66828474958E+03  0.00000000000E+00 0. -1.
         21    1    1    2  503  502 -0.25154393415E+02  0.21666548948E+02 -0.63858765053E+03  0.63945005299E+03  0.00000000000E+00 0. -1.
         21    1    1    2  504  501  0.25154393415E+02 -0.21666548948E+02 -0.19850648908E+02  0.38681146744E+02  0.00000000000E+00 0. -1.
</event>
<event>
 4    1  0.3065783E+006  0.2636741E+02  0.7546771E-02  0.1454068E+00
         21   -1    0    0  503  501  0.00000000000E+00  0.00000000000E+00  0.19876916898E+03  0.19876916898E+03  0.00000000000E+00 0. -1.
         21   -1    0    0  501  502 -0.00000000000E+00 -0.00000000000E+00 -0.37090068504E+03  0.37090068504E+03  0.00000000000E+00 0. -1.
         21    1    1    2  503  504  0.24088504195E+02  0.10723069858E+02  0.19742293970E+03  0.19917594579E+03  0.00000000000E+00 0. -1.
         21    1    1    2  504  502 -0.24088504195E+02 -0.10723069858E+02 -0.36955445576E+03  0.37049390823E+03  0.00000000000E+00 0. -1.
</event>
<event>
 4    1  0.3065783E+006  0.2386141E+02  0.7546771E-02  0.1481956E+00
         21   -1    0    0  502  501  0.00000000000E+00  0.00000000000E+00  0.44089981148E+03  0.44089981148E+03  0.00000000000E+00 0.  1.
         21   -1    0    0  503  502 -0.00000000000E+00 -0.00000000000E+00 -0.10354247449E+02  0.10354247449E+02  0.00000000000E+00 0. -1.
         21    1    1    2  503  504 -0.16317350552E+02  0.17410083155E+02  0.41841752415E+01  0.24225487548E+02  0.00000000000E+00 0. -1.
         21    1    1    2  504  501  0.16317350552E+02 -0.17410083155E+02  0.42636138879E+03  0.42702857139E+03  0.00000000000E+00 0.  1.
</event>
<event>
 4    1  0.3065783E+006  0.2122649E+02  0.7546771E-02  0.1516056E+00
         21   -1    0    0  503  501  0.00000000000E+00  0.00000000000E+00  0.64708594279E+01  0.64708594279E+01  0.00000000000E+00 0.  1.
         21   -1    0    0  501  502 -0.00000000000E+00 -0.00000000000E+00 -0.80905858219E+02  0.80905858219E+02  0.00000000000E+00 0. -1.
         21    1    1    2  503  504 -0.21224324742E+02 -0.30315639903E+00 -0.20907395344E+02  0.29794010214E+02  0.00000000000E+00 0.  1.
         21    1    1    2  504  502  0.21224324742E+02  0.30315639903E+00 -0.53527603448E+02  0.57582707434E+02  0.00000000000E+00 0. -1.
</event>
<event>
 4    1  0.3065783E+006  0.2953008E+02  0.7546771E-02  0.1423725E+00
         21   -1    0    0  504  501  0.00000000000E+00  0.00000000000E+00  0.16345616825E+02  0.16345616825E+02  0.00000000000E+00 0.  1.
         21   -1    0    0  503  502 -0.00000000000E+00 -0.00000000000E+00 -0.57839196411E+02  0.57839196411E+02  0.00000000000E+00 0.  1.
         21    1    1    2  503  501 -0.70017883635E+01 -0.28687986505E+02 -0.10412115397E+02  0.31311942722E+02  0.00000000000E+00 0.  1.
         21    1    1    2  504  502  0.70017883635E+01  0.28687986505E+02 -0.31081464189E+02  0.42872870514E+02  0.00000000000E+00 0.  1.
</event>
<event>
 4    1  0.3065783E+006  0.2452551E+02  0.7546771E-02  0.1474182E+00
         21   -1    0    0  504  501  0.00000000000E+00  0.00000000000E+00  0.70239083812E+00  0.70239083812E+00  0.00000000000E+00 0. -1.
         21   -1    0    0  503  502 -0.00000000000E+00 -0.00000000000E+00 -0.92771879018E+03  0.92771879018E+03  0.00000000000E+00 0. -1.
         21    1    1    2  503  501  0.19023015899E+02 -0.15479836455E+02 -0.59225191775E+03  0.59275950819E+03  0.00000000000E+00 0. -1.
         21    1    1    2  504  502 -0.19023015899E+02  0.15479836455E+02 -0.33476448159E+03  0.33566167283E+03  0.00000000000E+00 0. -1.
</event>
<event>
 4    1  0.3065783E+006  0.2520411E+02  0.7546771E-02  0.1466533E+00
         21   -1    0    0  503  501  0.00000000000E+00  0.00000000000E+00  0.17323935879E+02  0.17323935879E+02  0.00000000000E+00 0. -1.
         21   -1    0    0  504  502 -0.00000000000E+00 -0.00000000000E+00 -0.80877020757E+02  0.80877020757E+02  0.00000000000E+00 0.  1.
         21    1    1    2  503  502  0.24728803814E+02 -0.48716712966E+01 -0.68078074807E+02  0.72593878452E+02  0.00000000000E+00 0.  1.
         21    1    1    2  504  501 -0.24728803814E+02  0.48716712966E+01  0.45249899286E+01  0.25607078184E+02  0.00000000000E+00 0. -1.
</event>
<event>
 4    1  0.3065783E+006  0.5018310E+02  0.7546771E-02  0.1297381E+00
         21   -1    0    0  503  501  0.00000000000E+00  0.00000000000E+00  0.85011703181E+01  0.85011703181E+01  0.00000000000E+00 0.  1.
         21   -1    0    0  504  502 -0.00000000000E+00 -0.00000000000E+00 -0.29855356156E+03  0.29855356156E+03  0.00000000000E+00 0.  1.
         21    1    1    2  503  502 -0.26657159279E+02 -0.42517521990E+02 -0.13149649812E+03  0.14074683952E+03  0.00000000000E+00 0.  1.
         21    1    1    2  504  501  0.26657159279E+02  0.42517521990E+02 -0.15855589313E+03  0.16630789237E+03  0.00000000000E+00 0.  1.
</event>
<event>
 4    1  0.3065783E+006  0.2782080E+02  0.7546771E-02  0.1439533E+00
         21   -1    0    0  503  501  0.00000000000E+00  0.00000000000E+00  0.29593557575E+02  0.29593557575E+02  0.00000000000E+00 0.  1.
         21   -1    0    0  501  502 -0.00000000000E+00 -0.00000000000E+00 -0.13221011370E+03  0.13221011370E+03  0.00000000000E+00 0.  1.
         21    1    1    2  503  504 -0.25061531820E+02 -0.12079593151E+02  0.21150900032E+02  0.34947925833E+02  0.00000000000E+00 0.  1.
         21    1    1    2  504  502  0.25061531820E+02  0.12079593151E+02 -0.12376745615E+03  0.12685574544E+03  0.00000000000E+00 0.  1.
</event>
<event>
 4    1  0.3065783E+006  0.2041448E+02  0.7546771E-02  0.1527791E+00
         21   -1    0    0  503  501  0.00000000000E+00  0.00000000000E+00  0.15397630223E+03  0.15397630223E+03  0.00000000000E+00 0. -1.
         21   -1    0    0  501  502 -0.00000000000E+00 -0.00000000000E+00 -0.39971640841E+01  0.39971640841E+01  0.00000000000E+00 0. -1.
         21    1    1    2  503  504  0.11706833474E+02 -0.16724270695E+02  0.11987125172E+03  0.12159715527E+03  0.00000000000E+00 0. -1.
         21    1    1    2  504  502 -0.11706833474E+02  0.16724270695E+02  0.30107886423E+02  0.36376311044E+02  0.00000000000E+00 0. -1.
</event>
<event>
 4    1  0.3065783E+006  0.2378623E+02  0.7546771E-02  0.1482855E+00
         21   -1    0    0  503  501  0.00000000000E+00  0.00000000000E+00  0.29284655204E+02  0.29284655204E+02  0.00000000000E+00 0. -1.
         21   -1    0    0  504  502 -0.00000000000E+00 -0.00000000000E+00 -0.19320932604E+02  0.19320932604E+02  0.00000000000E+00 0. -1.
         21    1    1    2  503  502 -0.23576622405E+02 -0.31508122489E+01  0.51337738901E+01  0.24333934663E+02  0.00000000000E+00 0. -1.
         21    1    1    2  504  501  0.23576622405E+02  0.31508122489E+01  0.48299487097E+01  0.24271653145E+02  0.00000000000E+00 0. -1.
</event>
<event>
 4    1  0.3065783E+006  0.3102003E+02  0.7546771E-02  0.1410935E+00
         21   -1    0    0  502  501  0.00000000000E+00  0.00000000000E+00  0.11050214971E+02  0.11050214971E+02  0.00000000000E+00 0.  1.
         21   -1    0    0  504  502 -0.00000000000E+00 -0.00000000000E+00 -0.11197995264E+03  0.11197995264E+03  0.00000000000E+00 0.  1.
         21    1    1    2  503  501  0.28838460208E+02  0.11427397024E+02 -0.21456784414E+02  0.37717844415E+02  0.00000000000E+00 0.  1.
         21    1    1    2  504  503 -0.28838460208E+02 -0.11427397024E+02 -0.79472953258E+02  0.85312323198E+02  0.00000000000E+00 0.  1.
</event>
<event>
 4    1  0.3065783E+006  0.2514781E+02  0.7546771E-02  0.1467157E+00
         21   -1    0    0  504  501  0.00000000000E+00  0.00000000000E+00  0.16702067075E+03  0.16702067075E+03  0.00000000000E+00 0. -1.
         21   -1    0    0  503  502 -0.00000000000E+00 -0.00000000000E+00 -0.61451742983E+01  0.61451742983E+01  0.00000000000E+00 0.  1.
         21    1    1    2  503  501  0.24293191384E+02 -0.65002320215E+01  0.26795678950E+02  0.36748068988E+02  0.00000000000E+00 0.  1.
         21    1    1    2  504  502 -0.24293191384E+02  0.65002320215E+01  0.13407981750E+03  0.13641777606E+03  0.00000000000E+00 0. -1.
</event>
<event>
 4    1  0.3065783E+006  0.2129290E+02  0.7546771E-02  0.1515124E+00
         21   -1    0    0  504  501  0.00000000000E+00  0.00000000000E+00  0.13420353488E+03  0.13420353488E+03  0.00000000000E+00 0.  1.
         21   -1    0    0  503  502 -0.00000000000E+00 -0.00000000000E+00 -0.45253489297E+01  0.45253489297E+01  0.00000000000E+00 0.  1.
         21    1    1    2  503  501 -0.11366270098E+02  0.18005430591E+02  0.99760424496E+02  0.10200749934E+03  0.00000000000E+00 0.  1.
         21    1    1    2  504  502  0.11366270098E+02 -0.18005430591E+02  0.29917761456E+02  0.36721384468E+02  0.00000000000E+00 0.  1.
</event>
<event>
 4    1  0.3065783E+006  0.2160680E+02  0.7546771E-02  0.1510775E+00
         21   -1    0    0  502  501  0.00000000000E+00  0.00000000000E+00  0.42824146535E+03  0.42824146535E+03  0.00000000000E+00 0. -1.
         21   -1    0    0  504  502 -0.00000000000E+00 -0.00000000000E+00 -0.54256089566E+01  0.54256089566E+01  0.00000000000E+00 0. -1.
         21    1    1    2  503  501 -0.11691833218E+02 -0.18170164321E+02  0.40523703771E+03  0.40581265452E+03  0.00000000000E+00 0. -1.
         21    1    1    2  504  503  0.11691833218E+02  0.18170164321E+02  0.17578818685E+02  0.27854419790E+02  0.00000000000E+00 0. -1.
</event>
<event>
 4    1  0.3065783E+006  0.2745411E+02  0.7546771E-02  0.1443099E+00
         21   -1    0    0  504  501  0.00000000000E+00  0.00000000000E+00  0.41818500974E+02  0.41818500974E+02  0.00000000000E+00 0. -1.
         21   -1    0    0  503  502 -0.00000000000E+00 -0.00000000000E+00 -0.30995698660E+03  0.30995698660E+03  0.00000000000E+00 0.  1.
         21    1    1    2  503  501  0.13352665718E+02  0.23988215765E+02 -0.30476652210E+03  0.30600059015E+03  0.00000000000E+00 0.  1.
         21    1    1    2  504  502 -0.13352665718E+02 -0.23988215765E+02  0.36628036481E+02  0.45774897420E+02  0.00000000000E+00 0. -1.
</event>
<event>
 4    1  0.3065783E+006  0.2055548E+02  0.7546771E-02  0.1525707E+00
         21   -1    0    0  504  501  0.00000000000E+00  0.00000000000E+00  0.13718206374E+03  0.13718206374E+03  0.00000000000E+00 0.  1.
         21   -1    0    0  503  502 -0.00000000000E+00 -0.00000000000E+00 -0.74897753537E+01  0.74897753537E+01  0.00000000000E+00 0. -1.
         21    1    1    2  503  501  0.19061099207E+02  0.76943065792E+01  0.93420147986E+01  0.22578775370E+02  0.00000000000E+00 0. -1.
         21    1    1    2  504  502 -0.19061099207E+02 -0.76943065792E+01  0.12035027359E+03  0.12209306372E+03  0.00000000000E+00 0.  1.
</event>
<event>
 4    1  0.3065783E+006  0.2285419E+02  0.7546771E-02  0.1494337E+00
         21   -1    0    0  503  501  0.00000000000E+00  0.00000000000E+00  0.10675829368E+02  0.10675829368E+02  0.00000000000E+00 0.  1.
         21   -1    0    0  501  502 -0.00000000000E+00 -0.00000000000E+00 -0.48947859369E+02  0.48947859369E+02  0.00000000000E+00 0.  1.
         21    1    1    2  503  504 -0.19092895978E+02  0.12560863501E+02 -0.18490469136E+02  0.29397472980E+02  0.00000000000E+00 0.  1.
         21    1    1    2  504  502  0.19092895978E+02 -0.12560863501E+02 -0.19781560865E+02  0.30226215757E+02  0.00000000000E+00 0.  1.
</event>
<event>
 4    1  0.3065783E+006  0.2242723E+02  0.7546771E-02  0.1499818E+00
         21   -1    0    0  503  501  0.00000000000E+00  0.00000000000E+00  0.55469091483E+01  0.55469091483E+01  0.00000000000E+00 0. -1.
         21   -1    0    0  504  502 -0.00000000000E+00 -0.00000000000E+00 -0.11239952111E+03  0.11239952111E+03  0.00000000000E+00 0. -1.
         21    1    1    2  503  502  0.19294402205E+01 -0.22344081676E+02 -0.79351446602E+02  0.82459886025E+02  0.00000000000E+00 0. -1.
         21    1    1    2  504  501 -0.19294402205E+01  0.22344081676E+02 -0.27501165362E+02  0.35486544235E+02  0.00000000000E+00 0. -1.
</event>
<event>
 4    1  0.3065783E+006  0.2016902E+02  0.7546771E-02  0.1531468E+00
         21   -1    0    0  503  501  0.00000000000E+00  0.00000000000E+00  0.13213518376E+01  0.13213518376E+01  0.00000000000E+00 0. -1.
         21   -1    0    0  504  502 -0.00000000000E+00 -0.00000000000E+00 -0.65647052121E+03  0.65647052121E+03  0.00000000000E+00 0. -1.
         21    1    1    2  503  502  0.80295061949E+01 -0.18501791661E+02 -0.56724925257E+03  0.56760770239E+03  0.00000000000E+00 0. -1.
         21    1    1    2  504  501 -0.80295061949E+01  0.18501791661E+02 -0.87899916797E+02  0.90184170659E+02  0.00000000000E+00 0. -1.
</event>
<event>
 4    1  0.3065783E+006  0.2183916E+02  0.7546771E-02  0.1507613E+00
         21   -1    0    0  503  501  0.00000000000E+00  0.00000000000E+00  0.29507209305E+02  0.29507209305E+02  0.00000000000E+00 0.  1.
         21   -1    0    0  504  502 -0.00000000000E+00 -0.00000000000E+00 -0.40133348955E+02  0.40133348955E+02  0.00000000000E+00 0.  1.
         21    1    1    2  503  502  0.12831218003E+02  0.17672258212E+02 -0.32222803901E+02  0.38926314454E+02  0.00000000000E+00 0.  1.
         21    1    1    2  504  501 -0.12831218003E+02 -0.17672258212E+02  0.21596664251E+02  0.30714243805E+02  0.00000000000E+00 0.  1.
</event>
<event>
 4    1  0.3065783E+006  0.2296264E+02  0.7546771E-02  0.1492968E+00
         21   -1    0    0  504  501  0.00000000000E+00  0.00000000000E+00  0.20197780496E+02  0.20197780496E+02  0.00000000000E+00 0. -1.
         21   -1    0    0  503  502 -0.00000000000E+00 -0.00000000000E+00 -0.31554163506E+02  0.31554163506E+02  0.00000000000E+00 0.  1.
         21    1    1    2  503  501 -0.19317471756E+02 -0.12414423345E+02  0.50739422276E+01  0.23516536984E+02  0.00000000000E+00 0. -1.
         21    1    1    2  504  502  0.19317471756E+02  0.12414423345E+02 -0.16430325238E+02  0.28235407018E+02  0.00000000000E+00 0.  1.
</event>
<event>
 4    1  0.3065783E+006  0.2063735E+02  0.7546771E-02  0.1524506E+00
         21   -1    0    0  502  501  0.00000000000E+00  0.00000000000E+00  0.39792987049E+02  0.39792987049E+02  0.00000000000E+00 0.  1.
         21   -1    0    0  504  502 -0.00000000000E+00 -0.00000000000E+00 -0.17059077065E+02  0.17059077065E+02  0.00000000000E+00 0.  1.
         21    1    1    2  503  501  0.15359288917E+01  0.20580111532E+02  0.28718442853E+02  0.35364516512E+02  0.00000000000E+00 0.  1.
         21    1    1    2  504  503 -0.15359288917E+01 -0.20580111532E+02 -0.59845328698E+01  0.21487547601E+02  0.00000000000E+00 0.  1.
</event>
<event>
 4    1  0.3065783E+006  0.2147660E+02  0.7546771E-02  0.1512568E+00
         21   -1    0    0  503  501  0.00000000000E+00  0.00000000000E+00  0.23897410723E+02  0.23897410723E+02  0.00000000000E+00 0.  1.
         21   -1    0    0  501  502 -0.00000000000E+00 -0.00000000000E+00 -0.41841418073E+02  0.41841418073E+02  0.00000000000E+00 0.  1.
         21    1    1    2  503  504 -0.21310850511E+02 -0.26630639448E+01  0.15153123853E+02  0.26284242839E+02  0.00000000000E+00 0.  1.
         21    1    1    2  504  502  0.21310850511E+02  0.26630639448E+01 -0.33097131204E+02  0.39454585957E+02  0.00000000000E+00 0.  1.
</event>
<event>
 4    1  0.3065783E+006  0.2737428E+02  0.7546771E-02  0.1443884E+00
         21   -1    0    0  504  501  0.00000000000E+00  0.00000000000E+00  0.50281635801E+02  0.50281635801E+02  0.00000000000E+00 0.  1.
         21   -1    0    0  503  502 -0.00000000000E+00 -0.00000000000E+00 -0.14918966879E+02  0.14918966879E+02  0.00000000000E+00 0.  1.
         21    1    1    2  503  501 -0.26047814070E+02 -0.84179950836E+01  0.16617518294E+02  0.32023322334E+02  0.00000000000E+00 0.  1.
         21    1    1    2  504  502  0.26047814070E+02  0.84179950836E+01  0.18745150628E+02  0.33177280346E+02  0.00000000000E+00 0.  1.
</event>
<event>
 4    1  0.3065783E+006  0.3633708E+02  0.7546771E-02  0.1371399E+00
         21   -1    0    0  503  501  0.00000000000E+00  0.00000000000E+00  0.14383902476E+03  0.14383902476E+03  0.00000000000E+00 0. -1.
         21   -1    0    0  504  502 -0.00000000000E+00 -0.00000000000E+00 -0.11148464508E+02  0.11148464508E+02  0.00000000000E+00 0.  1.
         21    1    1    2  503  502  0.21859384704E+01 -0.36271270855E+02  0.33779009485E+02  0.49612547790E+02  0.00000000000E+00 0.  1.
         21    1    1    2  504  501 -0.21859384704E+01  0.36271270855E+02  0.98911550768E+02  0.10537494148E+03  0.00000000000E+00 0. -1.
</event>
<event>
 4    1  0.3065783E+006  0.2064780E+02  0.7546771E-02  0.1524353E+00
         21   -1    0    0  504  501  0.00000000000E+00  0.00000000000E+00  0.39250488167E+01  0.39250488167E+01  0.00000000000E+00 0.  1.
         21   -1    0    0  503  502 -0.00000000000E+00 -0.00000000000E+00 -0.10920573151E+03  0.10920573151E+03  0.00000000000E+00 0.  1.
         21    1    1    2  503  501 -0.20624784781E+02 -0.97455264042E+00 -0.56789556858E+02  0.60426693342E+02  0.00000000000E+00 0.  1.
         21    1    1    2  504  502  0.20624784781E+02  0.97455264042E+00 -0.48491125834E+02  0.52704086984E+02  0.00000000000E+00 0.  1.
</event>
<event>
 4    1  0.3065783E+006  0.3898575E+02  0.7546771E-02  0.1354534E+00
         21   -1    0    0  504  501  0.00000000000E+00  0.00000000000E+00  0.76546217701E+02  0.76546217701E+02  0.00000000000E+00 0. -1.
         21   -1    0    0  503  502 -0.00000000000E+00 -0.00000000000E+00 -0.20513627744E+02  0.20513627744E+02  0.00000000000E+00 0. -1.
         21    1    1    2  503  501  0.35573293999E+02  0.15950852892E+02  0.19326022410E+02  0.43513033635E+02  0.00000000000E+00 0. -1.
         21    1    1    2  504  502 -0.35573293999E+02 -0.15950852892E+02  0.36706567548E+02  0.53546811810E+02  0.00000000000E+00 0. -1.
</event>
<event>
 4    1  0.3065783E+006  0.2274907E+02  0.7546771E-02  0.1495673E+00
         21   -1    0    0  502  501  0.00000000000E+00  0.00000000000E+00  0.16727016676E+02  0.16727016676E+02  0.00000000000E+00 0.  1.
         21   -1    0    0  503  502 -0.00000000000E+00 -0.00000000000E+00 -0.21453276162E+03  0.21453276162E+03  0.00000000000E+00 0. -1.
         21    1    1    2  503  504 -0.21073506932E+02 -0.85689844769E+01 -0.20587042132E+03  0.20712351524E+03  0.00000000000E+00 0. -1.
         21    1    1    2  504  501  0.21073506932E+02  0.85689844769E+01  0.80646763765E+01  0.24136263058E+02  0.00000000000E+00 0.  1.
</event>
<event>
 4    1  0.3065783E+006  0.2573959E+02  0.7546771E-02  0.1460697E+00
         21   -1    0    0  503  501  0.00000000000E+00  0.00000000000E+00  0.39047688635E+02  0.39047688635E+02  0.00000000000E+00 0. -1.
         21   -1    0    0  501  502 -0.00000000000E+00 -0.00000000000E+00 -0.28210515493E+02  0.28210515493E+02  0.00000000000E+00 0.  1.
         21    1    1    2  503  504 -0.24319782403E+02 -0.84305683380E+01  0.26649015145E+02  0.37049916422E+02  0.00000000000E+00 0. -1.
         21    1    1    2  504  502  0.24319782403E+02  0.84305683380E+01 -0.15811842003E+02  0.30208287706E+02  0.00000000000E+00 0.  1.
</event>
<event>
 4    1  0.3065783E+006  0.2210949E+02  0.7546771E-02  0.1503994E+00
         21   -1    0    0  503  501  0.00000000000E+00  0.00000000000E+00  0.20581082873E+02  0.20581082873E+02  0.00000000000E+00 0.  1.
         21   -1    0    0  501  502 -0.00000000000E+00 -0.00000000000E+00 -0.11691237731E+03  0.11691237731E+03  0.00000000000E+00 0. -1.
         21    1    1    2  503  504 -0.58025629285E+01  0.21334470271E+02  0.13201910217E+02  0.25751112436E+02  0.00000000000E+00 0.  1.
         21    1    1    2  504  502  0.58025629285E+01 -0.21334470271E+02 -0.10953320465E+03  0.11174234774E+03  0.00000000000E+00 0. -1.
</event>
<event>
 4    1  0.3065783E+006  0.2734245E+02  0.7546771E-02  0.1444198E+00
         21   -1    0    0  502  501  0.00000000000E+00  0.00000000000E+00  0.70457135440E+02  0.70457135440E+02  0.00000000000E+00 0. -1.
         21   -1    0    0  503  502 -0.00000000000E+00 -0.00000000000E+00 -0.12327912565E+02  0.12327912565E+02  0.00000000000E+00 0.  1.
         21    1    1    2  503  504  0.10333103604E+02  0.25314751650E+02  0.13616658406E+02  0.30545426292E+02  0.00000000000E+00 0.  1.
         21    1    1    2  504  501 -0.10333103604E+02 -0.25314751650E+02  0.44512564469E+02  0.52239621714E+02  0.00000000000E+00 0. -1.
</event>
<event>
 4    1  0.3065783E+006  0.2080204E+02  0.7546771E-02  0.1522110E+00
         21   -1    0    0  503  501  0.00000000000E+00  0.00000000000E+00  0.10674030596E+03  0.10674030596E+03  0.00000000000E+00 0. -1.
         21   -1    0    0  504  502 -0.00000000000E+00 -0.00000000000E+00 -0.55243090528E+02  0.55243090528E+02  0.00000000000E+00 0.  1.
         21    1    1    2  503  502 -0.25196985612E+01  0.20648875012E+02  0.10371191246E+03  0.10577752931E+03  0.00000000000E+00 0. -1.
         21    1    1    2  504  501  0.25196985612E+01 -0.20648875012E+02 -0.52214697026E+02  0.56205867182E+02  0.00000000000E+00 0.  1.
</event>
<event>
 4    1  0.3065783E+006  0.2327241E+02  0.7546771E-02  0.1489106E+00
         21   -1    0    0  502  501  0.00000000000E+00  0.00000000000E+00  0.74478101505E+01  0.74478101505E+01  0.00000000000E+00 0. -1.
         21   -1    0    0  504  502 -0.00000000000E+00 -0.00000000000E+00 -0.18507311347E+03  0.18507311347E+03  0.00000000000E+00 0. -1.
         21    1    1    2  503  501  0.37000565855E+00  0.23269467859E+02 -0.13811357476E+02  0.27062125452E+02  0.00000000000E+00 0. -1.
         21    1    1    2  504  503 -0.37000565855E+00 -0.23269467859E+02 -0.16381394585E+03  0.16545879817E+03  0.00000000000E+00 0. -1.
</event>
<event>
 4    1  0.3065783E+006  0.2036696E+02  0.7546771E-02  0.1528498E+00
         21   -1    0    0  503  501  0.00000000000E+00  0.00000000000E+00  0.41064710737E+01  0.41064710737E+01  0.00000000000E+00 0. -1.
         21   -1    0    0  504  502 -0.00000000000E+00 -0.00000000000E+00 -0.20187434393E+03  0.20187434393E+03  0.00000000000E+00 0. -1.
         21    1    1    2  503  502  0.17844163690E+02 -0.98182918697E+01 -0.17168125874E+03  0.17288512844E+03  0.00000000000E+00 0. -1.
         21    1    1    2  504  501 -0.17844163690E+02  0.98182918697E+01 -0.26086614112E+02  0.33095686560E+02  0.00000000000E+00 0. -1.
</event>
<event>
 4    1  0.3065783E+006  0.3541946E+02  0.7546771E-02  0.1377638E+00
         21   -1    0    0  504  501  0.00000000000E+00  0.00000000000E+00  0.59966819630E+01  0.59966819630E+01  0.00000000000E+00 0.  1.
         21   -1    0    0  503  502 -0.00000000000E+00 -0.00000000000E+00 -0.24507968716E+03  0.24507968716E+03  0.00000000000E+00 0. -1.
         21    1    1    2  503  501  0.33962576553E+02  0.10053947377E+02 -0.71511389630E+02  0.79802364068E+02  0.00000000000E+00 0.  1.
         21    1    1    2  504  502 -0.33962576553E+02 -0.10053947377E+02 -0.16757161557E+03  0.17127400505E+03  0.00000000000E+00 0. -1.
</event>
<event>
 4    1  0.3065783E+006  0.2129773E+02  0.7546771E-02  0.1515056E+00
         21   -1    0    0  504  501  0.00000000000E+00  0.00000000000E+00  0.98684693852E+01  0.98684693852E+01  0.00000000000E+00 0.  1.
         21   -1    0    0  503  502 -0.00000000000E+00 -0.00000000000E+00 -0.42086417035E+03  0.42086417035E+03  0.00000000000E+00 0. -1.
         21    1    1    2  503  501  0.17225754968E+02  0.12524635681E+02 -0.22318702086E+01  0.21414349810E+02  0.00000000000E+00 0.  1.
         21    1    1    2  504  502 -0.17225754968E+02 -0.12524635681E+02 -0.40876383076E+03  0.40931828993E+03  0.00000000000E+00 0. -1.
</event>
<event>
 4    1  0.3065783E+006  0.2319512E+02  0.7546771E-02  0.1490062E+00
         21   -1    0    0  504  501  0.00000000000E+00  0.00000000000E+00  0.17487783284E+01  0.17487783284E+01  0.00000000000E+00 0. -1.
         21   -1    0    0  501  502 -0.00000000000E+00 -0.00000000000E+00 -0.51641266750E+03  0.51641266750E+03  0.00000000000E+00 0.  1.
         21    1    1    2  503  502  0.14496591758E+02 -0.18106974465E+02 -0.42205783344E+03  0.42269472254E+03  0.00000000000E+00 0.  1.
         21    1    1    2  504  503 -0.14496591758E+02  0.18106974465E+02 -0.92606055730E+02  0.95466723284E+02  0.00000000000E+00 0. -1.
</event>
<event>
 4    1  0.3065783E+006  0.2028182E+02  0.7546771E-02  0.1529770E+00
         21   -1    0    0  504  501  0.00000000000E+00  0.00000000000E+00  0.11201522168E+03  0.11201522168E+03  0.00000000000E+00 0.  1.
         21   -1    0    0  503  502 -0.00000000000E+00 -0.00000000000E+00 -0.54891534010E+01  0.54891534010E+01  0.00000000000E+00 0.  1.
         21    1    1    2  503  501  0.17879307132E+02 -0.95750953263E+01  0.19461779512E+02  0.28108947611E+02  0.00000000000E+00 0.  1.
         21    1    1    2  504  502 -0.17879307132E+02  0.95750953263E+01  0.87064288762E+02  0.89395427465E+02  0.00000000000E+00 0.  1.
</event>
<event>
 4    1  0.3065783E+006  0.2288244E+02  0.7546771E-02  0.1493980E+00
         21   -1    0    0  502  501  0.00000000000E+00  0.00000000000E+00  0.27837324764E+02  0.27837324764E+02  0.00000000000E+00 0. -1.
         21   -1    0    0  504  502 -0.00000000000E+00 -0.00000000000E+00 -0.13875973645E+04  0.13875973645E+04  0.00000000000E+00 0. -1.
         21    1    1    2  503  501 -0.20104097311E+02  0.10928456719E+02  0.23024248870E+02  0.32461083331E+02  0.00000000000E+00 0. -1.
         21    1    1    2  504  503  0.20104097311E+02 -0.10928456719E+02 -0.13827842886E+04  0.13829736059E+04  0.00000000000E+00 0. -1.
</event>
<event>
 4    1  0.3065783E+006  0.2493165E+02  0.7546771E-02  0.1469569E+00
         21   -1    0    0  504  501  0.00000000000E+00  0.00000000000E+00  0.88453147135E+02  0.88453147135E+02  0.00000000000E+00 0.  1.
         21   -1    0    0  503  502 -0.00000000000E+00 -0.00000000000E+00 -0.44926639846E+02  0.44926639846E+02  0.00000000000E+00 0. -1.
         21    1    1    2  503  501 -0.12745670485E+02  0.21427439036E+02  0.83015757692E+02  0.86678736059E+02  0.00000000000E+00 0.  1.
         21    1    1    2  504  502  0.12745670485E+02 -0.21427439036E+02 -0.39489250403E+02  0.46701050921E+02  0.00000000000E+00 0. -1.
</event>
<event>
 4    1  0.3065783E+006  0.2455154E+02  0.7546771E-02  0.1473883E+00
         21   -1    0    0  504  501  0.00000000000E+00  0.00000000000E+00  0.24219880618E+01  0.24219880618E+01  0.00000000000E+00 0. -1.
         21   -1    0    0  503  502 -0.00000000000E+00 -0.00000000000E+00 -0.25853247365E+03  0.25853247365E+03  0.00000000000E+00 0. -1.
         21    1    1    2  503  501 -0.17331675889E+02  0.17389393098E+02 -0.10284041544E+03  0.10573045459E+03  0.00000000000E+00 0. -1.
         21    1    1    2  504  502  0.17331675889E+02 -0.17389393098E+02 -0.15327007015E+03  0.15522400712E+03  0.00000000000E+00 0. -1.
</event>
<event>
 4    1  0.3065783E+006  0.2007675E+02  0.7546771E-02  0.1532866E+00
         21   -1    0    0  503  501  0.00000000000E+00  0.00000000000E+00  0.46308838046E+01  0.46308838046E+01  0.00000000000E+00 0.  1.
         21   -1    0    0  504  502 -0.00000000000E+00 -0.00000000000E+00 -0.99922475745E+02  0.99922475745E+02  0.00000000000E+00 0.  1.
         21    1    1    2  503  502 -0.17222969487E+02  0.10317220338E+02 -0.28875850395E+02  0.35169453357E+02  0.00000000000E+00 0.  1.
         21    1    1    2  504  501  0.17222969487E+02 -0.10317220338E+02 -0.66415741546E+02  0.69383906192E+02  0.00000000000E+00 0.  1.
</event>
<event>
 4    1  0.3065783E+006  0.2567441E+02  0.7546771E-02  0.1461398E+00
         21   -1    0    0  504  501  0.00000000000E+00  0.00000000000E+00  0.15801216942E+03  0.15801216942E+03  0.00000000000E+00 0. -1.
         21   -1    0    0  503  502 -0.00000000000E+00 -0.00000000000E+00 -0.98603627243E+01  0.98603627243E+01  0.00000000000E+00 0. -1.
         21    1    1    2  503  501  0.18866016748E+02  0.17414045886E+02  0.10321643651E+02  0.27671499954E+02  0.00000000000E+00 0. -1.
         21    1    1    2  504  502 -0.18866016748E+02 -0.17414045886E+02  0.13783016304E+03  0.14020103219E+03  0.00000000000E+00 0. -1.
</event>
<event>
 4    1  0.3065783E+006  0.2031567E+02  0.7546771E-02  0.1529264E+00
         21   -1    0    0  503  501  0.00000000000E+00  0.00000000000E+00  0.11646241194E+02  0.11646241194E+02  0.00000000000E+00 0.  1.
         21   -1    0    0  501  502 -0.00000000000E+00 -0.00000000000E+00 -0.51280979934E+02  0.51280979934E+02  0.00000000000E+00 0.  1.
         21    1    1    2  503  504  0.42941270801E+01  0.19856661831E+02 -0.23293535307E+01  0.20448775864E+02  0.00000000000E+00 0.  1.
         21    1    1    2  504  502 -0.42941270801E+01 -0.19856661831E+02 -0.37305385209E+02  0.42478445264E+02  0.00000000000E+00 0.  1.
</event>
<event>
 4    1  0.3065783E+006  0.3690600E+02  0.7546771E-02  0.1367637E+00
         21   -1    0    0  504  501  0.00000000000E+00  0.00000000000E+00  0.36098159734E+01  0.36098159734E+01  0.00000000000E+00 0. -1.
         21   -1    0    0  501  502 -0.00000000000E+00 -0.00000000000E+00 -0.50228496027E+03  0.50228496027E+03  0.00000000000E+00 0. -1.
         21    1    1    2  503  502  0.23913645648E+02  0.28110325355E+02 -0.37550598711E+03  0.37731525174E+03  0.00000000000E+00 0. -1.
         21    1    1    2  504  503 -0.23913645648E+02 -0.28110325355E+02 -0.12316915719E+03  0.12857952451E+03  0.00000000000E+00 0. -1.
</event>
<event>
 4    1  0.3065783E+006  0.2829339E+02  0.7546771E-02  0.1435031E+00
         21   -1    0    0  502  501  0.00000000000E+00  0.00000000000E+00  0.16147946031E+03  0.16147946031E+03  0.00000000000E+00 0. -1.
         21   -1    0    0  503  502 -0.00000000000E+00 -0.00000000000E+00 -0.53050245801E+01  0.53050245801E+01  0.00000000000E+00 0. -1.
         21    1    1    2  503  504  0.27838338427E+02  0.50539844403E+01  0.56739738805E+02  0.63402790197E+02  0.00000000000E+00 0. -1.
         21    1    1    2  504  501 -0.27838338427E+02 -0.50539844403E+01  0.99434696925E+02  0.10338169469E+03  0.00000000000E+00 0. -1.
</event>
<event>
 4    1  0.3065783E+006  0.2291915E+02  0.7546771E-02  0.1493516E+00
         21   -1    0    0  503  501  0.00000000000E+00  0.00000000000E+00  0.21239053022E+02  0.21239053022E+02  0.00000000000E+00 0.  1.
         21   -1    0    0  504  502 -0.00000000000E+00 -0.00000000000E+00 -0.26735445021E+03  0.26735445021E+03  0.00000000000E+00 0.  1.
         21    1    1    2  503  502  0.14491400892E+02 -0.17756315261E+02  0.14402891578E+02  0.27068999192E+02  0.00000000000E+00 0.  1.
         21    1    1    2  504  501 -0.14491400892E+02  0.17756315261E+02 -0.26051828876E+03  0.26152450404E+03  0.00000000000E+00 0.  1.
</event>
<event>
 4    1  0.3065783E+006  0.2656087E+02  0.7546771E-02  0.1452070E+00
         21   -1    0    0  504  501  0.00000000000E+00  0.00000000000E+00  0.85204652118E+02  0.85204652118E+02  0.00000000000E+00 0. -1.
         21   -1    0    0  503  502 -0.00000000000E+00 -0.00000000000E+00 -0.95993131529E+02  0.95993131529E+02  0.00000000000E+00 0. -1.
         21    1    1    2  503  501 -0.19721549376E+02 -0.17791581371E+02  0.81209279320E+02  0.85442535807E+02  0.00000000000E+00 0. -1.
         21    1    1    2  504  502  0.19721549376E+02  0.17791581371E+02 -0.91997758731E+02  0.95755247840E+02  0.00000000000E+00 0. -1.
</event>
<event>
 4    1  0.3065783E+006  0.2423630E+02  0.7546771E-02  0.1477531E+00
         21   -1    0    0  504  501  0.00000000000E+00  0.00000000000E+00  0.78215726663E+00  0.78215726663E+00  0.00000000000E+00 0.  1.
         21   -1    0    0  503  502 -0.00000000000E+00 -0.00000000000E+00 -0.10211000627E+04  0.10211000627E+04  0.00000000000E+00 0.  1.
         21    1    1    2  503  501 -0.20099373438E+02 -0.13543019710E+02 -0.77294421382E+03  0.77332409498E+03  0.00000000000E+00 0.  1.
         21    1    1    2  504  502  0.20099373438E+02  0.13543019710E+02 -0.24737369157E+03  0.24855812495E+03  0.00000000000E+00 0.  1.
</event>
<event>
 4    1  0.3065783E+006  0.1065754E+03  0.7546771E-02  0.1152877E+00
         21   -1    0    0  502  501  0.00000000000E+00  0.00000000000E+00  0.29980255228E+03  0.29980255228E+03  0.00000000000E+00 0.  1.
         21   -1    0    0  504  502 -0.00000000000E+00 -0.00000000000E+00 -0.55249035763E+02  0.55249035763E+02  0.00000000000E+00 0.  1.
         21    1    1    2  503  501  0.12886220284E+02 -0.10579343479E+03  0.22179725278E+03  0.24607382400E+03  0.00000000000E+00 0.  1.
         21    1    1    2  504  503 -0.12886220284E+02  0.10579343479E+03  0.22756263739E+02  0.10897776405E+03  0.00000000000E+00 0.  1.
</event>
<event>
 4    1  0.3065783E+006  0.2441833E+02  0.7546771E-02  0.1475417E+00
         21   -1    0    0  503  501  0.00000000000E+00  0.00000000000E+00  0.91800709119E+03  0.91800709119E+03  0.00000000000E+00 0. -1.
         21   -1    0    0  501  502 -0.00000000000E+00 -0.00000000000E+00 -0.22028379997E+01  0.22028379997E+01  0.00000000000E+00 0. -1.
         21    1    1    2  503  504 -0.23895547174E+02  0.50256900877E+01  0.84426664166E+03  0.84461968777E+03  0.00000000000E+00 0. -1.
         21    1    1    2  504  502  0.23895547174E+02 -0.50256900877E+01  0.71537611525E+02  0.75590241422E+02  0.00000000000E+00 0. -1.
</event>
<event>
 4    1  0.3065783E+006  0.3112465E+02  0.7546771E-02  0.1410069E+00
         21   -1    0    0  504  501  0.00000000000E+00  0.00000000000E+00  0.36022589236E+03  0.36022589236E+03  0.00000000000E+00 0. -1.
         21   -1    0    0  503  502 -0.00000000000E+00 -0.00000000000E+00 -0.34172049496E+03  0.34172049496E+03  0.00000000000E+00 0.  1.
         21    1    1    2  503  501  0.29106299046E+02  0.11025755373E+02 -0.34033672476E+03  0.34175697527E+03  0.00000000000E+00 0.  1.
         21    1    1    2  504  502 -0.29106299046E+02 -0.11025755373E+02  0.35884212215E+03  0.36018941205E+03  0.00000000000E+00 0. -1.
</event>
<event>
 4    1  0.3065783E+006  0.2981784E+02  0.7546771E-02  0.1421186E+00
         21   -1    0    0  504  501  0.00000000000E+00  0.00000000000E+00  0.20577197479E+01  0.20577197479E+01  0.00000000000E+00 0.  1.
         21   -1    0    0  503  502 -0.00000000000E+00 -0.00000000000E+00 -0.49163013361E+03  0.49163013361E+03  0.00000000000E+00 0.  1.
         21    1    1    2  503  501  0.10627274353E+02  0.27859735870E+02 -0.33069486979E+03  0.33203644491E+03  0.00000000000E+00 0.  1.
         21    1    1    2  504  502 -0.10627274353E+02 -0.27859735870E+02 -0.15887754407E+03  0.16165140845E+03  0.00000000000E+00 0.  1.
</event>
<event>
 4    1  0.3065783E+006  0.2077739E+02  0.7546771E-02  0.1522467E+00
         21   -1    0    0  503  501  0.00000000000E+00  0.00000000000E+00  0.13645822399E+02  0.13645822399E+02  0.00000000000E+00 0. -1.
         21   -1    0    0  501  502 -0.00000000000E+00 -0.00000000000E+00 -0.33883865836E+03  0.33883865836E+03  0.00000000000E+00 0. -1.
         21    1    1    2  503  504  0.20766177617E+02 -0.68243203788E+00  0.52167288587E+01  0.21422280605E+02  0.00000000000E+00 0. -1.
         21    1    1    2  504  502 -0.20766177617E+02  0.68243203788E+00 -0.33040956482E+03  0.33106220015E+03  0.00000000000E+00 0. -1.
</event>
<event>
 4    1  0.3065783E+006  0.2050809E+02  0.7546771E-02  0.1526405E+00
         21   -1    0    0  504  501  0.00000000000E+00  0.00000000000E+00  0.39131828914E+02  0.39131828914E+02  0.00000000000E+00 0.  1.
         21   -1    0    0  503  502 -0.00000000000E+00 -0.00000000000E+00 -0.16913770686E+02  0.16913770686E+02  0.00000000000E+00 0.  1.
         21    1    1    2  503  501 -0.45959043075E+01 -0.19986480719E+02  0.28028681003E+02  0.34730227565E+02  0.00000000000E+00 0.  1.
         21    1    1    2  504  502  0.45959043075E+01  0.19986480719E+02 -0.58106227754E+01  0.21315372035E+02  0.00000000000E+00 0.  1.
</event>
<event>
 4    1  0.3065783E+006  0.2035005E+02  0.7546771E-02  0.1528750E+00
         21   -1    0    0  504  501  0.00000000000E+00  0.00000000000E+00  0.10853567310E+03  0.10853567310E+03  0.00000000000E+00 0. -1.
         21   -1    0    0  503  502 -0.00000000000E+00 -0.00000000000E+00 -0.27377646285E+02  0.27377646285E+02  0.00000000000E+00 0. -1.
         21    1    1    2  503  501 -0.12769305927E+02  0.15845167052E+02  0.10362258808E+03  0.10560191879E+03  0.00000000000E+00 0. -1.
         21    1    1    2  504  502  0.12769305927E+02 -0.15845167052E+02 -0.22464561266E+02  0.30311400588E+02  0.00000000000E+00 0. -1.
</event>
<event>
 4    1  0.3065783E+006  0.2152129E+02  0.7546771E-02  0.1511951E+00
         21   -1    0    0  503  501  0.00000000000E+00  0.00000000000E+00  0.29854220966E+03  0.29854220966E+03  0.00000000000E+00 0.  1.
         21   -1    0    0  504  502 -0.00000000000E+00 -0.00000000000E+00 -0.18566054949E+01  0.18566054949E+01  0.00000000000E+00 0.  1.
         21    1    1    2  503  502 -0.18540331094E+02  0.10928038407E+02  0.20923850732E+03  0.21034238480E+03  0.00000000000E+00 0.  1.
         21    1    1    2  504  501  0.18540331094E+02 -0.10928038407E+02  0.87447096849E+02  0.90056430352E+02  0.00000000000E+00 0.  1.
</event>
<event>
 4    1  0.3065783E+006  0.2475572E+02  0.7546771E-02  0.1471555E+00
         21   -1    0    0  502  501  0.00000000000E+00  0.00000000000E+00  0.33759969370E+02  0.33759969370E+02  0.00000000000E+00 0. -1.
         21   -1    0    0  503  502 -0.00000000000E+00 -0.00000000000E+00 -0.35319082775E+02  0.35319082775E+02  0.00000000000E+00 0. -1.
         21    1    1    2  503  504  0.13718396426E+02  0.20607067265E+02 -0.24859027091E+02  0.35082999439E+02  0.00000000000E+00 0. -1.
         21    1    1    2  504  501 -0.13718396426E+02 -0.20607067265E+02  0.23299913687E+02  0.33996052706E+02  0.00000000000E+00 0. -1.
</event>
<event>
 4    1  0.3065783E+006  0.2068190E+02  0.7546771E-02  0.1523855E+00
         21   -1    0    0  504  501  0.00000000000E+00  0.00000000000E+00  0.53481247999E+01  0.53481247999E+01  0.00000000000E+00 0.  1.
         21   -1    0    0  503  502 -0.00000000000E+00 -0.00000000000E+00 -0.20541999568E+03  0.20541999568E+03  0.00000000000E+00 0.  1.
         21    1    1    2  503  501  0.18322057140E+02  0.95939128299E+01 -0.18238757645E+03  0.18355644631E+03  0.00000000000E+00 0.  1.
         21    1    1    2  504  502 -0.18322057140E+02 -0.95939128299E+01 -0.17684294429E+02  0.27211674162E+02  0.00000000000E+00 0.  1.
</event>
<event>
 4    1  0.3065783E+006  0.2081855E+02  0.7546771E-02  0.1521871E+00
         21   -1    0    0  504  501  0.00000000000E+00  0.00000000000E+00  0.11009296899E+03  0.11009296899E+03  0.00000000000E+00 0. -1.
         21   -1    0    0  503  502 -0.00000000000E+00 -0.00000000000E+00 -0.50522402132E+01  0.50522402132E+01  0.00000000000E+00 0. -1.
         21    1    1    2  503  501  0.20242934979E+02 -0.48616325508E+01  0.25468277956E+02  0.32894453479E+02  0.00000000000E+00 0. -1.
         21    1    1    2  504  502 -0.20242934979E+02  0.48616325508E+01  0.79572450825E+02  0.82250755728E+02  0.00000000000E+00 0. -1.
</event>
<event>
 4    1  0.3065783E+006  0.2201084E+02  0.7546771E-02  0.1505307E+00
         21   -1    0    0  504  501  0.00000000000E+00  0.00000000000E+00  0.10612706405E+02  0.10612706405E+02  0.00000000000E+00 0. -1.
         21   -1    0    0  503  502 -0.00000000000E+00 -0.00000000000E+00 -0.59274540026E+02  0.59274540026E+02  0.00000000000E+00 0.  1.
         21    1    1    2  503  501  0.19899538542E+02  0.94066587313E+01 -0.41083605834E+02  0.46608363316E+02  0.00000000000E+00 0.  1.
         21    1    1    2  504  502 -0.19899538542E+02 -0.94066587313E+01 -0.75782277875E+01  0.23278883115E+02  0.00000000000E+00 0. -1.
</event>
<event>
 4    1  0.3065783E+006  0.2002449E+02  0.7546771E-02  0.1533662E+00
         21   -1    0    0  504  501  0.00000000000E+00  0.00000000000E+00  0.23816244871E+02  0.23816244871E+02  0.00000000000E+00 0. -1.
         21   -1    0    0  501  502 -0.00000000000E+00 -0.00000000000E+00 -0.28330429140E+03  0.28330429140E+03  0.00000000000E+00 0.  1.
         21    1    1    2  503  502  0.17027458937E+02 -0.10537831847E+02 -0.27867145943E+03  0.27938998293E+03  0.00000000000E+00 0.  1.
         21    1    1    2  504  503 -0.17027458937E+02  0.10537831847E+02  0.19183412906E+02  0.27730553341E+02  0.00000000000E+00 0. -1.
</event>
<event>
 4    1  0.3065783E+006  0.3060096E+02  0.7546771E-02  0.1414445E+00
         21   -1    0    0  503  501  0.00000000000E+00  0.00000000000E+00  0.23082119251E+03  0.23082119251E+03  0.00000000000E+00 0.  1.
         21   -1    0    0  504  502 -0.00000000000E+00 -0.00000000000E+00 -0.74526078054E+02  0.74526078054E+02  0.00000000000E+00 0. -1.
         21    1    1    2  503  502 -0.28882593463E+02 -0.10110129592E+02 -0.70312461277E+02  0.76682860773E+02  0.00000000000E+00 0. -1.
         21    1    1    2  504  501  0.28882593463E+02  0.10110129592E+02  0.22660757573E+03  0.22866440979E+03  0.00000000000E+00 0.  1.
</event>
<event>
 4    1  0.3065783E+006  0.2036127E+02  0.7546771E-02  0.1528583E+00
         21   -1    0    0  503  501  0.00000000000E+00  0.00000000000E+00  0.29034704468E+03  0.29034704468E+03  0.00000000000E+00 0.  1.
         21   -1    0    0  504  502 -0.00000000000E+00 -0.00000000000E+00 -0.22025134602E+01  0.22025134602E+01  0.00000000000E+00 0. -1.
         21    1    1    2  503  502  0.11062952156E+02  0.17093634787E+02  0.57324601944E+02  0.60833307066E+02  0.00000000000E+00 0. -1.
         21    1    1    2  504  501 -0.11062952156E+02 -0.17093634787E+02  0.23081992927E+03  0.23171625107E+03  0.00000000000E+00 0.  1.
</event>
<event>
 4    1  0.3065783E+006  0.2029010E+02  0.7546771E-02  0.1529646E+00
         21   -1    0    0  503  501  0.00000000000E+00  0.00000000000E+00  0.71823145000E+02  0.71823145000E+02  0.00000000000E+00 0.  1.
         21   -1    0    0  504  502 -0.00000000000E+00 -0.00000000000E+00 -0.13225571088E+02  0.13225571088E+02  0.00000000000E+00 0. -1.
         21    1    1    2  503  502 -0.28965307835E+01  0.20082285260E+02  0.61308062910E+02  0.64578376021E+02  0.00000000000E+00 0.  1.
         21    1    1    2  504  501  0.28965307835E+01 -0.20082285260E+02 -0.27104889980E+01  0.20470340067E+02  0.00000000000E+00 0. -1.
</event>
<event>
 4    1  0.3065783E+006  0.2629776E+02  0.7546771E-02  0.1454793E+00
         21   -1    0    0  504  501  0.00000000000E+00  0.00000000000E+00  0.94083608417E+02  0.94083608417E+02  0.00000000000E+00 0.  1.
         21   -1    0    0  501  502 -0.00000000000E+00 -0.00000000000E+00 -0.11171124115E+02  0.11171124115E+02  0.00000000000E+00 0. -1.
         21    1    1    2  503  502 -0.16902841522E+02 -0.20146121542E+02  0.10679411876E+02  0.28383482921E+02  0.00000000000E+00 0. -1.
         21    1    1    2  504  503  0.16902841522E+02  0.20146121542E+02  0.72233072426E+02  0.76871249611E+02  0.00000000000E+00 0.  1.
</event>
<event>
 4    1  0.3065783E+006  0.2431599E+02  0.7546771E-02  0.1476603E+00
         21   -1    0    0  503  501  0.00000000000E+00  0.00000000000E+00  0.11336286848E+03  0.11336286848E+03  0.00000000000E+00 0.  1.
         21   -1    0    0  501  502 -0.00000000000E+00 -0.00000000000E+00 -0.19023495798E+02  0.19023495798E+02  0.00000000000E+00 0. -1.
         21    1    1    2  503  504  0.20583494993E+02  0.12945543925E+02  0.10356333347E+03  0.10637965695E+03  0.00000000000E+00 0.  1.
         21    1    1    2  504  502 -0.20583494993E+02 -0.12945543925E+02 -0.92239607834E+01  0.26006707330E+02  0.00000000000E+00 0. -1.
</event>
<event>
 4    1  0.3065783E+006  0.2322585E+02  0.7546771E-02  0.1489681E+00
         21   -1    0    0  503  501  0.00000000000E+00  0.00000000000E+00  0.35668460608E+01  0.35668460608E+01  0.00000000000E+00 0.  1.
         21   -1    0    0  501  502 -0.00000000000E+00 -0.00000000000E+00 -0.16849753076E+03  0.16849753076E+03  0.00000000000E+00 0.  1.
         21    1    1    2  503  504  0.17592800359E+02  0.15163557998E+02 -0.54930177397E+02  0.59638615883E+02  0.00000000000E+00 0.  1.
         21    1    1    2  504  502 -0.17592800359E+02 -0.15163557998E+02 -0.11000050730E+03  0.11242576094E+03  0.00000000000E+00 0.  1.
</event>
<event>
 4    1  0.3065783E+006  0.2379844E+02  0.7546771E-02  0.1482708E+00
         21   -1    0    0  503  501  0.00000000000E+00  0.00000000000E+00  0.50838151071E+02  0.50838151071E+02  0.00000000000E+00 0.  1.
         21   -1    0    0  504  502 -0.00000000000E+00 -0.00000000000E+00 -0.24787425132E+02  0.24787425132E+02  0.00000000000E+00 0. -1.
         21    1    1    2  503  502 -0.13533731526E+02  0.19575592548E+02 -0.15031516585E+02  0.28148040847E+02  0.00000000000E+00 0. -1.
         21    1    1    2  504  501  0.13533731526E+02 -0.19575592548E+02  0.41082242524E+02  0.47477535356E+02  0.00000000000E+00 0.  1.
</event>
<event>
 4    1  0.3065783E+006  0.3162720E+02  0.7546771E-02  0.1405964E+00
         21   -1    0    0  503  501  0.00000000000E+00  0.00000000000E+00  0.67460642944E+03  0.67460642944E+03  0.00000000000E+00 0. -1.
         21   -1    0    0  504  502 -0.00000000000E+00 -0.00000000000E+00 -0.19104467378E+01  0.19104467378E+01  0.00000000000E+00 0. -1.
         21    1    1    2  503  502  0.21994603602E+01  0.31550630876E+02  0.49639357089E+03  0.49740009767E+03  0.00000000000E+00 0. -1.
         21    1    1    2  504  501 -0.21994603602E+01 -0.31550630876E+02  0.17630241181E+03  0.17911677851E+03  0.00000000000E+00 0. -1.
</event>
<event>
 4    1  0.3065783E+006  0.2394560E+02  0.7546771E-02  0.1480954E+00
         21   -1    0    0  503  501  0.00000000000E+00  0.00000000000E+00  0.90102027533E+01  0.90102027533E+01  0.00000000000E+00 0. -1.
         21   -1    0    0  504  502 -0.00000000000E+00 -0.00000000000E+00 -0.26188716068E+03  0.26188716068E+03  0.00000000000E+00 0. -1.
         21    1    1    2  503  502  0.22848374651E+02 -0.71654425453E+01 -0.24428677185E+03  0.24545757004E+03  0.00000000000E+00 0. -1.
         21    1    1    2  504  501 -0.22848374651E+02  0.71654425453E+01 -0.85901860833E+01  0.25439793396E+02  0.00000000000E+00 0. -1.
</event>
<event>
 4    1  0.3065783E+006  0.2425174E+02  0.7546771E-02  0.1477351E+00
         21   -1    0    0  504  501  0.00000000000E+00  0.00000000000E+00  0.45862159759E+02  0.45862159759E+02  0.00000000000E+00 0. -1.
         21   -1    0    0  501  502 -0.00000000000E+00 -0.00000000000E+00 -0.82812306714E+02  0.82812306714E+02  0.00000000000E+00 0. -1.
         21    1    1    2  503  502  0.13599499702E+01 -0.24213580996E+02 -0.77621289275E+02  0.81321654664E+02  0.00000000000E+00 0. -1.
         21    1    1    2  504  503 -0.13599499702E+01  0.24213580996E+02  0.40671142321E+02  0.47352811809E+02  0.00000000000E+00 0. -1.
</event>
<event>
 4    1  0.3065783E+006  0.5088794E+02  0.7546771E-02  0.1294368E+00
         21   -1    0    0  503  501  0.00000000000E+00  0.00000000000E+00  0.38896862908E+03  0.38896862908E+03  0.00000000000E+00 0.  1.
         21   -1    0    0  501  502 -0.00000000000E+00 -0.00000000000E+00 -0.10816345686E+02  0.10816345686E+02  0.00000000000E+00 0.  1.
         21    1    1    2  503  504 -0.22588587800E+02 -0.45599756693E+02  0.31302411976E+03  0.31713353916E+03  0.00000000000E+00 0.  1.
         21    1    1    2  504  502  0.22588587800E+02  0.45599756693E+02  0.65128163638E+02  0.82651435609E+02  0.00000000000E+00 0.  1.
</event>
<event>
 4    1  0.3065783E+006  0.2012367E+02  0.7546771E-02  0.1532154E+00
         21   -1    0    0  502  501  0.00000000000E+00  0.00000000000E+00  0.62094076102E+02  0.62094076102E+02  0.00000000000E+00 0. -1.
         21   -1    0    0  503  502 -0.00000000000E+00 -0.00000000000E+00 -0.42476705368E+02  0.42476705368E+02  0.00000000000E+00 0.  1.
         21    1    1    2  503  504 -0.15507894723E+02  0.12824479701E+02 -0.38295661143E+02  0.43261064952E+02  0.00000000000E+00 0.  1.
         21    1    1    2  504  501  0.15507894723E+02 -0.12824479701E+02  0.57913031878E+02  0.61309716519E+02  0.00000000000E+00 0. -1.
</event>
<event>
 4    1  0.3065783E+006  0.2393668E+02  0.7546771E-02  0.1481060E+00
         21   -1    0    0  504  501  0.00000000000E+00  0.00000000000E+00  0.14562532073E+01  0.14562532073E+01  0.00000000000E+00 0. -1.
         21   -1    0    0  503  502 -0.00000000000E+00 -0.00000000000E+00 -0.39359302312E+03  0.39359302312E+03  0.00000000000E+00 0. -1.
         21    1    1    2  503  501 -0.12185001953E+02  0.20603164602E+02 -0.19981702748E+03  0.20124564377E+03  0.00000000000E+00 0. -1.
         21    1    1    2  504  502  0.12185001953E+02 -0.20603164602E+02 -0.19231974243E+03  0.19380363256E+03  0.00000000000E+00 0. -1.
</event>
<event>
 4    1  0.3065783E+006  0.2275882E+02  0.7546771E-02  0.1495549E+00
         21   -1    0    0  503  501  0.00000000000E+00  0.00000000000E+00  0.55103184742E+02  0.55103184742E+02  0.00000000000E+00 0. -1.
         21   -1    0    0  504  502 -0.00000000000E+00 -0.00000000000E+00 -0.10720829152E+04  0.10720829152E+04  0.00000000000E+00 0. -1.
         21    1    1    2  503  502  0.22276839954E+02  0.46589803808E+01  0.52626988930E+02  0.57337279848E+02  0.00000000000E+00 0. -1.
         21    1    1    2  504  501 -0.22276839954E+02 -0.46589803808E+01 -0.10696067194E+04  0.10698488201E+04  0.00000000000E+00 0. -1.
</event>
<event>
 4    1  0.3065783E+006  0.2104294E+02  0.7546771E-02  0.1518653E+00
         21   -1    0    0  503  501  0.00000000000E+00  0.00000000000E+00  0.11888018877E+01  0.11888018877E+01  0.00000000000E+00 0.  1.
         21   -1    0    0  501  502 -0.00000000000E+00 -0.00000000000E+00 -0.76830830714E+03  0.76830830714E+03  0.00000000000E+00 0.  1.
         21    1    1    2  503  504  0.19891548322E+02  0.68652427628E+01 -0.10739865091E+03  0.10944073953E+03  0.00000000000E+00 0.  1.
         21    1    1    2  504  502 -0.19891548322E+02 -0.68652427628E+01 -0.65972085434E+03  0.66005636949E+03  0.00000000000E+00 0.  1.
</event>
<event>
 4    1  0.3065783E+006  0.5631568E+02  0.7546771E-02  0.1272892E+00
         21   -1    0    0  502  501  0.00000000000E+00  0.00000000000E+00  0.49837662183E+02  0.49837662183E+02  0.00000000000E+00 0.  1.
         21   -1    0    0  504  502 -0.00000000000E+00 -0.00000000000E+00 -0.76156707609E+02  0.76156707609E+02  0.00000000000E+00 0. -1.
         21    1    1    2  503  501  0.53294673139E+02  0.18197073015E+02  0.12384324540E+02  0.57661314116E+02  0.00000000000E+00 0.  1.
         21    1    1    2  504  503 -0.53294673139E+02 -0.18197073015E+02 -0.38703369966E+02  0.68333055676E+02  0.00000000000E+00 0. -1.
</event>
<event>
 4    1  0.3065783E+006  0.2862313E+02  0.7546771E-02  0.1431951E+00
         21   -1    0    0  503  501  0.00000000000E+00  0.00000000000E+00  0.35895046357E+02  0.35895046357E+02  0.00000000000E+00 0. -1.
         21   -1    0    0  504  502 -0.00000000000E+00 -0.00000000000E+00 -0.28794423918E+02  0.28794423918E+02  0.00000000000E+00 0.  1.
         21    1    1    2  503  502  0.20608663854E+02 -0.19863701167E+02  0.18278070383E+02  0.33961323691E+02  0.00000000000E+00 0. -1.
         21    1    1    2  504  501 -0.20608663854E+02  0.19863701167E+02 -0.11177447944E+02  0.30728146584E+02  0.00000000000E+00 0.  1.
</event>
<event>
 4    1  0.3065783E+006  0.3260584E+02  0.7546771E-02  0.1398224E+00
         21   -1    0    0  504  501  0.00000000000E+00  0.00000000000E+00  0.18528964579E+03  0.18528964579E+03  0.00000000000E+00 0. -1.
         21   -1    0    0  501  502 -0.00000000000E+00 -0.00000000000E+00 -0.30390382131E+02  0.30390382131E+02  0.00000000000E+00 0.  1.
         21    1    1    2  503  502  0.19997006368E+02 -0.25753839582E+02 -0.19678211876E+02  0.38083756899E+02  0.00000000000E+00 0.  1.
         21    1    1    2  504  503 -0.19997006368E+02  0.25753839582E+02  0.17457747554E+03  0.17759627102E+03  0.00000000000E+00 0. -1.
</event>
<event>
 4    1  0.3065783E+006  0.3090473E+02  0.7546771E-02  0.1411894E+00
         21   -1    0    0  503  501  0.00000000000E+00  0.00000000000E+00  0.29926798028E+02  0.29926798028E+02  0.00000000000E+00 0. -1.
         21   -1    0    0  504  502 -0.00000000000E+00 -0.00000000000E+00 -0.99381451072E+02  0.99381451072E+02  0.00000000000E+00 0. -1.
         21    1    1    2  503  502 -0.28141918340E+02  0.12772415444E+02 -0.87998068828E+02  0.93267155428E+02  0.00000000000E+00 0. -1.
         21    1    1    2  504  501  0.28141918340E+02 -0.12772415444E+02  0.18543415785E+02  0.36041093672E+02  0.00000000000E+00 0. -1.
</event>
<event>
 4    1  0.3065783E+006  0.3335083E+02  0.7546771E-02  0.1392543E+00
         21   -1    0    0  502  501  0.00000000000E+00  0.00000000000E+00  0.30197413692E+03  0.30197413692E+03  0.00000000000E+00 0.  1.
         21   -1    0    0  504  502 -0.00000000000E+00 -0.00000000000E+00 -0.69200050604E+02  0.69200050604E+02  0.00000000000E+00 0.  1.
         21    1    1    2  503  501  0.10502314615E+02 -0.31654060483E+02  0.29696742008E+03  0.29883427974E+03  0.00000000000E+00 0.  1.
         21    1    1    2  504  503 -0.10502314615E+02  0.31654060483E+02 -0.64193333769E+02  0.72339907781E+02  0.00000000000E+00 0.  1.
</event>
<event>
 4    1  0.3065783E+006  0.2176790E+02  0.7546771E-02  0.1508578E+00
         21   -1    0    0  503  501  0.00000000000E+00  0.00000000000E+00  0.25652098409E+03  0.25652098409E+03  0.00000000000E+00 0. -1.
         21   -1    0    0  501  502 -0.00000000000E+00 -0.00000000000E+00 -0.24089244519E+01  0.24089244519E+01  0.00000000000E+00 0.  1.
         21    1    1    2  503  504 -0.40527353420E+01  0.21387306486E+02  0.18957450166E+03  0.19082015937E+03  0.00000000000E+00 0. -1.
         21    1    1    2  504  502  0.40527353420E+01 -0.21387306486E+02  0.64537557984E+02  0.68109749178E+02  0.00000000000E+00 0.  1.
</event>
<event>
 4    1  0.3065783E+006  0.2300168E+02  0.7546771E-02  0.1492477E+00
         21   -1    0    0  503  501  0.00000000000E+00  0.00000000000E+00  0.48120323503E+02  0.48120323503E+02  0.00000000000E+00 0. -1.
         21   -1    0    0  504  502 -0.00000000000E+00 -0.00000000000E+00 -0.13716835803E+04  0.13716835803E+04  0.00000000000E+00 0. -1.
         21    1    1    2  503  502  0.22334446371E+02  0.54999649809E+01 -0.13688327079E+04  0.13690259527E+04  0.00000000000E+00 0. -1.
         21    1    1    2  504  501 -0.22334446371E+02 -0.54999649809E+01  0.45269451101E+02  0.50777951046E+02  0.00000000000E+00 0. -1.
</event>
<event>
 4    1  0.3065783E+006  0.3129556E+02  0.7546771E-02  0.1408662E+00
         21   -1    0    0  503  501  0.00000000000E+00  0.00000000000E+00  0.13119442074E+01  0.13119442074E+01  0.00000000000E+00 0.  1.
         21   -1    0    0  504  502 -0.00000000000E+00 -0.00000000000E+00 -0.91802947727E+03  0.91802947727E+03  0.00000000000E+00 0. -1.
         21    1    1    2  503  502 -0.23775942496E+02  0.20349851057E+02 -0.65703410621E+03  0.65777901198E+03  0.00000000000E+00 0.  1.
         21    1    1    2  504  501  0.23775942496E+02 -0.20349851057E+02 -0.25968342686E+03  0.26156240950E+03  0.00000000000E+00 0. -1.
</event>
<event>
 4    1  0.3065783E+006  0.2192755E+02  0.7546771E-02  0.1506423E+00
         21   -1    0    0  504  501  0.00000000000E+00  0.00000000000E+00  0.90961328986E+01  0.90961328986E+01  0.00000000000E+00 0.  1.
         21   -1    0    0  503  502 -0.00000000000E+00 -0.00000000000E+00 -0.10716234905E+03  0.10716234905E+03  0.00000000000E+00 0.  1.
         21    1    1    2  503  501 -0.14273522911E+01  0.21881039680E+02 -0.76536535064E+01  0.23224892767E+02  0.00000000000E+00 0.  1.
         21    1    1    2  504  502  0.14273522911E+01 -0.21881039680E+02 -0.90412562640E+02  0.93033589177E+02  0.00000000000E+00 0.  1.
</event>
<event>
 4    1  0.3065783E+006  0.2533070E+02  0.7546771E-02  0.1465138E+00
         21   -1    0    0  503  501  0.00000000000E+00  0.00000000000E+00  0.37778937568E+01  0.37778937568E+01  0.00000000000E+00 0. -1.
         21   -1    0    0  504  502 -0.00000000000E+00 -0.00000000000E+00 -0.55162577685E+03  0.55162577685E+03  0.00000000000E+00 0.  1.
         21    1    1    2  503  502 -0.19428783708E+02  0.16253210547E+02 -0.42895584040E+02  0.49816419176E+02  0.00000000000E+00 0. -1.
         21    1    1    2  504  501  0.19428783708E+02 -0.16253210547E+02 -0.50495229905E+03  0.50558725143E+03  0.00000000000E+00 0.  1.
</event>
<event>
 4    1  0.3065783E+006  0.2053169E+02  0.7546771E-02  0.1526057E+00
         21   -1    0    0  504  501  0.00000000000E+00  0.00000000000E+00  0.10820212367E+03  0.10820212367E+03  0.00000000000E+00 0. -1.
         21   -1    0    0  503  502 -0.00000000000E+00 -0.00000000000E+00 -0.51627917220E+01  0.51627917220E+01  0.00000000000E+00 0. -1.
         21    1    1    2  503  501  0.94054093072E+00  0.20510138497E+02  0.23441611078E+02  0.31161828065E+02  0.00000000000E+00 0. -1.
         21    1    1    2  504  502 -0.94054093072E+00 -0.20510138497E+02  0.79597720868E+02  0.82203087325E+02  0.00000000000E+00 0. -1.
</event>
<event>
 4    1  0.3065783E+006  0.5399838E+02  0.7546771E-02  0.1281709E+00
         21   -1    0    0  503  501  0.00000000000E+00  0.00000000000E+00  0.16979614817E+03  0.16979614817E+03  0.00000000000E+00 0.  1.
         21   -1    0    0  504  502 -0.00000000000E+00 -0.00000000000E+00 -0.65073601367E+02  0.65073601367E+02  0.00000000000E+00 0.  1.
         21    1    1    2  503  502 -0.53981701396E+02 -0.13421952877E+01 -0.48393906938E+02  0.72510659924E+02  0.00000000000E+00 0.  1.
         21    1    1    2  504  501  0.53981701396E+02  0.13421952877E+01  0.15311645375E+03  0.16235908962E+03  0.00000000000E+00 0.  1.
</event>
<event>
 4    1  0.3065783E+006  0.2140245E+02  0.7546771E-02  0.1513596E+00
         21   -1    0    0  502  501  0.00000000000E+00  0.00000000000E+00  0.32157921153E+02  0.32157921153E+02  0.00000000000E+00 0. -1.
         21   -1    0    0  503  502 -0.00000000000E+00 -0.00000000000E+00 -0.57093382233E+02  0.57093382233E+02  0.00000000000E+00 0.  1.
         21    1    1    2  503  504 -0.14062312516E+02  0.16134321013E+02 -0.51127813643E+02  0.55426692809E+02  0.00000000000E+00 0.  1.
         21    1    1    2  504  501  0.14062312516E+02 -0.16134321013E+02  0.26192352564E+02  0.33824610577E+02  0.00000000000E+00 0. -1.
</event>
<event>
 4    1  0.3065783E+006  0.2222132E+02  0.7546771E-02  0.1502515E+00
         21   -1    0    0  504  501  0.00000000000E+00  0.00000000000E+00  0.45703877393E+02  0.45703877393E+02  0.00000000000E+00 0.  1.
         21   -1    0    0  503  502 -0.00000000000E+00 -0.00000000000E+00 -0.10818196178E+02  0.10818196178E+02  0.00000000000E+00 0.  1.
         21    1    1    2  503  501 -0.22167887036E+02  0.15400326752E+01  0.16420841641E+02  0.27630254369E+02  0.00000000000E+00 0.  1.
         21    1    1    2  504  502  0.22167887036E+02 -0.15400326752E+01  0.18464839574E+02  0.28891819202E+02  0.00000000000E+00 0.  1.
</event>
<event>
 4    1  0.3065783E+006  0.4866543E+02  0.7546771E-02  0.1304065E+00
         21   -1    0    0  503  501  0.00000000000E+00  0.00000000000E+00  0.96255454982E+01  0.96255454982E+01  0.00000000000E+00 0. -1.
         21   -1    0    0  504  502 -0.00000000000E+00 -0.00000000000E+00 -0.33740856432E+03  0.33740856432E+03  0.00000000000E+00 0. -1.
         21    1    1    2  503  502 -0.17689428457E+02 -0.45336607200E+02 -0.25418345924E+03  0.25880022176E+03  0.00000000000E+00 0. -1.
         21    1    1    2  504  501  0.17689428457E+02  0.45336607200E+02 -0.73599559589E+02  0.88233888065E+02  0.00000000000E+00 0. -1.
</event>
<event>
 4    1  0.3065783E+006  0.3698111E+02  0.7546771E-02  0.1367146E+00
         21   -1    0    0  503  501  0.00000000000E+00  0.00000000000E+00  0.49840456839E+02  0.49840456839E+02  0.00000000000E+00 0.  1.
         21   -1    0    0  504  502 -0.00000000000E+00 -0.00000000000E+00 -0.91721975470E+02  0.91721975470E+02  0.00000000000E+00 0.  1.
         21    1    1    2  503  502  0.19150367247E+02  0.31636466119E+02  0.38314548021E+02  0.53250419193E+02  0.00000000000E+00 0.  1.
         21    1    1    2  504  501 -0.19150367247E+02 -0.31636466119E+02 -0.80196066651E+02  0.88312013116E+02  0.00000000000E+00 0.  1.
</event>
<event>
 4    1  0.3065783E+006  0.2962365E+02  0.7546771E-02  0.1422895E+00
         21   -1    0    0  504  501  0.00000000000E+00  0.00000000000E+00  0.70703504226E+02  0.70703504226E+02  0.00000000000E+00 0. -1.
         21   -1    0    0  501  502 -0.00000000000E+00 -0.00000000000E+00 -0.51109525468E+02  0.51109525468E+02  0.00000000000E+00 0.  1.
         21    1    1    2  503  502 -0.65713589898E+01 -0.28885601326E+02 -0.43200501518E+02  0.52381714885E+02  0.00000000000E+00 0.  1.
         21    1    1    2  504  503  0.65713589898E+01  0.28885601326E+02  0.62794480276E+02  0.69431314808E+02  0.00000000000E+00 0. -1.
</event>
<event>
 4    1  0.3065783E+006  0.3203600E+02  0.7546771E-02  0.1402691E+00
         21   -1    0    0  503  501  0.00000000000E+00  0.00000000000E+00  0.57875912454E+02  0.57875912454E+02  0.00000000000E+00 0.  1.
         21   -1    0    0  504  502 -0.00000000000E+00 -0.00000000000E+00 -0.24989554040E+02  0.24989554040E+02  0.00000000000E+00 0.  1.
         21    1    1    2  503  502 -0.13741025922E+02 -0.28939413872E+02 -0.58839933654E+01  0.32571872015E+02  0.00000000000E+00 0.  1.
         21    1    1    2  504  501  0.13741025922E+02  0.28939413872E+02  0.38770351779E+02  0.50293594480E+02  0.00000000000E+00 0.  1.
</event>
<event>
 4    1  0.3065783E+006  0.2117416E+02  0.7546771E-02  0.1516793E+00
         21   -1    0    0  504  501  0.00000000000E+00  0.00000000000E+00  0.45430604999E+02  0.45430604999E+02  0.00000000000E+00 0. -1.
         21   -1    0    0  501  502 -0.00000000000E+00 -0.00000000000E+00 -0.15248799078E+03  0.15248799078E+03  0.00000000000E+00 0. -1.
         21    1    1    2  503  502 -0.44820937637E+01  0.20694339417E+02 -0.14923218654E+03  0.15072687334E+03  0.00000000000E+00 0. -1.
         21    1    1    2  504  503  0.44820937637E+01 -0.20694339417E+02  0.42174800753E+02  0.47191722441E+02  0.00000000000E+00 0. -1.
</event>
<event>
 4    1  0.3065783E+006  0.2059827E+02  0.7546771E-02  0.1525078E+00
         21   -1    0    0  503  501  0.00000000000E+00  0.00000000000E+00  0.11768558614E+02  0.11768558614E+02  0.00000000000E+00 0. -1.
         21   -1    0    0  501  502 -0.00000000000E+00 -0.00000000000E+00 -0.71723800986E+02  0.71723800986E+02  0.00000000000E+00 0. -1.
         21    1    1    2  503  504 -0.14376454269E+02  0.14751491023E+02 -0.53726693431E+00  0.20605280404E+02  0.00000000000E+00 0. -1.
         21    1    1    2  504  502  0.14376454269E+02 -0.14751491023E+02 -0.59417975437E+02  0.62887079196E+02  0.00000000000E+00 0. -1.
</event>
<event>
 4    1  0.3065783E+006  0.2419388E+02  0.7546771E-02  0.1478027E+00
         21   -1    0    0  503  501  0.00000000000E+00  0.00000000000E+00  0.93142513670E+02  0.93142513670E+02  0.00000000000E+00 0.  1.
         21   -1    0    0  504  502 -0.00000000000E+00 -0.00000000000E+00 -0.90913019760E+01  0.90913019760E+01  0.00000000000E+00 0. -1.
         21    1    1    2  503  502  0.19580228747E+02 -0.14211216514E+02  0.13622501847E+02  0.27765384729E+02  0.00000000000E+00 0. -1.
         21    1    1    2  504  501 -0.19580228747E+02  0.14211216514E+02  0.70428709846E+02  0.74468430917E+02  0.00000000000E+00 0.  1.
</event>
<event>
 4    1  0.3065783E+006  0.3023597E+02  0.7546771E-02  0.1417557E+00
         21   -1    0    0  504  501  0.00000000000E+00  0.00000000000E+00  0.30862100016E+03  0.30862100016E+03  0.00000000000E+00 0.  1.
         21   -1    0    0  503  502 -0.00000000000E+00 -0.00000000000E+00 -0.22483770771E+02  0.22483770771E+02  0.00000000000E+00 0. -1.
         21    1    1    2  503  501  0.14615223409E+02  0.26469022016E+02  0.29733014821E+03  0.29886356572E+03  0.00000000000E+00 0.  1.
         21    1    1    2  504  502 -0.14615223409E+02 -0.26469022016E+02 -0.11192918819E+02  0.32241205211E+02  0.00000000000E+00 0. -1.
</event>
<event>
 4    1  0.3065783E+006  0.2596007E+02  0.7546771E-02  0.1458344E+00
         21   -1    0    0  504  501  0.00000000000E+00  0.00000000000E+00  0.97263085001E+01  0.97263085001E+01  0.00000000000E+00 0.  1.
         21   -1    0    0  503  502 -0.00000000000E+00 -0.00000000000E+00 -0.79527102862E+02  0.79527102862E+02  0.00000000000E+00 0.  1.
         21    1    1    2  503  501  0.19975604964E+02 -0.16580120121E+02 -0.50912530618E+02  0.57149024059E+02  0.00000000000E+00 0.  1.
         21    1    1    2  504  502 -0.19975604964E+02  0.16580120121E+02 -0.18888263743E+02  0.32104387303E+02  0.00000000000E+00 0.  1.
</event>
<event>
 4    1  0.3065783E+006  0.2803396E+02  0.7546771E-02  0.1437489E+00
         21   -1    0    0  504  501  0.00000000000E+00  0.00000000000E+00  0.55295840687E+03  0.55295840687E+03  0.00000000000E+00 0. -1.
         21   -1    0    0  503  502 -0.00000000000E+00 -0.00000000000E+00 -0.22355383092E+02  0.22355383092E+02  0.00000000000E+00 0.  1.
         21    1    1    2  503  501  0.18974248486E+02  0.20636885717E+02 -0.13061171072E+02  0.30927291305E+02  0.00000000000E+00 0.  1.
         21    1    1    2  504  502 -0.18974248486E+02 -0.20636885717E+02  0.54366419485E+03  0.54438649865E+03  0.00000000000E+00 0. -1.
</event>
<event>
 4    1  0.3065783E+006  0.2119032E+02  0.7546771E-02  0.1516565E+00
         21   -1    0    0  502  501  0.00000000000E+00  0.00000000000E+00  0.38534564029E+03  0.38534564029E+03  0.00000000000E+00 0. -1.
         21   -1    0    0  504  502 -0.00000000000E+00 -0.00000000000E+00 -0.24656146643E+02  0.24656146643E+02  0.00000000000E+00 0. -1.
         21    1    1    2  503  501 -0.11401324689E+02 -0.17861673540E+02  0.38044277771E+03  0.38103246148E+03  0.00000000000E+00 0. -1.
         21    1    1    2  504  503  0.11401324689E+02  0.17861673540E+02 -0.19753284061E+02  0.28969325459E+02  0.00000000000E+00 0. -1.
</event>
<event>
 4    1  0.3065783E+006  0.2355593E+02  0.7546771E-02  0.1485633E+00
         21   -1    0    0  503  501  0.00000000000E+00  0.00000000000E+00  0.46936867477E+01  0.46936867477E+01  0.00000000000E+00 0.  1.
         21   -1    0    0  504  502 -0.00000000000E+00 -0.00000000000E+00 -0.14287508385E+03  0.14287508385E+03  0.00000000000E+00 0.  1.
         21    1    1    2  503  502  0.19326389253E+01 -0.23476517733E+02 -0.38439314193E+02  0.45082844339E+02  0.00000000000E+00 0.  1.
         21    1    1    2  504  501 -0.19326389253E+01  0.23476517733E+02 -0.99742082914E+02  0.10248592626E+03  0.00000000000E+00 0.  1.
</event>
<event>
 4    1  0.3065783E+006  0.2161722E+02  0.7546771E-02  0.1510632E+00
         21   -1    0    0  504  501  0.00000000000E+00  0.00000000000E+00  0.17925140387E+01  0.17925140387E+01  0.00000000000E+00 0. -1.
         21   -1    0    0  503  502 -0.00000000000E+00 -0.00000000000E+00 -0.27227597125E+03  0.27227597125E+03  0.00000000000E+00 0. -1.
         21    1    1    2  503  501  0.84319083806E+01 -0.19904952597E+02 -0.10698336293E+03  0.10914551828E+03  0.00000000000E+00 0. -1.
         21    1    1    2  504  502 -0.84319083806E+01  0.19904952597E+02 -0.16350009428E+03  0.16492296701E+03  0.00000000000E+00 0. -1.
</event>
<event>
 4    1  0.3065783E+006  0.2055751E+02  0.7546771E-02  0.1525677E+00
         21   -1    0    0  503  501  0.00000000000E+00  0.00000000000E+00  0.34964165714E+01  0.34964165714E+01  0.00000000000E+00 0.  1.
         21   -1    0    0  504  502 -0.00000000000E+00 -0.00000000000E+00 -0.25109069110E+03  0.25109069110E+03  0.00000000000E+00 0. -1.
         21    1    1    2  503  502 -0.20499573171E+02 -0.15423656483E+01 -0.21546800279E+03  0.21644646363E+03  0.00000000000E+00 0. -1.
         21    1    1    2  504  501  0.20499573171E+02  0.15423656483E+01 -0.32126271737E+02  0.38140644039E+02  0.00000000000E+00 0.  1.
</event>
<event>
 4    1  0.3065783E+006  0.2997861E+02  0.7546771E-02  0.1419783E+00
         21   -1    0    0  503  501  0.00000000000E+00  0.00000000000E+00  0.48807212129E+02  0.48807212129E+02  0.00000000000E+00 0.  1.
         21   -1    0    0  504  502 -0.00000000000E+00 -0.00000000000E+00 -0.11318732291E+03  0.11318732291E+03  0.00000000000E+00 0. -1.
         21    1    1    2  503  502 -0.68315656003E+01 -0.29189837005E+02 -0.10630664474E+03  0.11045279349E+03  0.00000000000E+00 0. -1.
         21    1    1    2  504  501  0.68315656003E+01  0.29189837005E+02  0.41926533957E+02  0.51541741555E+02  0.00000000000E+00 0.  1.
</event>
<event>
 4    1  0.3065783E+006  0.3443553E+02  0.7546771E-02  0.1384576E+00
         21   -1    0    0  503  501  0.00000000000E+00  0.00000000000E+00  0.43587009225E+03  0.43587009225E+03  0.00000000000E+00 0.  1.
         21   -1    0    0  504  502 -0.00000000000E+00 -0.00000000000E+00 -0.77692112879E+01  0.77692112879E+01  0.00000000000E+00 0.  1.
         21    1    1    2  503  502  0.31881974408E+02 -0.13013272469E+02  0.35237167694E+02  0.49269296114E+02  0.00000000000E+00 0.  1.
         21    1    1    2  504  501 -0.31881974408E+02  0.13013272469E+02  0.39286371327E+03  0.39437000742E+03  0.00000000000E+00 0.  1.
</event>
<event>
 4    1  0.3065783E+006  0.2884810E+02  0.7546771E-02  0.1429878E+00
         21   -1    0    0  504  501  0.00000000000E+00  0.00000000000E+00  0.13513863563E+03  0.13513863563E+03  0.00000000000E+00 0. -1.
         21   -1    0    0  503  502 -0.00000000000E+00 -0.00000000000E+00 -0.85681933846E+01  0.85681933846E+01  0.00000000000E+00 0. -1.
         21    1    1    2  503  501 -0.10389401877E+02  0.26912320371E+02  0.25177811312E+02  0.38290140266E+02  0.00000000000E+00 0. -1.
         21    1    1    2  504  502  0.10389401877E+02 -0.26912320371E+02  0.10139263094E+03  0.10541668875E+03  0.00000000000E+00 0. -1.
</event>
<event>
 4    1  0.3065783E+006  0.2500025E+02  0.7546771E-02  0.1468801E+00
         21   -1    0    0  503  501  0.00000000000E+00  0.00000000000E+00  0.11487731563E+02  0.11487731563E+02  0.00000000000E+00 0.  1.
         21   -1    0    0  504  502 -0.00000000000E+00 -0.00000000000E+00 -0.13287768631E+03  0.13287768631E+03  0.00000000000E+00 0.  1.
         21    1    1    2  503  502 -0.95951199334E+01  0.23085628945E+02 -0.52246186118E+01  0.25540345142E+02  0.00000000000E+00 0.  1.
         21    1    1    2  504  501  0.95951199334E+01 -0.23085628945E+02 -0.11616533613E+03  0.11882507273E+03  0.00000000000E+00 0.  1.
</event>
<event>
 4    1  0.3065783E+006  0.2004879E+02  0.7546771E-02  0.1533291E+00
         21   -1    0    0  503  501  0.00000000000E+00  0.00000000000E+00  0.81744150994E+02  0.81744150994E+02  0.00000000000E+00 0.  1.
         21   -1    0    0  501  502 -0.00000000000E+00 -0.00000000000E+00 -0.23586159999E+02  0.23586159999E+02  0.00000000000E+00 0. -1.
         21    1    1    2  503  504 -0.20043240912E+02 -0.47182931771E+00  0.75933846218E+02  0.78535998947E+02  0.00000000000E+00 0.  1.
         21    1    1    2  504  502  0.20043240912E+02  0.47182931771E+00 -0.17775855222E+02  0.26794312047E+02  0.00000000000E+00 0. -1.
</event>
<event>
 4    1  0.3065783E+006  0.2009992E+02  0.7546771E-02  0.1532514E+00
         21   -1    0    0  503  501  0.00000000000E+00  0.00000000000E+00  0.42953412286E+03  0.42953412286E+03  0.00000000000E+00 0. -1.
         21   -1    0    0  504  502 -0.00000000000E+00 -0.00000000000E+00 -0.52278231315E+01  0.52278231315E+01  0.00000000000E+00 0.  1.
         21    1    1    2  503  502 -0.15721486631E+02  0.12523651130E+02  0.40901004915E+03  0.40950363526E+03  0.00000000000E+00 0. -1.
         21    1    1    2  504  501  0.15721486631E+02 -0.12523651130E+02  0.15296250573E+02  0.25258310733E+02  0.00000000000E+00 0.  1.
</event>
<event>
 4    1  0.3065783E+006  0.2869213E+02  0.7546771E-02  0.1431313E+00
         21   -1    0    0  503  501  0.00000000000E+00  0.00000000000E+00  0.39160970723E+02  0.39160970723E+02  0.00000000000E+00 0. -1.
         21   -1    0    0  501  502 -0.00000000000E+00 -0.00000000000E+00 -0.30115500435E+03  0.30115500435E+03  0.00000000000E+00 0. -1.
         21    1    1    2  503  504  0.10985193717E+02 -0.26505924016E+02  0.33114668682E+02  0.43815747978E+02  0.00000000000E+00 0. -1.
         21    1    1    2  504  502 -0.10985193717E+02  0.26505924016E+02 -0.29510870231E+03  0.29650022710E+03  0.00000000000E+00 0. -1.
</event>
<event>
 4    1  0.3065783E+006  0.2860065E+02  0.7546771E-02  0.1432160E+00
         21   -1    0    0  504  501  0.00000000000E+00  0.00000000000E+00  0.48617817376E+03  0.48617817376E+03  0.00000000000E+00 0.  1.
         21   -1    0    0  503  502 -0.00000000000E+00 -0.00000000000E+00 -0.67796893266E+01  0.67796893266E+01  0.00000000000E+00 0.  1.
         21    1    1    2  503  501  0.13769336399E+02 -0.25067961088E+02  0.45341673359E+03  0.45431787506E+03  0.00000000000E+00 0.  1.
         21    1    1    2  504  502 -0.13769336399E+02  0.25067961088E+02  0.25981750845E+02  0.38639988030E+02  0.00000000000E+00 0.  1.
</event>
<event>
 4    1  0.3065783E+006  0.2811499E+02  0.7546771E-02  0.1436718E+00
         21   -1    0    0  503  501  0.00000000000E+00  0.00000000000E+00  0.23181234865E+03  0.23181234865E+03  0.00000000000E+00 0. -1.
         21   -1    0    0  504  502 -0.00000000000E+00 -0.00000000000E+00 -0.36592045755E+01  0.36592045755E+01  0.00000000000E+00 0. -1.
         21    1    1    2  503  502 -0.23077487043E+02 -0.16058717050E+02  0.14480891954E+03  0.14751296886E+03  0.00000000000E+00 0. -1.
         21    1    1    2  504  501  0.23077487043E+02  0.16058717050E+02  0.83344224532E+02  0.87958584370E+02  0.00000000000E+00 0. -1.
</event>
<event>
 4    1  0.3065783E+006  0.2004732E+02  0.7546771E-02  0.1533314E+00
         21   -1    0    0  503  501  0.00000000000E+00  0.00000000000E+00  0.89039788071E+01  0.89039788071E+01  0.00000000000E+00 0. -1.
         21   -1    0    0  501  502 -0.00000000000E+00 -0.00000000000E+00 -0.13148796514E+03  0.13148796514E+03  0.00000000000E+00 0. -1.
         21    1    1    2  503  504  0.16732498166E+02 -0.11041669889E+02 -0.44061898304E+01  0.20525824652E+02  0.00000000000E+00 0. -1.
         21    1    1    2  504  502 -0.16732498166E+02  0.11041669889E+02 -0.11817779650E+03  0.11986611929E+03  0.00000000000E+00 0. -1.
</event>
<event>
 4    1  0.3065783E+006  0.2039859E+02  0.7546771E-02  0.1528027E+00
         21   -1    0    0  503  501  0.00000000000E+00  0.00000000000E+00  0.11735026370E+01  0.11735026370E+01  0.00000000000E+00 0. -1.
         21   -1    0    0  504  502 -0.00000000000E+00 -0.00000000000E+00 -0.38847394602E+03  0.38847394602E+03  0.00000000000E+00 0.  1.
         21    1    1    2  503  502 -0.67199517948E+01  0.19259926220E+02 -0.25119571800E+03  0.25202260067E+03  0.00000000000E+00 0.  1.
         21    1    1    2  504  501  0.67199517948E+01 -0.19259926220E+02 -0.13610472538E+03  0.13762484798E+03  0.00000000000E+00 0. -1.
</event>
<event>
 4    1  0.3065783E+006  0.2678440E+02  0.7546771E-02  0.1449786E+00
         21   -1    0    0  504  501  0.00000000000E+00  0.00000000000E+00  0.55806867822E+03  0.55806867822E+03  0.00000000000E+00 0.  1.
         21   -1    0    0  503  502 -0.00000000000E+00 -0.00000000000E+00 -0.19206484860E+01  0.19206484860E+01  0.00000000000E+00 0. -1.
         21    1    1    2  503  501 -0.26767557966E+02 -0.94978027271E+00  0.43908636233E+03  0.43990253219E+03  0.00000000000E+00 0.  1.
         21    1    1    2  504  502  0.26767557966E+02  0.94978027271E+00  0.11706166740E+03  0.12008679452E+03  0.00000000000E+00 0. -1.
</event>
<event>
 4    1  0.3065783E+006  0.3265053E+02  0.7546771E-02  0.1397878E+00
         21   -1    0    0  503  501  0.00000000000E+00  0.00000000000E+00  0.94747145212E+02  0.94747145212E+02  0.00000000000E+00 0. -1.
         21   -1    0    0  504  502 -0.00000000000E+00 -0.00000000000E+00 -0.21365567634E+02  0.21365567634E+02  0.00000000000E+00 0.  1.
         21    1    1    2  503  502  0.30644317216E+02 -0.11268674186E+02  0.76634948477E+02  0.83300495338E+02  0.00000000000E+00 0. -1.
         21    1    1    2  504  501 -0.30644317216E+02  0.11268674186E+02 -0.32533708988E+01  0.32812217508E+02  0.00000000000E+00 0.  1.
</event>
<event>
 4    1  0.3065783E+006  0.2115227E+02  0.7546771E-02  0.1517102E+00
         21   -1    0    0  504  501  0.00000000000E+00  0.00000000000E+00  0.23277741214E+03  0.23277741214E+03  0.00000000000E+00 0. -1.
         21   -1    0    0  501  502 -0.00000000000E+00 -0.00000000000E+00 -0.64941079924E+01  0.64941079924E+01  0.00000000000E+00 0.  1.
         21    1    1    2  503  502 -0.21140962518E+02 -0.69156220864E+00  0.12759767709E+02  0.24702838429E+02  0.00000000000E+00 0.  1.
         21    1    1    2  504  503  0.21140962518E+02  0.69156220864E+00  0.21352353644E+03  0.21456868170E+03  0.00000000000E+00 0. -1.
</event>
<event>
 4    1  0.3065783E+006  0.3281690E+02  0.7546771E-02  0.1396597E+00
         21   -1    0    0  504  501  0.00000000000E+00  0.00000000000E+00  0.46431023355E+01  0.46431023355E+01  0.00000000000E+00 0.  1.
         21   -1    0    0  503  502 -0.00000000000E+00 -0.00000000000E+00 -0.35022937532E+03  0.35022937532E+03  0.00000000000E+00 0.  1.
         21    1    1    2  503  501  0.19590514690E+02 -0.26327950566E+02 -0.27590955033E+03  0.27785433092E+03  0.00000000000E+00 0.  1.
         21    1    1    2  504  502 -0.19590514690E+02  0.26327950566E+02 -0.69676722647E+02  0.77018146729E+02  0.00000000000E+00 0.  1.
</event>
<event>
 4    1  0.3065783E+006  0.2002490E+02  0.7546771E-02  0.1533655E+00
         21   -1    0    0  502  501  0.00000000000E+00  0.00000000000E+00  0.13141437278E+02  0.13141437278E+02  0.00000000000E+00 0. -1.
         21   -1    0    0  504  502 -0.00000000000E+00 -0.00000000000E+00 -0.14873552586E+03  0.14873552586E+03  0.00000000000E+00 0. -1.
         21    1    1    2  503  501 -0.18378623415E+02  0.79512824171E+01  0.43628907596E+01  0.20494670197E+02  0.00000000000E+00 0. -1.
         21    1    1    2  504  503  0.18378623415E+02 -0.79512824171E+01 -0.13995697934E+03  0.14138229294E+03  0.00000000000E+00 0. -1.
</event>
<event>
 4    1  0.3065783E+006  0.5570941E+02  0.7546771E-02  0.1275151E+00
         21   -1    0    0  504  501  0.00000000000E+00  0.00000000000E+00  0.93898774113E+02  0.93898774113E+02  0.00000000000E+00 0. -1.
         21   -1    0    0  503  502 -0.00000000000E+00 -0.00000000000E+00 -0.36153150745E+02  0.36153150745E+02  0.00000000000E+00 0.  1.
         21    1    1    2  503  501 -0.32919588837E+02  0.44942618747E+02  0.47917686142E+02  0.73482262855E+02  0.00000000000E+00 0. -1.
         21    1    1    2  504  502  0.32919588837E+02 -0.44942618747E+02  0.98279372266E+01  0.56569662004E+02  0.00000000000E+00 0.  1.
</event>
<event>
 4    1  0.3065783E+006  0.2241355E+02  0.7546771E-02  0.1499996E+00
         21   -1    0    0  503  501  0.00000000000E+00  0.00000000000E+00  0.85898375050E+03  0.85898375050E+03  0.00000000000E+00 0.  1.
         21   -1    0    0  504  502 -0.00000000000E+00 -0.00000000000E+00 -0.27803521228E+01  0.27803521228E+01  0.00000000000E+00 0.  1.
         21    1    1    2  503  502  0.19416947518E+02 -0.11195956765E+02  0.45209507480E+02  0.50460547613E+02  0.00000000000E+00 0.  1.
         21    1    1    2  504  501 -0.19416947518E+02  0.11195956765E+02  0.81099389089E+03  0.81130355501E+03  0.00000000000E+00 0.  1.
</event>
<event>
 4    1  0.3065783E+006  0.3193744E+02  0.7546771E-02  0.1403475E+00
         21   -1    0    0  503  501  0.00000000000E+00  0.00000000000E+00  0.76587085995E+03  0.76587085995E+03  0.00000000000E+00 0. -1.
         21   -1    0    0  501  502 -0.00000000000E+00 -0.00000000000E+00 -0.26534174219E+01  0.26534174219E+01  0.00000000000E+00 0.  1.
         21    1    1    2  503  504  0.76414525701E+01  0.31009808928E+02  0.65279945453E+03  0.65358023829E+03  0.00000000000E+00 0. -1.
         21    1    1    2  504  502 -0.76414525701E+01 -0.31009808928E+02  0.11041798799E+03  0.11494403908E+03  0.00000000000E+00 0.  1.
</event>
<event>
 4    1  0.3065783E+006  0.2053867E+02  0.7546771E-02  0.1525954E+00
         21   -1    0    0  504  501  0.00000000000E+00  0.00000000000E+00  0.33534746955E+03  0.33534746955E+03  0.00000000000E+00 0. -1.
         21   -1    0    0  501  502 -0.00000000000E+00 -0.00000000000E+00 -0.14864927425E+01  0.14864927425E+01  0.00000000000E+00 0. -1.
         21    1    1    2  503  502  0.84729316074E+01 -0.18709524852E+02  0.10088755887E+03  0.10295696395E+03  0.00000000000E+00 0. -1.
         21    1    1    2  504  503 -0.84729316074E+01  0.18709524852E+02  0.23297341794E+03  0.23387699835E+03  0.00000000000E+00 0. -1.
</event>
<event>
 4    1  0.3065783E+006  0.2374380E+02  0.7546771E-02  0.1483364E+00
         21   -1    0    0  504  501  0.00000000000E+00  0.00000000000E+00  0.19210433493E+02  0.19210433493E+02  0.00000000000E+00 0. -1.
         21   -1    0    0  503  502 -0.00000000000E+00 -0.00000000000E+00 -0.36430607775E+02  0.36430607775E+02  0.00000000000E+00 0. -1.
         21    1    1    2  503  501  0.22658747235E+01  0.23635436785E+02  0.36575280836E+01  0.24023854228E+02  0.00000000000E+00 0. -1.
         21    1    1    2  504  502 -0.22658747235E+01 -0.23635436785E+02 -0.20877702365E+02  0.31617187040E+02  0.00000000000E+00 0. -1.
</event>
<event>
 4    1  0.3065783E+006  0.2504442E+02  0.7546771E-02  0.1468307E+00
         21   -1    0    0  504  501  0.00000000000E+00  0.00000000000E+00  0.10091265538E+03  0.10091265538E+03  0.00000000000E+00 0. -1.
         21   -1    0    0  503  502 -0.00000000000E+00 -0.00000000000E+00 -0.63129937951E+01  0.63129937951E+01  0.00000000000E+00 0. -1.
         21    1    1    2  503  501  0.11887408529E+02  0.22043428044E+02  0.53962165239E+02  0.59490658752E+02  0.00000000000E+00 0. -1.
         21    1    1    2  504  502 -0.11887408529E+02 -0.22043428044E+02  0.40637496345E+02  0.47734990422E+02  0.00000000000E+00 0. -1.
</event>
<event>
 4    1  0.3065783E+006  0.3364755E+02  0.7546771E-02  0.1390329E+00
         21   -1    0    0  504  501  0.00000000000E+00  0.00000000000E+00  0.35308904489E+03  0.35308904489E+03  0.00000000000E+00 0.  1.
         21   -1    0    0  503  502 -0.00000000000E+00 -0.00000000000E+00 -0.26919327692E+02  0.26919327692E+02  0.00000000000E+00 0.  1.
         21    1    1    2  503  501  0.33622222030E+02  0.13052343679E+01 -0.15244695338E+02  0.36939926731E+02  0.00000000000E+00 0.  1.
         21    1    1    2  504  502 -0.33622222030E+02 -0.13052343679E+01  0.34141441254E+03  0.34306844586E+03  0.00000000000E+00 0.  1.
</event>
<event>
 4    1  0.3065783E+006  0.2188006E+02  0.7546771E-02  0.1507061E+00
         21   -1    0    0  504  501  0.00000000000E+00  0.00000000000E+00  0.26944073998E+01  0.26944073998E+01  0.00000000000E+00 0.  1.
         21   -1    0    0  503  502 -0.00000000000E+00 -0.00000000000E+00 -0.19328639991E+03  0.19328639991E+03  0.00000000000E+00 0. -1.
         21    1    1    2  503  501  0.22707904072E+01  0.21761909062E+02 -0.12314186440E+03  0.12507060383E+03  0.00000000000E+00 0. -1.
         21    1    1    2  504  502 -0.22707904072E+01 -0.21761909062E+02 -0.67450128110E+02  0.70910203477E+02  0.00000000000E+00 0.  1.
</event>
<event>
 4    1  0.3065783E+006  0.3017931E+02  0.7546771E-02  0.1418044E+00
         21   -1    0    0  503  501  0.00000000000E+00  0.00000000000E+00  0.20428510408E+03  0.20428510408E+03  0.00000000000E+00 0.  1.
         21   -1    0    0  501  502 -0.00000000000E+00 -0.00000000000E+00 -0.15489510059E+02  0.15489510059E+02  0.00000000000E+00 0.  1.
         21    1    1    2  503  504  0.90934062311E+01 -0.28776743587E+02  0.18713151914E+03  0.18954945651E+03  0.00000000000E+00 0.  1.
         21    1    1    2  504  502 -0.90934062311E+01  0.28776743587E+02  0.16640748811E+01  0.30225157626E+02  0.00000000000E+00 0.  1.
</event>
<event>
 4    1  0.3065783E+006  0.2271647E+02  0.7546771E-02  0.1496089E+00
         21   -1    0    0  504  501  0.00000000000E+00  0.00000000000E+00  0.39136980635E+02  0.39136980635E+02  0.00000000000E+00 0. -1.
         21   -1    0    0  503  502 -0.00000000000E+00 -0.00000000000E+00 -0.15079076719E+02  0.15079076719E+02  0.00000000000E+00 0. -1.
         21    1    1    2  503  501 -0.12410433606E+02  0.19026806252E+02  0.21635318692E+02  0.31370770366E+02  0.00000000000E+00 0. -1.
         21    1    1    2  504  502  0.12410433606E+02 -0.19026806252E+02  0.24225852235E+01  0.22845286989E+02  0.00000000000E+00 0. -1.
</event>
<event>
 4    1  0.3065783E+006  0.3552833E+02  0.7546771E-02  0.1376886E+00
         21   -1    0    0  504  501  0.00000000000E+00  0.00000000000E+00  0.89235522082E+02  0.89235522082E+02  0.00000000000E+00 0. -1.
         21   -1    0    0  503  502 -0.00000000000E+00 -0.00000000000E+00 -0.23429762139E+02  0.23429762139E+02  0.00000000000E+00 0. -1.
         21    1    1    2  503  501 -0.24958177432E+02 -0.25285406512E+02 -0.25584298356E+01  0.35620330802E+02  0.00000000000E+00 0. -1.
         21    1    1    2  504  502  0.24958177432E+02  0.25285406512E+02  0.68364189779E+02  0.77044953419E+02  0.00000000000E+00 0. -1.
</event>
<event>
 4    1  0.3065783E+006  0.2128038E+02  0.7546771E-02  0.1515299E+00
         21   -1    0    0  502  501  0.00000000000E+00  0.00000000000E+00  0.16165007230E+02  0.16165007230E+02  0.00000000000E+00 0.  1.
         21   -1    0    0  504  502 -0.00000000000E+00 -0.00000000000E+00 -0.38953639696E+02  0.38953639696E+02  0.00000000000E+00 0. -1.
         21    1    1    2  503  501 -0.43346983110E+01  0.20834226751E+02  0.32101635507E+01  0.21521146898E+02  0.00000000000E+00 0.  1.
         21    1    1    2  504  503  0.43346983110E+01 -0.20834226751E+02 -0.25998796017E+02  0.33597500027E+02  0.00000000000E+00 0. -1.
</event>
<event>
 4    1  0.3065783E+006  0.2071730E+02  0.7546771E-02  0.1523340E+00
         21   -1    0    0  503  501  0.00000000000E+00  0.00000000000E+00  0.53622986588E+02  0.53622986588E+02  0.00000000000E+00 0.  1.
         21   -1    0    0  504  502 -0.00000000000E+00 -0.00000000000E+00 -0.17063862836E+02  0.17063862836E+02  0.00000000000E+00 0. -1.
         21    1    1    2  503  502  0.18583606317E+02 -0.91572988062E+01 -0.74733960046E+01  0.22024036710E+02  0.00000000000E+00 0. -1.
         21    1    1    2  504  501 -0.18583606317E+02  0.91572988062E+01  0.44032519756E+02  0.48662812714E+02  0.00000000000E+00 0.  1.
</event>
<event>
 4    1  0.3065783E+006  0.2178927E+02  0.7546771E-02  0.1508288E+00
         21   -1    0    0  504  501  0.00000000000E+00  0.00000000000E+00  0.22773290176E+02  0.22773290176E+02  0.00000000000E+00 0.  1.
         21   -1    0    0  503  502 -0.00000000000E+00 -0.00000000000E+00 -0.24885525249E+02  0.24885525249E+02  0.00000000000E+00 0.  1.
         21    1    1    2  503  501 -0.60846780705E+01 -0.20922451761E+02  0.85425265062E+01  0.23403996539E+02  0.00000000000E+00 0.  1.
         21    1    1    2  504  502  0.60846780705E+01  0.20922451761E+02 -0.10654761579E+02  0.24254818886E+02  0.00000000000E+00 0.  1.
</event>
<event>
 4    1  0.3065783E+006  0.2070958E+02  0.7546771E-02  0.1523452E+00
         21   -1    0    0  504  501  0.00000000000E+00  0.00000000000E+00  0.10582197869E+01  0.10582197869E+01  0.00000000000E+00 0.  1.
         21   -1    0    0  503  502 -0.00000000000E+00 -0.00000000000E+00 -0.40547850048E+03  0.40547850048E+03  0.00000000000E+00 0.  1.
         21    1    1    2  503  501 -0.19254555585E+02  0.76255480852E+01 -0.19783840233E+03  0.19891938149E+03  0.00000000000E+00 0.  1.
         21    1    1    2  504  502  0.19254555585E+02 -0.76255480852E+01 -0.20658187835E+03  0.20761733877E+03  0.00000000000E+00 0.  1.
</event>
<event>
 4    1  0.3065783E+006  0.3408030E+02  0.7546771E-02  0.1387147E+00
         21   -1    0    0  504  501  0.00000000000E+00  0.00000000000E+00  0.20459334682E+03  0.20459334682E+03  0.00000000000E+00 0. -1.
         21   -1    0    0  501  502 -0.00000000000E+00 -0.00000000000E+00 -0.57863818522E+01  0.57863818522E+01  0.00000000000E+00 0. -1.
         21    1    1    2  503  502 -0.32430904431E+02  0.10473919766E+02  0.84937805606E+02  0.91519928861E+02  0.00000000000E+00 0. -1.
         21    1    1    2  504  503  0.32430904431E+02 -0.10473919766E+02  0.11386915936E+03  0.11885979981E+03  0.00000000000E+00 0. -1.
</event>
<event>
 4    1  0.3065783E+006  0.2579094E+02  0.7546771E-02  0.1460147E+00
         21   -1    0    0  502  501  0.00000000000E+00  0.00000000000E+00  0.29057574317E+02  0.29057574317E+02  0.00000000000E+00 0. -1.
         21   -1    0    0  504  502 -0.00000000000E+00 -0.00000000000E+00 -0.76016835174E+03  0.76016835174E+03  0.00000000000E+00 0.  1.
         21    1    1    2  503  501  0.23274191427E+01 -0.25685705781E+02  0.23070515586E+02  0.34603772204E+02  0.00000000000E+00 0. -1.
         21    1    1    2  504  503 -0.23274191427E+01  0.25685705781E+02 -0.75418129300E+03  0.75462215385E+03  0.00000000000E+00 0.  1.
</event>
<event>
 4    1  0.3065783E+006  0.2304165E+02  0.7546771E-02  0.1491976E+00
         21   -1    0    0  503  501  0.00000000000E+00  0.00000000000E+00  0.41543139351E+02  0.41543139351E+02  0.00000000000E+00 0.  1.
         21   -1    0    0  504  502 -0.00000000000E+00 -0.00000000000E+00 -0.28931367256E+02  0.28931367256E+02  0.00000000000E+00 0.  1.
         21    1    1    2  503  502 -0.21348092091E+00 -0.23040663094E+02 -0.20022447882E+02  0.30525663778E+02  0.00000000000E+00 0.  1.
         21    1    1    2  504  501  0.21348092091E+00  0.23040663094E+02  0.32634219977E+02  0.39948842829E+02  0.00000000000E+00 0.  1.
</event>
<event>
 4    1  0.3065783E+006  0.2416273E+02  0.7546771E-02  0.1478392E+00
         21   -1    0    0  503  501  0.00000000000E+00  0.00000000000E+00  0.88321718095E+02  0.88321718095E+02  0.00000000000E+00 0. -1.
         21   -1    0    0  504  502 -0.00000000000E+00 -0.00000000000E+00 -0.50381115011E+02  0.50381115011E+02  0.00000000000E+00 0. -1.
         21    1    1    2  503  502  0.17959875214E+02 -0.16164177746E+02 -0.45671507372E+02  0.51669375316E+02  0.00000000000E+00 0. -1.
         21    1    1    2  504  501 -0.17959875214E+02  0.16164177746E+02  0.83612110456E+02  0.87033457790E+02  0.00000000000E+00 0. -1.
</event>
<event>
 4    1  0.3065783E+006  0.3022477E+02  0.7546771E-02  0.1417653E+00
         21   -1    0    0  504  501  0.00000000000E+00  0.00000000000E+00  0.12590126807E+02  0.12590126807E+02  0.00000000000E+00 0. -1.
         21   -1    0    0  503  502 -0.00000000000E+00 -0.00000000000E+00 -0.85658457178E+02  0.85658457178E+02  0.00000000000E+00 0. -1.
         21    1    1    2  503  501  0.63898537194E+01  0.29541609262E+02 -0.17324278714E+02  0.34837731575E+02  0.00000000000E+00 0. -1.
         21    1    1    2  504  502 -0.63898537194E+01 -0.29541609262E+02 -0.55744051657E+02  0.63410852410E+02  0.00000000000E+00 0. -1.
</event>
<event>
 4    1  0.3065783E+006  0.2068665E+02  0.7546771E-02  0.1523786E+00
         21   -1    0    0  504  501  0.00000000000E+00  0.00000000000E+00  0.18825289648E+01  0.18825289648E+01  0.00000000000E+00 0. -1.
         21   -1    0    0  503  502 -0.00000000000E+00 -0.00000000000E+00 -0.48496413235E+03  0.48496413235E+03  0.00000000000E+00 0. -1.
         21    1    1    2  503  501  0.17899765449E+02  0.10369959650E+02 -0.64114912886E+02  0.67369575631E+02  0.00000000000E+00 0. -1.
         21    1    1    2  504  502 -0.17899765449E+02 -0.10369959650E+02 -0.41896669050E+03  0.41947708568E+03  0.00000000000E+00 0. -1.
</event>
<event>
 4    1  0.3065783E+006  0.4989857E+02  0.7546771E-02  0.1298613E+00
         21   -1    0    0  503  501  0.00000000000E+00  0.00000000000E+00  0.97777775111E+02  0.97777775111E+02  0.00000000000E+00 0.  1.
         21   -1    0    0  504  502 -0.00000000000E+00 -0.00000000000E+00 -0.56473882453E+02  0.56473882453E+02  0.00000000000E+00 0.  1.
         21    1    1    2  503  502  0.38544069602E+02  0.31689458891E+02  0.77802734639E+02  0.92429068066E+02  0.00000000000E+00 0.  1.
         21    1    1    2  504  501 -0.38544069602E+02 -0.31689458891E+02 -0.36498841980E+02  0.61822589498E+02  0.00000000000E+00 0.  1.
</event>
<event>
 4    1  0.3065783E+006  0.2166724E+02  0.7546771E-02  0.1509948E+00
         21   -1    0    0  503  501  0.00000000000E+00  0.00000000000E+00  0.26343168588E+01  0.26343168588E+01  0.00000000000E+00 0. -1.
         21   -1    0    0  504  502 -0.00000000000E+00 -0.00000000000E+00 -0.25213753981E+03  0.25213753981E+03  0.00000000000E+00 0.  1.
         21    1    1    2  503  502 -0.19226001613E+02  0.99914951663E+01 -0.19372752452E+03  0.19493543257E+03  0.00000000000E+00 0.  1.
         21    1    1    2  504  501  0.19226001613E+02 -0.99914951663E+01 -0.55775698428E+02  0.59836424098E+02  0.00000000000E+00 0. -1.
</event>
<event>
 4    1  0.3065783E+006  0.2286628E+02  0.7546771E-02  0.1494184E+00
         21   -1    0    0  503  501  0.00000000000E+00  0.00000000000E+00  0.16779174091E+03  0.16779174091E+03  0.00000000000E+00 0. -1.
         21   -1    0    0  504  502 -0.00000000000E+00 -0.00000000000E+00 -0.14223210698E+02  0.14223210698E+02  0.00000000000E+00 0. -1.
         21    1    1    2  503  502 -0.17589491874E+02 -0.14610840311E+02 -0.36382241653E+01  0.23153910125E+02  0.00000000000E+00 0. -1.
         21    1    1    2  504  501  0.17589491874E+02  0.14610840311E+02  0.15720675438E+03  0.15886104148E+03  0.00000000000E+00 0. -1.
</event>
<event>
 4    1  0.3065783E+006  0.2074311E+02  0.7546771E-02  0.1522964E+00
         21   -1    0    0  504  501  0.00000000000E+00  0.00000000000E+00  0.36743037213E+02  0.36743037213E+02  0.00000000000E+00 0.  1.
         21   -1    0    0  503  502 -0.00000000000E+00 -0.00000000000E+00 -0.18718881907E+02  0.18718881907E+02  0.00000000000E+00 0.  1.
         21    1    1    2  503  501  0.17060871130E+01 -0.20672825970E+02 -0.79561407581E+01  0.22216584855E+02  0.00000000000E+00 0.  1.
         21    1    1    2  504  502 -0.17060871130E+01  0.20672825970E+02  0.25980296065E+02  0.33245334266E+02  0.00000000000E+00 0.  1.
</event>
<event>
 4    1  0.3065783E+006  0.2839084E+02  0.7546771E-02  0.1434116E+00
         21   -1    0    0  502  501  0.00000000000E+00  0.00000000000E+00  0.21292550259E+02  0.21292550259E+02  0.00000000000E+00 0.  1.
         21   -1    0    0  503  502 -0.00000000000E+00 -0.00000000000E+00 -0.73094744327E+02  0.73094744327E+02  0.00000000000E+00 0. -1.
         21    1    1    2  503  504 -0.61783912755E+01 -0.27710413340E+02 -0.58669398974E+02  0.65177740850E+02  0.00000000000E+00 0. -1.
         21    1    1    2  504  501  0.61783912755E+01  0.27710413340E+02  0.68672049060E+01  0.29209553736E+02  0.00000000000E+00 0.  1.
</event>
<event>
 4    1  0.3065783E+006  0.2771475E+02  0.7546771E-02  0.1440557E+00
         21   -1    0    0  503  501  0.00000000000E+00  0.00000000000E+00  0.47439263220E+01  0.47439263220E+01  0.00000000000E+00 0. -1.
         21   -1    0    0  501  502 -0.00000000000E+00 -0.00000000000E+00 -0.17201838033E+03  0.17201838033E+03  0.00000000000E+00 0. -1.
         21    1    1    2  503  504  0.25840633165E+02 -0.10018446622E+02 -0.62216741698E+02  0.68110429029E+02  0.00000000000E+00 0. -1.
         21    1    1    2  504  502 -0.25840633165E+02  0.10018446622E+02 -0.10505771231E+03  0.10865187763E+03  0.00000000000E+00 0. -1.
</event>
<event>
 4    1  0.3065783E+006  0.2366303E+02  0.7546771E-02  0.1484336E+00
         21   -1    0    0  504  501  0.00000000000E+00  0.00000000000E+00  0.59969568666E+02  0.59969568666E+02  0.00000000000E+00 0.  1.
         21   -1    0    0  503  502 -0.00000000000E+00 -0.00000000000E+00 -0.11179000108E+02  0.11179000108E+02  0.00000000000E+00 0.  1.
         21    1    1    2  503  501 -0.21685987076E+02  0.94687354853E+01  0.38835489850E+02  0.45476744156E+02  0.00000000000E+00 0.  1.
         21    1    1    2  504  502  0.21685987076E+02 -0.94687354853E+01  0.99550787085E+01  0.25671824618E+02  0.00000000000E+00 0.  1.
</event>
<event>
 4    1  0.3065783E+006  0.2038222E+02  0.7546771E-02  0.1528271E+00
         21   -1    0    0  502  501  0.00000000000E+00  0.00000000000E+00  0.42710086941E+03  0.42710086941E+03  0.00000000000E+00 0. -1.
         21   -1    0    0  503  502 -0.00000000000E+00 -0.00000000000E+00 -0.90746971678E+01  0.90746971678E+01  0.00000000000E+00 0. -1.
         21    1    1    2  503  504  0.13429332824E+01  0.20337930726E+02  0.29445456056E+01  0.20593815694E+02  0.00000000000E+00 0. -1.
         21    1    1    2  504  501 -0.13429332824E+01 -0.20337930726E+02  0.41508162664E+03  0.41558175089E+03  0.00000000000E+00 0. -1.
</event>
<event>
 4    1  0.3065783E+006  0.2171421E+02  0.7546771E-02  0.1509307E+00
         21   -1    0    0  502  501  0.00000000000E+00  0.00000000000E+00  0.53954917364E+02  0.53954917364E+02  0.00000000000E+00 0. -1.
         21   -1    0    0  504  502 -0.00000000000E+00 -0.00000000000E+00 -0.16185815858E+03  0.16185815858E+03  0.00000000000E+00 0.  1.
         21    1    1    2  503  501 -0.90871268805E+01  0.19721331377E+02  0.51001502388E+02  0.55431579736E+02  0.00000000000E+00 0. -1.
         21    1    1    2  504  503  0.90871268805E+01 -0.19721331377E+02 -0.15890474361E+03  0.16038149621E+03  0.00000000000E+00 0.  1.
</event>
<event>
 4    1  0.3065783E+006  0.2667355E+02  0.7546771E-02  0.1450915E+00
         21   -1    0    0  504  501  0.00000000000E+00  0.00000000000E+00  0.30831969183E+02  0.30831969183E+02  0.00000000000E+00 0.  1.
         21   -1    0    0  503  502 -0.00000000000E+00 -0.00000000000E+00 -0.24644238473E+03  0.24644238473E+03  0.00000000000E+00 0. -1.
         21    1    1    2  503  501 -0.25818071057E+02 -0.67011699066E+01  0.24181718202E+02  0.36003249387E+02  0.00000000000E+00 0.  1.
         21    1    1    2  504  502  0.25818071057E+02  0.67011699066E+01 -0.23979213375E+03  0.24127110453E+03  0.00000000000E+00 0. -1.
</event>
<event>
 4    1  0.3065783E+006  0.2045184E+02  0.7546771E-02  0.1527237E+00
         21   -1    0    0  504  501  0.00000000000E+00  0.00000000000E+00  0.19793519204E+02  0.19793519204E+02  0.00000000000E+00 0.  1.
         21   -1    0    0  503  502 -0.00000000000E+00 -0.00000000000E+00 -0.57759009908E+03  0.57759009908E+03  0.00000000000E+00 0.  1.
         21    1    1    2  503  501  0.19483971811E+02  0.62171122367E+01 -0.57207512869E+03  0.57244059124E+03  0.00000000000E+00 0.  1.
         21    1    1    2  504  502 -0.19483971811E+02 -0.62171122367E+01  0.14278548806E+02  0.24943027044E+02  0.00000000000E+00 0.  1.
</event>
<event>
 4    1  0.3065783E+006  0.2910380E+02  0.7546771E-02  0.1427548E+00
         21   -1    0    0  502  501  0.00000000000E+00  0.00000000000E+00  0.29665467166E+02  0.29665467166E+02  0.00000000000E+00 0. -1.
         21   -1    0    0  504  502 -0.00000000000E+00 -0.00000000000E+00 -0.10534027890E+03  0.10534027890E+03  0.00000000000E+00 0.  1.
         21    1    1    2  503  501 -0.20314826916E+02 -0.20840794520E+02  0.19795477585E+02  0.35197895415E+02  0.00000000000E+00 0. -1.
         21    1    1    2  504  503  0.20314826916E+02  0.20840794520E+02 -0.95470289316E+02  0.99807850648E+02  0.00000000000E+00 0.  1.
</event>
<event>
 4    1  0.3065783E+006  0.2592578E+02  0.7546771E-02  0.1458708E+00
         21   -1    0    0  503  501  0.00000000000E+00  0.00000000000E+00  0.10313027691E+04  0.10313027691E+04  0.00000000000E+00 0. -1.
         21   -1    0    0  501  502 -0.00000000000E+00 -0.00000000000E+00 -0.13845060062E+01  0.13845060062E+01  0.00000000000E+00 0.  1.
         21    1    1    2  503  504  0.96901444378E+01 -0.24046773611E+02  0.89059983173E+03  0.89097710773E+03  0.00000000000E+00 0. -1.
         21    1    1    2  504  502 -0.96901444378E+01  0.24046773611E+02  0.13931843136E+03  0.14171016738E+03  0.00000000000E+00 0.  1.
</event>
<event>
 4    1  0.3065783E+006  0.2408135E+02  0.7546771E-02  0.1479348E+00
         21   -1    0    0  503  501  0.00000000000E+00  0.00000000000E+00  0.55533303448E+01  0.55533303448E+01  0.00000000000E+00 0. -1.
         21   -1    0    0  504  502 -0.00000000000E+00 -0.00000000000E+00 -0.10666218750E+03  0.10666218750E+03  0.00000000000E+00 0.  1.
         21    1    1    2  503  502 -0.18997657296E+02  0.14798659077E+02 -0.42430137978E+02  0.48787579383E+02  0.00000000000E+00 0. -1.
         21    1    1    2  504  501  0.18997657296E+02 -0.14798659077E+02 -0.58678719173E+02  0.63427938457E+02  0.00000000000E+00 0.  1.
</event>
<event>
 4    1  0.3065783E+006  0.4357061E+02  0.7546771E-02  0.1328743E+00
         21   -1    0    0  502  501  0.00000000000E+00  0.00000000000E+00  0.17068267814E+03  0.17068267814E+03  0.00000000000E+00 0. -1.
         21   -1    0    0  503  502 -0.00000000000E+00 -0.00000000000E+00 -0.14342060587E+02  0.14342060587E+02  0.00000000000E+00 0. -1.
         21    1    1    2  503  504 -0.36596250957E+02  0.23645562916E+02  0.34337411724E+02  0.55474823782E+02  0.00000000000E+00 0. -1.
         21    1    1    2  504  501  0.36596250957E+02 -0.23645562916E+02  0.12200320583E+03  0.12954991495E+03  0.00000000000E+00 0. -1.
</event>
<event>
 4    1  0.3065783E+006  0.2760781E+02  0.7546771E-02  0.1441596E+00
         21   -1    0    0  504  501  0.00000000000E+00  0.00000000000E+00  0.30146160519E+02  0.30146160519E+02  0.00000000000E+00 0.  1.
         21   -1    0    0  501  502 -0.00000000000E+00 -0.00000000000E+00 -0.20165314818E+03  0.20165314818E+03  0.00000000000E+00 0.  1.
         21    1    1    2  503  502 -0.14022988237E+02  0.23781231099E+02 -0.19414417399E+03  0.19609730097E+03  0.00000000000E+00 0.  1.
         21    1    1    2  504  503  0.14022988237E+02 -0.23781231099E+02  0.22637186326E+02  0.35702007737E+02  0.00000000000E+00 0.  1.
</event>
<event>
 4    1  0.3065783E+006  0.2114052E+02  0.7546771E-02  0.1517268E+00
         21   -1    0    0  502  501  0.00000000000E+00  0.00000000000E+00  0.97887016313E+03  0.97887016313E+03  0.00000000000E+00 0. -1.
         21   -1    0    0  503  502 -0.00000000000E+00 -0.00000000000E+00 -0.58494998675E+00  0.58494998675E+00  0.00000000000E+00 0.  1.
         21    1    1    2  503  504  0.54086204682E+01  0.20436932810E+02  0.25971473593E+03  0.26057372365E+03  0.00000000000E+00 0.  1.
         21    1    1    2  504  501 -0.54086204682E+01 -0.20436932810E+02  0.71857047721E+03  0.71888138947E+03  0.00000000000E+00 0. -1.
</event>
<event>
 4    1  0.3065783E+006  0.2890500E+02  0.7546771E-02  0.1429357E+00
         21   -1    0    0  504  501  0.00000000000E+00  0.00000000000E+00  0.19471458816E+02  0.19471458816E+02  0.00000000000E+00 0. -1.
         21   -1    0    0  503  502 -0.00000000000E+00 -0.00000000000E+00 -0.13131445660E+03  0.13131445660E+03  0.00000000000E+00 0. -1.
         21    1    1    2  503  501  0.85598386820E+01  0.27608475164E+02 -0.11778212480E+03  0.12127706981E+03  0.00000000000E+00 0. -1.
         21    1    1    2  504  502 -0.85598386820E+01 -0.27608475164E+02  0.59391270188E+01  0.29508845604E+02  0.00000000000E+00 0. -1.
</event>
<event>
 4    1  0.3065783E+006  0.2689155E+02  0.7546771E-02  0.1448701E+00
         21   -1    0    0  502  501  0.00000000000E+00  0.00000000000E+00  0.42156993095E+03  0.42156993095E+03  0.00000000000E+00 0.  1.
         21   -1    0    0  504  502 -0.00000000000E+00 -0.00000000000E+00 -0.33926934524E+01  0.33926934524E+01  0.00000000000E+00 0.  1.
         21    1    1    2  503  501 -0.21538544024E+02 -0.16101141937E+02  0.35849000128E+03  0.35949719981E+03  0.00000000000E+00 0.  1.
         21    1    1    2  504  503  0.21538544024E+02  0.16101141937E+02  0.59687236219E+02  0.65465424598E+02  0.00000000000E+00 0.  1.
</event>
<event>
 4    1  0.3065783E+006  0.5733265E+02  0.7546771E-02  0.1269175E+00
         21   -1    0    0  503  501  0.00000000000E+00  0.00000000000E+00  0.98966937289E+02  0.98966937289E+02  0.00000000000E+00 0.  1.
         21   -1    0    0  501  502 -0.00000000000E+00 -0.00000000000E+00 -0.52078286691E+02  0.52078286691E+02  0.00000000000E+00 0. -1.
         21    1    1    2  503  504  0.48610050114E+02  0.30398946179E+02  0.68898653515E+02  0.89632903317E+02  0.00000000000E+00 0.  1.
         21    1    1    2  504  502 -0.48610050114E+02 -0.30398946179E+02 -0.22010002917E+02  0.61412320664E+02  0.00000000000E+00 0. -1.
</event>
<event>
 4    1  0.3065783E+006  0.3613257E+02  0.7546771E-02  0.1372771E+00
         21   -1    0    0  503  501  0.00000000000E+00  0.00000000000E+00  0.82218922534E+01  0.82218922534E+01  0.00000000000E+00 0.  1.
         21   -1    0    0  504  502 -0.00000000000E+00 -0.00000000000E+00 -0.15890249466E+03  0.15890249466E+03  0.00000000000E+00 0.  1.
         21    1    1    2  503  502 -0.24873123442E+02 -0.26208593237E+02 -0.77553595597E+02  0.85557716304E+02  0.00000000000E+00 0.  1.
         21    1    1    2  504  501  0.24873123442E+02  0.26208593237E+02 -0.73127006806E+02  0.81566670605E+02  0.00000000000E+00 0.  1.
</event>
<event>
 4    1  0.3065783E+006  0.4372029E+02  0.7546771E-02  0.1327964E+00
         21   -1    0    0  503  501  0.00000000000E+00  0.00000000000E+00  0.24073761582E+02  0.24073761582E+02  0.00000000000E+00 0.  1.
         21   -1    0    0  501  502 -0.00000000000E+00 -0.00000000000E+00 -0.14086247467E+03  0.14086247467E+03  0.00000000000E+00 0.  1.
         21    1    1    2  503  504  0.14565599425E+02 -0.41222653205E+02 -0.39199636737E+01  0.43895671075E+02  0.00000000000E+00 0.  1.
         21    1    1    2  504  502 -0.14565599425E+02  0.41222653205E+02 -0.11286874942E+03  0.12104056518E+03  0.00000000000E+00 0.  1.
</event>
<event>
 4    1  0.3065783E+006  0.3166835E+02  0.7546771E-02  0.1405632E+00
         21   -1    0    0  503  501  0.00000000000E+00  0.00000000000E+00  0.22050981513E+02  0.22050981513E+02  0.00000000000E+00 0.  1.
         21   -1    0    0  504  502 -0.00000000000E+00 -0.00000000000E+00 -0.51005089162E+02  0.51005089162E+02  0.00000000000E+00 0.  1.
         21    1    1    2  503  502 -0.22865195532E+02  0.21910432105E+02 -0.26499124858E+02  0.41292709041E+02  0.00000000000E+00 0.  1.
         21    1    1    2  504  501  0.22865195532E+02 -0.21910432105E+02 -0.24549827907E+01  0.31763361633E+02  0.00000000000E+00 0.  1.
</event>
<event>
 4    1  0.3065783E+006  0.2010847E+02  0.7546771E-02  0.1532384E+00
         21   -1    0    0  503  501  0.00000000000E+00  0.00000000000E+00  0.25487764002E+01  0.25487764002E+01  0.00000000000E+00 0.  1.
         21   -1    0    0  504  502 -0.00000000000E+00 -0.00000000000E+00 -0.16738207654E+03  0.16738207654E+03  0.00000000000E+00 0. -1.
         21    1    1    2  503  502 -0.49647924893E+01 -0.19485927426E+02 -0.63004581800E+02  0.66135677663E+02  0.00000000000E+00 0.  1.
         21    1    1    2  504  501  0.49647924893E+01  0.19485927426E+02 -0.10182871834E+03  0.10379517527E+03  0.00000000000E+00 0. -1.
</event>
<event>
 4    1  0.3065783E+006  0.2142977E+02  0.7546771E-02  0.1513216E+00
         21   -1    0    0  502  501  0.00000000000E+00  0.00000000000E+00  0.36259440774E+03  0.36259440774E+03  0.00000000000E+00 0. -1.
         21   -1    0    0  503  502 -0.00000000000E+00 -0.00000000000E+00 -0.19478416368E+01  0.19478416368E+01  0.00000000000E+00 0.  1.
         21    1    1    2  503  504 -0.20108525789E+02  0.74082550028E+01  0.72524117529E+02  0.75623955695E+02  0.00000000000E+00 0.  1.
         21    1    1    2  504  501  0.20108525789E+02 -0.74082550028E+01  0.28812244858E+03  0.28891829368E+03  0.00000000000E+00 0. -1.
</event>
<event>
 4    1  0.3065783E+006  0.2207321E+02  0.7546771E-02  0.1504476E+00
         21   -1    0    0  503  501  0.00000000000E+00  0.00000000000E+00  0.12886290141E+01  0.12886290141E+01  0.00000000000E+00 0.  1.
         21   -1    0    0  504  502 -0.00000000000E+00 -0.00000000000E+00 -0.38938589021E+03  0.38938589021E+03  0.00000000000E+00 0. -1.
         21    1    1    2  503  502  0.21580418927E+02 -0.46381192873E+01 -0.16078860402E+03  0.16229664757E+03  0.00000000000E+00 0.  1.
         21    1    1    2  504  501 -0.21580418927E+02  0.46381192873E+01 -0.22730865718E+03  0.22837787165E+03  0.00000000000E+00 0. -1.
</event>
<event>
 4    1  0.3065783E+006  0.2360592E+02  0.7546771E-02  0.1485027E+00
         21   -1    0    0  503  501  0.00000000000E+00  0.00000000000E+00  0.98665060016E+01  0.98665060016E+01  0.00000000000E+00 0.  1.
         21   -1    0    0  501  502 -0.00000000000E+00 -0.00000000000E+00 -0.17994768611E+03  0.17994768611E+03  0.00000000000E+00 0. -1.
         21    1    1    2  503  504  0.92170015856E+01  0.21732145836E+02 -0.64254946421E+01  0.24464796387E+02  0.00000000000E+00 0.  1.
         21    1    1    2  504  502 -0.92170015856E+01 -0.21732145836E+02 -0.16365568546E+03  0.16534939572E+03  0.00000000000E+00 0. -1.
</event>
<event>
 4    1  0.3065783E+006  0.2013567E+02  0.7546771E-02  0.1531972E+00
         21   -1    0    0  502  501  0.00000000000E+00  0.00000000000E+00  0.67278178868E+02  0.67278178868E+02  0.00000000000E+00 0.  1.
         21   -1    0    0  504  502 -0.00000000000E+00 -0.00000000000E+00 -0.14574099207E+02  0.14574099207E+02  0.00000000000E+00 0.  1.
         21    1    1    2  503  501  0.10017106645E+02  0.17467191068E+02  0.57694605218E+02  0.61107386302E+02  0.00000000000E+00 0.  1.
         21    1    1    2  504  503 -0.10017106645E+02 -0.17467191068E+02 -0.49905255576E+01  0.20744891773E+02  0.00000000000E+00 0.  1.
</event>
<event>
 4    1  0.3065783E+006  0.2312438E+02  0.7546771E-02  0.1490942E+00
         21   -1    0    0  503  501  0.00000000000E+00  0.00000000000E+00  0.11411511643E+02  0.11411511643E+02  0.00000000000E+00 0.  1.
         21   -1    0    0  504  502 -0.00000000000E+00 -0.00000000000E+00 -0.62757674709E+02  0.62757674709E+02  0.00000000000E+00 0.  1.
         21    1    1    2  503  502 -0.20020027137E+02  0.11573057475E+02 -0.44338358075E+02  0.50006271033E+02  0.00000000000E+00 0.  1.
         21    1    1    2  504  501  0.20020027137E+02 -0.11573057475E+02 -0.70078049917E+01  0.24162915318E+02  0.00000000000E+00 0.  1.
</event>
<event>
 4    1  0.3065783E+006  0.2960584E+02  0.7546771E-02  0.1423053E+00
         21   -1    0    0  504  501  0.00000000000E+00  0.00000000000E+00  0.70224425670E+03  0.70224425670E+03  0.00000000000E+00 0.  1.
         21   -1    0    0  501  502 -0.00000000000E+00 -0.00000000000E+00 -0.42751324216E+01  0.42751324216E+01  0.00000000000E+00 0.  1.
         21    1    1    2  503  502 -0.83879940532E+01  0.28392735563E+02  0.51732906224E+02  0.59605364384E+02  0.00000000000E+00 0.  1.
         21    1    1    2  504  503  0.83879940532E+01 -0.28392735563E+02  0.64623621806E+03  0.64691402474E+03  0.00000000000E+00 0.  1.
</event>
<event>
 4    1  0.3065783E+006  0.3408624E+02  0.7546771E-02  0.1387103E+00
         21   -1    0    0  504  501  0.00000000000E+00  0.00000000000E+00  0.56450777221E+02  0.56450777221E+02  0.00000000000E+00 0. -1.
         21   -1    0    0  501  502 -0.00000000000E+00 -0.00000000000E+00 -0.92233532262E+02  0.92233532262E+02  0.00000000000E+00 0. -1.
         21    1    1    2  503  502  0.26905423510E+02 -0.20927726164E+02 -0.83415826440E+02  0.90111440102E+02  0.00000000000E+00 0. -1.
         21    1    1    2  504  503 -0.26905423510E+02  0.20927726164E+02  0.47633071398E+02  0.58572869381E+02  0.00000000000E+00 0. -1.
</event>
<event>
 4    1  0.3065783E+006  0.2232574E+02  0.7546771E-02  0.1501143E+00
         21   -1    0    0  503  501  0.00000000000E+00  0.00000000000E+00  0.46632449229E+02  0.46632449229E+02  0.00000000000E+00 0. -1.
         21   -1    0    0  501  502 -0.00000000000E+00 -0.00000000000E+00 -0.66198410940E+02  0.66198410940E+02  0.00000000000E+00 0.  1.
         21    1    1    2  503  504  0.21182329600E+02 -0.70531892041E+01  0.41877535910E+02  0.47456997157E+02  0.00000000000E+00 0. -1.
         21    1    1    2  504  502 -0.21182329600E+02  0.70531892041E+01 -0.61443497621E+02  0.65373863012E+02  0.00000000000E+00 0.  1.
</event>
<event>
 4    1  0.3065783E+006  0.2070025E+02  0.7546771E-02  0.1523588E+00
         21   -1    0    0  502  501  0.00000000000E+00  0.00000000000E+00  0.52103912027E+01  0.52103912027E+01  0.00000000000E+00 0.  1.
         21   -1    0    0  504  502 -0.00000000000E+00 -0.00000000000E+00 -0.13303512839E+04  0.13303512839E+04  0.00000000000E+00 0.  1.
         21    1    1    2  503  501 -0.11184772776E+02 -0.17418410605E+02 -0.15759261913E+02  0.26016427620E+02  0.00000000000E+00 0.  1.
         21    1    1    2  504  503  0.11184772776E+02  0.17418410605E+02 -0.13093816308E+04  0.13095452475E+04  0.00000000000E+00 0.  1.
</event>
<event>
 4    1  0.3065783E+006  0.7973702E+02  0.7546771E-02  0.1204459E+00
         21   -1    0    0  503  501  0.00000000000E+00  0.00000000000E+00  0.13914847076E+03  0.13914847076E+03  0.00000000000E+00 0. -1.
         21   -1    0    0  504  502 -0.00000000000E+00 -0.00000000000E+00 -0.12124120953E+03  0.12124120953E+03  0.00000000000E+00 0. -1.
         21    1    1    2  503  502 -0.42788191055E+02  0.67284196948E+02  0.11172761195E+03  0.13726271061E+03  0.00000000000E+00 0. -1.
         21    1    1    2  504  501  0.42788191055E+02 -0.67284196948E+02 -0.93820350723E+02  0.12312696968E+03  0.00000000000E+00 0. -1.
</event>
<event>
 4    1  0.3065783E+006  0.2509848E+02  0.7546771E-02  0.1467705E+00
         21   -1    0    0  502  501  0.00000000000E+00  0.00000000000E+00  0.21879874088E+01  0.21879874088E+01  0.00000000000E+00 0. -1.
         21   -1    0    0  503  502 -0.00000000000E+00 -0.00000000000E+00 -0.31761652552E+03  0.31761652552E+03  0.00000000000E+00 0.  1.
         21    1    1    2  503  504  0.23804449908E+02  0.79549752240E+01 -0.20662029173E+03  0.20813908431E+03  0.00000000000E+00 0. -1.
         21    1    1    2  504  501 -0.23804449908E+02 -0.79549752240E+01 -0.10880824638E+03  0.11166542861E+03  0.00000000000E+00 0.  1.
</event>
<event>
 4    1  0.3065783E+006  0.2362757E+02  0.7546771E-02  0.1484765E+00
         21   -1    0    0  504  501  0.00000000000E+00  0.00000000000E+00  0.64236989867E+02  0.64236989867E+02  0.00000000000E+00 0. -1.
         21   -1    0    0  503  502 -0.00000000000E+00 -0.00000000000E+00 -0.16265839803E+03  0.16265839803E+03  0.00000000000E+00 0.  1.
         21    1    1    2  503  501  0.18054882376E+01 -0.23558483201E+02  0.61164695805E+02  0.65569672345E+02  0.00000000000E+00 0. -1.
         21    1    1    2  504  502 -0.18054882376E+01  0.23558483201E+02 -0.15958610397E+03  0.16132571556E+03  0.00000000000E+00 0.  1.
</event>
<event>
 4    1  0.3065783E+006  0.2425361E+02  0.7546771E-02  0.1477329E+00
         21   -1    0    0  503  501  0.00000000000E+00  0.00000000000E+00  0.31412606618E+03  0.31412606618E+03  0.00000000000E+00 0.  1.
         21   -1    0    0  504  502 -0.00000000000E+00 -0.00000000000E+00 -0.65287520059E+01  0.65287520059E+01  0.00000000000E+00 0. -1.
         21    1    1    2  503  502  0.18593413035E+02  0.15573134598E+02  0.28919455673E+03  0.29020980199E+03  0.00000000000E+00 0.  1.
         21    1    1    2  504  501 -0.18593413035E+02 -0.15573134598E+02  0.18402757442E+02  0.30445016193E+02  0.00000000000E+00 0. -1.
</event>
<event>
 4    1  0.3065783E+006  0.2079743E+02  0.7546771E-02  0.1522177E+00
         21   -1    0    0  504  501  0.00000000000E+00  0.00000000000E+00  0.52232517406E+02  0.52232517406E+02  0.00000000000E+00 0.  1.
         21   -1    0    0  501  502 -0.00000000000E+00 -0.00000000000E+00 -0.32294538579E+02  0.32294538579E+02  0.00000000000E+00 0.  1.
         21    1    1    2  503  502  0.12598793843E+02 -0.16547006616E+02 -0.26475347706E+02  0.33667151207E+02  0.00000000000E+00 0.  1.
         21    1    1    2  504  503 -0.12598793843E+02  0.16547006616E+02  0.46413326533E+02  0.50859904779E+02  0.00000000000E+00 0.  1.
</event>
<event>
 4    1  0.3065783E+006  0.2137201E+02  0.7546771E-02  0.1514019E+00
         21   -1    0    0  503  501  0.00000000000E+00  0.00000000000E+00  0.82205551728E+01  0.82205551728E+01  0.00000000000E+00 0.  1.
         21   -1    0    0  504  502 -0.00000000000E+00 -0.00000000000E+00 -0.56778698769E+02  0.56778698769E+02  0.00000000000E+00 0. -1.
         21    1    1    2  503  502 -0.19125433132E+02  0.95383725597E+01 -0.29033638263E+02  0.36051558834E+02  0.00000000000E+00 0. -1.
         21    1    1    2  504  501  0.19125433132E+02 -0.95383725597E+01 -0.19524505333E+02  0.28947695108E+02  0.00000000000E+00 0.  1.
</event>
<event>
 4    1  0.3065783E+006  0.2174684E+02  0.7546771E-02  0.1508863E+00
         21   -1    0    0  503  501  0.00000000000E+00  0.00000000000E+00  0.97249733528E+02  0.97249733528E+02  0.00000000000E+00 0. -1.
         21   -1    0    0  504  502 -0.00000000000E+00 -0.00000000000E+00 -0.24225305246E+02  0.24225305246E+02  0.00000000000E+00 0.  1.
         21    1    1    2  503  502  0.19443312484E+02 -0.97407835884E+01  0.90812357317E+02  0.93379920255E+02  0.00000000000E+00 0. -1.
         21    1    1    2  504  501 -0.19443312484E+02  0.97407835884E+01 -0.17787929035E+02  0.28095118519E+02  0.00000000000E+00 0.  1.
</event>
<event>
 4    1  0.3065783E+006  0.2030991E+02  0.7546771E-02  0.1529350E+00
         21   -1    0    0  502  501  0.00000000000E+00  0.00000000000E+00  0.25935685238E+01  0.25935685238E+01  0.00000000000E+00 0.  1.
         21   -1    0    0  503  502 -0.00000000000E+00 -0.00000000000E+00 -0.17747373428E+03  0.17747373428E+03  0.00000000000E+00 0. -1.
         21    1    1    2  503  504  0.11704589101E+02  0.16598039572E+02 -0.11645315187E+03  0.11821095086E+03  0.00000000000E+00 0. -1.
         21    1    1    2  504  501 -0.11704589101E+02 -0.16598039572E+02 -0.58427013884E+02  0.61856351938E+02  0.00000000000E+00 0.  1.
</event>
<event>
 4    1  0.3065783E+006  0.2142592E+02  0.7546771E-02  0.1513270E+00
         21   -1    0    0  503  501  0.00000000000E+00  0.00000000000E+00  0.42454849770E+01  0.42454849770E+01  0.00000000000E+00 0. -1.
         21   -1    0    0  504  502 -0.00000000000E+00 -0.00000000000E+00 -0.21026214434E+03  0.21026214434E+03  0.00000000000E+00 0.  1.
         21    1    1    2  503  502  0.10375932660E+01  0.21400779372E+02 -0.17775822522E+03  0.17904484519E+03  0.00000000000E+00 0.  1.
         21    1    1    2  504  501 -0.10375932660E+01 -0.21400779372E+02 -0.28258434147E+02  0.35462784126E+02  0.00000000000E+00 0. -1.
</event>
<event>
 4    1  0.3065783E+006  0.2476262E+02  0.7546771E-02  0.1471477E+00
         21   -1    0    0  503  501  0.00000000000E+00  0.00000000000E+00  0.21572734131E+02  0.21572734131E+02  0.00000000000E+00 0. -1.
         21   -1    0    0  504  502 -0.00000000000E+00 -0.00000000000E+00 -0.29209534321E+02  0.29209534321E+02  0.00000000000E+00 0. -1.
         21    1    1    2  503  502  0.20415704067E+02  0.14013794563E+02  0.34502642329E+00  0.24765024810E+02  0.00000000000E+00 0. -1.
         21    1    1    2  504  501 -0.20415704067E+02 -0.14013794563E+02 -0.79818266129E+01  0.26017243642E+02  0.00000000000E+00 0. -1.
</event>
<event>
 4    1  0.3065783E+006  0.2080475E+02  0.7546771E-02  0.1522071E+00
         21   -1    0    0  504  501  0.00000000000E+00  0.00000000000E+00  0.98257446935E+02  0.98257446935E+02  0.00000000000E+00 0. -1.
         21   -1    0    0  503  502 -0.00000000000E+00 -0.00000000000E+00 -0.99141341211E+01  0.99141341211E+01  0.00000000000E+00 0. -1.
         21    1    1    2  503  501  0.19643247452E+02  0.68542296825E+01  0.38543033786E+01  0.21158763895E+02  0.00000000000E+00 0. -1.
         21    1    1    2  504  502 -0.19643247452E+02 -0.68542296825E+01  0.84489009436E+02  0.87012817162E+02  0.00000000000E+00 0. -1.
</event>
<event>
 4    1  0.3065783E+006  0.2595618E+02  0.7546771E-02  0.1458385E+00
         21   -1    0    0  504  501  0.00000000000E+00  0.00000000000E+00  0.31060163558E+03  0.31060163558E+03  0.00000000000E+00 0.  1.
         21   -1    0    0  503  502 -0.00000000000E+00 -0.00000000000E+00 -0.33782487877E+01  0.33782487877E+01  0.00000000000E+00 0.  1.
         21    1    1    2  503  501  0.15816840685E+02 -0.20580354047E+02  0.59689682540E+02  0.65089028443E+02  0.00000000000E+00 0.  1.
         21    1    1    2  504  502 -0.15816840685E+02  0.20580354047E+02  0.24753370425E+03  0.24889085592E+03  0.00000000000E+00 0.  1.
</event>
<event>
 4    1  0.3065783E+006  0.2006355E+02  0.7546771E-02  0.1533066E+00
         21   -1    0    0  504  501  0.00000000000E+00  0.00000000000E+00  0.48739272776E+01  0.48739272776E+01  0.00000000000E+00 0. -1.
         21   -1    0    0  503  502 -0.00000000000E+00 -0.00000000000E+00 -0.11913138220E+03  0.11913138220E+03  0.00000000000E+00 0.  1.
         21    1    1    2  503  501  0.16078990646E+02  0.12000511092E+02 -0.91467063922E+02  0.93641710734E+02  0.00000000000E+00 0.  1.
         21    1    1    2  504  502 -0.16078990646E+02 -0.12000511092E+02 -0.22790390996E+02  0.30363598739E+02  0.00000000000E+00 0. -1.
</event>
<event>
 4    1  0.3065783E+006  0.2156017E+02  0.7546771E-02  0.1511415E+00
         21   -1    0    0  503  501  0.00000000000E+00  0.00000000000E+00  0.42052212067E+02  0.42052212067E+02  0.00000000000E+00 0. -1.
         21   -1    0    0  504  502 -0.00000000000E+00 -0.00000000000E+00 -0.84931999827E+02  0.84931999827E+02  0.00000000000E+00 0.  1.
         21    1    1    2  503  502  0.11159884794E+02  0.18447165686E+02  0.37776494381E+02  0.43496028303E+02  0.00000000000E+00 0. -1.
         21    1    1    2  504  501 -0.11159884794E+02 -0.18447165686E+02 -0.80656282141E+02  0.83488183591E+02  0.00000000000E+00 0.  1.
</event>
<event>
 4    1  0.3065783E+006  0.3993435E+02  0.7546771E-02  0.1348871E+00
         21   -1    0    0  503  501  0.00000000000E+00  0.00000000000E+00  0.35045112461E+02  0.35045112461E+02  0.00000000000E+00 0.  1.
         21   -1    0    0  504  502 -0.00000000000E+00 -0.00000000000E+00 -0.28894481641E+03  0.28894481641E+03  0.00000000000E+00 0. -1.
         21    1    1    2  503  502  0.12310103416E+02 -0.37989651655E+02 -0.27564241412E+03  0.27852018372E+03  0.00000000000E+00 0. -1.
         21    1    1    2  504  501 -0.12310103416E+02  0.37989651655E+02  0.21742710166E+02  0.45469745154E+02  0.00000000000E+00 0.  1.
</event>
<event>
 4    1  0.3065783E+006  0.6136380E+02  0.7546771E-02  0.1255268E+00
         21   -1    0    0  504  501  0.00000000000E+00  0.00000000000E+00  0.89658987326E+03  0.89658987326E+03  0.00000000000E+00 0.  1.
         21   -1    0    0  503  502 -0.00000000000E+00 -0.00000000000E+00 -0.20693034037E+02  0.20693034037E+02  0.00000000000E+00 0. -1.
         21    1    1    2  503  501 -0.22069733005E+02 -0.57257693244E+02  0.84741066135E+03  0.84962953428E+03  0.00000000000E+00 0.  1.
         21    1    1    2  504  502  0.22069733005E+02  0.57257693244E+02  0.28486177869E+02  0.67653373014E+02  0.00000000000E+00 0. -1.
</event>
<event>
 4    1  0.3065783E+006  0.2155243E+02  0.7546771E-02  0.1511522E+00
         21   -1    0    0  504  501  0.00000000000E+00  0.00000000000E+00  0.11847673145E+02  0.11847673145E+02  0.00000000000E+00 0.  1.
         21   -1    0    0  503  502 -0.00000000000E+00 -0.00000000000E+00 -0.22776393934E+03  0.22776393934E+03  0.00000000000E+00 0.  1.
         21    1    1    2  503  501  0.20213943315E+02  0.74768734857E+01 -0.21696581104E+03  0.21803364488E+03  0.00000000000E+00 0.  1.
         21    1    1    2  504  502 -0.20213943315E+02 -0.74768734857E+01  0.10495448433E+01  0.21577967602E+02  0.00000000000E+00 0.  1.
</event>
<event>
 4    1  0.3065783E+006  0.2301406E+02  0.7546771E-02  0.1492322E+00
         21   -1    0    0  502  501  0.00000000000E+00  0.00000000000E+00  0.65288902426E+01  0.65288902426E+01  0.00000000000E+00 0.  1.
         21   -1    0    0  504  502 -0.00000000000E+00 -0.00000000000E+00 -0.11559361566E+03  0.11559361566E+03  0.00000000000E+00 0.  1.
         21    1    1    2  503  501 -0.23006476010E+02  0.59094369566E+00 -0.21188227526E+02  0.31282393427E+02  0.00000000000E+00 0.  1.
         21    1    1    2  504  503  0.23006476010E+02 -0.59094369566E+00 -0.87876497890E+02  0.90840112474E+02  0.00000000000E+00 0.  1.
</event>
<event>
 4    1  0.3065783E+006  0.3985243E+02  0.7546771E-02  0.1349353E+00
         21   -1    0    0  503  501  0.00000000000E+00  0.00000000000E+00  0.11036531743E+03  0.11036531743E+03  0.00000000000E+00 0. -1.
         21   -1    0    0  504  502 -0.00000000000E+00 -0.00000000000E+00 -0.32052557070E+02  0.32052557070E+02  0.00000000000E+00 0.  1.
         21    1    1    2  503  502  0.27530434221E+02 -0.28814775927E+02  0.92015917480E+02  0.10027534687E+03  0.00000000000E+00 0. -1.
         21    1    1    2  504  501 -0.27530434221E+02  0.28814775927E+02 -0.13703157119E+02  0.42142527631E+02  0.00000000000E+00 0.  1.
</event>
<event>
 4    1  0.3065783E+006  0.2124591E+02  0.7546771E-02  0.1515783E+00
         21   -1    0    0  503  501  0.00000000000E+00  0.00000000000E+00  0.53459733610E+03  0.53459733610E+03  0.00000000000E+00 0. -1.
         21   -1    0    0  504  502 -0.00000000000E+00 -0.00000000000E+00 -0.21229581440E+01  0.21229581440E+01  0.00000000000E+00 0. -1.
         21    1    1    2  503  502 -0.21092131314E+02  0.25515658334E+01  0.57972497376E+02  0.61743007244E+02  0.00000000000E+00 0. -1.
         21    1    1    2  504  501  0.21092131314E+02 -0.25515658334E+01  0.47450188058E+03  0.47497728700E+03  0.00000000000E+00 0. -1.
</event>
<event>
 4    1  0.3065783E+006  0.2289734E+02  0.7546771E-02  0.1493791E+00
         21   -1    0    0  502  501  0.00000000000E+00  0.00000000000E+00  0.21765312089E+02  0.21765312089E+02  0.00000000000E+00 0. -1.
         21   -1    0    0  504  502 -0.00000000000E+00 -0.00000000000E+00 -0.14891684015E+03  0.14891684015E+03  0.00000000000E+00 0.  1.
         21    1    1    2  503  501  0.19517972409E+01  0.22813998943E+02  0.14558811806E+02  0.27133872954E+02  0.00000000000E+00 0. -1.
         21    1    1    2  504  503 -0.19517972409E+01 -0.22813998943E+02 -0.14171033987E+03  0.14354827929E+03  0.00000000000E+00 0.  1.
</event>
<event>
 4    1  0.3065783E+006  0.2736465E+02  0.7546771E-02  0.1443979E+00
         21   -1    0    0  504  501  0.00000000000E+00  0.00000000000E+00  0.81480643999E+00  0.81480643999E+00  0.00000000000E+00 0.  1.
         21   -1    0    0  503  502 -0.00000000000E+00 -0.00000000000E+00 -0.98933540052E+03  0.98933540052E+03  0.00000000000E+00 0.  1.
         21    1    1    2  503  501 -0.26122943247E+02  0.81495840553E+01 -0.62624474481E+03  0.62684232809E+03  0.00000000000E+00 0.  1.
         21    1    1    2  504  502  0.26122943247E+02 -0.81495840553E+01 -0.36227584927E+03  0.36330787887E+03  0.00000000000E+00 0.  1.
</event>
<event>
 4    1  0.3065783E+006  0.2295222E+02  0.7546771E-02  0.1493099E+00
         21   -1    0    0  503  501  0.00000000000E+00  0.00000000000E+00  0.99447895244E+00  0.99447895244E+00  0.00000000000E+00 0. -1.
         21   -1    0    0  504  502 -0.00000000000E+00 -0.00000000000E+00 -0.55305906945E+03  0.55305906945E+03  0.00000000000E+00 0. -1.
         21    1    1    2  503  502  0.12856542596E+01 -0.22916184062E+02 -0.21913475915E+03  0.22033349057E+03  0.00000000000E+00 0. -1.
         21    1    1    2  504  501 -0.12856542596E+01  0.22916184062E+02 -0.33292983135E+03  0.33372005783E+03  0.00000000000E+00 0. -1.
</event>
<event>
 4    1  0.3065783E+006  0.2800474E+02  0.7546771E-02  0.1437768E+00
         21   -1    0    0  503  501  0.00000000000E+00  0.00000000000E+00  0.61267944729E+02  0.61267944729E+02  0.00000000000E+00 0. -1.
         21   -1    0    0  504  502 -0.00000000000E+00 -0.00000000000E+00 -0.12816755014E+02  0.12816755014E+02  0.00000000000E+00 0. -1.
         21    1    1    2  503  502  0.21300139180E+02  0.18181568328E+02  0.22909752783E+02  0.36181792777E+02  0.00000000000E+00 0. -1.
         21    1    1    2  504  501 -0.21300139180E+02 -0.18181568328E+02  0.25541436931E+02  0.37902906966E+02  0.00000000000E+00 0. -1.
</event>
<event>
 4    1  0.3065783E+006  0.3464020E+02  0.7546771E-02  0.1383110E+00
         21   -1    0    0  504  501  0.00000000000E+00  0.00000000000E+00  0.25731566627E+02  0.25731566627E+02  0.00000000000E+00 0. -1.
         21   -1    0    0  503  502 -0.00000000000E+00 -0.00000000000E+00 -0.21603247807E+03  0.21603247807E+03  0.00000000000E+00 0. -1.
         21    1    1    2  503  501 -0.90294862591E+01  0.33442661683E+02 -0.20219340666E+03  0.20513926231E+03  0.00000000000E+00 0. -1.
         21    1    1    2  504  502  0.90294862591E+01 -0.33442661683E+02  0.11892495219E+02  0.36624782389E+02  0.00000000000E+00 0. -1.
</event>
<event>
 4    1  0.3065783E+006  0.3455108E+02  0.7546771E-02  0.1383747E+00
         21   -1    0    0  504  501  0.00000000000E+00  0.00000000000E+00  0.14230360603E+03  0.14230360603E+03  0.00000000000E+00 0.  1.
         21   -1    0    0  503  502 -0.00000000000E+00 -0.00000000000E+00 -0.18791754310E+02  0.18791754310E+02  0.00000000000E+00 0.  1.
         21    1    1    2  503  501 -0.22976051597E+02  0.25804610006E+02  0.12168598883E+03  0.12649607394E+03  0.00000000000E+00 0.  1.
         21    1    1    2  504  502  0.22976051597E+02 -0.25804610006E+02  0.18258628968E+01  0.34599286407E+02  0.00000000000E+00 0.  1.
</event>
<event>
 4    1  0.3065783E+006  0.2323238E+02  0.7546771E-02  0.1489601E+00
         21   -1    0    0  503  501  0.00000000000E+00  0.00000000000E+00  0.54065581100E+02  0.54065581100E+02  0.00000000000E+00 0.  1.
         21   -1    0    0  504  502 -0.00000000000E+00 -0.00000000000E+00 -0.27741658715E+02  0.27741658715E+02  0.00000000000E+00 0.  1.
         21    1    1    2  503  502 -0.36870936242E+01 -0.22937935514E+02 -0.19564501282E+02  0.30372903310E+02  0.00000000000E+00 0.  1.
         21    1    1    2  504  501  0.36870936242E+01  0.22937935514E+02  0.45888423667E+02  0.51434336505E+02  0.00000000000E+00 0.  1.
</event>
<event>
 4    1  0.3065783E+006  0.2659825E+02  0.7546771E-02  0.1451686E+00
         21   -1    0    0  502  501  0.00000000000E+00  0.00000000000E+00  0.42911393492E+01  0.42911393492E+01  0.00000000000E+00 0.  1.
         21   -1    0    0  504  502 -0.00000000000E+00 -0.00000000000E+00 -0.10785152573E+04  0.10785152573E+04  0.00000000000E+00 0. -1.
         21    1    1    2  503  501  0.24631407963E+02  0.10037962819E+02 -0.38804812340E+02  0.47045514308E+02  0.00000000000E+00 0.  1.
         21    1    1    2  504  503 -0.24631407963E+02 -0.10037962819E+02 -0.10354193056E+04  0.10357608823E+04  0.00000000000E+00 0. -1.
</event>
<event>
 4    1  0.3065783E+006  0.2068136E+02  0.7546771E-02  0.1523863E+00
         21   -1    0    0  502  501  0.00000000000E+00  0.00000000000E+00  0.11413744506E+02  0.11413744506E+02  0.00000000000E+00 0. -1.
         21   -1    0    0  503  502 -0.00000000000E+00 -0.00000000000E+00 -0.55867781200E+02  0.55867781200E+02  0.00000000000E+00 0.  1.
         21    1    1    2  503  504  0.20444862557E+02 -0.31187186500E+01 -0.41529825741E+02  0.46394452653E+02  0.00000000000E+00 0.  1.
         21    1    1    2  504  501 -0.20444862557E+02  0.31187186500E+01 -0.29242109536E+01  0.20887073052E+02  0.00000000000E+00 0. -1.
</event>
<event>
 4    1  0.3065783E+006  0.3730254E+02  0.7546771E-02  0.1365061E+00
         21   -1    0    0  504  501  0.00000000000E+00  0.00000000000E+00  0.20760647592E+02  0.20760647592E+02  0.00000000000E+00 0. -1.
         21   -1    0    0  503  502 -0.00000000000E+00 -0.00000000000E+00 -0.87950549405E+02  0.87950549405E+02  0.00000000000E+00 0. -1.
         21    1    1    2  503  501 -0.36442366578E+02  0.79645158211E+01 -0.70815863557E+01  0.37968782696E+02  0.00000000000E+00 0. -1.
         21    1    1    2  504  502  0.36442366578E+02 -0.79645158211E+01 -0.60108315457E+02  0.70742414301E+02  0.00000000000E+00 0. -1.
</event>
<event>
 4    1  0.3065783E+006  0.2243224E+02  0.7546771E-02  0.1499753E+00
         21   -1    0    0  504  501  0.00000000000E+00  0.00000000000E+00  0.22026808024E+03  0.22026808024E+03  0.00000000000E+00 0.  1.
         21   -1    0    0  501  502 -0.00000000000E+00 -0.00000000000E+00 -0.79151331103E+01  0.79151331103E+01  0.00000000000E+00 0.  1.
         21    1    1    2  503  502 -0.21310021140E+02 -0.70063078890E+01  0.99482013803E+01  0.24539194403E+02  0.00000000000E+00 0.  1.
         21    1    1    2  504  503  0.21310021140E+02  0.70063078890E+01  0.20240474575E+03  0.20364401895E+03  0.00000000000E+00 0.  1.
</event>
<event>
 4    1  0.3065783E+006  0.3070509E+02  0.7546771E-02  0.1413566E+00
         21   -1    0    0  502  501  0.00000000000E+00  0.00000000000E+00  0.81852141848E+01  0.81852141848E+01  0.00000000000E+00 0. -1.
         21   -1    0    0  504  502 -0.00000000000E+00 -0.00000000000E+00 -0.44083964434E+03  0.44083964434E+03  0.00000000000E+00 0.  1.
         21    1    1    2  503  501 -0.42267591531E+01 -0.30412773319E+02 -0.23361722560E+02  0.38582021135E+02  0.00000000000E+00 0. -1.
         21    1    1    2  504  503  0.42267591531E+01  0.30412773319E+02 -0.40929270759E+03  0.41044283739E+03  0.00000000000E+00 0.  1.
</event>
<event>
 4    1  0.3065783E+006  0.2140681E+02  0.7546771E-02  0.1513535E+00
         21   -1    0    0  503  501  0.00000000000E+00  0.00000000000E+00  0.27433761642E+02  0.27433761642E+02  0.00000000000E+00 0. -1.
         21   -1    0    0  501  502 -0.00000000000E+00 -0.00000000000E+00 -0.20451610985E+02  0.20451610985E+02  0.00000000000E+00 0. -1.
         21    1    1    2  503  504 -0.15971372417E+02  0.14253657109E+02  0.13740293823E+02  0.25437121539E+02  0.00000000000E+00 0. -1.
         21    1    1    2  504  502  0.15971372417E+02 -0.14253657109E+02 -0.67581431663E+01  0.22448251088E+02  0.00000000000E+00 0. -1.
</event>
<event>
 4    1  0.3065783E+006  0.2339024E+02  0.7546771E-02  0.1487655E+00
         21   -1    0    0  503  501  0.00000000000E+00  0.00000000000E+00  0.21721545930E+03  0.21721545930E+03  0.00000000000E+00 0.  1.
         21   -1    0    0  504  502 -0.00000000000E+00 -0.00000000000E+00 -0.63704984347E+01  0.63704984347E+01  0.00000000000E+00 0.  1.
         21    1    1    2  503  502 -0.21167087912E+02 -0.99527855674E+01  0.18494652846E+02  0.29818714511E+02  0.00000000000E+00 0.  1.
         21    1    1    2  504  501  0.21167087912E+02  0.99527855674E+01  0.19235030802E+03  0.19376724322E+03  0.00000000000E+00 0.  1.
</event>
<event>
 4    1  0.3065783E+006  0.2050806E+02  0.7546771E-02  0.1526406E+00
         21   -1    0    0  502  501  0.00000000000E+00  0.00000000000E+00  0.46922139721E+01  0.46922139721E+01  0.00000000000E+00 0.  1.
         21   -1    0    0  504  502 -0.00000000000E+00 -0.00000000000E+00 -0.31691004796E+03  0.31691004796E+03  0.00000000000E+00 0. -1.
         21    1    1    2  503  501 -0.10326187550E+02  0.17718643959E+02 -0.19933655850E+02  0.28599495251E+02  0.00000000000E+00 0.  1.
         21    1    1    2  504  503  0.10326187550E+02 -0.17718643959E+02 -0.29228417814E+03  0.29300276668E+03  0.00000000000E+00 0. -1.
</event>
<event>
 4    1  0.3065783E+006  0.2607940E+02  0.7546771E-02  0.1457081E+00
         21   -1    0    0  503  501  0.00000000000E+00  0.00000000000E+00  0.12633734452E+03  0.12633734452E+03  0.00000000000E+00 0. -1.
         21   -1    0    0  504  502 -0.00000000000E+00 -0.00000000000E+00 -0.11630982719E+03  0.11630982719E+03  0.00000000000E+00 0. -1.
         21    1    1    2  503  502  0.21680600434E+02 -0.14494365072E+02 -0.11346878820E+03  0.11642723457E+03  0.00000000000E+00 0. -1.
         21    1    1    2  504  501 -0.21680600434E+02  0.14494365072E+02  0.12349630552E+03  0.12621993714E+03  0.00000000000E+00 0. -1.
</event>
<event>
 4    1  0.3065783E+006  0.3495066E+02  0.7546771E-02  0.1380910E+00
         21   -1    0    0  502  501  0.00000000000E+00  0.00000000000E+00  0.26946732418E+02  0.26946732418E+02  0.00000000000E+00 0. -1.
         21   -1    0    0  504  502 -0.00000000000E+00 -0.00000000000E+00 -0.96613291612E+02  0.96613291612E+02  0.00000000000E+00 0. -1.
         21    1    1    2  503  501  0.28196058870E+02 -0.20652630601E+02  0.10176728130E+02  0.36402124690E+02  0.00000000000E+00 0. -1.
         21    1    1    2  504  503 -0.28196058870E+02  0.20652630601E+02 -0.79843287324E+02  0.87157899339E+02  0.00000000000E+00 0. -1.
</event>
<event>
 4    1  0.3065783E+006  0.3648991E+02  0.7546771E-02  0.1370381E+00
         21   -1    0    0  504  501  0.00000000000E+00  0.00000000000E+00  0.20395666862E+03  0.20395666862E+03  0.00000000000E+00 0.  1.
         21   -1    0    0  503  502 -0.00000000000E+00 -0.00000000000E+00 -0.30919579678E+02  0.30919579678E+02  0.00000000000E+00 0. -1.
         21    1    1    2  503  501  0.37158426583E+01 -0.36300223754E+02  0.19082437512E+03  0.19428189795E+03  0.00000000000E+00 0.  1.
         21    1    1    2  504  502 -0.37158426583E+01  0.36300223754E+02 -0.17787286172E+02  0.40594350354E+02  0.00000000000E+00 0. -1.
</event>
<event>
 4    1  0.3065783E+006  0.3307630E+02  0.7546771E-02  0.1394616E+00
         21   -1    0    0  503  501  0.00000000000E+00  0.00000000000E+00  0.14796933995E+02  0.14796933995E+02  0.00000000000E+00 0. -1.
         21   -1    0    0  504  502 -0.00000000000E+00 -0.00000000000E+00 -0.29472632587E+03  0.29472632587E+03  0.00000000000E+00 0.  1.
         21    1    1    2  503  502 -0.12482311172E+02  0.30630601450E+02 -0.60146690981E+01  0.33618716242E+02  0.00000000000E+00 0. -1.
         21    1    1    2  504  501  0.12482311172E+02 -0.30630601450E+02 -0.27391472278E+03  0.27590454362E+03  0.00000000000E+00 0.  1.
</event>
<event>
 4    1  0.3065783E+006  0.3804873E+02  0.7546771E-02  0.1360316E+00
         21   -1    0    0  504  501  0.00000000000E+00  0.00000000000E+00  0.18177575182E+02  0.18177575182E+02  0.00000000000E+00 0. -1.
         21   -1    0    0  501  502 -0.00000000000E+00 -0.00000000000E+00 -0.15565268936E+03  0.15565268936E+03  0.00000000000E+00 0. -1.
         21    1    1    2  503  502 -0.33920871136E+02 -0.17236008938E+02 -0.12947455293E+03  0.13494949188E+03  0.00000000000E+00 0. -1.
         21    1    1    2  504  503  0.33920871136E+02  0.17236008938E+02 -0.80005612549E+01  0.38880772667E+02  0.00000000000E+00 0. -1.
</event>
<event>
 4    1  0.3065783E+006  0.2653127E+02  0.7546771E-02  0.1452374E+00
         21   -1    0    0  503  501  0.00000000000E+00  0.00000000000E+00  0.85743118977E+02  0.85743118977E+02  0.00000000000E+00 0. -1.
         21   -1    0    0  501  502 -0.00000000000E+00 -0.00000000000E+00 -0.50831150993E+02  0.50831150993E+02  0.00000000000E+00 0. -1.
         21    1    1    2  503  504 -0.45680572756E+01 -0.26135059101E+02  0.79986071306E+02  0.84271466490E+02  0.00000000000E+00 0. -1.
         21    1    1    2  504  502  0.45680572756E+01  0.26135059101E+02 -0.45074103322E+02  0.52302803479E+02  0.00000000000E+00 0. -1.
</event>
<event>
 4    1  0.3065783E+006  0.2538287E+02  0.7546771E-02  0.1464566E+00
         21   -1    0    0  503  501  0.00000000000E+00  0.00000000000E+00  0.69266884029E+01  0.69266884029E+01  0.00000000000E+00 0.  1.
         21   -1    0    0  504  502 -0.00000000000E+00 -0.00000000000E+00 -0.10811947092E+03  0.10811947092E+03  0.00000000000E+00 0.  1.
         21    1    1    2  503  502 -0.21607508147E+02 -0.13319369265E+02 -0.72096192999E+02  0.76433965297E+02  0.00000000000E+00 0.  1.
         21    1    1    2  504  501  0.21607508147E+02  0.13319369265E+02 -0.29096589518E+02  0.38612194026E+02  0.00000000000E+00 0.  1.
</event>
<event>
 4    1  0.3065783E+006  0.2164489E+02  0.7546771E-02  0.1510253E+00
         21   -1    0    0  504  501  0.00000000000E+00  0.00000000000E+00  0.25841855014E+02  0.25841855014E+02  0.00000000000E+00 0.  1.
         21   -1    0    0  501  502 -0.00000000000E+00 -0.00000000000E+00 -0.11450069362E+03  0.11450069362E+03  0.00000000000E+00 0.  1.
         21    1    1    2  503  502  0.21296588025E+02  0.38673487563E+01 -0.10870613618E+03  0.11084008792E+03  0.00000000000E+00 0.  1.
         21    1    1    2  504  503 -0.21296588025E+02 -0.38673487563E+01  0.20047297574E+02  0.29502460709E+02  0.00000000000E+00 0.  1.
</event>
<event>
 4    1  0.3065783E+006  0.2690435E+02  0.7546771E-02  0.1448571E+00
         21   -1    0    0  503  501  0.00000000000E+00  0.00000000000E+00  0.35579470215E+02  0.35579470215E+02  0.00000000000E+00 0. -1.
         21   -1    0    0  501  502 -0.00000000000E+00 -0.00000000000E+00 -0.12062888626E+03  0.12062888626E+03  0.00000000000E+00 0. -1.
         21    1    1    2  503  504  0.26882525298E+02  0.10833773173E+01  0.28689300245E+02  0.39330901608E+02  0.00000000000E+00 0. -1.
         21    1    1    2  504  502 -0.26882525298E+02 -0.10833773173E+01 -0.11373871629E+03  0.11687745487E+03  0.00000000000E+00 0. -1.
</event>
<event>
 4    1  0.3065783E+006  0.2118254E+02  0.7546771E-02  0.1516675E+00
         21   -1    0    0  502  501  0.00000000000E+00  0.00000000000E+00  0.14215079099E+03  0.14215079099E+03  0.00000000000E+00 0.  1.
         21   -1    0    0  503  502 -0.00000000000E+00 -0.00000000000E+00 -0.24465242167E+02  0.24465242167E+02  0.00000000000E+00 0. -1.
         21    1    1    2  503  504 -0.20553040495E+02 -0.51256679516E+01 -0.18905520396E+02  0.28392228637E+02  0.00000000000E+00 0. -1.
         21    1    1    2  504  501  0.20553040495E+02  0.51256679516E+01  0.13659106922E+03  0.13822380452E+03  0.00000000000E+00 0.  1.
</event>
<event>
 4    1  0.3065783E+006  0.2347199E+02  0.7546771E-02  0.1486655E+00
         21   -1    0    0  503  501  0.00000000000E+00  0.00000000000E+00  0.13282431195E+02  0.13282431195E+02  0.00000000000E+00 0.  1.
         21   -1    0    0  501  502 -0.00000000000E+00 -0.00000000000E+00 -0.16382733690E+03  0.16382733690E+03  0.00000000000E+00 0.  1.
         21    1    1    2  503  504  0.16528342742E+01  0.23413718899E+02  0.12553808223E+01  0.23505532856E+02  0.00000000000E+00 0.  1.
         21    1    1    2  504  502 -0.16528342742E+01 -0.23413718899E+02 -0.15180028652E+03  0.15360423524E+03  0.00000000000E+00 0.  1.
</event>
<event>
 4    1  0.3065783E+006  0.2508635E+02  0.7546771E-02  0.1467840E+00
         21   -1    0    0  503  501  0.00000000000E+00  0.00000000000E+00  0.11419140535E+03  0.11419140535E+03  0.00000000000E+00 0.  1.
         21   -1    0    0  501  502 -0.00000000000E+00 -0.00000000000E+00 -0.17389899176E+02  0.17389899176E+02  0.00000000000E+00 0. -1.
         21    1    1    2  503  504  0.68272579034E+00  0.25077054618E+02  0.10277599538E+03  0.10579333632E+03  0.00000000000E+00 0.  1.
         21    1    1    2  504  502 -0.68272579034E+00 -0.25077054618E+02 -0.59744892097E+01  0.25787968205E+02  0.00000000000E+00 0. -1.
</event>
<event>
 4    1  0.3065783E+006  0.2059381E+02  0.7546771E-02  0.1525144E+00
         21   -1    0    0  504  501  0.00000000000E+00  0.00000000000E+00  0.13141563528E+01  0.13141563528E+01  0.00000000000E+00 0. -1.
         21   -1    0    0  501  502 -0.00000000000E+00 -0.00000000000E+00 -0.86541113461E+03  0.86541113461E+03  0.00000000000E+00 0. -1.
         21    1    1    2  503  502 -0.19433684451E+02  0.68144489113E+01 -0.77522417995E+03  0.77549766859E+03  0.00000000000E+00 0. -1.
         21    1    1    2  504  503  0.19433684451E+02 -0.68144489113E+01 -0.88872798310E+02  0.91227622378E+02  0.00000000000E+00 0. -1.
</event>
<event>
 4    1  0.3065783E+006  0.2847492E+02  0.7546771E-02  0.1433329E+00
         21   -1    0    0  504  501  0.00000000000E+00  0.00000000000E+00  0.58663475832E+03  0.58663475832E+03  0.00000000000E+00 0.  1.
         21   -1    0    0  503  502 -0.00000000000E+00 -0.00000000000E+00 -0.40430645612E+01  0.40430645612E+01  0.00000000000E+00 0.  1.
         21    1    1    2  503  501  0.64099373450E+01 -0.27744080676E+02  0.53089221434E+03  0.53165530614E+03  0.00000000000E+00 0.  1.
         21    1    1    2  504  502 -0.64099373450E+01  0.27744080676E+02  0.51699479421E+02  0.59022516735E+02  0.00000000000E+00 0.  1.
</event>
<event>
 4    1  0.3065783E+006  0.4515286E+02  0.7546771E-02  0.1320677E+00
         21   -1    0    0  504  501  0.00000000000E+00  0.00000000000E+00  0.12190082107E+03  0.12190082107E+03  0.00000000000E+00 0. -1.
         21   -1    0    0  501  502 -0.00000000000E+00 -0.00000000000E+00 -0.24503857398E+02  0.24503857398E+02  0.00000000000E+00 0.  1.
         21    1    1    2  503  502 -0.11091979103E+02 -0.43769271273E+02  0.74538002885E+01  0.45763962316E+02  0.00000000000E+00 0.  1.
         21    1    1    2  504  503  0.11091979103E+02  0.43769271273E+02  0.89943163379E+02  0.10064071615E+03  0.00000000000E+00 0. -1.
</event>
<event>
 4    1  0.3065783E+006  0.2199928E+02  0.7546771E-02  0.1505462E+00
         21   -1    0    0  503  501  0.00000000000E+00  0.00000000000E+00  0.53917802837E+01  0.53917802837E+01  0.00000000000E+00 0. -1.
         21   -1    0    0  501  502 -0.00000000000E+00 -0.00000000000E+00 -0.77771362490E+03  0.77771362490E+03  0.00000000000E+00 0. -1.
         21    1    1    2  503  504 -0.12938567267E+02 -0.17792179183E+02 -0.17896436627E+02  0.28359312526E+02  0.00000000000E+00 0. -1.
         21    1    1    2  504  502  0.12938567267E+02  0.17792179183E+02 -0.75442540799E+03  0.75474609266E+03  0.00000000000E+00 0. -1.
</event>
<event>
 4    1  0.3065783E+006  0.2358715E+02  0.7546771E-02  0.1485254E+00
         21   -1    0    0  503  501  0.00000000000E+00  0.00000000000E+00  0.53610580666E+02  0.53610580666E+02  0.00000000000E+00 0.  1.
         21   -1    0    0  504  502 -0.00000000000E+00 -0.00000000000E+00 -0.17568774452E+02  0.17568774452E+02  0.00000000000E+00 0.  1.
         21    1    1    2  503  502  0.22036105021E+02  0.84121100026E+01  0.40790260694E+02  0.47118986477E+02  0.00000000000E+00 0.  1.
         21    1    1    2  504  501 -0.22036105021E+02 -0.84121100026E+01 -0.47484544806E+01  0.24060368641E+02  0.00000000000E+00 0.  1.
</event>
<event>
 4    1  0.3065783E+006  0.2345989E+02  0.7546771E-02  0.1486803E+00
         21   -1    0    0  503  501  0.00000000000E+00  0.00000000000E+00  0.91287120522E+02  0.91287120522E+02  0.00000000000E+00 0.  1.
         21   -1    0    0  504  502 -0.00000000000E+00 -0.00000000000E+00 -0.80742743181E+01  0.80742743181E+01  0.00000000000E+00 0.  1.
         21    1    1    2  503  502 -0.96955121337E+01 -0.21362663415E+02  0.16602046789E+02  0.28740116585E+02  0.00000000000E+00 0.  1.
         21    1    1    2  504  501  0.96955121337E+01  0.21362663415E+02  0.66610799415E+02  0.70621278256E+02  0.00000000000E+00 0.  1.
</event>
<event>
 4    1  0.3065783E+006  0.3031851E+02  0.7546771E-02  0.1416848E+00
         21   -1    0    0  503  501  0.00000000000E+00  0.00000000000E+00  0.12015681713E+01  0.12015681713E+01  0.00000000000E+00 0. -1.
         21   -1    0    0  504  502 -0.00000000000E+00 -0.00000000000E+00 -0.11279158572E+04  0.11279158572E+04  0.00000000000E+00 0.  1.
         21    1    1    2  503  502  0.30317802766E+02  0.20650017792E+00 -0.88359132288E+03  0.88411132652E+03  0.00000000000E+00 0.  1.
         21    1    1    2  504  501 -0.30317802766E+02 -0.20650017792E+00 -0.24312296614E+03  0.24500609884E+03  0.00000000000E+00 0. -1.
</event>
<event>
 4    1  0.3065783E+006  0.3553582E+02  0.7546771E-02  0.1376835E+00
         21   -1    0    0  504  501  0.00000000000E+00  0.00000000000E+00  0.97723585221E+03  0.97723585221E+03  0.00000000000E+00 0.  1.
         21   -1    0    0  503  502 -0.00000000000E+00 -0.00000000000E+00 -0.13789166556E+01  0.13789166556E+01  0.00000000000E+00 0.  1.
         21    1    1    2  503  501  0.35357473288E+02  0.35557418034E+01  0.36523024550E+03  0.36695493790E+03  0.00000000000E+00 0.  1.
         21    1    1    2  504  502 -0.35357473288E+02 -0.35557418034E+01  0.61062669005E+03  0.61165983096E+03  0.00000000000E+00 0.  1.
</event>
<event>
 4    1  0.3065783E+006  0.2254776E+02  0.7546771E-02  0.1498256E+00
         21   -1    0    0  504  501  0.00000000000E+00  0.00000000000E+00  0.29803859117E+03  0.29803859117E+03  0.00000000000E+00 0.  1.
         21   -1    0    0  501  502 -0.00000000000E+00 -0.00000000000E+00 -0.29388996655E+02  0.29388996655E+02  0.00000000000E+00 0.  1.
         21    1    1    2  503  502  0.26418025491E+01 -0.22392458497E+02 -0.24566761511E+02  0.33345570762E+02  0.00000000000E+00 0.  1.
         21    1    1    2  504  503 -0.26418025491E+01  0.22392458497E+02  0.29321635603E+03  0.29408201706E+03  0.00000000000E+00 0.  1.
</event>
<event>
 4    1  0.3065783E+006  0.2369166E+02  0.7546771E-02  0.1483991E+00
         21   -1    0    0  502  501  0.00000000000E+00  0.00000000000E+00  0.20208399407E+02  0.20208399407E+02  0.00000000000E+00 0. -1.
         21   -1    0    0  503  502 -0.00000000000E+00 -0.00000000000E+00 -0.34123248014E+03  0.34123248014E+03  0.00000000000E+00 0. -1.
         21    1    1    2  503  504 -0.18472311977E+02  0.14834706093E+02 -0.33372133330E+03  0.33456123971E+03  0.00000000000E+00 0. -1.
         21    1    1    2  504  501  0.18472311977E+02 -0.14834706093E+02  0.12697252574E+02  0.26879639833E+02  0.00000000000E+00 0. -1.
</event>
<event>
 4    1  0.3065783E+006  0.2261155E+02  0.7546771E-02  0.1497434E+00
         21   -1    0    0  504  501  0.00000000000E+00  0.00000000000E+00  0.36692958525E+01  0.36692958525E+01  0.00000000000E+00 0.  1.
         21   -1    0    0  503  502 -0.00000000000E+00 -0.00000000000E+00 -0.15737364786E+03  0.15737364786E+03  0.00000000000E+00 0.  1.
         21    1    1    2  503  501 -0.22528810670E+02  0.19326164977E+01 -0.10410922608E+03  0.10653644105E+03  0.00000000000E+00 0.  1.
         21    1    1    2  504  502  0.22528810670E+02 -0.19326164977E+01 -0.49595125934E+02  0.54506502668E+02  0.00000000000E+00 0.  1.
</event>
<event>
 4    1  0.3065783E+006  0.3604062E+02  0.7546771E-02  0.1373391E+00
         21   -1    0    0  503  501  0.00000000000E+00  0.00000000000E+00  0.12694815925E+02  0.12694815925E+02  0.00000000000E+00 0. -1.
         21   -1    0    0  504  502 -0.00000000000E+00 -0.00000000000E+00 -0.63149074499E+03  0.63149074499E+03  0.00000000000E+00 0.  1.
         21    1    1    2  503  502 -0.32785733618E+02 -0.14967352791E+02 -0.14551683781E+02  0.38867434689E+02  0.00000000000E+00 0. -1.
         21    1    1    2  504  501  0.32785733618E+02  0.14967352791E+02 -0.60424424528E+03  0.60531812623E+03  0.00000000000E+00 0.  1.
</event>
<event>
 4    1  0.3065783E+006  0.2120581E+02  0.7546771E-02  0.1516347E+00
         21   -1    0    0  503  501  0.00000000000E+00  0.00000000000E+00  0.10069121900E+01  0.10069121900E+01  0.00000000000E+00 0. -1.
         21   -1    0    0  504  502 -0.00000000000E+00 -0.00000000000E+00 -0.58737921737E+03  0.58737921737E+03  0.00000000000E+00 0. -1.
         21    1    1    2  503  502 -0.13092029684E+02  0.16681876985E+02 -0.14915928237E+03  0.15065914435E+03  0.00000000000E+00 0. -1.
         21    1    1    2  504  501  0.13092029684E+02 -0.16681876985E+02 -0.43721302281E+03  0.43772698521E+03  0.00000000000E+00 0. -1.
</event>
<event>
 4    1  0.3065783E+006  0.4459743E+02  0.7546771E-02  0.1323465E+00
         21   -1    0    0  502  501  0.00000000000E+00  0.00000000000E+00  0.25049972052E+02  0.25049972052E+02  0.00000000000E+00 0. -1.
         21   -1    0    0  504  502 -0.00000000000E+00 -0.00000000000E+00 -0.25623130787E+03  0.25623130787E+03  0.00000000000E+00 0.  1.
         21    1    1    2  503  501  0.32369905624E+02 -0.30677680759E+02  0.12451828703E+01  0.44614811075E+02  0.00000000000E+00 0. -1.
         21    1    1    2  504  503 -0.32369905624E+02  0.30677680759E+02 -0.23242651869E+03  0.23666646885E+03  0.00000000000E+00 0.  1.
</event>
<event>
 4    1  0.3065783E+006  0.3723439E+02  0.7546771E-02  0.1365501E+00
         21   -1    0    0  503  501  0.00000000000E+00  0.00000000000E+00  0.77383921467E+02  0.77383921467E+02  0.00000000000E+00 0. -1.
         21   -1    0    0  501  502 -0.00000000000E+00 -0.00000000000E+00 -0.15695588987E+03  0.15695588987E+03  0.00000000000E+00 0. -1.
         21    1    1    2  503  504 -0.18731307144E+02 -0.32179774259E+02  0.70494126394E+02  0.79723406818E+02  0.00000000000E+00 0. -1.
         21    1    1    2  504  502  0.18731307144E+02  0.32179774259E+02 -0.15006609479E+03  0.15461640451E+03  0.00000000000E+00 0. -1.
</event>
<event>
 4    1  0.3065783E+006  0.2186066E+02  0.7546771E-02  0.1507323E+00
         21   -1    0    0  503  501  0.00000000000E+00  0.00000000000E+00  0.21078996779E+03  0.21078996779E+03  0.00000000000E+00 0.  1.
         21   -1    0    0  504  502 -0.00000000000E+00 -0.00000000000E+00 -0.71702959094E+01  0.71702959094E+01  0.00000000000E+00 0.  1.
         21    1    1    2  503  502 -0.12852279231E+02 -0.17683529647E+02  0.11690688384E+02  0.24790330717E+02  0.00000000000E+00 0.  1.
         21    1    1    2  504  501  0.12852279231E+02  0.17683529647E+02  0.19192898350E+03  0.19316993299E+03  0.00000000000E+00 0.  1.
</event>
<event>
 4    1  0.3065783E+006  0.2731902E+02  0.7546771E-02  0.1444430E+00
         21   -1    0    0  503  501  0.00000000000E+00  0.00000000000E+00  0.19830010583E+03  0.19830010583E+03  0.00000000000E+00 0.  1.
         21   -1    0    0  504  502 -0.00000000000E+00 -0.00000000000E+00 -0.72574620878E+02  0.72574620878E+02  0.00000000000E+00 0. -1.
         21    1    1    2  503  502 -0.43799770947E+01 -0.26965623830E+02  0.19474154501E+03  0.19664841322E+03  0.00000000000E+00 0.  1.
         21    1    1    2  504  501  0.43799770947E+01  0.26965623830E+02 -0.69016060060E+02  0.74226313488E+02  0.00000000000E+00 0. -1.
</event>
<event>
 4    1  0.3065783E+006  0.2826922E+02  0.7546771E-02  0.1435259E+00
         21   -1    0    0  503  501  0.00000000000E+00  0.00000000000E+00  0.57480731495E+02  0.57480731495E+02  0.00000000000E+00 0. -1.
         21   -1    0    0  504  502 -0.00000000000E+00 -0.00000000000E+00 -0.14368984878E+02  0.14368984878E+02  0.00000000000E+00 0. -1.
         21    1    1    2  503  502 -0.27836078513E+02 -0.49296473942E+01  0.28026046627E+02  0.39807134787E+02  0.00000000000E+00 0. -1.
         21    1    1    2  504  501  0.27836078513E+02  0.49296473942E+01  0.15085699990E+02  0.32042581585E+02  0.00000000000E+00 0. -1.
</event>
<event>
 4    1  0.3065783E+006  0.2556636E+02  0.7546771E-02  0.1462566E+00
         21   -1    0    0  503  501  0.00000000000E+00  0.00000000000E+00  0.80002763923E+02  0.80002763923E+02  0.00000000000E+00 0.  1.
         21   -1    0    0  504  502 -0.00000000000E+00 -0.00000000000E+00 -0.82620005239E+01  0.82620005239E+01  0.00000000000E+00 0.  1.
         21    1    1    2  503  502  0.29728840740E+01  0.25392931511E+02  0.31218542778E+02  0.40351411668E+02  0.00000000000E+00 0.  1.
         21    1    1    2  504  501 -0.29728840740E+01 -0.25392931511E+02  0.40522220621E+02  0.47913352779E+02  0.00000000000E+00 0.  1.
</event>
<event>
 4    1  0.3065783E+006  0.2486950E+02  0.7546771E-02  0.1470269E+00
         21   -1    0    0  503  501  0.00000000000E+00  0.00000000000E+00  0.10584446979E+02  0.10584446979E+02  0.00000000000E+00 0. -1.
         21   -1    0    0  504  502 -0.00000000000E+00 -0.00000000000E+00 -0.19335891898E+03  0.19335891898E+03  0.00000000000E+00 0. -1.
         21    1    1    2  503  502  0.20275022547E+02 -0.14401918698E+02 -0.17656839226E+03  0.17831121374E+03  0.00000000000E+00 0. -1.
         21    1    1    2  504  501 -0.20275022547E+02  0.14401918698E+02 -0.62060797402E+01  0.25632152215E+02  0.00000000000E+00 0. -1.
</event>
<event>
 4    1  0.3065783E+006  0.2016253E+02  0.7546771E-02  0.1531566E+00
         21   -1    0    0  503  501  0.00000000000E+00  0.00000000000E+00  0.69421017504E+02  0.69421017504E+02  0.00000000000E+00 0. -1.
         21   -1    0    0  504  502 -0.00000000000E+00 -0.00000000000E+00 -0.59841900200E+01  0.59841900200E+01  0.00000000000E+00 0. -1.
         21    1    1    2  503  502 -0.14308666795E+01 -0.20111690158E+02  0.26199609359E+02  0.33059748804E+02  0.00000000000E+00 0. -1.
         21    1    1    2  504  501  0.14308666795E+01  0.20111690158E+02  0.37237218126E+02  0.42345458720E+02  0.00000000000E+00 0. -1.
</event>
<event>
 4    1  0.3065783E+006  0.2240269E+02  0.7546771E-02  0.1500138E+00
         21   -1    0    0  502  501  0.00000000000E+00  0.00000000000E+00  0.31431627634E+02  0.31431627634E+02  0.00000000000E+00 0. -1.
         21   -1    0    0  503  502 -0.00000000000E+00 -0.00000000000E+00 -0.26161991150E+02  0.26161991150E+02  0.00000000000E+00 0. -1.
         21    1    1    2  503  504  0.26778247988E+01  0.22242074215E+02 -0.15341237092E+02  0.27152056396E+02  0.00000000000E+00 0. -1.
         21    1    1    2  504  501 -0.26778247988E+01 -0.22242074215E+02  0.20610873576E+02  0.30441562388E+02  0.00000000000E+00 0. -1.
</event>
<event>
 4    1  0.3065783E+006  0.2248725E+02  0.7546771E-02  0.1499039E+00
         21   -1    0    0  504  501  0.00000000000E+00  0.00000000000E+00  0.62715410134E+02  0.62715410134E+02  0.00000000000E+00 0.  1.
         21   -1    0    0  503  502 -0.00000000000E+00 -0.00000000000E+00 -0.10956784095E+04  0.10956784095E+04  0.00000000000E+00 0. -1.
         21    1    1    2  503  501  0.11434799203E+02 -0.19362891671E+02  0.60580337816E+02  0.64619296936E+02  0.00000000000E+00 0.  1.
         21    1    1    2  504  502 -0.11434799203E+02  0.19362891671E+02 -0.10935433372E+04  0.10937745227E+04  0.00000000000E+00 0. -1.
</event>
<event>
 4    1  0.3065783E+006  0.2764239E+02  0.7546771E-02  0.1441260E+00
         21   -1    0    0  503  501  0.00000000000E+00  0.00000000000E+00  0.92259906768E+02  0.92259906768E+02  0.00000000000E+00 0. -1.
         21   -1    0    0  504  502 -0.00000000000E+00 -0.00000000000E+00 -0.39024662072E+02  0.39024662072E+02  0.00000000000E+00 0. -1.
         21    1    1    2  503  502 -0.22312990149E+02 -0.16316617793E+02 -0.31644253581E+02  0.42017381288E+02  0.00000000000E+00 0. -1.
         21    1    1    2  504  501  0.22312990149E+02  0.16316617793E+02  0.84879498277E+02  0.89267187552E+02  0.00000000000E+00 0. -1.
</event>
<event>
 4    1  0.3065783E+006  0.2275895E+02  0.7546771E-02  0.1495547E+00
         21   -1    0    0  503  501  0.00000000000E+00  0.00000000000E+00  0.75594020922E+02  0.75594020922E+02  0.00000000000E+00 0. -1.
         21   -1    0    0  504  502 -0.00000000000E+00 -0.00000000000E+00 -0.26434991428E+03  0.26434991428E+03  0.00000000000E+00 0.  1.
         21    1    1    2  503  502 -0.36014173021E+01  0.22472193683E+02 -0.26213260110E+03  0.26311873794E+03  0.00000000000E+00 0.  1.
         21    1    1    2  504  501  0.36014173021E+01 -0.22472193683E+02  0.73376707741E+02  0.76825197263E+02  0.00000000000E+00 0. -1.
</event>
<event>
 4    1  0.3065783E+006  0.2565041E+02  0.7546771E-02  0.1461657E+00
         21   -1    0    0  503  501  0.00000000000E+00  0.00000000000E+00  0.86506662750E+02  0.86506662750E+02  0.00000000000E+00 0.  1.
         21   -1    0    0  504  502 -0.00000000000E+00 -0.00000000000E+00 -0.20565129539E+03  0.20565129539E+03  0.00000000000E+00 0.  1.
         21    1    1    2  503  502 -0.96929949095E+01  0.23748461708E+02  0.83779960799E+02  0.87618636232E+02  0.00000000000E+00 0.  1.
         21    1    1    2  504  501  0.96929949095E+01 -0.23748461708E+02 -0.20292459344E+03  0.20453932190E+03  0.00000000000E+00 0.  1.
</event>
<event>
 4    1  0.3065783E+006  0.2139885E+02  0.7546771E-02  0.1513646E+00
         21   -1    0    0  504  501  0.00000000000E+00  0.00000000000E+00  0.51534917653E+03  0.51534917653E+03  0.00000000000E+00 0. -1.
         21   -1    0    0  503  502 -0.00000000000E+00 -0.00000000000E+00 -0.54127140010E+01  0.54127140010E+01  0.00000000000E+00 0. -1.
         21    1    1    2  503  501  0.20504831562E+02 -0.61206909822E+01  0.16916653011E+02  0.27277905429E+02  0.00000000000E+00 0. -1.
         21    1    1    2  504  502 -0.20504831562E+02  0.61206909822E+01  0.49301980951E+03  0.49348398510E+03  0.00000000000E+00 0. -1.
</event>
<event>
 4    1  0.3065783E+006  0.2009499E+02  0.7546771E-02  0.1532589E+00
         21   -1    0    0  504  501  0.00000000000E+00  0.00000000000E+00  0.72338123494E+02  0.72338123494E+02  0.00000000000E+00 0. -1.
         21   -1    0    0  501  502 -0.00000000000E+00 -0.00000000000E+00 -0.58559277562E+01  0.58559277562E+01  0.00000000000E+00 0.  1.
         21    1    1    2  503  502  0.66098176352E+01 -0.18976798882E+02  0.24788785488E+02  0.31910695243E+02  0.00000000000E+00 0.  1.
         21    1    1    2  504  503 -0.66098176352E+01  0.18976798882E+02  0.41693410250E+02  0.46283356007E+02  0.00000000000E+00 0. -1.
</event>
<event>
 4    1  0.3065783E+006  0.2292994E+02  0.7546771E-02  0.1493380E+00
         21   -1    0    0  504  501  0.00000000000E+00  0.00000000000E+00  0.33361174035E+02  0.33361174035E+02  0.00000000000E+00 0. -1.
         21   -1    0    0  503  502 -0.00000000000E+00 -0.00000000000E+00 -0.82211079823E+02  0.82211079823E+02  0.00000000000E+00 0.  1.
         21    1    1    2  503  501  0.19233793058E+02  0.12483719663E+02 -0.76377692934E+02  0.79745432659E+02  0.00000000000E+00 0.  1.
         21    1    1    2  504  502 -0.19233793058E+02 -0.12483719663E+02  0.27527787146E+02  0.35826821199E+02  0.00000000000E+00 0. -1.
</event>
<event>
 4    1  0.3065783E+006  0.2575610E+02  0.7546771E-02  0.1460520E+00
         21   -1    0    0  503  501  0.00000000000E+00  0.00000000000E+00  0.12355458058E+04  0.12355458058E+04  0.00000000000E+00 0. -1.
         21   -1    0    0  504  502 -0.00000000000E+00 -0.00000000000E+00 -0.13677194002E+01  0.13677194002E+01  0.00000000000E+00 0.  1.
         21    1    1    2  503  502 -0.37667922314E+01 -0.25479171593E+02  0.13507295058E+03  0.13750665034E+03  0.00000000000E+00 0.  1.
         21    1    1    2  504  501  0.37667922314E+01  0.25479171593E+02  0.10991051358E+04  0.10994068749E+04  0.00000000000E+00 0. -1.
</event>
<event>
 4    1  0.3065783E+006  0.2659161E+02  0.7546771E-02  0.1451754E+00
         21   -1    0    0  502  501  0.00000000000E+00  0.00000000000E+00  0.11162711254E+03  0.11162711254E+03  0.00000000000E+00 0. -1.
         21   -1    0    0  503  502 -0.00000000000E+00 -0.00000000000E+00 -0.71958111522E+02  0.71958111522E+02  0.00000000000E+00 0. -1.
         21    1    1    2  503  504 -0.24138317112E+02  0.11155945531E+02 -0.67824713387E+02  0.72851254071E+02  0.00000000000E+00 0. -1.
         21    1    1    2  504  501  0.24138317112E+02 -0.11155945531E+02  0.10749371440E+03  0.11073396999E+03  0.00000000000E+00 0. -1.
</event>
<event>
 4    1  0.3065783E+006  0.2571848E+02  0.7546771E-02  0.1460924E+00
         21   -1    0    0  502  501  0.00000000000E+00  0.00000000000E+00  0.21175474140E+01  0.21175474140E+01  0.00000000000E+00 0. -1.
         21   -1    0    0  504  502 -0.00000000000E+00 -0.00000000000E+00 -0.34673504020E+03  0.34673504020E+03  0.00000000000E+00 0. -1.
         21    1    1    2  503  501 -0.22919944210E+02  0.11666899411E+02 -0.11738945484E+03  0.12017372630E+03  0.00000000000E+00 0. -1.
         21    1    1    2  504  503  0.22919944210E+02 -0.11666899411E+02 -0.22722803794E+03  0.22867886131E+03  0.00000000000E+00 0. -1.
</event>
<event>
 4    1  0.3065783E+006  0.2141359E+02  0.7546771E-02  0.1513441E+00
         21   -1    0    0  502  501  0.00000000000E+00  0.00000000000E+00  0.67671889454E+03  0.67671889454E+03  0.00000000000E+00 0. -1.
         21   -1    0    0  503  502 -0.00000000000E+00 -0.00000000000E+00 -0.10158886914E+02  0.10158886914E+02  0.00000000000E+00 0. -1.
         21    1    1    2  503  504  0.84572555395E+01 -0.19672741284E+02  0.14924052226E+01  0.21465535032E+02  0.00000000000E+00 0. -1.
         21    1    1    2  504  501 -0.84572555395E+01  0.19672741284E+02  0.66506760241E+03  0.66541224642E+03  0.00000000000E+00 0. -1.
</event>
<event>
 4    1  0.3065783E+006  0.3647132E+02  0.7546771E-02  0.1370504E+00
         21   -1    0    0  504  501  0.00000000000E+00  0.00000000000E+00  0.18570323210E+03  0.18570323210E+03  0.00000000000E+00 0. -1.
         21   -1    0    0  503  502 -0.00000000000E+00 -0.00000000000E+00 -0.10856806805E+02  0.10856806805E+02  0.00000000000E+00 0. -1.
         21    1    1    2  503  501 -0.22340824417E+01 -0.36402835000E+02  0.14475061480E+03  0.14927457254E+03  0.00000000000E+00 0. -1.
         21    1    1    2  504  502  0.22340824417E+01  0.36402835000E+02  0.30095810494E+02  0.47285466369E+02  0.00000000000E+00 0. -1.
</event>
<event>
 4    1  0.3065783E+006  0.3342041E+02  0.7546771E-02  0.1392022E+00
         21   -1    0    0  504  501  0.00000000000E+00  0.00000000000E+00  0.32157872557E+03  0.32157872557E+03  0.00000000000E+00 0.  1.
         21   -1    0    0  503  502 -0.00000000000E+00 -0.00000000000E+00 -0.12918676873E+03  0.12918676873E+03  0.00000000000E+00 0. -1.
         21    1    1    2  503  501 -0.32390639750E+02  0.82322664580E+01  0.31852831858E+03  0.32027677638E+03  0.00000000000E+00 0.  1.
         21    1    1    2  504  502  0.32390639750E+02 -0.82322664580E+01 -0.12613636173E+03  0.13048871792E+03  0.00000000000E+00 0. -1.
</event>
<event>
 4    1  0.3065783E+006  0.2013043E+02  0.7546771E-02  0.1532051E+00
         21   -1    0    0  504  501  0.00000000000E+00  0.00000000000E+00  0.43143332246E+03  0.43143332246E+03  0.00000000000E+00 0.  1.
         21   -1    0    0  503  502 -0.00000000000E+00 -0.00000000000E+00 -0.17257681682E+01  0.17257681682E+01  0.00000000000E+00 0.  1.
         21    1    1    2  503  501  0.15674946648E+02 -0.12630530585E+02  0.36106269615E+03  0.36162342956E+03  0.00000000000E+00 0.  1.
         21    1    1    2  504  502 -0.15674946648E+02  0.12630530585E+02  0.68644858149E+02  0.71535661076E+02  0.00000000000E+00 0.  1.
</event>
<event>
 4    1  0.3065783E+006  0.2135581E+02  0.7546771E-02  0.1514245E+00
         21   -1    0    0  502  501  0.00000000000E+00  0.00000000000E+00  0.41787450199E+03  0.41787450199E+03  0.00000000000E+00 0.  1.
         21   -1    0    0  503  502 -0.00000000000E+00 -0.00000000000E+00 -0.14897846315E+01  0.14897846315E+01  0.00000000000E+00 0. -1.
         21    1    1    2  503  504 -0.20810507901E+02 -0.47951580888E+01  0.99762806066E+02  0.10202297905E+03  0.00000000000E+00 0. -1.
         21    1    1    2  504  501  0.20810507901E+02  0.47951580888E+01  0.31662191129E+03  0.31734130757E+03  0.00000000000E+00 0.  1.
</event>
<event>
 4    1  0.3065783E+006  0.2085953E+02  0.7546771E-02  0.1521280E+00
         21   -1    0    0  503  501  0.00000000000E+00  0.00000000000E+00  0.13507955582E+03  0.13507955582E+03  0.00000000000E+00 0. -1.
         21   -1    0    0  501  502 -0.00000000000E+00 -0.00000000000E+00 -0.23995177215E+02  0.23995177215E+02  0.00000000000E+00 0. -1.
         21    1    1    2  503  504  0.20836636617E+02  0.97699897261E+00  0.12954852842E+03  0.13121715272E+03  0.00000000000E+00 0. -1.
         21    1    1    2  504  502 -0.20836636617E+02 -0.97699897261E+00 -0.18464149816E+02  0.27857580314E+02  0.00000000000E+00 0. -1.
</event>
<event>
 4    1  0.3065783E+006  0.3434061E+02  0.7546771E-02  0.1385259E+00
         21   -1    0    0  503  501  0.00000000000E+00  0.00000000000E+00  0.55095022940E+02  0.55095022940E+02  0.00000000000E+00 0. -1.
         21   -1    0    0  504  502 -0.00000000000E+00 -0.00000000000E+00 -0.21827002002E+03  0.21827002002E+03  0.00000000000E+00 0.  1.
         21    1    1    2  503  502  0.28534950039E+01 -0.34221847749E+02 -0.21139531647E+03  0.21416642390E+03  0.00000000000E+00 0.  1.
         21    1    1    2  504  501 -0.28534950039E+01  0.34221847749E+02  0.48220319393E+02  0.59198619067E+02  0.00000000000E+00 0. -1.
</event>
<event>
 4    1  0.3065783E+006  0.2581157E+02  0.7546771E-02  0.1459926E+00
         21   -1    0    0  503  501  0.00000000000E+00  0.00000000000E+00  0.14285052443E+02  0.14285052443E+02  0.00000000000E+00 0.  1.
         21   -1    0    0  501  502 -0.00000000000E+00 -0.00000000000E+00 -0.12627582417E+04  0.12627582417E+04  0.00000000000E+00 0. -1.
         21    1    1    2  503  504 -0.80160670201E+01  0.24535278292E+02  0.23825237934E+01  0.25921296861E+02  0.00000000000E+00 0.  1.
         21    1    1    2  504  502  0.80160670201E+01 -0.24535278292E+02 -0.12508557131E+04  0.12511219973E+04  0.00000000000E+00 0. -1.
</event>
<event>
 4    1  0.3065783E+006  0.2648149E+02  0.7546771E-02  0.1452887E+00
         21   -1    0    0  504  501  0.00000000000E+00  0.00000000000E+00  0.12142991114E+01  0.12142991114E+01  0.00000000000E+00 0. -1.
         21   -1    0    0  503  502 -0.00000000000E+00 -0.00000000000E+00 -0.58913249777E+03  0.58913249777E+03  0.00000000000E+00 0. -1.
         21    1    1    2  503  501  0.23775761822E+02 -0.11661161740E+02 -0.25249944866E+03  0.25388430656E+03  0.00000000000E+00 0. -1.
         21    1    1    2  504  502 -0.23775761822E+02  0.11661161740E+02 -0.33541874999E+03  0.33646249032E+03  0.00000000000E+00 0. -1.
</event>
<event>
 4    1  0.3065783E+006  0.3385746E+02  0.7546771E-02  0.1388778E+00
         21   -1    0    0  502  501  0.00000000000E+00  0.00000000000E+00  0.25889486381E+02  0.25889486381E+02  0.00000000000E+00 0. -1.
         21   -1    0    0  504  502 -0.00000000000E+00 -0.00000000000E+00 -0.45236588908E+02  0.45236588908E+02  0.00000000000E+00 0. -1.
         21    1    1    2  503  501 -0.33782375348E+02 -0.22535403955E+01 -0.44958806161E+01  0.34154652260E+02  0.00000000000E+00 0. -1.
         21    1    1    2  504  503  0.33782375348E+02  0.22535403955E+01 -0.14851221912E+02  0.36971423029E+02  0.00000000000E+00 0. -1.
</event>
<event>
 4    1  0.3065783E+006  0.2130069E+02  0.7546771E-02  0.1515015E+00
         21   -1    0    0  502  501  0.00000000000E+00  0.00000000000E+00  0.14459501824E+02  0.14459501824E+02  0.00000000000E+00 0.  1.
         21   -1    0    0  503  502 -0.00000000000E+00 -0.00000000000E+00 -0.96655604755E+02  0.96655604755E+02  0.00000000000E+00 0.  1.
         21    1    1    2  503  504  0.16742959198E+02  0.13167861443E+02 -0.86755288112E+02  0.89331961095E+02  0.00000000000E+00 0.  1.
         21    1    1    2  504  501 -0.16742959198E+02 -0.13167861443E+02  0.45591851814E+01  0.21783145484E+02  0.00000000000E+00 0.  1.
</event>
<event>
 4    1  0.3065783E+006  0.2708519E+02  0.7546771E-02  0.1446754E+00
         21   -1    0    0  502  501  0.00000000000E+00  0.00000000000E+00  0.97345277921E+02  0.97345277921E+02  0.00000000000E+00 0. -1.
         21   -1    0    0  503  502 -0.00000000000E+00 -0.00000000000E+00 -0.84620763741E+01  0.84620763741E+01  0.00000000000E+00 0. -1.
         21    1    1    2  503  504 -0.20010317062E+02 -0.18253628472E+02  0.26941613855E+02  0.38202857203E+02  0.00000000000E+00 0. -1.
         21    1    1    2  504  501  0.20010317062E+02  0.18253628472E+02  0.61941587692E+02  0.67604497093E+02  0.00000000000E+00 0. -1.
</event>
<event>
 4    1  0.3065783E+006  0.2145458E+02  0.7546771E-02  0.1512873E+00
         21   -1    0    0  504  501  0.00000000000E+00  0.00000000000E+00  0.29164627957E+03  0.29164627957E+03  0.00000000000E+00 0. -1.
         21   -1    0    0  503  502 -0.00000000000E+00 -0.00000000000E+00 -0.40524422260E+01  0.40524422260E+01  0.00000000000E+00 0. -1.
         21    1    1    2  503  501 -0.74414978175E+01  0.20122702716E+02  0.28272111385E+02  0.35491003600E+02  0.00000000000E+00 0. -1.
         21    1    1    2  504  502  0.74414978175E+01 -0.20122702716E+02  0.25932172596E+03  0.26020771819E+03  0.00000000000E+00 0. -1.
</event>
<event>
 4    1  0.3065783E+006  0.3235436E+02  0.7546771E-02  0.1400182E+00
         21   -1    0    0  504  501  0.00000000000E+00  0.00000000000E+00  0.84329610423E+02  0.84329610423E+02  0.00000000000E+00 0. -1.
         21   -1    0    0  503  502 -0.00000000000E+00 -0.00000000000E+00 -0.36638075957E+03  0.36638075957E+03  0.00000000000E+00 0.  1.
         21    1    1    2  503  501 -0.20905325316E+02  0.24693558044E+02 -0.36253026468E+03  0.36397114892E+03  0.00000000000E+00 0.  1.
         21    1    1    2  504  502  0.20905325316E+02 -0.24693558044E+02  0.80479115534E+02  0.86739221074E+02  0.00000000000E+00 0. -1.
</event>
<event>
 4    1  0.3065783E+006  0.2060857E+02  0.7546771E-02  0.1524927E+00
         21   -1    0    0  503  501  0.00000000000E+00  0.00000000000E+00  0.26886775849E+03  0.26886775849E+03  0.00000000000E+00 0. -1.
         21   -1    0    0  504  502 -0.00000000000E+00 -0.00000000000E+00 -0.81544303164E+02  0.81544303164E+02  0.00000000000E+00 0.  1.
         21    1    1    2  503  502 -0.19217843116E+02 -0.74422969626E+01 -0.79839001476E+02  0.82455924194E+02  0.00000000000E+00 0.  1.
         21    1    1    2  504  501  0.19217843116E+02  0.74422969626E+01  0.26716245680E+03  0.26795613746E+03  0.00000000000E+00 0. -1.
</event>
<event>
 4    1  0.3065783E+006  0.2574797E+02  0.7546771E-02  0.1460607E+00
         21   -1    0    0  504  501  0.00000000000E+00  0.00000000000E+00  0.18063193669E+03  0.18063193669E+03  0.00000000000E+00 0.  1.
         21   -1    0    0  501  502 -0.00000000000E+00 -0.00000000000E+00 -0.44763288003E+01  0.44763288003E+01  0.00000000000E+00 0.  1.
         21    1    1    2  503  502  0.22709086404E+02 -0.12134877133E+02  0.48801257359E+02  0.55177174340E+02  0.00000000000E+00 0.  1.
         21    1    1    2  504  503 -0.22709086404E+02  0.12134877133E+02  0.12735435053E+03  0.12993109115E+03  0.00000000000E+00 0.  1.
</event>
<event>
 4    1  0.3065783E+006  0.2653398E+02  0.7546771E-02  0.1452346E+00
         21   -1    0    0  504  501  0.00000000000E+00  0.00000000000E+00  0.45701822917E+02  0.45701822917E+02  0.00000000000E+00 0.  1.
         21   -1    0    0  503  502 -0.00000000000E+00 -0.00000000000E+00 -0.19706317024E+02  0.19706317024E+02  0.00000000000E+00 0.  1.
         21    1    1    2  503  501  0.12720250432E+02 -0.23286204964E+02 -0.22808146778E+01  0.26631827356E+02  0.00000000000E+00 0.  1.
         21    1    1    2  504  502 -0.12720250432E+02  0.23286204964E+02  0.28276320571E+02  0.38776312585E+02  0.00000000000E+00 0.  1.
</event>
<event>
 4    1  0.3065783E+006  0.2576137E+02  0.7546771E-02  0.1460463E+00
         21   -1    0    0  502  501  0.00000000000E+00  0.00000000000E+00  0.14824035087E+03  0.14824035087E+03  0.00000000000E+00 0. -1.
         21   -1    0    0  504  502 -0.00000000000E+00 -0.00000000000E+00 -0.23654359492E+02  0.23654359492E+02  0.00000000000E+00 0. -1.
         21    1    1    2  503  501 -0.57274131311E+01  0.25116629967E+02  0.13968090867E+03  0.14203663122E+03  0.00000000000E+00 0. -1.
         21    1    1    2  504  503  0.57274131311E+01 -0.25116629967E+02 -0.15094917289E+02  0.29858079142E+02  0.00000000000E+00 0. -1.
</event>
<event>
 4    1  0.3065783E+006  0.2097496E+02  0.7546771E-02  0.1519623E+00
         21   -1    0    0  502  501  0.00000000000E+00  0.00000000000E+00  0.45830237170E+02  0.45830237170E+02  0.00000000000E+00 0.  1.
         21   -1    0    0  504  502 -0.00000000000E+00 -0.00000000000E+00 -0.17406083193E+02  0.17406083193E+02  0.00000000000E+00 0.  1.
         21    1    1    2  503  501  0.17563468657E+02 -0.11466188607E+02  0.35386696870E+02  0.41135960276E+02  0.00000000000E+00 0.  1.
         21    1    1    2  504  503 -0.17563468657E+02  0.11466188607E+02 -0.69625428931E+01  0.22100360087E+02  0.00000000000E+00 0.  1.
</event>
<event>
 4    1  0.3065783E+006  0.2575201E+02  0.7546771E-02  0.1460564E+00
         21   -1    0    0  502  501  0.00000000000E+00  0.00000000000E+00  0.23008873810E+02  0.23008873810E+02  0.00000000000E+00 0. -1.
         21   -1    0    0  503  502 -0.00000000000E+00 -0.00000000000E+00 -0.34870630186E+03  0.34870630186E+03  0.00000000000E+00 0. -1.
         21    1    1    2  503  504 -0.29940987932E+01  0.25577360623E+02 -0.34085967186E+03  0.34183107218E+03  0.00000000000E+00 0. -1.
         21    1    1    2  504  501  0.29940987932E+01 -0.25577360623E+02  0.15162243814E+02  0.29884103492E+02  0.00000000000E+00 0. -1.
</event>
<event>
 4    1  0.3065783E+006  0.2003099E+02  0.7546771E-02  0.1533562E+00
         21   -1    0    0  504  501  0.00000000000E+00  0.00000000000E+00  0.11792730556E+01  0.11792730556E+01  0.00000000000E+00 0. -1.
         21   -1    0    0  503  502 -0.00000000000E+00 -0.00000000000E+00 -0.36099801622E+03  0.36099801622E+03  0.00000000000E+00 0. -1.
         21    1    1    2  503  501  0.18846923764E+02  0.67848349691E+01 -0.13648931110E+03  0.13795134130E+03  0.00000000000E+00 0. -1.
         21    1    1    2  504  502 -0.18846923764E+02 -0.67848349691E+01 -0.22332943206E+03  0.22422594798E+03  0.00000000000E+00 0. -1.
</event>
<event>
 4    1  0.3065783E+006  0.7525293E+02  0.7546771E-02  0.1215319E+00
         21   -1    0    0  504  501  0.00000000000E+00  0.00000000000E+00  0.14491758201E+02  0.14491758201E+02  0.00000000000E+00 0. -1.
         21   -1    0    0  503  502 -0.00000000000E+00 -0.00000000000E+00 -0.51356902903E+03  0.51356902903E+03  0.00000000000E+00 0. -1.
         21    1    1    2  503  501 -0.69915633381E+02  0.27835357824E+02 -0.37864416045E+03  0.38604974184E+03  0.00000000000E+00 0. -1.
         21    1    1    2  504  502  0.69915633381E+02 -0.27835357824E+02 -0.12043311039E+03  0.14201104539E+03  0.00000000000E+00 0. -1.
</event>
<event>
 4    1  0.3065783E+006  0.2023408E+02  0.7546771E-02  0.1530487E+00
         21   -1    0    0  504  501  0.00000000000E+00  0.00000000000E+00  0.47667782520E+03  0.47667782520E+03  0.00000000000E+00 0. -1.
         21   -1    0    0  503  502 -0.00000000000E+00 -0.00000000000E+00 -0.17172454608E+01  0.17172454608E+01  0.00000000000E+00 0.  1.
         21    1    1    2  503  501  0.89360622600E+01 -0.18153923809E+02  0.40659126555E+03  0.40709443055E+03  0.00000000000E+00 0. -1.
         21    1    1    2  504  502 -0.89360622600E+01  0.18153923809E+02  0.68369314189E+02  0.71300640117E+02  0.00000000000E+00 0.  1.
</event>
<event>
 4    1  0.3065783E+006  0.2311430E+02  0.7546771E-02  0.1491068E+00
         21   -1    0    0  504  501  0.00000000000E+00  0.00000000000E+00  0.99942380093E+02  0.99942380093E+02  0.00000000000E+00 0. -1.
         21   -1    0    0  503  502 -0.00000000000E+00 -0.00000000000E+00 -0.10328252205E+03  0.10328252205E+03  0.00000000000E+00 0. -1.
         21    1    1    2  503  501  0.81243409523E+01 -0.21639452687E+02  0.97277768926E+02  0.99986174823E+02  0.00000000000E+00 0. -1.
         21    1    1    2  504  502 -0.81243409523E+01  0.21639452687E+02 -0.10061791089E+03  0.10323872732E+03  0.00000000000E+00 0. -1.
</event>
<event>
 4    1  0.3065783E+006  0.2163659E+02  0.7546771E-02  0.1510367E+00
         21   -1    0    0  503  501  0.00000000000E+00  0.00000000000E+00  0.18147326383E+02  0.18147326383E+02  0.00000000000E+00 0.  1.
         21   -1    0    0  504  502 -0.00000000000E+00 -0.00000000000E+00 -0.28693898304E+03  0.28693898304E+03  0.00000000000E+00 0. -1.
         21    1    1    2  503  502  0.14216074581E+02  0.16310899207E+02 -0.27992045552E+03  0.28075541602E+03  0.00000000000E+00 0. -1.
         21    1    1    2  504  501 -0.14216074581E+02 -0.16310899207E+02  0.11128798862E+02  0.24330893398E+02  0.00000000000E+00 0.  1.
</event>
<event>
 4    1  0.3065783E+006  0.2081450E+02  0.7546771E-02  0.1521930E+00
         21   -1    0    0  504  501  0.00000000000E+00  0.00000000000E+00  0.10239058355E+01  0.10239058355E+01  0.00000000000E+00 0.  1.
         21   -1    0    0  501  502 -0.00000000000E+00 -0.00000000000E+00 -0.13351298471E+04  0.13351298471E+04  0.00000000000E+00 0.  1.
         21    1    1    2  503  502  0.10360350267E+02  0.18052881391E+02 -0.12192098793E+04  0.12193875402E+04  0.00000000000E+00 0.  1.
         21    1    1    2  504  503 -0.10360350267E+02 -0.18052881391E+02 -0.11489606192E+03  0.11676621270E+03  0.00000000000E+00 0.  1.
</event>
<event>
 4    1  0.3065783E+006  0.2063417E+02  0.7546771E-02  0.1524553E+00
         21   -1    0    0  502  501  0.00000000000E+00  0.00000000000E+00  0.16205535123E+04  0.16205535123E+04  0.00000000000E+00 0. -1.
         21   -1    0    0  504  502 -0.00000000000E+00 -0.00000000000E+00 -0.38355866897E+00  0.38355866897E+00  0.00000000000E+00 0. -1.
         21    1    1    2  503  501 -0.29334387176E+01  0.20424587730E+02  0.12649728313E+04  0.12651411118E+04  0.00000000000E+00 0. -1.
         21    1    1    2  504  503  0.29334387176E+01 -0.20424587730E+02  0.35519712228E+03  0.35579595911E+03  0.00000000000E+00 0. -1.
</event>
<event>
 4    1  0.3065783E+006  0.2126502E+02  0.7546771E-02  0.1515515E+00
         21   -1    0    0  503  501  0.00000000000E+00  0.00000000000E+00  0.50344490756E+02  0.50344490756E+02  0.00000000000E+00 0.  1.
         21   -1    0    0  504  502 -0.00000000000E+00 -0.00000000000E+00 -0.10114271900E+02  0.10114271900E+02  0.00000000000E+00 0.  1.
         21    1    1    2  503  502 -0.18994315375E+02 -0.95612259883E+01  0.10001382058E+02  0.23499546847E+02  0.00000000000E+00 0.  1.
         21    1    1    2  504  501  0.18994315375E+02  0.95612259883E+01  0.30228836799E+02  0.36959215808E+02  0.00000000000E+00 0.  1.
</event>
<event>
 4    1  0.3065783E+006  0.2577380E+02  0.7546771E-02  0.1460330E+00
         21   -1    0    0  502  501  0.00000000000E+00  0.00000000000E+00  0.72181246626E+02  0.72181246626E+02  0.00000000000E+00 0. -1.
         21   -1    0    0  504  502 -0.00000000000E+00 -0.00000000000E+00 -0.42497215405E+02  0.42497215405E+02  0.00000000000E+00 0.  1.
         21    1    1    2  503  501 -0.47203903424E+01  0.25337850478E+02  0.65594299600E+02  0.70476243457E+02  0.00000000000E+00 0. -1.
         21    1    1    2  504  503  0.47203903424E+01 -0.25337850478E+02 -0.35910268379E+02  0.44202218574E+02  0.00000000000E+00 0.  1.
</event>
<event>
 4    1  0.3065783E+006  0.2795880E+02  0.7546771E-02  0.1438207E+00
         21   -1    0    0  504  501  0.00000000000E+00  0.00000000000E+00  0.38028019367E+00  0.38028019367E+00  0.00000000000E+00 0. -1.
         21   -1    0    0  503  502 -0.00000000000E+00 -0.00000000000E+00 -0.22654027009E+04  0.22654027009E+04  0.00000000000E+00 0. -1.
         21    1    1    2  503  501  0.24277189065E+02  0.13867673116E+02 -0.78772686183E+03  0.78822287655E+03  0.00000000000E+00 0. -1.
         21    1    1    2  504  502 -0.24277189065E+02 -0.13867673116E+02 -0.14772955589E+04  0.14775601046E+04  0.00000000000E+00 0. -1.
</event>
<event>
 4    1  0.3065783E+006  0.2088229E+02  0.7546771E-02  0.1520952E+00
         21   -1    0    0  503  501  0.00000000000E+00  0.00000000000E+00  0.31783869834E+02  0.31783869834E+02  0.00000000000E+00 0.  1.
         21   -1    0    0  504  502 -0.00000000000E+00 -0.00000000000E+00 -0.14619144178E+02  0.14619144178E+02  0.00000000000E+00 0.  1.
         21    1    1    2  503  502 -0.13032138628E+02  0.16316665680E+02  0.14336814017E+02  0.25330109599E+02  0.00000000000E+00 0.  1.
         21    1    1    2  504  501  0.13032138628E+02 -0.16316665680E+02  0.28279116391E+01  0.21072904413E+02  0.00000000000E+00 0.  1.
</event>
<event>
 4    1  0.3065783E+006  0.2510037E+02  0.7546771E-02  0.1467684E+00
         21   -1    0    0  502  501  0.00000000000E+00  0.00000000000E+00  0.12449848537E+03  0.12449848537E+03  0.00000000000E+00 0.  1.
         21   -1    0    0  503  502 -0.00000000000E+00 -0.00000000000E+00 -0.36928199271E+02  0.36928199271E+02  0.00000000000E+00 0.  1.
         21    1    1    2  503  504  0.47357588575E+01  0.24649562965E+02 -0.31194162637E+02  0.40038783060E+02  0.00000000000E+00 0.  1.
         21    1    1    2  504  501 -0.47357588575E+01 -0.24649562965E+02  0.11876444874E+03  0.12138790158E+03  0.00000000000E+00 0.  1.
</event>
<event>
 4    1  0.3065783E+006  0.2133099E+02  0.7546771E-02  0.1514591E+00
         21   -1    0    0  504  501  0.00000000000E+00  0.00000000000E+00  0.19137352623E+01  0.19137352623E+01  0.00000000000E+00 0.  1.
         21   -1    0    0  503  502 -0.00000000000E+00 -0.00000000000E+00 -0.23876543667E+03  0.23876543667E+03  0.00000000000E+00 0.  1.
         21    1    1    2  503  501  0.19267582689E+02 -0.91526758092E+01 -0.12623184816E+03  0.12802144628E+03  0.00000000000E+00 0.  1.
         21    1    1    2  504  502 -0.19267582689E+02  0.91526758092E+01 -0.11061985325E+03  0.11265772565E+03  0.00000000000E+00 0.  1.
</event>
<event>
 4    1  0.3065783E+006  0.2049775E+02  0.7546771E-02  0.1526558E+00
         21   -1    0    0  504  501  0.00000000000E+00  0.00000000000E+00  0.75788850964E+03  0.75788850964E+03  0.00000000000E+00 0. -1.
         21   -1    0    0  503  502 -0.00000000000E+00 -0.00000000000E+00 -0.11763509065E+03  0.11763509065E+03  0.00000000000E+00 0. -1.
         21    1    1    2  503  501 -0.20353100431E+02  0.24308665692E+01 -0.11660235142E+03  0.11839031281E+03  0.00000000000E+00 0. -1.
         21    1    1    2  504  502  0.20353100431E+02 -0.24308665692E+01  0.75685577042E+03  0.75713328749E+03  0.00000000000E+00 0. -1.
</event>
<event>
 4    1  0.3065783E+006  0.2459542E+02  0.7546771E-02  0.1473381E+00
         21   -1    0    0  504  501  0.00000000000E+00  0.00000000000E+00  0.34786522426E+02  0.34786522426E+02  0.00000000000E+00 0. -1.
         21   -1    0    0  503  502 -0.00000000000E+00 -0.00000000000E+00 -0.18604648681E+02  0.18604648681E+02  0.00000000000E+00 0. -1.
         21    1    1    2  503  501 -0.24582039741E+02  0.81118065329E+00  0.12696057864E+01  0.24628166613E+02  0.00000000000E+00 0. -1.
         21    1    1    2  504  502  0.24582039741E+02 -0.81118065329E+00  0.14912267958E+02  0.28763004494E+02  0.00000000000E+00 0. -1.
</event>
<event>
 4    1  0.3065783E+006  0.2629607E+02  0.7546771E-02  0.1454810E+00
         21   -1    0    0  504  501  0.00000000000E+00  0.00000000000E+00  0.22705579317E+02  0.22705579317E+02  0.00000000000E+00 0. -1.
         21   -1    0    0  503  502 -0.00000000000E+00 -0.00000000000E+00 -0.35430880467E+02  0.35430880467E+02  0.00000000000E+00 0.  1.
         21    1    1    2  503  501  0.21931370252E+02  0.14508564917E+02 -0.17256750048E+02  0.31452803997E+02  0.00000000000E+00 0.  1.
         21    1    1    2  504  502 -0.21931370252E+02 -0.14508564917E+02  0.45314488980E+01  0.26683655787E+02  0.00000000000E+00 0. -1.
</event>
<event>
 4    1  0.3065783E+006  0.2281824E+02  0.7546771E-02  0.1494793E+00
         21   -1    0    0  503  501  0.00000000000E+00  0.00000000000E+00  0.85480276576E+01  0.85480276576E+01  0.00000000000E+00 0.  1.
         21   -1    0    0  504  502 -0.00000000000E+00 -0.00000000000E+00 -0.40323319449E+03  0.40323319449E+03  0.00000000000E+00 0.  1.
         21    1    1    2  503  502  0.89456562709E+01 -0.20991605020E+02 -0.76389339965E+01  0.24062949945E+02  0.00000000000E+00 0.  1.
         21    1    1    2  504  501 -0.89456562709E+01  0.20991605020E+02 -0.38704623283E+03  0.38771827220E+03  0.00000000000E+00 0.  1.
</event>
<event>
 4    1  0.3065783E+006  0.2125546E+02  0.7546771E-02  0.1515649E+00
         21   -1    0    0  503  501  0.00000000000E+00  0.00000000000E+00  0.19178734111E+02  0.19178734111E+02  0.00000000000E+00 0.  1.
         21   -1    0    0  501  502 -0.00000000000E+00 -0.00000000000E+00 -0.22027441923E+03  0.22027441923E+03  0.00000000000E+00 0. -1.
         21    1    1    2  503  504 -0.14726760234E+02  0.15327011317E+02  0.12595724507E+02  0.24707226043E+02  0.00000000000E+00 0.  1.
         21    1    1    2  504  502  0.14726760234E+02 -0.15327011317E+02 -0.21369140963E+03  0.21474592730E+03  0.00000000000E+00 0. -1.
</event>
<event>
 4    1  0.3065783E+006  0.2079082E+02  0.7546771E-02  0.1522272E+00
         21   -1    0    0  502  501  0.00000000000E+00  0.00000000000E+00  0.84078770369E+00  0.84078770369E+00  0.00000000000E+00 0.  1.
         21   -1    0    0  503  502 -0.00000000000E+00 -0.00000000000E+00 -0.98082761251E+03  0.98082761251E+03  0.00000000000E+00 0. -1.
         21    1    1    2  503  504 -0.81288473273E+01 -0.19135836367E+02 -0.82857629735E+03  0.82883710035E+03  0.00000000000E+00 0. -1.
         21    1    1    2  504  501  0.81288473273E+01  0.19135836367E+02 -0.15141052745E+03  0.15283129986E+03  0.00000000000E+00 0.  1.
</event>
<event>
 4    1  0.3065783E+006  0.3245382E+02  0.7546771E-02  0.1399405E+00
         21   -1    0    0  504  501  0.00000000000E+00  0.00000000000E+00  0.11933768633E+03  0.11933768633E+03  0.00000000000E+00 0. -1.
         21   -1    0    0  503  502 -0.00000000000E+00 -0.00000000000E+00 -0.19389324991E+02  0.19389324991E+02  0.00000000000E+00 0. -1.
         21    1    1    2  503  501 -0.30419953332E+02  0.11308252054E+02  0.10117232201E+03  0.10625012407E+03  0.00000000000E+00 0. -1.
         21    1    1    2  504  502  0.30419953332E+02 -0.11308252054E+02 -0.12239606732E+01  0.32476887242E+02  0.00000000000E+00 0. -1.
</event>
<event>
 4    1  0.3065783E+006  0.2348923E+02  0.7546771E-02  0.1486445E+00
         21   -1    0    0  502  501  0.00000000000E+00  0.00000000000E+00  0.38286469584E+02  0.38286469584E+02  0.00000000000E+00 0. -1.
         21   -1    0    0  504  502 -0.00000000000E+00 -0.00000000000E+00 -0.62424992914E+02  0.62424992914E+02  0.00000000000E+00 0.  1.
         21    1    1    2  503  501 -0.17617023425E+02  0.15536551592E+02  0.32093258360E+02  0.39770858450E+02  0.00000000000E+00 0. -1.
         21    1    1    2  504  503  0.17617023425E+02 -0.15536551592E+02 -0.56231781690E+02  0.60940604048E+02  0.00000000000E+00 0.  1.
</event>
<event>
 4    1  0.3065783E+006  0.2321754E+02  0.7546771E-02  0.1489784E+00
         21   -1    0    0  502  501  0.00000000000E+00  0.00000000000E+00  0.78689075548E+01  0.78689075548E+01  0.00000000000E+00 0. -1.
         21   -1    0    0  503  502 -0.00000000000E+00 -0.00000000000E+00 -0.21523598198E+03  0.21523598198E+03  0.00000000000E+00 0.  1.
         21    1    1    2  503  504  0.23039852406E+02 -0.28669117455E+01 -0.19578862201E+03  0.19716043845E+03  0.00000000000E+00 0.  1.
         21    1    1    2  504  501 -0.23039852406E+02  0.28669117455E+01 -0.11578452421E+02  0.25944451089E+02  0.00000000000E+00 0. -1.
</event>
<event>
 4    1  0.3065783E+006  0.3163465E+02  0.7546771E-02  0.1405904E+00
         21   -1    0    0  502  501  0.00000000000E+00  0.00000000000E+00  0.79115995056E+02  0.79115995056E+02  0.00000000000E+00 0.  1.
         21   -1    0    0  503  502 -0.00000000000E+00 -0.00000000000E+00 -0.16381294191E+03  0.16381294191E+03  0.00000000000E+00 0.  1.
         21    1    1    2  503  504  0.11721034901E+02  0.29383135876E+02 -0.15902917059E+03  0.16214508451E+03  0.00000000000E+00 0.  1.
         21    1    1    2  504  501 -0.11721034901E+02 -0.29383135876E+02  0.74332223731E+02  0.80783852457E+02  0.00000000000E+00 0.  1.
</event>
<event>
 4    1  0.3065783E+006  0.3135205E+02  0.7546771E-02  0.1408200E+00
         21   -1    0    0  504  501  0.00000000000E+00  0.00000000000E+00  0.33959915355E+02  0.33959915355E+02  0.00000000000E+00 0. -1.
         21   -1    0    0  503  502 -0.00000000000E+00 -0.00000000000E+00 -0.41355352509E+02  0.41355352509E+02  0.00000000000E+00 0.  1.
         21    1    1    2  503  501 -0.21107452128E+02 -0.23182465207E+02  0.16931784524E+02  0.35631959749E+02  0.00000000000E+00 0. -1.
         21    1    1    2  504  502  0.21107452128E+02  0.23182465207E+02 -0.24327221678E+02  0.39683308115E+02  0.00000000000E+00 0.  1.
</event>
<event>
 4    1  0.3065783E+006  0.2147515E+02  0.7546771E-02  0.1512588E+00
         21   -1    0    0  504  501  0.00000000000E+00  0.00000000000E+00  0.96797266686E+02  0.96797266686E+02  0.00000000000E+00 0. -1.
         21   -1    0    0  503  502 -0.00000000000E+00 -0.00000000000E+00 -0.75582295456E+01  0.75582295456E+01  0.00000000000E+00 0. -1.
         21    1    1    2  503  501 -0.20524296641E+02 -0.63194441931E+01  0.12896518046E+02  0.25049996112E+02  0.00000000000E+00 0. -1.
         21    1    1    2  504  502  0.20524296641E+02  0.63194441931E+01  0.76342519095E+02  0.79305500120E+02  0.00000000000E+00 0. -1.
</event>
<event>
 4    1  0.3065783E+006  0.3593133E+02  0.7546771E-02  0.1374131E+00
         21   -1    0    0  504  501  0.00000000000E+00  0.00000000000E+00  0.13842600768E+03  0.13842600768E+03  0.00000000000E+00 0. -1.
         21   -1    0    0  503  502 -0.00000000000E+00 -0.00000000000E+00 -0.49653513466E+02  0.49653513466E+02  0.00000000000E+00 0. -1.
         21    1    1    2  503  501 -0.29040587629E+02  0.21159040187E+02  0.12913500939E+03  0.13404070785E+03  0.00000000000E+00 0. -1.
         21    1    1    2  504  502  0.29040587629E+02 -0.21159040187E+02 -0.40362515172E+02  0.54038813296E+02  0.00000000000E+00 0. -1.
</event>
<event>
 4    1  0.3065783E+006  0.2733911E+02  0.7546771E-02  0.1444231E+00
         21   -1    0    0  503  501  0.00000000000E+00  0.00000000000E+00  0.24028266866E+02  0.24028266866E+02  0.00000000000E+00 0.  1.
         21   -1    0    0  504  502 -0.00000000000E+00 -0.00000000000E+00 -0.10661240057E+03  0.10661240057E+03  0.00000000000E+00 0. -1.
         21    1    1    2  503  502  0.10415890249E+02  0.25277188113E+02  0.13679228385E+02  0.30570382690E+02  0.00000000000E+00 0.  1.
         21    1    1    2  504  501 -0.10415890249E+02 -0.25277188113E+02 -0.96263362092E+02  0.10007028475E+03  0.00000000000E+00 0. -1.
</event>
<event>
 4    1  0.3065783E+006  0.2026436E+02  0.7546771E-02  0.1530032E+00
         21   -1    0    0  503  501  0.00000000000E+00  0.00000000000E+00  0.80699999554E+02  0.80699999554E+02  0.00000000000E+00 0.  1.
         21   -1    0    0  504  502 -0.00000000000E+00 -0.00000000000E+00 -0.10914148018E+02  0.10914148018E+02  0.00000000000E+00 0. -1.
         21    1    1    2  503  502 -0.19353914449E+02 -0.60058446938E+01  0.68359304500E+02  0.71299640158E+02  0.00000000000E+00 0.  1.
         21    1    1    2  504  501  0.19353914449E+02  0.60058446938E+01  0.14265470354E+01  0.20314507413E+02  0.00000000000E+00 0. -1.
</event>
<event>
 4    1  0.3065783E+006  0.3226616E+02  0.7546771E-02  0.1400874E+00
         21   -1    0    0  504  501  0.00000000000E+00  0.00000000000E+00  0.34963178021E+01  0.34963178021E+01  0.00000000000E+00 0.  1.
         21   -1    0    0  503  502 -0.00000000000E+00 -0.00000000000E+00 -0.38043305492E+03  0.38043305492E+03  0.00000000000E+00 0. -1.
         21    1    1    2  503  501  0.21405252747E+02  0.24143738780E+02 -0.27794984198E+03  0.27981640342E+03  0.00000000000E+00 0. -1.
         21    1    1    2  504  502 -0.21405252747E+02 -0.24143738780E+02 -0.98986895139E+02  0.10411296930E+03  0.00000000000E+00 0.  1.
</event>
<event>
 4    1  0.3065783E+006  0.2174863E+02  0.7546771E-02  0.1508839E+00
         21   -1    0    0  504  501  0.00000000000E+00  0.00000000000E+00  0.69721312847E+02  0.69721312847E+02  0.00000000000E+00 0.  1.
         21   -1    0    0  503  502 -0.00000000000E+00 -0.00000000000E+00 -0.81101534075E+01  0.81101534075E+01  0.00000000000E+00 0.  1.
         21    1    1    2  503  501  0.11748542723E+02  0.18302307108E+02  0.46540925512E+02  0.51371786509E+02  0.00000000000E+00 0.  1.
         21    1    1    2  504  502 -0.11748542723E+02 -0.18302307108E+02  0.15070233927E+02  0.26459679745E+02  0.00000000000E+00 0.  1.
</event>
<event>
 4    1  0.3065783E+006  0.3416623E+02  0.7546771E-02  0.1386521E+00
         21   -1    0    0  502  501  0.00000000000E+00  0.00000000000E+00  0.30228847514E+02  0.30228847514E+02  0.00000000000E+00 0. -1.
         21   -1    0    0  503  502 -0.00000000000E+00 -0.00000000000E+00 -0.49331321509E+02  0.49331321509E+02  0.00000000000E+00 0. -1.
         21    1    1    2  503  504  0.33826575655E+02  0.48056333335E+01 -0.28090712316E+02  0.44231430574E+02  0.00000000000E+00 0. -1.
         21    1    1    2  504  501 -0.33826575655E+02 -0.48056333335E+01  0.89882383210E+01  0.35328738449E+02  0.00000000000E+00 0. -1.
</event>
<event>
 4    1  0.3065783E+006  0.2554419E+02  0.7546771E-02  0.1462807E+00
         21   -1    0    0  502  501  0.00000000000E+00  0.00000000000E+00  0.19342801878E+02  0.19342801878E+02  0.00000000000E+00 0.  1.
         21   -1    0    0  503  502 -0.00000000000E+00 -0.00000000000E+00 -0.33318586045E+03  0.33318586045E+03  0.00000000000E+00 0.  1.
         21    1    1    2  503  504 -0.25503685953E+02  0.14378821607E+01 -0.32402475573E+03  0.32503007219E+03  0.00000000000E+00 0.  1.
         21    1    1    2  504  501  0.25503685953E+02 -0.14378821607E+01  0.10181697161E+02  0.27498590134E+02  0.00000000000E+00 0.  1.
</event>
<event>
 4    1  0.3065783E+006  0.2036032E+02  0.7546771E-02  0.1528597E+00
         21   -1    0    0  503  501  0.00000000000E+00  0.00000000000E+00  0.10903800135E+03  0.10903800135E+03  0.00000000000E+00 0. -1.
         21   -1    0    0  504  502 -0.00000000000E+00 -0.00000000000E+00 -0.65791739783E+01  0.65791739783E+01  0.00000000000E+00 0.  1.
         21    1    1    2  503  502  0.62945488766E+01 -0.19362883964E+02  0.88789143406E+02  0.91093658438E+02  0.00000000000E+00 0. -1.
         21    1    1    2  504  501 -0.62945488766E+01  0.19362883964E+02  0.13669683967E+02  0.24523516891E+02  0.00000000000E+00 0.  1.
</event>
<event>
 4    1  0.3065783E+006  0.2686742E+02  0.7546771E-02  0.1448945E+00
         21   -1    0    0  504  501  0.00000000000E+00  0.00000000000E+00  0.71350227065E+03  0.71350227065E+03  0.00000000000E+00 0.  1.
         21   -1    0    0  503  502 -0.00000000000E+00 -0.00000000000E+00 -0.72746271479E+02  0.72746271479E+02  0.00000000000E+00 0.  1.
         21    1    1    2  503  501 -0.13004390531E+02 -0.23510504952E+02  0.71075903283E+03  0.71126665940E+03  0.00000000000E+00 0.  1.
         21    1    1    2  504  502  0.13004390531E+02  0.23510504952E+02 -0.70003033662E+02  0.74981882732E+02  0.00000000000E+00 0.  1.
</event>
<event>
 4    1  0.3065783E+006  0.2231047E+02  0.7546771E-02  0.1501343E+00
         21   -1    0    0  504  501  0.00000000000E+00  0.00000000000E+00  0.15425351957E+03  0.15425351957E+03  0.00000000000E+00 0.  1.
         21   -1    0    0  501  502 -0.00000000000E+00 -0.00000000000E+00 -0.17957111581E+02  0.17957111581E+02  0.00000000000E+00 0.  1.
         21    1    1    2  503  502 -0.14954453197E+01 -0.22260296352E+02 -0.98377792634E+01  0.24383171476E+02  0.00000000000E+00 0.  1.
         21    1    1    2  504  503  0.14954453197E+01  0.22260296352E+02  0.14613418725E+03  0.14782745967E+03  0.00000000000E+00 0.  1.
</event>
<event>
 4    1  0.3065783E+006  0.4347165E+02  0.7546771E-02  0.1329261E+00
         21   -1    0    0  504  501  0.00000000000E+00  0.00000000000E+00  0.14754871840E+02  0.14754871840E+02  0.00000000000E+00 0.  1.
         21   -1    0    0  503  502 -0.00000000000E+00 -0.00000000000E+00 -0.19187270415E+03  0.19187270415E+03  0.00000000000E+00 0.  1.
         21    1    1    2  503  501 -0.37548717175E+02  0.21906124716E+02 -0.14813084982E+03  0.15437789067E+03  0.00000000000E+00 0.  1.
         21    1    1    2  504  502  0.37548717175E+02 -0.21906124716E+02 -0.28986982493E+02  0.52249685315E+02  0.00000000000E+00 0.  1.
</event>
<event>
 4    1  0.3065783E+006  0.2213682E+02  0.7546771E-02  0.1503631E+00
         21   -1    0    0  503  501  0.00000000000E+00  0.00000000000E+00  0.13566529487E+04  0.13566529487E+04  0.00000000000E+00 0. -1.
         21   -1    0    0  501  502 -0.00000000000E+00 -0.00000000000E+00 -0.26303827472E+01  0.26303827472E+01  0.00000000000E+00 0.  1.
         21    1    1    2  503  504 -0.21807241317E+02 -0.38056334003E+01  0.13082653073E+04  0.13084525796E+04  0.00000000000E+00 0. -1.
         21    1    1    2  504  502  0.21807241317E+02  0.38056334003E+01  0.45757258591E+02  0.50830751845E+02  0.00000000000E+00 0.  1.
</event>
<event>
 4    1  0.3065783E+006  0.2167005E+02  0.7546771E-02  0.1509909E+00
         21   -1    0    0  502  501  0.00000000000E+00  0.00000000000E+00  0.42434506952E+01  0.42434506952E+01  0.00000000000E+00 0.  1.
         21   -1    0    0  504  502 -0.00000000000E+00 -0.00000000000E+00 -0.39964987129E+03  0.39964987129E+03  0.00000000000E+00 0.  1.
         21    1    1    2  503  501 -0.42662379636E+01  0.21245946329E+02 -0.25977135877E+02  0.33829020236E+02  0.00000000000E+00 0.  1.
         21    1    1    2  504  503  0.42662379636E+01 -0.21245946329E+02 -0.36942928472E+03  0.37006430175E+03  0.00000000000E+00 0.  1.
</event>
<event>
 4    1  0.3065783E+006  0.2160705E+02  0.7546771E-02  0.1510771E+00
         21   -1    0    0  503  501  0.00000000000E+00  0.00000000000E+00  0.16329815647E+03  0.16329815647E+03  0.00000000000E+00 0.  1.
         21   -1    0    0  504  502 -0.00000000000E+00 -0.00000000000E+00 -0.26187004954E+02  0.26187004954E+02  0.00000000000E+00 0.  1.
         21    1    1    2  503  502  0.19210148437E+02 -0.98911567198E+01  0.15797695402E+03  0.15944774312E+03  0.00000000000E+00 0.  1.
         21    1    1    2  504  501 -0.19210148437E+02  0.98911567198E+01 -0.20865802505E+02  0.30037418305E+02  0.00000000000E+00 0.  1.
</event>
<event>
 4    1  0.3065783E+006  0.5183842E+02  0.7546771E-02  0.1290393E+00
         21   -1    0    0  502  501  0.00000000000E+00  0.00000000000E+00  0.12706611225E+04  0.12706611225E+04  0.00000000000E+00 0. -1.
         21   -1    0    0  504  502 -0.00000000000E+00 -0.00000000000E+00 -0.20425921998E+02  0.20425921998E+02  0.00000000000E+00 0.  1.
         21    1    1    2  503  501  0.21075978408E+02 -0.47360587359E+02  0.12363296535E+04  0.12374159504E+04  0.00000000000E+00 0. -1.
         21    1    1    2  504  503 -0.21075978408E+02  0.47360587359E+02  0.13905546915E+02  0.53671094044E+02  0.00000000000E+00 0.  1.
</event>
<event>
 4    1  0.3065783E+006  0.2082846E+02  0.7546771E-02  0.1521728E+00
         21   -1    0    0  504  501  0.00000000000E+00  0.00000000000E+00  0.52008030881E+02  0.52008030881E+02  0.00000000000E+00 0. -1.
         21   -1    0    0  501  502 -0.00000000000E+00 -0.00000000000E+00 -0.42739925596E+02  0.42739925596E+02  0.00000000000E+00 0.  1.
         21    1    1    2  503  502 -0.16087229914E+02  0.13229736842E+02 -0.37866274066E+02  0.43216658997E+02  0.00000000000E+00 0.  1.
         21    1    1    2  504  503  0.16087229914E+02 -0.13229736842E+02  0.47134379351E+02  0.51531297481E+02  0.00000000000E+00 0. -1.
</event>
<event>
 4    1  0.3065783E+006  0.2138776E+02  0.7546771E-02  0.1513800E+00
         21   -1    0    0  503  501  0.00000000000E+00  0.00000000000E+00  0.16390344268E+03  0.16390344268E+03  0.00000000000E+00 0.  1.
         21   -1    0    0  501  502 -0.00000000000E+00 -0.00000000000E+00 -0.67393213078E+01  0.67393213078E+01  0.00000000000E+00 0.  1.
         21    1    1    2  503  504 -0.37816269915E+01  0.21050790302E+02  0.14388941569E+03  0.14547027333E+03  0.00000000000E+00 0.  1.
         21    1    1    2  504  502  0.37816269915E+01 -0.21050790302E+02  0.13274705685E+02  0.25172490661E+02  0.00000000000E+00 0.  1.
</event>
<event>
 4    1  0.3065783E+006  0.2137390E+02  0.7546771E-02  0.1513993E+00
         21   -1    0    0  504  501  0.00000000000E+00  0.00000000000E+00  0.46874769276E+03  0.46874769276E+03  0.00000000000E+00 0.  1.
         21   -1    0    0  501  502 -0.00000000000E+00 -0.00000000000E+00 -0.14247845999E+01  0.14247845999E+01  0.00000000000E+00 0.  1.
         21    1    1    2  503  502  0.16808636715E+02 -0.13202773222E+02  0.10151793349E+03  0.10374359888E+03  0.00000000000E+00 0.  1.
         21    1    1    2  504  503 -0.16808636715E+02  0.13202773222E+02  0.36580497467E+03  0.36642887848E+03  0.00000000000E+00 0.  1.
</event>
<event>
 4    1  0.3065783E+006  0.2225434E+02  0.7546771E-02  0.1502080E+00
         21   -1    0    0  502  501  0.00000000000E+00  0.00000000000E+00  0.13065209846E+03  0.13065209846E+03  0.00000000000E+00 0. -1.
         21   -1    0    0  503  502 -0.00000000000E+00 -0.00000000000E+00 -0.92679374193E+01  0.92679374193E+01  0.00000000000E+00 0. -1.
         21    1    1    2  503  504  0.22226814707E+02  0.11065614483E+01  0.69095397028E+01  0.23302306950E+02  0.00000000000E+00 0. -1.
         21    1    1    2  504  501 -0.22226814707E+02 -0.11065614483E+01  0.11447462134E+03  0.11661772893E+03  0.00000000000E+00 0. -1.
</event>
<event>
 4    1  0.3065783E+006  0.2624262E+02  0.7546771E-02  0.1455368E+00
         21   -1    0    0  504  501  0.00000000000E+00  0.00000000000E+00  0.50282263537E+03  0.50282263537E+03  0.00000000000E+00 0. -1.
         21   -1    0    0  503  502 -0.00000000000E+00 -0.00000000000E+00 -0.65396835149E+01  0.65396835149E+01  0.00000000000E+00 0.  1.
         21    1    1    2  503  501  0.65195922786E+01  0.25419879629E+02  0.21694544550E+02  0.34048915211E+02  0.00000000000E+00 0.  1.
         21    1    1    2  504  502 -0.65195922786E+01 -0.25419879629E+02  0.47458840731E+03  0.47531340368E+03  0.00000000000E+00 0. -1.
</event>
<event>
 4    1  0.3065783E+006  0.2804596E+02  0.7546771E-02  0.1437375E+00
         21   -1    0    0  504  501  0.00000000000E+00  0.00000000000E+00  0.34905906976E+02  0.34905906976E+02  0.00000000000E+00 0.  1.
         21   -1    0    0  501  502 -0.00000000000E+00 -0.00000000000E+00 -0.29720386162E+03  0.29720386162E+03  0.00000000000E+00 0.  1.
         21    1    1    2  503  502 -0.14241902392E+02 -0.24160795763E+02 -0.29078459460E+03  0.29213396977E+03  0.00000000000E+00 0.  1.
         21    1    1    2  504  503  0.14241902392E+02  0.24160795763E+02  0.28486639958E+02  0.39975798825E+02  0.00000000000E+00 0.  1.
</event>
<event>
 4    1  0.3065783E+006  0.2035562E+02  0.7546771E-02  0.1528667E+00
         21   -1    0    0  504  501  0.00000000000E+00  0.00000000000E+00  0.58900925634E+02  0.58900925634E+02  0.00000000000E+00 0. -1.
         21   -1    0    0  503  502 -0.00000000000E+00 -0.00000000000E+00 -0.15754927711E+02  0.15754927711E+02  0.00000000000E+00 0.  1.
         21    1    1    2  503  501 -0.18992931179E+02  0.73225597507E+01 -0.61978503426E+01  0.21278267433E+02  0.00000000000E+00 0.  1.
         21    1    1    2  504  502  0.18992931179E+02 -0.73225597507E+01  0.49343848266E+02  0.53377585912E+02  0.00000000000E+00 0. -1.
</event>
<event>
 4    1  0.3065783E+006  0.3610545E+02  0.7546771E-02  0.1372954E+00
         21   -1    0    0  504  501  0.00000000000E+00  0.00000000000E+00  0.34366092375E+02  0.34366092375E+02  0.00000000000E+00 0. -1.
         21   -1    0    0  503  502 -0.00000000000E+00 -0.00000000000E+00 -0.39913935285E+02  0.39913935285E+02  0.00000000000E+00 0. -1.
         21    1    1    2  503  501  0.36101395343E+02 -0.54113029119E+00  0.55003964011E+01  0.36522019773E+02  0.00000000000E+00 0. -1.
         21    1    1    2  504  502 -0.36101395343E+02  0.54113029119E+00 -0.11048239311E+02  0.37758007887E+02  0.00000000000E+00 0. -1.
</event>
<event>
 4    1  0.3065783E+006  0.2217026E+02  0.7546771E-02  0.1503189E+00
         21   -1    0    0  504  501  0.00000000000E+00  0.00000000000E+00  0.97289811282E+00  0.97289811282E+00  0.00000000000E+00 0.  1.
         21   -1    0    0  503  502 -0.00000000000E+00 -0.00000000000E+00 -0.10910910325E+04  0.10910910325E+04  0.00000000000E+00 0. -1.
         21    1    1    2  503  501 -0.21681289222E+02 -0.46305805728E+01 -0.14493814966E+03  0.14662396737E+03  0.00000000000E+00 0.  1.
         21    1    1    2  504  502  0.21681289222E+02  0.46305805728E+01 -0.94517998476E+03  0.94543996328E+03  0.00000000000E+00 0. -1.
</event>
<event>
 4    1  0.3065783E+006  0.2033852E+02  0.7546771E-02  0.1528922E+00
         21   -1    0    0  504  501  0.00000000000E+00  0.00000000000E+00  0.46398279593E+03  0.46398279593E+03  0.00000000000E+00 0. -1.
         21   -1    0    0  503  502 -0.00000000000E+00 -0.00000000000E+00 -0.98150502065E+00  0.98150502065E+00  0.00000000000E+00 0. -1.
         21    1    1    2  503  501  0.16053663729E+02 -0.12487410085E+02  0.30188877091E+03  0.30257310775E+03  0.00000000000E+00 0. -1.
         21    1    1    2  504  502 -0.16053663729E+02  0.12487410085E+02  0.16111251999E+03  0.16239119320E+03  0.00000000000E+00 0. -1.
</event>
<event>
 4    1  0.3065783E+006  0.3285729E+02  0.7546771E-02  0.1396287E+00
         21   -1    0    0  502  501  0.00000000000E+00  0.00000000000E+00  0.51775604421E+02  0.51775604421E+02  0.00000000000E+00 0.  1.
         21   -1    0    0  503  502 -0.00000000000E+00 -0.00000000000E+00 -0.22364689873E+02  0.22364689873E+02  0.00000000000E+00 0.  1.
         21    1    1    2  503  504 -0.10201560097E+02  0.31233472832E+02  0.24347793502E+02  0.40895191673E+02  0.00000000000E+00 0.  1.
         21    1    1    2  504  501  0.10201560097E+02 -0.31233472832E+02  0.50631210452E+01  0.33245102621E+02  0.00000000000E+00 0.  1.
</event>
<event>
 4    1  0.3065783E+006  0.2175487E+02  0.7546771E-02  0.1508754E+00
         21   -1    0    0  503  501  0.00000000000E+00  0.00000000000E+00  0.22971679699E+02  0.22971679699E+02  0.00000000000E+00 0. -1.
         21   -1    0    0  504  502 -0.00000000000E+00 -0.00000000000E+00 -0.64033314286E+02  0.64033314286E+02  0.00000000000E+00 0. -1.
         21    1    1    2  503  502 -0.17076061833E+02  0.13478966413E+02 -0.56357788594E+02  0.60410882782E+02  0.00000000000E+00 0. -1.
         21    1    1    2  504  501  0.17076061833E+02 -0.13478966413E+02  0.15296154007E+02  0.26594111203E+02  0.00000000000E+00 0. -1.
</event>
<event>
 4    1  0.3065783E+006  0.2792476E+02  0.7546771E-02  0.1438534E+00
         21   -1    0    0  503  501  0.00000000000E+00  0.00000000000E+00  0.23169215274E+03  0.23169215274E+03  0.00000000000E+00 0. -1.
         21   -1    0    0  501  502 -0.00000000000E+00 -0.00000000000E+00 -0.41829694552E+01  0.41829694552E+01  0.00000000000E+00 0. -1.
         21    1    1    2  503  504  0.81521913389E+01 -0.26708308548E+02  0.16588712608E+03  0.16822107646E+03  0.00000000000E+00 0. -1.
         21    1    1    2  504  502 -0.81521913389E+01  0.26708308548E+02  0.61622057212E+02  0.67654045734E+02  0.00000000000E+00 0. -1.
</event>
<event>
 4    1  0.3065783E+006  0.2403673E+02  0.7546771E-02  0.1479875E+00
         21   -1    0    0  504  501  0.00000000000E+00  0.00000000000E+00  0.12443460984E+02  0.12443460984E+02  0.00000000000E+00 0. -1.
         21   -1    0    0  501  502 -0.00000000000E+00 -0.00000000000E+00 -0.19287784856E+03  0.19287784856E+03  0.00000000000E+00 0.  1.
         21    1    1    2  503  502 -0.22930386698E+02 -0.72084584114E+01 -0.17967177976E+03  0.18127248260E+03  0.00000000000E+00 0.  1.
         21    1    1    2  504  503  0.22930386698E+02  0.72084584114E+01 -0.76260782010E+00  0.24048826946E+02  0.00000000000E+00 0. -1.
</event>
<event>
 4    1  0.3065783E+006  0.3838945E+02  0.7546771E-02  0.1358191E+00
         21   -1    0    0  504  501  0.00000000000E+00  0.00000000000E+00  0.26637415978E+03  0.26637415978E+03  0.00000000000E+00 0.  1.
         21   -1    0    0  503  502 -0.00000000000E+00 -0.00000000000E+00 -0.11696374216E+03  0.11696374216E+03  0.00000000000E+00 0. -1.
         21    1    1    2  503  501  0.23403202429E+02  0.30430903186E+02 -0.11237565670E+03  0.11875200197E+03  0.00000000000E+00 0. -1.
         21    1    1    2  504  502 -0.23403202429E+02 -0.30430903186E+02  0.26178607432E+03  0.26458589997E+03  0.00000000000E+00 0.  1.
</event>
<event>
 4    1  0.3065783E+006  0.3238596E+02  0.7546771E-02  0.1399935E+00
         21   -1    0    0  502  501  0.00000000000E+00  0.00000000000E+00  0.16971935176E+03  0.16971935176E+03  0.00000000000E+00 0.  1.
         21   -1    0    0  504  502 -0.00000000000E+00 -0.00000000000E+00 -0.65006554972E+01  0.65006554972E+01  0.00000000000E+00 0. -1.
         21    1    1    2  503  501  0.31929374967E+02  0.54189602197E+01  0.62037684669E+02  0.69982315157E+02  0.00000000000E+00 0. -1.
         21    1    1    2  504  503 -0.31929374967E+02 -0.54189602197E+01  0.10118101159E+03  0.10623769210E+03  0.00000000000E+00 0.  1.
</event>
<event>
 4    1  0.3065783E+006  0.2179997E+02  0.7546771E-02  0.1508143E+00
         21   -1    0    0  503  501  0.00000000000E+00  0.00000000000E+00  0.19751414673E+03  0.19751414673E+03  0.00000000000E+00 0.  1.
         21   -1    0    0  504  502 -0.00000000000E+00 -0.00000000000E+00 -0.83141726497E+01  0.83141726497E+01  0.00000000000E+00 0. -1.
         21    1    1    2  503  502  0.21677894231E+02 -0.23037958534E+01  0.78461751406E+01  0.23168967132E+02  0.00000000000E+00 0. -1.
         21    1    1    2  504  501 -0.21677894231E+02  0.23037958534E+01  0.18135379894E+03  0.18265935225E+03  0.00000000000E+00 0.  1.
</event>
<event>
 4    1  0.3065783E+006  0.2020420E+02  0.7546771E-02  0.1530937E+00
         21   -1    0    0  504  501  0.00000000000E+00  0.00000000000E+00  0.42596617228E+02  0.42596617228E+02  0.00000000000E+00 0.  1.
         21   -1    0    0  501  502 -0.00000000000E+00 -0.00000000000E+00 -0.29201345644E+02  0.29201345644E+02  0.00000000000E+00 0.  1.
         21    1    1    2  503  502  0.16394086329E+01  0.20137573238E+02 -0.22726945470E+02  0.30409267781E+02  0.00000000000E+00 0.  1.
         21    1    1    2  504  503 -0.16394086329E+01 -0.20137573238E+02  0.36122217053E+02  0.41388695091E+02  0.00000000000E+00 0.  1.
</event>
<event>
 4    1  0.3065783E+006  0.2093701E+02  0.7546771E-02  0.1520166E+00
         21   -1    0    0  503  501  0.00000000000E+00  0.00000000000E+00  0.19092378895E+03  0.19092378895E+03  0.00000000000E+00 0.  1.
         21   -1    0    0  504  502 -0.00000000000E+00 -0.00000000000E+00 -0.25185192421E+01  0.25185192421E+01  0.00000000000E+00 0.  1.
         21    1    1    2  503  502 -0.47132979515E+01  0.20399593578E+02  0.65452160995E+02  0.68719312967E+02  0.00000000000E+00 0.  1.
         21    1    1    2  504  501  0.47132979515E+01 -0.20399593578E+02  0.12295310871E+03  0.12472299522E+03  0.00000000000E+00 0.  1.
</event>
<event>
 4    1  0.3065783E+006  0.2955082E+02  0.7546771E-02  0.1423540E+00
         21   -1    0    0  503  501  0.00000000000E+00  0.00000000000E+00  0.33537090792E+03  0.33537090792E+03  0.00000000000E+00 0.  1.
         21   -1    0    0  504  502 -0.00000000000E+00 -0.00000000000E+00 -0.15697303630E+02  0.15697303630E+02  0.00000000000E+00 0. -1.
         21    1    1    2  503  502  0.21430393539E+02  0.20346730902E+02  0.32015259319E+03  0.32151350540E+03  0.00000000000E+00 0.  1.
         21    1    1    2  504  501 -0.21430393539E+02 -0.20346730902E+02 -0.47898889809E+00  0.29554706156E+02  0.00000000000E+00 0. -1.
</event>
<event>
 4    1  0.3065783E+006  0.2666360E+02  0.7546771E-02  0.1451017E+00
         21   -1    0    0  504  501  0.00000000000E+00  0.00000000000E+00  0.34544482914E+02  0.34544482914E+02  0.00000000000E+00 0.  1.
         21   -1    0    0  503  502 -0.00000000000E+00 -0.00000000000E+00 -0.10858140178E+03  0.10858140178E+03  0.00000000000E+00 0.  1.
         21    1    1    2  503  501 -0.20966967201E+02  0.16472215878E+02 -0.10144334848E+03  0.10488899161E+03  0.00000000000E+00 0.  1.
         21    1    1    2  504  502  0.20966967201E+02 -0.16472215878E+02  0.27406429608E+02  0.38236893092E+02  0.00000000000E+00 0.  1.
</event>
<event>
 4    1  0.3065783E+006  0.2778999E+02  0.7546771E-02  0.1439830E+00
         21   -1    0    0  503  501  0.00000000000E+00  0.00000000000E+00  0.31998462965E+02  0.31998462965E+02  0.00000000000E+00 0. -1.
         21   -1    0    0  504  502 -0.00000000000E+00 -0.00000000000E+00 -0.24644844342E+02  0.24644844342E+02  0.00000000000E+00 0. -1.
         21    1    1    2  503  502  0.22915521191E+02  0.15721397707E+02 -0.39668393398E+00  0.27792819494E+02  0.00000000000E+00 0. -1.
         21    1    1    2  504  501 -0.22915521191E+02 -0.15721397707E+02  0.77503025566E+01  0.28850487813E+02  0.00000000000E+00 0. -1.
</event>
<event>
 4    1  0.3065783E+006  0.2419223E+02  0.7546771E-02  0.1478046E+00
         21   -1    0    0  503  501  0.00000000000E+00  0.00000000000E+00  0.11477412073E+03  0.11477412073E+03  0.00000000000E+00 0.  1.
         21   -1    0    0  501  502 -0.00000000000E+00 -0.00000000000E+00 -0.56758317244E+02  0.56758317244E+02  0.00000000000E+00 0.  1.
         21    1    1    2  503  504  0.15729166571E+02  0.18380898013E+02  0.11083077203E+03  0.11344039898E+03  0.00000000000E+00 0.  1.
         21    1    1    2  504  502 -0.15729166571E+02 -0.18380898013E+02 -0.52814968539E+02  0.58092038995E+02  0.00000000000E+00 0.  1.
</event>
<event>
 4    1  0.3065783E+006  0.3317482E+02  0.7546771E-02  0.1393870E+00
         21   -1    0    0  503  501  0.00000000000E+00  0.00000000000E+00  0.25924180533E+03  0.25924180533E+03  0.00000000000E+00 0. -1.
         21   -1    0    0  501  502 -0.00000000000E+00 -0.00000000000E+00 -0.16868628336E+02  0.16868628336E+02  0.00000000000E+00 0. -1.
         21    1    1    2  503  504  0.80790866708E+01 -0.32176029844E+02  0.24061269111E+03  0.24288893689E+03  0.00000000000E+00 0. -1.
         21    1    1    2  504  502 -0.80790866708E+01  0.32176029844E+02  0.17604858874E+01  0.33221496783E+02  0.00000000000E+00 0. -1.
</event>
<event>
 4    1  0.3065783E+006  0.2043730E+02  0.7546771E-02  0.1527452E+00
         21   -1    0    0  503  501  0.00000000000E+00  0.00000000000E+00  0.37956426758E+03  0.37956426758E+03  0.00000000000E+00 0.  1.
         21   -1    0    0  504  502 -0.00000000000E+00 -0.00000000000E+00 -0.79528274925E+01  0.79528274925E+01  0.00000000000E+00 0.  1.
         21    1    1    2  503  502  0.87889874447E+01  0.18450935660E+02  0.59511774320E+01  0.21286141967E+02  0.00000000000E+00 0.  1.
         21    1    1    2  504  501 -0.87889874447E+01 -0.18450935660E+02  0.36566026265E+03  0.36623095310E+03  0.00000000000E+00 0.  1.
</event>
<event>
 4    1  0.3065783E+006  0.2166332E+02  0.7546771E-02  0.1510001E+00
         21   -1    0    0  502  501  0.00000000000E+00  0.00000000000E+00  0.58904782174E+03  0.58904782174E+03  0.00000000000E+00 0. -1.
         21   -1    0    0  503  502 -0.00000000000E+00 -0.00000000000E+00 -0.15982514567E+03  0.15982514567E+03  0.00000000000E+00 0.  1.
         21    1    1    2  503  504 -0.20741217144E+02 -0.62530902266E+01 -0.15889072039E+03  0.16036071917E+03  0.00000000000E+00 0.  1.
         21    1    1    2  504  501  0.20741217144E+02  0.62530902266E+01  0.58811339646E+03  0.58851224823E+03  0.00000000000E+00 0. -1.
</event>
<event>
 4    1  0.3065783E+006  0.2197243E+02  0.7546771E-02  0.1505821E+00
         21   -1    0    0  503  501  0.00000000000E+00  0.00000000000E+00  0.21261706105E+03  0.21261706105E+03  0.00000000000E+00 0. -1.
         21   -1    0    0  504  502 -0.00000000000E+00 -0.00000000000E+00 -0.27085619913E+01  0.27085619913E+01  0.00000000000E+00 0. -1.
         21    1    1    2  503  502 -0.20261239010E+02 -0.85011670056E+01  0.61666060752E+02  0.65463659349E+02  0.00000000000E+00 0. -1.
         21    1    1    2  504  501  0.20261239010E+02  0.85011670056E+01  0.14824243831E+03  0.14986196369E+03  0.00000000000E+00 0. -1.
</event>
<event>
 4    1  0.3065783E+006  0.2118339E+02  0.7546771E-02  0.1516663E+00
         21   -1    0    0  502  501  0.00000000000E+00  0.00000000000E+00  0.62649101559E+01  0.62649101559E+01  0.00000000000E+00 0. -1.
         21   -1    0    0  503  502 -0.00000000000E+00 -0.00000000000E+00 -0.41839021383E+03  0.41839021383E+03  0.00000000000E+00 0. -1.
         21    1    1    2  503  504  0.16728233659E+02  0.12996238555E+02 -0.39936280316E+03  0.39992422353E+03  0.00000000000E+00 0. -1.
         21    1    1    2  504  501 -0.16728233659E+02 -0.12996238555E+02 -0.12762500511E+02  0.24730900453E+02  0.00000000000E+00 0. -1.
</event>
<event>
 4    1  0.3065783E+006  0.3461114E+02  0.7546771E-02  0.1383318E+00
         21   -1    0    0  503  501  0.00000000000E+00  0.00000000000E+00  0.69113646395E+02  0.69113646395E+02  0.00000000000E+00 0.  1.
         21   -1    0    0  504  502 -0.00000000000E+00 -0.00000000000E+00 -0.19923594420E+03  0.19923594420E+03  0.00000000000E+00 0. -1.
         21    1    1    2  503  502 -0.34141895544E+02 -0.56799437545E+01 -0.19326682005E+03  0.19634152521E+03  0.00000000000E+00 0. -1.
         21    1    1    2  504  501  0.34141895544E+02  0.56799437545E+01  0.63144522236E+02  0.72008065387E+02  0.00000000000E+00 0.  1.
</event>
<event>
 4    1  0.3065783E+006  0.2499730E+02  0.7546771E-02  0.1468834E+00
         21   -1    0    0  504  501  0.00000000000E+00  0.00000000000E+00  0.10774832563E+03  0.10774832563E+03  0.00000000000E+00 0.  1.
         21   -1    0    0  501  502 -0.00000000000E+00 -0.00000000000E+00 -0.13352312950E+02  0.13352312950E+02  0.00000000000E+00 0.  1.
         21    1    1    2  503  502  0.17674905095E+02  0.17676610436E+02  0.16574521765E+01  0.25052185022E+02  0.00000000000E+00 0.  1.
         21    1    1    2  504  503 -0.17674905095E+02 -0.17676610436E+02  0.92738560508E+02  0.96048453562E+02  0.00000000000E+00 0.  1.
</event>
<event>
 4    1  0.3065783E+006  0.2369115E+02  0.7546771E-02  0.1483997E+00
         21   -1    0    0  503  501  0.00000000000E+00  0.00000000000E+00  0.41837358515E+02  0.41837358515E+02  0.00000000000E+00 0.  1.
         21   -1    0    0  504  502 -0.00000000000E+00 -0.00000000000E+00 -0.23533157965E+02  0.23533157965E+02  0.00000000000E+00 0.  1.
         21    1    1    2  503  502 -0.10902509372E+02 -0.21033450420E+02 -0.12279320287E+02  0.26684311006E+02  0.00000000000E+00 0.  1.
         21    1    1    2  504  501  0.10902509372E+02  0.21033450420E+02  0.30583520837E+02  0.38686205474E+02  0.00000000000E+00 0.  1.
</event>
<event>
 4    1  0.3065783E+006  0.2187598E+02  0.7546771E-02  0.1507116E+00
         21   -1    0    0  503  501  0.00000000000E+00  0.00000000000E+00  0.21658471782E+02  0.21658471782E+02  0.00000000000E+00 0.  1.
         21   -1    0    0  504  502 -0.00000000000E+00 -0.00000000000E+00 -0.34066817223E+02  0.34066817223E+02  0.00000000000E+00 0.  1.
         21    1    1    2  503  502  0.19743257760E+02  0.94213687061E+01  0.10312572311E+02  0.24184862268E+02  0.00000000000E+00 0.  1.
         21    1    1    2  504  501 -0.19743257760E+02 -0.94213687061E+01 -0.22720917752E+02  0.31540426737E+02  0.00000000000E+00 0.  1.
</event>
<event>
 4    1  0.3065783E+006  0.2127391E+02  0.7546771E-02  0.1515390E+00
         21   -1    0    0  504  501  0.00000000000E+00  0.00000000000E+00  0.26579549662E+03  0.26579549662E+03  0.00000000000E+00 0.  1.
         21   -1    0    0  501  502 -0.00000000000E+00 -0.00000000000E+00 -0.12736811972E+03  0.12736811972E+03  0.00000000000E+00 0.  1.
         21    1    1    2  503  502 -0.73669740671E+00 -0.21261155227E+02 -0.12604968507E+03  0.12783232201E+03  0.00000000000E+00 0.  1.
         21    1    1    2  504  503  0.73669740671E+00  0.21261155227E+02  0.26447706196E+03  0.26533129433E+03  0.00000000000E+00 0.  1.
</event>
<event>
 4    1  0.3065783E+006  0.4699736E+02  0.7546771E-02  0.1311743E+00
         21   -1    0    0  503  501  0.00000000000E+00  0.00000000000E+00  0.57149610819E+02  0.57149610819E+02  0.00000000000E+00 0. -1.
         21   -1    0    0  501  502 -0.00000000000E+00 -0.00000000000E+00 -0.51683166457E+02  0.51683166457E+02  0.00000000000E+00 0. -1.
         21    1    1    2  503  504 -0.31785231196E+02 -0.34618648015E+02  0.30060959183E+02  0.55789004110E+02  0.00000000000E+00 0. -1.
         21    1    1    2  504  502  0.31785231196E+02  0.34618648015E+02 -0.24594514821E+02  0.53043773167E+02  0.00000000000E+00 0. -1.
</event>
<event>
 4    1  0.3065783E+006  0.2110135E+02  0.7546771E-02  0.1517823E+00
         21   -1    0    0  504  501  0.00000000000E+00  0.00000000000E+00  0.81612664420E+01  0.81612664420E+01  0.00000000000E+00 0. -1.
         21   -1    0    0  503  502 -0.00000000000E+00 -0.00000000000E+00 -0.95742213509E+02  0.95742213509E+02  0.00000000000E+00 0.  1.
         21    1    1    2  503  501  0.11577417629E+02  0.17641717718E+02 -0.97174327583E+01  0.23231343104E+02  0.00000000000E+00 0. -1.
         21    1    1    2  504  502 -0.11577417629E+02 -0.17641717718E+02 -0.77863514308E+02  0.80672136847E+02  0.00000000000E+00 0.  1.
</event>
<event>
 4    1  0.3065783E+006  0.2199445E+02  0.7546771E-02  0.1505526E+00
         21   -1    0    0  504  501  0.00000000000E+00  0.00000000000E+00  0.94213824874E+01  0.94213824874E+01  0.00000000000E+00 0.  1.
         21   -1    0    0  503  502 -0.00000000000E+00 -0.00000000000E+00 -0.96345322247E+02  0.96345322247E+02  0.00000000000E+00 0.  1.
         21    1    1    2  503  501 -0.21911178824E+02 -0.19120886754E+01 -0.79603273402E+02  0.82585936919E+02  0.00000000000E+00 0.  1.
         21    1    1    2  504  502  0.21911178824E+02  0.19120886754E+01 -0.73206663581E+01  0.23180767815E+02  0.00000000000E+00 0.  1.
</event>
<event>
 4    1  0.3065783E+006  0.4637881E+02  0.7546771E-02  0.1314685E+00
         21   -1    0    0  502  501  0.00000000000E+00  0.00000000000E+00  0.84001057771E+00  0.84001057771E+00  0.00000000000E+00 0. -1.
         21   -1    0    0  504  502 -0.00000000000E+00 -0.00000000000E+00 -0.29988137715E+04  0.29988137715E+04  0.00000000000E+00 0. -1.
         21    1    1    2  503  501 -0.35837006804E+02 -0.29439823423E+02 -0.92569983483E+03  0.92686092725E+03  0.00000000000E+00 0. -1.
         21    1    1    2  504  503  0.35837006804E+02  0.29439823423E+02 -0.20722739261E+04  0.20727928548E+04  0.00000000000E+00 0. -1.
</event>
<event>
 4    1  0.3065783E+006  0.2811180E+02  0.7546771E-02  0.1436748E+00
         21   -1    0    0  504  501  0.00000000000E+00  0.00000000000E+00  0.10882186198E+04  0.10882186198E+04  0.00000000000E+00 0. -1.
         21   -1    0    0  503  502 -0.00000000000E+00 -0.00000000000E+00 -0.29691743559E+01  0.29691743559E+01  0.00000000000E+00 0.  1.
         21    1    1    2  503  501  0.28075164910E+02  0.14347984546E+01  0.68423148254E+02  0.73972973093E+02  0.00000000000E+00 0.  1.
         21    1    1    2  504  502 -0.28075164910E+02 -0.14347984546E+01  0.10168262972E+04  0.10172148211E+04  0.00000000000E+00 0. -1.
</event>
<event>
 4    1  0.3065783E+006  0.3306066E+02  0.7546771E-02  0.1394735E+00
         21   -1    0    0  502  501  0.00000000000E+00  0.00000000000E+00  0.40636473783E+02  0.40636473783E+02  0.00000000000E+00 0.  1.
         21   -1    0    0  504  502 -0.00000000000E+00 -0.00000000000E+00 -0.44694731755E+02  0.44694731755E+02  0.00000000000E+00 0.  1.
         21    1    1    2  503  501 -0.24122003366E+02  0.22608322851E+02  0.24894253595E+02  0.41385156404E+02  0.00000000000E+00 0.  1.
         21    1    1    2  504  503  0.24122003366E+02 -0.22608322851E+02 -0.28952511567E+02  0.43946049135E+02  0.00000000000E+00 0.  1.
</event>
<event>
 4    1  0.3065783E+006  0.5946185E+02  0.7546771E-02  0.1261672E+00
         21   -1    0    0  504  501  0.00000000000E+00  0.00000000000E+00  0.22576831757E+03  0.22576831757E+03  0.00000000000E+00 0. -1.
         21   -1    0    0  501  502 -0.00000000000E+00 -0.00000000000E+00 -0.47192486197E+03  0.47192486197E+03  0.00000000000E+00 0. -1.
         21    1    1    2  503  502  0.35047471450E+02  0.48035265544E+02 -0.46608780134E+03  0.46986546005E+03  0.00000000000E+00 0. -1.
         21    1    1    2  504  503 -0.35047471450E+02 -0.48035265544E+02  0.21993125693E+03  0.22782771949E+03  0.00000000000E+00 0. -1.
</event>
<event>
 4    1  0.3065783E+006  0.2759323E+02  0.7546771E-02  0.1441738E+00
         21   -1    0    0  504  501  0.00000000000E+00  0.00000000000E+00  0.13601973567E+04  0.13601973567E+04  0.00000000000E+00 0. -1.
         21   -1    0    0  501  502 -0.00000000000E+00 -0.00000000000E+00 -0.74211302400E+01  0.74211302400E+01  0.00000000000E+00 0. -1.
         21    1    1    2  503  502 -0.10097730955E+02  0.25679212437E+02  0.18873635470E+02  0.33430528528E+02  0.00000000000E+00 0. -1.
         21    1    1    2  504  503  0.10097730955E+02 -0.25679212437E+02  0.13339025910E+04  0.13341879584E+04  0.00000000000E+00 0. -1.
</event>
<event>
 4    1  0.3065783E+006  0.4032283E+02  0.7546771E-02  0.1346604E+00
         21   -1    0    0  502  501  0.00000000000E+00  0.00000000000E+00  0.10949252946E+03  0.10949252946E+03  0.00000000000E+00 0.  1.
         21   -1    0    0  503  502 -0.00000000000E+00 -0.00000000000E+00 -0.27543546124E+03  0.27543546124E+03  0.00000000000E+00 0. -1.
         21    1    1    2  503  504  0.10121270121E+01 -0.40310126608E+02 -0.27017537579E+03  0.27316783192E+03  0.00000000000E+00 0. -1.
         21    1    1    2  504  501 -0.10121270121E+01  0.40310126608E+02  0.10423244401E+03  0.11176015879E+03  0.00000000000E+00 0.  1.
</event>
<event>
 4    1  0.3065783E+006  0.2164172E+02  0.7546771E-02  0.1510297E+00
         21   -1    0    0  503  501  0.00000000000E+00  0.00000000000E+00  0.81918333839E+02  0.81918333839E+02  0.00000000000E+00 0.  1.
         21   -1    0    0  504  502 -0.00000000000E+00 -0.00000000000E+00 -0.48606157884E+02  0.48606157884E+02  0.00000000000E+00 0.  1.
         21    1    1    2  503  502  0.16411225423E+02 -0.14108003974E+02 -0.44647775062E+02  0.49616407710E+02  0.00000000000E+00 0.  1.
         21    1    1    2  504  501 -0.16411225423E+02  0.14108003974E+02  0.77959951017E+02  0.80908084013E+02  0.00000000000E+00 0.  1.
</event>
<event>
 4    1  0.3065783E+006  0.2055024E+02  0.7546771E-02  0.1525784E+00
         21   -1    0    0  504  501  0.00000000000E+00  0.00000000000E+00  0.39206529761E+02  0.39206529761E+02  0.00000000000E+00 0. -1.
         21   -1    0    0  501  502 -0.00000000000E+00 -0.00000000000E+00 -0.56576678202E+02  0.56576678202E+02  0.00000000000E+00 0. -1.
         21    1    1    2  503  502 -0.19879402467E+02 -0.52078589239E+01 -0.51777211338E+02  0.55706301717E+02  0.00000000000E+00 0. -1.
         21    1    1    2  504  503  0.19879402467E+02  0.52078589239E+01  0.34407062897E+02  0.40076906246E+02  0.00000000000E+00 0. -1.
</event>
<event>
 4    1  0.3065783E+006  0.2224790E+02  0.7546771E-02  0.1502165E+00
         21   -1    0    0  503  501  0.00000000000E+00  0.00000000000E+00  0.91351670530E+01  0.91351670530E+01  0.00000000000E+00 0.  1.
         21   -1    0    0  504  502 -0.00000000000E+00 -0.00000000000E+00 -0.59013706439E+02  0.59013706439E+02  0.00000000000E+00 0.  1.
         21    1    1    2  503  502  0.16727541009E+02  0.14668284785E+02 -0.34688384581E+02  0.41209868133E+02  0.00000000000E+00 0.  1.
         21    1    1    2  504  501 -0.16727541009E+02 -0.14668284785E+02 -0.15190154806E+02  0.26939005359E+02  0.00000000000E+00 0.  1.
</event>
<event>
 4    1  0.3065783E+006  0.3997101E+02  0.7546771E-02  0.1348656E+00
         21   -1    0    0  503  501  0.00000000000E+00  0.00000000000E+00  0.18688230958E+02  0.18688230958E+02  0.00000000000E+00 0.  1.
         21   -1    0    0  504  502 -0.00000000000E+00 -0.00000000000E+00 -0.72720241550E+03  0.72720241550E+03  0.00000000000E+00 0. -1.
         21    1    1    2  503  502 -0.29478727774E+01  0.39862153917E+02 -0.39190586107E+01  0.40162672835E+02  0.00000000000E+00 0.  1.
         21    1    1    2  504  501  0.29478727774E+01 -0.39862153917E+02 -0.70459512593E+03  0.70572797363E+03  0.00000000000E+00 0. -1.
</event>
<event>
 4    1  0.3065783E+006  0.2398514E+02  0.7546771E-02  0.1480485E+00
         21   -1    0    0  502  501  0.00000000000E+00  0.00000000000E+00  0.13842780007E+03  0.13842780007E+03  0.00000000000E+00 0.  1.
         21   -1    0    0  503  502 -0.00000000000E+00 -0.00000000000E+00 -0.10395746940E+02  0.10395746940E+02  0.00000000000E+00 0.  1.
         21    1    1    2  503  504  0.19418513105E+02 -0.14078654115E+02  0.63656674970E+01  0.24815496682E+02  0.00000000000E+00 0.  1.
         21    1    1    2  504  501 -0.19418513105E+02  0.14078654115E+02  0.12166638564E+03  0.12400805033E+03  0.00000000000E+00 0.  1.
</event>
<event>
 4    1  0.3065783E+006  0.2430876E+02  0.7546771E-02  0.1476687E+00
         21   -1    0    0  502  501  0.00000000000E+00  0.00000000000E+00  0.95418824140E+02  0.95418824140E+02  0.00000000000E+00 0. -1.
         21   -1    0    0  503  502 -0.00000000000E+00 -0.00000000000E+00 -0.63972630160E+01  0.63972630160E+01  0.00000000000E+00 0. -1.
         21    1    1    2  503  504 -0.16882683568E+02  0.17489734963E+02  0.35411054023E+02  0.42951816964E+02  0.00000000000E+00 0. -1.
         21    1    1    2  504  501  0.16882683568E+02 -0.17489734963E+02  0.53610507102E+02  0.58864270192E+02  0.00000000000E+00 0. -1.
</event>
<event>
 4    1  0.3065783E+006  0.2172613E+02  0.7546771E-02  0.1509145E+00
         21   -1    0    0  504  501  0.00000000000E+00  0.00000000000E+00  0.11572798756E+02  0.11572798756E+02  0.00000000000E+00 0. -1.
         21   -1    0    0  501  502 -0.00000000000E+00 -0.00000000000E+00 -0.43020778947E+02  0.43020778947E+02  0.00000000000E+00 0.  1.
         21    1    1    2  503  502 -0.14370396887E+02 -0.16294677371E+02 -0.21943410200E+02  0.30879411726E+02  0.00000000000E+00 0.  1.
         21    1    1    2  504  503  0.14370396887E+02  0.16294677371E+02 -0.95045699904E+01  0.23714165977E+02  0.00000000000E+00 0. -1.
</event>
<event>
 4    1  0.3065783E+006  0.2198380E+02  0.7546771E-02  0.1505669E+00
         21   -1    0    0  504  501  0.00000000000E+00  0.00000000000E+00  0.24043781493E+01  0.24043781493E+01  0.00000000000E+00 0.  1.
         21   -1    0    0  503  502 -0.00000000000E+00 -0.00000000000E+00 -0.25705750020E+03  0.25705750020E+03  0.00000000000E+00 0.  1.
         21    1    1    2  503  501  0.20706312308E+02  0.73848618472E+01 -0.18790709938E+03  0.18918870355E+03  0.00000000000E+00 0.  1.
         21    1    1    2  504  502 -0.20706312308E+02 -0.73848618472E+01 -0.66746022672E+02  0.70273174800E+02  0.00000000000E+00 0.  1.
</event>
<event>
 4    1  0.3065783E+006  0.2645852E+02  0.7546771E-02  0.1453125E+00
         21   -1    0    0  504  501  0.00000000000E+00  0.00000000000E+00  0.17639896973E+02  0.17639896973E+02  0.00000000000E+00 0. -1.
         21   -1    0    0  503  502 -0.00000000000E+00 -0.00000000000E+00 -0.76895445596E+02  0.76895445596E+02  0.00000000000E+00 0. -1.
         21    1    1    2  503  501  0.26394127876E+02  0.18447917963E+01 -0.62508524989E+02  0.67877602635E+02  0.00000000000E+00 0. -1.
         21    1    1    2  504  502 -0.26394127876E+02 -0.18447917963E+01  0.32529763664E+01  0.26657739933E+02  0.00000000000E+00 0. -1.
</event>
<event>
 4    1  0.3065783E+006  0.2927139E+02  0.7546771E-02  0.1426035E+00
         21   -1    0    0  502  501  0.00000000000E+00  0.00000000000E+00  0.70234223935E+01  0.70234223935E+01  0.00000000000E+00 0. -1.
         21   -1    0    0  504  502 -0.00000000000E+00 -0.00000000000E+00 -0.23290811300E+03  0.23290811300E+03  0.00000000000E+00 0. -1.
         21    1    1    2  503  501 -0.22136242493E+02  0.19152056081E+02 -0.30156004429E+02  0.42026171452E+02  0.00000000000E+00 0. -1.
         21    1    1    2  504  503  0.22136242493E+02 -0.19152056081E+02 -0.19572868618E+03  0.19790536394E+03  0.00000000000E+00 0. -1.
</event>
<event>
 4    1  0.3145889E+006  0.2018186E+02  0.7546771E-02  0.1531274E+00
         21   -1    0    0  504  501  0.00000000000E+00  0.00000000000E+00  0.38519111473E+02  0.38519111473E+02  0.00000000000E+00 0.  1.
         21   -1    0    0  503  502 -0.00000000000E+00 -0.00000000000E+00 -0.20919105778E+03  0.20919105778E+03  0.00000000000E+00 0. -1.
         21    1    1    2  503  501 -0.15339753964E+02  0.13114851560E+02  0.35348215685E+02  0.40703854059E+02  0.00000000000E+00 0.  1.
         21    1    1    2  504  502  0.15339753964E+02 -0.13114851560E+02 -0.20602016200E+03  0.20700631520E+03  0.00000000000E+00 0. -1.
</event>
<event>
 4    1  0.3065783E+006  0.5607351E+02  0.7546771E-02  0.1273790E+00
         21   -1    0    0  503  501  0.00000000000E+00  0.00000000000E+00  0.21589148094E+02  0.21589148094E+02  0.00000000000E+00 0.  1.
         21   -1    0    0  501  502 -0.00000000000E+00 -0.00000000000E+00 -0.48534335446E+03  0.48534335446E+03  0.00000000000E+00 0.  1.
         21    1    1    2  503  504 -0.43290947540E+02  0.35638918858E+02 -0.19823498506E+02  0.59474446355E+02  0.00000000000E+00 0.  1.
         21    1    1    2  504  502  0.43290947540E+02 -0.35638918858E+02 -0.44393070786E+03  0.44745805620E+03  0.00000000000E+00 0.  1.
</event>
<event>
 4    1  0.3065783E+006  0.2379879E+02  0.7546771E-02  0.1482704E+00
         21   -1    0    0  502  501  0.00000000000E+00  0.00000000000E+00  0.11841501808E+03  0.11841501808E+03  0.00000000000E+00 0. -1.
         21   -1    0    0  503  502 -0.00000000000E+00 -0.00000000000E+00 -0.21817518773E+02  0.21817518773E+02  0.00000000000E+00 0.  1.
         21    1    1    2  503  504 -0.20259641653E+02  0.12487171642E+02 -0.13656865469E+02  0.27438886821E+02  0.00000000000E+00 0.  1.
         21    1    1    2  504  501  0.20259641653E+02 -0.12487171642E+02  0.11025436477E+03  0.11279365003E+03  0.00000000000E+00 0. -1.
</event>
<event>
 4    1  0.3065783E+006  0.3640719E+02  0.7546771E-02  0.1370931E+00
         21   -1    0    0  504  501  0.00000000000E+00  0.00000000000E+00  0.54751427402E+01  0.54751427402E+01  0.00000000000E+00 0.  1.
         21   -1    0    0  503  502 -0.00000000000E+00 -0.00000000000E+00 -0.74735970330E+03  0.74735970330E+03  0.00000000000E+00 0. -1.
         21    1    1    2  503  501  0.12850507798E+02 -0.34063881555E+02 -0.68044610142E+03  0.68141938666E+03  0.00000000000E+00 0. -1.
         21    1    1    2  504  502 -0.12850507798E+02  0.34063881555E+02 -0.61438459146E+02  0.71415459387E+02  0.00000000000E+00 0.  1.
</event>
<event>
 4    1  0.3065783E+006  0.2661805E+02  0.7546771E-02  0.1451483E+00
         21   -1    0    0  504  501  0.00000000000E+00  0.00000000000E+00  0.49140366768E+03  0.49140366768E+03  0.00000000000E+00 0. -1.
         21   -1    0    0  503  502 -0.00000000000E+00 -0.00000000000E+00 -0.98783940258E+02  0.98783940258E+02  0.00000000000E+00 0.  1.
         21    1    1    2  503  501 -0.16020809222E+02  0.21256866447E+02 -0.96622459557E+02  0.10022185585E+03  0.00000000000E+00 0.  1.
         21    1    1    2  504  502  0.16020809222E+02 -0.21256866447E+02  0.48924218698E+03  0.48996575209E+03  0.00000000000E+00 0. -1.
</event>
<event>
 4    1  0.3065783E+006  0.2340994E+02  0.7546771E-02  0.1487414E+00
         21   -1    0    0  503  501  0.00000000000E+00  0.00000000000E+00  0.50526371083E+01  0.50526371083E+01  0.00000000000E+00 0.  1.
         21   -1    0    0  504  502 -0.00000000000E+00 -0.00000000000E+00 -0.12383792610E+03  0.12383792610E+03  0.00000000000E+00 0.  1.
         21    1    1    2  503  502  0.88616701273E+01  0.21667863591E+02 -0.82100027615E+02  0.85372361127E+02  0.00000000000E+00 0.  1.
         21    1    1    2  504  501 -0.88616701273E+01 -0.21667863591E+02 -0.36685261373E+02  0.43518202077E+02  0.00000000000E+00 0.  1.
</event>
<event>
 4    1  0.3065783E+006  0.2259549E+02  0.7546771E-02  0.1497641E+00
         21   -1    0    0  503  501  0.00000000000E+00  0.00000000000E+00  0.99684632431E+01  0.99684632431E+01  0.00000000000E+00 0.  1.
         21   -1    0    0  501  502 -0.00000000000E+00 -0.00000000000E+00 -0.13984747965E+03  0.13984747965E+03  0.00000000000E+00 0.  1.
         21    1    1    2  503  504  0.19037955376E+02 -0.12170147109E+02 -0.53057871733E+01  0.23210075465E+02  0.00000000000E+00 0.  1.
         21    1    1    2  504  502 -0.19037955376E+02  0.12170147109E+02 -0.12457322923E+03  0.12660586743E+03  0.00000000000E+00 0.  1.
</event>
<event>
 4    1  0.3065783E+006  0.2068062E+02  0.7546771E-02  0.1523874E+00
         21   -1    0    0  503  501  0.00000000000E+00  0.00000000000E+00  0.65467296233E+01  0.65467296233E+01  0.00000000000E+00 0. -1.
         21   -1    0    0  504  502 -0.00000000000E+00 -0.00000000000E+00 -0.88070961888E+02  0.88070961888E+02  0.00000000000E+00 0. -1.
         21    1    1    2  503  502 -0.75819327799E+01  0.19240637786E+02 -0.16721533904E+02  0.26595066143E+02  0.00000000000E+00 0. -1.
         21    1    1    2  504  501  0.75819327799E+01 -0.19240637786E+02 -0.64802698361E+02  0.68022625368E+02  0.00000000000E+00 0. -1.
</event>
<event>
 4    1  0.3065783E+006  0.3427998E+02  0.7546771E-02  0.1385697E+00
         21   -1    0    0  503  501  0.00000000000E+00  0.00000000000E+00  0.68866691154E+02  0.68866691154E+02  0.00000000000E+00 0.  1.
         21   -1    0    0  504  502 -0.00000000000E+00 -0.00000000000E+00 -0.17385833005E+02  0.17385833005E+02  0.00000000000E+00 0.  1.
         21    1    1    2  503  502  0.14691187706E+01 -0.34248485533E+02  0.19869649115E+02  0.39622216334E+02  0.00000000000E+00 0.  1.
         21    1    1    2  504  501 -0.14691187706E+01  0.34248485533E+02  0.31611209034E+02  0.46630307825E+02  0.00000000000E+00 0.  1.
</event>
<event>
 4    1  0.3065783E+006  0.2367950E+02  0.7546771E-02  0.1484137E+00
         21   -1    0    0  503  501  0.00000000000E+00  0.00000000000E+00  0.26074622755E+02  0.26074622755E+02  0.00000000000E+00 0. -1.
         21   -1    0    0  504  502 -0.00000000000E+00 -0.00000000000E+00 -0.21848167238E+02  0.21848167238E+02  0.00000000000E+00 0. -1.
         21    1    1    2  503  502  0.12459491857E+02 -0.20136528033E+02  0.51189371312E+01  0.24226477579E+02  0.00000000000E+00 0. -1.
         21    1    1    2  504  501 -0.12459491857E+02  0.20136528033E+02 -0.89248161382E+00  0.23696312413E+02  0.00000000000E+00 0. -1.
</event>
<event>
 4    1  0.3065783E+006  0.2630784E+02  0.7546771E-02  0.1454688E+00
         21   -1    0    0  504  501  0.00000000000E+00  0.00000000000E+00  0.16790645545E+03  0.16790645545E+03  0.00000000000E+00 0.  1.
         21   -1    0    0  503  502 -0.00000000000E+00 -0.00000000000E+00 -0.16210372897E+02  0.16210372897E+02  0.00000000000E+00 0. -1.
         21    1    1    2  503  501 -0.13602454520E+02  0.22518337912E+02 -0.36491486184E+01  0.26559717561E+02  0.00000000000E+00 0. -1.
         21    1    1    2  504  502  0.13602454520E+02 -0.22518337912E+02  0.15534523117E+03  0.15755711079E+03  0.00000000000E+00 0.  1.
</event>
<event>
 4    1  0.3065783E+006  0.2439353E+02  0.7546771E-02  0.1475704E+00
         21   -1    0    0  503  501  0.00000000000E+00  0.00000000000E+00  0.27550530519E+03  0.27550530519E+03  0.00000000000E+00 0. -1.
         21   -1    0    0  504  502 -0.00000000000E+00 -0.00000000000E+00 -0.83037109372E+02  0.83037109372E+02  0.00000000000E+00 0. -1.
         21    1    1    2  503  502 -0.28823607899E+01 -0.24222640047E+02 -0.80690290086E+02  0.84296899165E+02  0.00000000000E+00 0. -1.
         21    1    1    2  504  501  0.28823607899E+01  0.24222640047E+02  0.27315848590E+03  0.27424551539E+03  0.00000000000E+00 0. -1.
</event>
<event>
 4    1  0.3065783E+006  0.5687553E+02  0.7546771E-02  0.1270835E+00
         21   -1    0    0  503  501  0.00000000000E+00  0.00000000000E+00  0.25327275196E+03  0.25327275196E+03  0.00000000000E+00 0. -1.
         21   -1    0    0  504  502 -0.00000000000E+00 -0.00000000000E+00 -0.24757428273E+02  0.24757428273E+02  0.00000000000E+00 0. -1.
         21    1    1    2  503  502 -0.55010697342E+02  0.14444679359E+02  0.17533694927E+02  0.59516855105E+02  0.00000000000E+00 0. -1.
         21    1    1    2  504  501  0.55010697342E+02 -0.14444679359E+02  0.21098162876E+03  0.21851332513E+03  0.00000000000E+00 0. -1.
</event>
<event>
 4    1  0.3065783E+006  0.2176432E+02  0.7546771E-02  0.1508626E+00
         21   -1    0    0  502  501  0.00000000000E+00  0.00000000000E+00  0.21405468878E+03  0.21405468878E+03  0.00000000000E+00 0.  1.
         21   -1    0    0  504  502 -0.00000000000E+00 -0.00000000000E+00 -0.46883335198E+01  0.46883335198E+01  0.00000000000E+00 0.  1.
         21    1    1    2  503  501  0.16723791664E+02  0.13928408315E+02  0.18415604786E+03  0.18543768691E+03  0.00000000000E+00 0.  1.
         21    1    1    2  504  503 -0.16723791664E+02 -0.13928408315E+02  0.25210307405E+02  0.33305335387E+02  0.00000000000E+00 0.  1.
</event>
<event>
 4    1  0.3065783E+006  0.2336706E+02  0.7546771E-02  0.1487940E+00
         21   -1    0    0  503  501  0.00000000000E+00  0.00000000000E+00  0.32056949120E+02  0.32056949120E+02  0.00000000000E+00 0.  1.
         21   -1    0    0  504  502 -0.00000000000E+00 -0.00000000000E+00 -0.33011629391E+02  0.33011629391E+02  0.00000000000E+00 0. -1.
         21    1    1    2  503  502 -0.19297205186E+02  0.13177154299E+02  0.22157652460E+02  0.32202190701E+02  0.00000000000E+00 0.  1.
         21    1    1    2  504  501  0.19297205186E+02 -0.13177154299E+02 -0.23112332731E+02  0.32866387810E+02  0.00000000000E+00 0. -1.
</event>
<event>
 4    1  0.3065783E+006  0.2068597E+02  0.7546771E-02  0.1523796E+00
         21   -1    0    0  503  501  0.00000000000E+00  0.00000000000E+00  0.13358558779E+03  0.13358558779E+03  0.00000000000E+00 0.  1.
         21   -1    0    0  504  502 -0.00000000000E+00 -0.00000000000E+00 -0.33806788662E+02  0.33806788662E+02  0.00000000000E+00 0. -1.
         21    1    1    2  503  502  0.35066471296E+01 -0.20386585690E+02  0.12952173780E+03  0.13116321898E+03  0.00000000000E+00 0.  1.
         21    1    1    2  504  501 -0.35066471296E+01  0.20386585690E+02 -0.29742938674E+02  0.36229157472E+02  0.00000000000E+00 0. -1.
</event>
<event>
 4    1  0.3065783E+006  0.2221024E+02  0.7546771E-02  0.1502661E+00
         21   -1    0    0  502  501  0.00000000000E+00  0.00000000000E+00  0.80814153735E+02  0.80814153735E+02  0.00000000000E+00 0.  1.
         21   -1    0    0  503  502 -0.00000000000E+00 -0.00000000000E+00 -0.38384746448E+02  0.38384746448E+02  0.00000000000E+00 0.  1.
         21    1    1    2  503  504  0.13425147291E+02  0.17693500559E+02 -0.33440848629E+02  0.40144550052E+02  0.00000000000E+00 0.  1.
         21    1    1    2  504  501 -0.13425147291E+02 -0.17693500559E+02  0.75870255916E+02  0.79054350131E+02  0.00000000000E+00 0.  1.
</event>
<event>
 4    1  0.3065783E+006  0.2396537E+02  0.7546771E-02  0.1480719E+00
         21   -1    0    0  502  501  0.00000000000E+00  0.00000000000E+00  0.94734888579E+02  0.94734888579E+02  0.00000000000E+00 0. -1.
         21   -1    0    0  504  502 -0.00000000000E+00 -0.00000000000E+00 -0.49536188408E+02  0.49536188408E+02  0.00000000000E+00 0. -1.
         21    1    1    2  503  501  0.10229600286E+02 -0.21672435456E+02  0.90176638097E+02  0.93306833829E+02  0.00000000000E+00 0. -1.
         21    1    1    2  504  503 -0.10229600286E+02  0.21672435456E+02 -0.44977937927E+02  0.50964243159E+02  0.00000000000E+00 0. -1.
</event>
<event>
 4    1  0.3065783E+006  0.2151992E+02  0.7546771E-02  0.1511970E+00
         21   -1    0    0  503  501  0.00000000000E+00  0.00000000000E+00  0.10876333331E+03  0.10876333331E+03  0.00000000000E+00 0. -1.
         21   -1    0    0  501  502 -0.00000000000E+00 -0.00000000000E+00 -0.58516012880E+01  0.58516012880E+01  0.00000000000E+00 0. -1.
         21    1    1    2  503  504  0.13571726864E+02 -0.16700750467E+02  0.81362876628E+02  0.84160706565E+02  0.00000000000E+00 0. -1.
         21    1    1    2  504  502 -0.13571726864E+02  0.16700750467E+02  0.21548855389E+02  0.30454228029E+02  0.00000000000E+00 0. -1.
</event>
<event>
 4    1  0.3065783E+006  0.2363623E+02  0.7546771E-02  0.1484660E+00
         21   -1    0    0  502  501  0.00000000000E+00  0.00000000000E+00  0.51634265854E+02  0.51634265854E+02  0.00000000000E+00 0.  1.
         21   -1    0    0  503  502 -0.00000000000E+00 -0.00000000000E+00 -0.19773205603E+02  0.19773205603E+02  0.00000000000E+00 0.  1.
         21    1    1    2  503  504  0.21540941345E+02 -0.97293085758E+01 -0.80948151498E+01  0.24983947480E+02  0.00000000000E+00 0.  1.
         21    1    1    2  504  501 -0.21540941345E+02  0.97293085758E+01  0.39955875401E+02  0.46423523977E+02  0.00000000000E+00 0.  1.
</event>
<event>
 4    1  0.3065783E+006  0.2821610E+02  0.7546771E-02  0.1435760E+00
         21   -1    0    0  504  501  0.00000000000E+00  0.00000000000E+00  0.68865999378E+01  0.68865999378E+01  0.00000000000E+00 0. -1.
         21   -1    0    0  501  502 -0.00000000000E+00 -0.00000000000E+00 -0.26738366599E+03  0.26738366599E+03  0.00000000000E+00 0.  1.
         21    1    1    2  503  502  0.24549163652E+02 -0.13909963559E+02 -0.23356792800E+03  0.23526607386E+03  0.00000000000E+00 0.  1.
         21    1    1    2  504  503 -0.24549163652E+02  0.13909963559E+02 -0.26929138056E+02  0.39004192065E+02  0.00000000000E+00 0. -1.
</event>
<event>
 4    1  0.3065783E+006  0.3127085E+02  0.7546771E-02  0.1408865E+00
         21   -1    0    0  504  501  0.00000000000E+00  0.00000000000E+00  0.84512999891E+01  0.84512999891E+01  0.00000000000E+00 0. -1.
         21   -1    0    0  503  502 -0.00000000000E+00 -0.00000000000E+00 -0.12432053905E+03  0.12432053905E+03  0.00000000000E+00 0. -1.
         21    1    1    2  503  501 -0.30903742076E+02 -0.47775526639E+01 -0.75409735077E+02  0.81636354819E+02  0.00000000000E+00 0. -1.
         21    1    1    2  504  502  0.30903742076E+02  0.47775526639E+01 -0.40459503983E+02  0.51135484219E+02  0.00000000000E+00 0. -1.
</event>
<event>
 4    1  0.3065783E+006  0.2176473E+02  0.7546771E-02  0.1508621E+00
         21   -1    0    0  504  501  0.00000000000E+00  0.00000000000E+00  0.42680640331E+03  0.42680640331E+03  0.00000000000E+00 0. -1.
         21   -1    0    0  503  502 -0.00000000000E+00 -0.00000000000E+00 -0.13574538518E+03  0.13574538518E+03  0.00000000000E+00 0.  1.
         21    1    1    2  503  501  0.21210692802E+02  0.48795688856E+01 -0.13459314311E+03  0.13634154852E+03  0.00000000000E+00 0.  1.
         21    1    1    2  504  502 -0.21210692802E+02 -0.48795688856E+01  0.42565416123E+03  0.42621023997E+03  0.00000000000E+00 0. -1.
</event>
<event>
 4    1  0.3065783E+006  0.2476521E+02  0.7546771E-02  0.1471447E+00
         21   -1    0    0  504  501  0.00000000000E+00  0.00000000000E+00  0.23179413651E+03  0.23179413651E+03  0.00000000000E+00 0.  1.
         21   -1    0    0  503  502 -0.00000000000E+00 -0.00000000000E+00 -0.74697666552E+01  0.74697666552E+01  0.00000000000E+00 0.  1.
         21    1    1    2  503  501  0.83384798818E+00 -0.24751170742E+02  0.16025519426E+02  0.29498017365E+02  0.00000000000E+00 0.  1.
         21    1    1    2  504  502 -0.83384798818E+00  0.24751170742E+02  0.20829885043E+03  0.20976588580E+03  0.00000000000E+00 0.  1.
</event>
<event>
 4    1  0.3065783E+006  0.2073495E+02  0.7546771E-02  0.1523083E+00
         21   -1    0    0  503  501  0.00000000000E+00  0.00000000000E+00  0.27408627047E+03  0.27408627047E+03  0.00000000000E+00 0.  1.
         21   -1    0    0  504  502 -0.00000000000E+00 -0.00000000000E+00 -0.28755925032E+01  0.28755925032E+01  0.00000000000E+00 0. -1.
         21    1    1    2  503  502  0.19715261733E+02 -0.64223408831E+01  0.42245725722E+02  0.47059954838E+02  0.00000000000E+00 0. -1.
         21    1    1    2  504  501 -0.19715261733E+02  0.64223408831E+01  0.22896495224E+03  0.22990190813E+03  0.00000000000E+00 0.  1.
</event>
<event>
 4    1  0.3065783E+006  0.2355937E+02  0.7546771E-02  0.1485591E+00
         21   -1    0    0  503  501  0.00000000000E+00  0.00000000000E+00  0.15734101371E+03  0.15734101371E+03  0.00000000000E+00 0.  1.
         21   -1    0    0  504  502 -0.00000000000E+00 -0.00000000000E+00 -0.78930015356E+01  0.78930015356E+01  0.00000000000E+00 0. -1.
         21    1    1    2  503  502  0.22806670914E+02 -0.59076028861E+01  0.13616496481E+03  0.13818806624E+03  0.00000000000E+00 0.  1.
         21    1    1    2  504  501 -0.22806670914E+02  0.59076028861E+01  0.13283047358E+02  0.27045948997E+02  0.00000000000E+00 0. -1.
</event>
<event>
 4    1  0.3065783E+006  0.2025154E+02  0.7546771E-02  0.1530225E+00
         21   -1    0    0  504  501  0.00000000000E+00  0.00000000000E+00  0.24596275371E+01  0.24596275371E+01  0.00000000000E+00 0. -1.
         21   -1    0    0  503  502 -0.00000000000E+00 -0.00000000000E+00 -0.18750324200E+03  0.18750324200E+03  0.00000000000E+00 0.  1.
         21    1    1    2  503  501 -0.37308559312E+01  0.19904910359E+02 -0.60916901134E+02  0.64194965427E+02  0.00000000000E+00 0. -1.
         21    1    1    2  504  502  0.37308559312E+01 -0.19904910359E+02 -0.12412671333E+03  0.12576790411E+03  0.00000000000E+00 0.  1.
</event>
<event>
 4    1  0.3065783E+006  0.2615779E+02  0.7546771E-02  0.1456257E+00
         21   -1    0    0  502  501  0.00000000000E+00  0.00000000000E+00  0.95582190209E+01  0.95582190209E+01  0.00000000000E+00 0.  1.
         21   -1    0    0  503  502 -0.00000000000E+00 -0.00000000000E+00 -0.13117734644E+03  0.13117734644E+03  0.00000000000E+00 0.  1.
         21    1    1    2  503  504 -0.25384341829E+02 -0.63138848791E+01 -0.10823789475E+03  0.11135381364E+03  0.00000000000E+00 0.  1.
         21    1    1    2  504  501  0.25384341829E+02  0.63138848791E+01 -0.13381232671E+02  0.29381751823E+02  0.00000000000E+00 0.  1.
</event>
<event>
 4    1  0.3065783E+006  0.2638160E+02  0.7546771E-02  0.1453921E+00
         21   -1    0    0  503  501  0.00000000000E+00  0.00000000000E+00  0.54949019831E+02  0.54949019831E+02  0.00000000000E+00 0.  1.
         21   -1    0    0  504  502 -0.00000000000E+00 -0.00000000000E+00 -0.55057374923E+03  0.55057374923E+03  0.00000000000E+00 0.  1.
         21    1    1    2  503  502  0.25838562330E+02  0.53251986565E+01 -0.54707093561E+03  0.54770667116E+03  0.00000000000E+00 0.  1.
         21    1    1    2  504  501 -0.25838562330E+02 -0.53251986565E+01  0.51446206206E+02  0.57816097905E+02  0.00000000000E+00 0.  1.
</event>
<event>
 4    1  0.3065783E+006  0.2145271E+02  0.7546771E-02  0.1512899E+00
         21   -1    0    0  504  501  0.00000000000E+00  0.00000000000E+00  0.34769199713E+02  0.34769199713E+02  0.00000000000E+00 0.  1.
         21   -1    0    0  501  502 -0.00000000000E+00 -0.00000000000E+00 -0.83214184115E+02  0.83214184115E+02  0.00000000000E+00 0.  1.
         21    1    1    2  503  502 -0.10900031923E+02  0.18477227167E+02 -0.78319382715E+02  0.81204336883E+02  0.00000000000E+00 0.  1.
         21    1    1    2  504  503  0.10900031923E+02 -0.18477227167E+02  0.29874398312E+02  0.36779046945E+02  0.00000000000E+00 0.  1.
</event>
<event>
 4    1  0.3065783E+006  0.2443018E+02  0.7546771E-02  0.1475280E+00
         21   -1    0    0  502  501  0.00000000000E+00  0.00000000000E+00  0.31438673824E+01  0.31438673824E+01  0.00000000000E+00 0. -1.
         21   -1    0    0  503  502 -0.00000000000E+00 -0.00000000000E+00 -0.23831648784E+03  0.23831648784E+03  0.00000000000E+00 0. -1.
         21    1    1    2  503  504  0.10316239766E+01  0.24408387053E+02 -0.17203679758E+03  0.17376275012E+03  0.00000000000E+00 0. -1.
         21    1    1    2  504  501 -0.10316239766E+01 -0.24408387053E+02 -0.63135822875E+02  0.67697605103E+02  0.00000000000E+00 0. -1.
</event>
<event>
 4    1  0.3065783E+006  0.2303232E+02  0.7546771E-02  0.1492093E+00
         21   -1    0    0  503  501  0.00000000000E+00  0.00000000000E+00  0.46819433563E+02  0.46819433563E+02  0.00000000000E+00 0.  1.
         21   -1    0    0  501  502 -0.00000000000E+00 -0.00000000000E+00 -0.17289691566E+02  0.17289691566E+02  0.00000000000E+00 0. -1.
         21    1    1    2  503  504 -0.13180086954E+02 -0.18888434751E+02  0.33583581117E+02  0.40722777166E+02  0.00000000000E+00 0.  1.
         21    1    1    2  504  502  0.13180086954E+02  0.18888434751E+02 -0.40538391202E+01  0.23386347963E+02  0.00000000000E+00 0. -1.
</event>
<event>
 4    1  0.3065783E+006  0.3871076E+02  0.7546771E-02  0.1356211E+00
         21   -1    0    0  503  501  0.00000000000E+00  0.00000000000E+00  0.32832717569E+02  0.32832717569E+02  0.00000000000E+00 0. -1.
         21   -1    0    0  504  502 -0.00000000000E+00 -0.00000000000E+00 -0.47055100791E+03  0.47055100791E+03  0.00000000000E+00 0. -1.
         21    1    1    2  503  502 -0.29404144877E+02 -0.25177759319E+02  0.20314993967E+02  0.43717528294E+02  0.00000000000E+00 0. -1.
         21    1    1    2  504  501  0.29404144877E+02  0.25177759319E+02 -0.45803328430E+03  0.45966619718E+03  0.00000000000E+00 0. -1.
</event>
<event>
 4    1  0.3065783E+006  0.2023616E+02  0.7546771E-02  0.1530456E+00
         21   -1    0    0  502  501  0.00000000000E+00  0.00000000000E+00  0.12670682880E+02  0.12670682880E+02  0.00000000000E+00 0.  1.
         21   -1    0    0  503  502 -0.00000000000E+00 -0.00000000000E+00 -0.71823945789E+02  0.71823945789E+02  0.00000000000E+00 0.  1.
         21    1    1    2  503  504 -0.23942939636E+01  0.20094017445E+02 -0.60908833143E+02  0.64182459718E+02  0.00000000000E+00 0.  1.
         21    1    1    2  504  501  0.23942939636E+01 -0.20094017445E+02  0.17555702344E+01  0.20312168951E+02  0.00000000000E+00 0.  1.
</event>
<event>
 4    1  0.3065783E+006  0.2164102E+02  0.7546771E-02  0.1510306E+00
         21   -1    0    0  504  501  0.00000000000E+00  0.00000000000E+00  0.22393141223E+03  0.22393141223E+03  0.00000000000E+00 0.  1.
         21   -1    0    0  503  502 -0.00000000000E+00 -0.00000000000E+00 -0.16038962926E+02  0.16038962926E+02  0.00000000000E+00 0. -1.
         21    1    1    2  503  501  0.82894064593E+01  0.19990489813E+02  0.21583548283E+03  0.21691770235E+03  0.00000000000E+00 0.  1.
         21    1    1    2  504  502 -0.82894064593E+01 -0.19990489813E+02 -0.79430335217E+01  0.23052672816E+02  0.00000000000E+00 0. -1.
</event>
<event>
 4    1  0.3065783E+006  0.2387334E+02  0.7546771E-02  0.1481813E+00
         21   -1    0    0  504  501  0.00000000000E+00  0.00000000000E+00  0.18279459654E+03  0.18279459654E+03  0.00000000000E+00 0.  1.
         21   -1    0    0  503  502 -0.00000000000E+00 -0.00000000000E+00 -0.31220012664E+01  0.31220012664E+01  0.00000000000E+00 0.  1.
         21    1    1    2  503  501 -0.34990347443E+01 -0.23615524794E+02  0.93203318026E+02  0.96212238029E+02  0.00000000000E+00 0.  1.
         21    1    1    2  504  502  0.34990347443E+01  0.23615524794E+02  0.86469277248E+02  0.89704359778E+02  0.00000000000E+00 0.  1.
</event>
<event>
 4    1  0.3065783E+006  0.3005400E+02  0.7546771E-02  0.1419128E+00
         21   -1    0    0  503  501  0.00000000000E+00  0.00000000000E+00  0.51689503310E+02  0.51689503310E+02  0.00000000000E+00 0. -1.
         21   -1    0    0  504  502 -0.00000000000E+00 -0.00000000000E+00 -0.81780916325E+02  0.81780916325E+02  0.00000000000E+00 0.  1.
         21    1    1    2  503  502  0.16770188063E+02  0.24939996453E+02  0.44131786595E+02  0.53393419246E+02  0.00000000000E+00 0. -1.
         21    1    1    2  504  501 -0.16770188063E+02 -0.24939996453E+02 -0.74223199611E+02  0.80077000388E+02  0.00000000000E+00 0.  1.
</event>
<event>
 4    1  0.3065783E+006  0.2186854E+02  0.7546771E-02  0.1507217E+00
         21   -1    0    0  504  501  0.00000000000E+00  0.00000000000E+00  0.24929434129E+02  0.24929434129E+02  0.00000000000E+00 0.  1.
         21   -1    0    0  503  502 -0.00000000000E+00 -0.00000000000E+00 -0.32766001926E+02  0.32766001926E+02  0.00000000000E+00 0. -1.
         21    1    1    2  503  501  0.42958051752E+01  0.21442458214E+02  0.14655062844E+02  0.26324965780E+02  0.00000000000E+00 0.  1.
         21    1    1    2  504  502 -0.42958051752E+01 -0.21442458214E+02 -0.22491630640E+02  0.31370470274E+02  0.00000000000E+00 0. -1.
</event>
<event>
 4    1  0.3065783E+006  0.2504886E+02  0.7546771E-02  0.1468258E+00
         21   -1    0    0  503  501  0.00000000000E+00  0.00000000000E+00  0.16819052539E+02  0.16819052539E+02  0.00000000000E+00 0. -1.
         21   -1    0    0  504  502 -0.00000000000E+00 -0.00000000000E+00 -0.69068357070E+03  0.69068357070E+03  0.00000000000E+00 0.  1.
         21    1    1    2  503  502 -0.17054801102E+02  0.18346094013E+02 -0.68099744329E+03  0.68145796875E+03  0.00000000000E+00 0.  1.
         21    1    1    2  504  501  0.17054801102E+02 -0.18346094013E+02  0.71329251339E+01  0.26044654483E+02  0.00000000000E+00 0. -1.
</event>
<event>
 4    1  0.3065783E+006  0.2675768E+02  0.7546771E-02  0.1450058E+00
         21   -1    0    0  503  501  0.00000000000E+00  0.00000000000E+00  0.80253084721E+02  0.80253084721E+02  0.00000000000E+00 0. -1.
         21   -1    0    0  504  502 -0.00000000000E+00 -0.00000000000E+00 -0.16872475623E+02  0.16872475623E+02  0.00000000000E+00 0.  1.
         21    1    1    2  503  502 -0.26558384971E+02 -0.32597204171E+01 -0.16466415877E+01  0.26808301288E+02  0.00000000000E+00 0.  1.
         21    1    1    2  504  501  0.26558384971E+02  0.32597204171E+01  0.65027250685E+02  0.70317259056E+02  0.00000000000E+00 0. -1.
</event>
<event>
 4    1  0.3065783E+006  0.2015674E+02  0.7546771E-02  0.1531653E+00
         21   -1    0    0  503  501  0.00000000000E+00  0.00000000000E+00  0.20126920765E+02  0.20126920765E+02  0.00000000000E+00 0. -1.
         21   -1    0    0  504  502 -0.00000000000E+00 -0.00000000000E+00 -0.20601594309E+02  0.20601594309E+02  0.00000000000E+00 0. -1.
         21    1    1    2  503  502  0.12339504337E+02  0.15938349693E+02  0.26528937887E+01  0.20330573127E+02  0.00000000000E+00 0. -1.
         21    1    1    2  504  501 -0.12339504337E+02 -0.15938349693E+02 -0.31275673326E+01  0.20397941946E+02  0.00000000000E+00 0. -1.
</event>
<event>
 4    1  0.3065783E+006  0.2020297E+02  0.7546771E-02  0.1530955E+00
         21   -1    0    0  502  501  0.00000000000E+00  0.00000000000E+00  0.64433310576E+02  0.64433310576E+02  0.00000000000E+00 0. -1.
         21   -1    0    0  504  502 -0.00000000000E+00 -0.00000000000E+00 -0.12023553261E+02  0.12023553261E+02  0.00000000000E+00 0. -1.
         21    1    1    2  503  501 -0.15592183410E+02  0.12846935037E+02  0.52500646202E+02  0.56253691212E+02  0.00000000000E+00 0. -1.
         21    1    1    2  504  503  0.15592183410E+02 -0.12846935037E+02 -0.90888887099E-01  0.20203172626E+02  0.00000000000E+00 0. -1.
</event>
<event>
 4    1  0.3065783E+006  0.3804838E+02  0.7546771E-02  0.1360318E+00
         21   -1    0    0  504  501  0.00000000000E+00  0.00000000000E+00  0.10068049982E+03  0.10068049982E+03  0.00000000000E+00 0. -1.
         21   -1    0    0  503  502 -0.00000000000E+00 -0.00000000000E+00 -0.46823349945E+03  0.46823349945E+03  0.00000000000E+00 0. -1.
         21    1    1    2  503  501  0.37608129805E+02 -0.57712776826E+01  0.96278760455E+02  0.10352429081E+03  0.00000000000E+00 0. -1.
         21    1    1    2  504  502 -0.37608129805E+02  0.57712776826E+01 -0.46383176009E+03  0.46538970846E+03  0.00000000000E+00 0. -1.
</event>
<event>
 4    1  0.3065783E+006  0.2884194E+02  0.7546771E-02  0.1429934E+00
         21   -1    0    0  503  501  0.00000000000E+00  0.00000000000E+00  0.83969303030E+01  0.83969303030E+01  0.00000000000E+00 0.  1.
         21   -1    0    0  504  502 -0.00000000000E+00 -0.00000000000E+00 -0.12778805555E+03  0.12778805555E+03  0.00000000000E+00 0.  1.
         21    1    1    2  503  502  0.24797837306E+02 -0.14728362195E+02 -0.91977194305E+02  0.96393265637E+02  0.00000000000E+00 0.  1.
         21    1    1    2  504  501 -0.24797837306E+02  0.14728362195E+02 -0.27413930940E+02  0.39791720214E+02  0.00000000000E+00 0.  1.
</event>
<event>
 4    1  0.3065783E+006  0.2663553E+02  0.7546771E-02  0.1451304E+00
         21   -1    0    0  503  501  0.00000000000E+00  0.00000000000E+00  0.31318200823E+03  0.31318200823E+03  0.00000000000E+00 0.  1.
         21   -1    0    0  504  502 -0.00000000000E+00 -0.00000000000E+00 -0.11261666730E+02  0.11261666730E+02  0.00000000000E+00 0. -1.
         21    1    1    2  503  502 -0.20883121991E+02 -0.16533197386E+02  0.29595133631E+03  0.29714751364E+03  0.00000000000E+00 0.  1.
         21    1    1    2  504  501  0.20883121991E+02  0.16533197386E+02  0.59690051926E+01  0.27296161321E+02  0.00000000000E+00 0. -1.
</event>
<event>
 4    1  0.3065783E+006  0.4638689E+02  0.7546771E-02  0.1314647E+00
         21   -1    0    0  504  501  0.00000000000E+00  0.00000000000E+00  0.20185048464E+03  0.20185048464E+03  0.00000000000E+00 0.  1.
         21   -1    0    0  503  502 -0.00000000000E+00 -0.00000000000E+00 -0.12570286678E+02  0.12570286678E+02  0.00000000000E+00 0.  1.
         21    1    1    2  503  501 -0.13489337315E+02  0.44382213900E+02  0.13643314125E+03  0.14410324480E+03  0.00000000000E+00 0.  1.
         21    1    1    2  504  502  0.13489337315E+02 -0.44382213900E+02  0.52847056713E+02  0.70317526515E+02  0.00000000000E+00 0.  1.
</event>
<event>
 4    1  0.3065783E+006  0.4951648E+02  0.7546771E-02  0.1300283E+00
         21   -1    0    0  503  501  0.00000000000E+00  0.00000000000E+00  0.15963685598E+04  0.15963685598E+04  0.00000000000E+00 0. -1.
         21   -1    0    0  501  502 -0.00000000000E+00 -0.00000000000E+00 -0.39026933791E+01  0.39026933791E+01  0.00000000000E+00 0. -1.
         21    1    1    2  503  504  0.47951935893E+02 -0.12348813014E+02  0.14193368493E+04  0.14202003285E+04  0.00000000000E+00 0. -1.
         21    1    1    2  504  502 -0.47951935893E+02  0.12348813014E+02  0.17312901707E+03  0.18007092461E+03  0.00000000000E+00 0. -1.
</event>
<event>
 4    1  0.3065783E+006  0.2503095E+02  0.7546771E-02  0.1468457E+00
         21   -1    0    0  502  501  0.00000000000E+00  0.00000000000E+00  0.38537269645E+01  0.38537269645E+01  0.00000000000E+00 0. -1.
         21   -1    0    0  503  502 -0.00000000000E+00 -0.00000000000E+00 -0.36702353463E+03  0.36702353463E+03  0.00000000000E+00 0. -1.
         21    1    1    2  503  504  0.22213259017E+02 -0.11537741572E+02 -0.31998530455E+03  0.32096283817E+03  0.00000000000E+00 0. -1.
         21    1    1    2  504  501 -0.22213259017E+02  0.11537741572E+02 -0.43184503118E+02  0.49914423430E+02  0.00000000000E+00 0. -1.
</event>
<event>
 4    1  0.3065783E+006  0.2267049E+02  0.7546771E-02  0.1496678E+00
         21   -1    0    0  503  501  0.00000000000E+00  0.00000000000E+00  0.32719947019E+02  0.32719947019E+02  0.00000000000E+00 0. -1.
         21   -1    0    0  504  502 -0.00000000000E+00 -0.00000000000E+00 -0.17367492007E+03  0.17367492007E+03  0.00000000000E+00 0.  1.
         21    1    1    2  503  502 -0.20098618745E+02 -0.10487938649E+02 -0.16889762901E+03  0.17041232473E+03  0.00000000000E+00 0.  1.
         21    1    1    2  504  501  0.20098618745E+02  0.10487938649E+02  0.27942655963E+02  0.35982542362E+02  0.00000000000E+00 0. -1.
</event>
<event>
 4    1  0.3065783E+006  0.2423006E+02  0.7546771E-02  0.1477604E+00
         21   -1    0    0  503  501  0.00000000000E+00  0.00000000000E+00  0.17295209942E+01  0.17295209942E+01  0.00000000000E+00 0. -1.
         21   -1    0    0  504  502 -0.00000000000E+00 -0.00000000000E+00 -0.44151234493E+03  0.44151234493E+03  0.00000000000E+00 0. -1.
         21    1    1    2  503  502  0.26504837989E+01 -0.24084660775E+02 -0.32644296002E+03  0.32734095695E+03  0.00000000000E+00 0. -1.
         21    1    1    2  504  501 -0.26504837989E+01  0.24084660775E+02 -0.11333986392E+03  0.11590090898E+03  0.00000000000E+00 0. -1.
</event>
<event>
 4    1  0.3065783E+006  0.2631487E+02  0.7546771E-02  0.1454614E+00
         21   -1    0    0  504  501  0.00000000000E+00  0.00000000000E+00  0.40981502780E+02  0.40981502780E+02  0.00000000000E+00 0. -1.
         21   -1    0    0  501  502 -0.00000000000E+00 -0.00000000000E+00 -0.73547325724E+02  0.73547325724E+02  0.00000000000E+00 0.  1.
         21    1    1    2  503  502 -0.14983386623E+02 -0.21632623959E+02 -0.66540523804E+02  0.71554969095E+02  0.00000000000E+00 0.  1.
         21    1    1    2  504  503  0.14983386623E+02  0.21632623959E+02  0.33974700860E+02  0.42973859410E+02  0.00000000000E+00 0. -1.
</event>
<event>
 4    1  0.3065783E+006  0.4870960E+02  0.7546771E-02  0.1303866E+00
         21   -1    0    0  503  501  0.00000000000E+00  0.00000000000E+00  0.55534713205E+01  0.55534713205E+01  0.00000000000E+00 0. -1.
         21   -1    0    0  504  502 -0.00000000000E+00 -0.00000000000E+00 -0.13560168873E+04  0.13560168873E+04  0.00000000000E+00 0. -1.
         21    1    1    2  503  502 -0.72331773688E+01 -0.48169558339E+02 -0.12386551627E+04  0.12396125352E+04  0.00000000000E+00 0. -1.
         21    1    1    2  504  501  0.72331773688E+01  0.48169558339E+02 -0.11180825328E+03  0.12195782347E+03  0.00000000000E+00 0. -1.
</event>
<event>
 4    1  0.3065783E+006  0.2051432E+02  0.7546771E-02  0.1526313E+00
         21   -1    0    0  502  501  0.00000000000E+00  0.00000000000E+00  0.75239868192E+01  0.75239868192E+01  0.00000000000E+00 0.  1.
         21   -1    0    0  503  502 -0.00000000000E+00 -0.00000000000E+00 -0.56407085299E+02  0.56407085299E+02  0.00000000000E+00 0.  1.
         21    1    1    2  503  504  0.95389284631E+01  0.18161669955E+02 -0.27372776474E+02  0.34206816626E+02  0.00000000000E+00 0.  1.
         21    1    1    2  504  501 -0.95389284631E+01 -0.18161669955E+02 -0.21510322006E+02  0.29724255493E+02  0.00000000000E+00 0.  1.
</event>
<event>
 4    1  0.3065783E+006  0.2424439E+02  0.7546771E-02  0.1477437E+00
         21   -1    0    0  504  501  0.00000000000E+00  0.00000000000E+00  0.65484630837E+03  0.65484630837E+03  0.00000000000E+00 0. -1.
         21   -1    0    0  503  502 -0.00000000000E+00 -0.00000000000E+00 -0.89781046066E+00  0.89781046066E+00  0.00000000000E+00 0. -1.
         21    1    1    2  503  501 -0.11428713054E+01 -0.24217438448E+02  0.32196221951E+03  0.32287375438E+03  0.00000000000E+00 0. -1.
         21    1    1    2  504  502  0.11428713054E+01  0.24217438448E+02  0.33198627840E+03  0.33287036445E+03  0.00000000000E+00 0. -1.
</event>
<event>
 4    1  0.3065783E+006  0.2809093E+02  0.7546771E-02  0.1436947E+00
         21   -1    0    0  504  501  0.00000000000E+00  0.00000000000E+00  0.57148035090E+02  0.57148035090E+02  0.00000000000E+00 0. -1.
         21   -1    0    0  501  502 -0.00000000000E+00 -0.00000000000E+00 -0.13886700201E+02  0.13886700201E+02  0.00000000000E+00 0. -1.
         21    1    1    2  503  502  0.16965264973E+02  0.22389288033E+02  0.24304360233E+02  0.37145691009E+02  0.00000000000E+00 0. -1.
         21    1    1    2  504  503 -0.16965264973E+02 -0.22389288033E+02  0.18956974655E+02  0.33889044282E+02  0.00000000000E+00 0. -1.
</event>
<event>
 4    1  0.3065783E+006  0.2304404E+02  0.7546771E-02  0.1491946E+00
         21   -1    0    0  504  501  0.00000000000E+00  0.00000000000E+00  0.51302384487E+03  0.51302384487E+03  0.00000000000E+00 0. -1.
         21   -1    0    0  503  502 -0.00000000000E+00 -0.00000000000E+00 -0.26860469649E+02  0.26860469649E+02  0.00000000000E+00 0.  1.
         21    1    1    2  503  501 -0.16259192063E+02 -0.16329928799E+02  0.50777150664E+03  0.50829413813E+03  0.00000000000E+00 0. -1.
         21    1    1    2  504  502  0.16259192063E+02  0.16329928799E+02 -0.21608131417E+02  0.31590176392E+02  0.00000000000E+00 0.  1.
</event>
<event>
 4    1  0.3065783E+006  0.2302241E+02  0.7546771E-02  0.1492217E+00
         21   -1    0    0  502  501  0.00000000000E+00  0.00000000000E+00  0.33600111245E+02  0.33600111245E+02  0.00000000000E+00 0. -1.
         21   -1    0    0  504  502 -0.00000000000E+00 -0.00000000000E+00 -0.39216098442E+02  0.39216098442E+02  0.00000000000E+00 0.  1.
         21    1    1    2  503  501  0.16968261129E+02  0.15559868040E+02  0.25340666120E+02  0.34237125150E+02  0.00000000000E+00 0. -1.
         21    1    1    2  504  503 -0.16968261129E+02 -0.15559868040E+02 -0.30956653317E+02  0.38579084537E+02  0.00000000000E+00 0.  1.
</event>
<event>
 4    1  0.3065783E+006  0.2134000E+02  0.7546771E-02  0.1514466E+00
         21   -1    0    0  502  501  0.00000000000E+00  0.00000000000E+00  0.57506834204E+02  0.57506834204E+02  0.00000000000E+00 0. -1.
         21   -1    0    0  504  502 -0.00000000000E+00 -0.00000000000E+00 -0.27202080627E+03  0.27202080627E+03  0.00000000000E+00 0.  1.
         21    1    1    2  503  501 -0.13065985895E+02 -0.16872329374E+02  0.55090845890E+02  0.59079580117E+02  0.00000000000E+00 0. -1.
         21    1    1    2  504  503  0.13065985895E+02  0.16872329374E+02 -0.26960481795E+03  0.27044806035E+03  0.00000000000E+00 0.  1.
</event>
<event>
 4    1  0.3065783E+006  0.2224496E+02  0.7546771E-02  0.1502203E+00
         21   -1    0    0  502  501  0.00000000000E+00  0.00000000000E+00  0.30474099630E+03  0.30474099630E+03  0.00000000000E+00 0.  1.
         21   -1    0    0  503  502 -0.00000000000E+00 -0.00000000000E+00 -0.37056814256E+01  0.37056814256E+01  0.00000000000E+00 0. -1.
         21    1    1    2  503  504  0.19953835943E+02  0.98327297982E+01  0.34921298769E+02  0.41404531779E+02  0.00000000000E+00 0. -1.
         21    1    1    2  504  501 -0.19953835943E+02 -0.98327297982E+01  0.26611401611E+03  0.26704214595E+03  0.00000000000E+00 0.  1.
</event>
<event>
 4    1  0.3065783E+006  0.2228807E+02  0.7546771E-02  0.1501637E+00
         21   -1    0    0  503  501  0.00000000000E+00  0.00000000000E+00  0.32483381317E+02  0.32483381317E+02  0.00000000000E+00 0.  1.
         21   -1    0    0  504  502 -0.00000000000E+00 -0.00000000000E+00 -0.29984171720E+03  0.29984171720E+03  0.00000000000E+00 0.  1.
         21    1    1    2  503  502 -0.25271421137E+01  0.22144332202E+02 -0.29554891196E+03  0.29638811929E+03  0.00000000000E+00 0.  1.
         21    1    1    2  504  501  0.25271421137E+01 -0.22144332202E+02  0.28190576080E+02  0.35936979223E+02  0.00000000000E+00 0.  1.
</event>
<event>
 4    1  0.3065783E+006  0.2034065E+02  0.7546771E-02  0.1528890E+00
         21   -1    0    0  503  501  0.00000000000E+00  0.00000000000E+00  0.15036141174E+03  0.15036141174E+03  0.00000000000E+00 0.  1.
         21   -1    0    0  501  502 -0.00000000000E+00 -0.00000000000E+00 -0.98289726785E+01  0.98289726785E+01  0.00000000000E+00 0. -1.
         21    1    1    2  503  504  0.20142367138E+02 -0.28332328590E+01  0.13823145799E+03  0.13971999908E+03  0.00000000000E+00 0.  1.
         21    1    1    2  504  502 -0.20142367138E+02  0.28332328590E+01  0.23009810704E+01  0.20470385346E+02  0.00000000000E+00 0. -1.
</event>
<event>
 4    1  0.3065783E+006  0.2409199E+02  0.7546771E-02  0.1479223E+00
         21   -1    0    0  503  501  0.00000000000E+00  0.00000000000E+00  0.33392172302E+02  0.33392172302E+02  0.00000000000E+00 0.  1.
         21   -1    0    0  504  502 -0.00000000000E+00 -0.00000000000E+00 -0.90369160583E+02  0.90369160583E+02  0.00000000000E+00 0.  1.
         21    1    1    2  503  502 -0.71557136780E+01 -0.23004780722E+02 -0.84100423782E+02  0.87483172408E+02  0.00000000000E+00 0.  1.
         21    1    1    2  504  501  0.71557136780E+01  0.23004780722E+02  0.27123435500E+02  0.36278160478E+02  0.00000000000E+00 0.  1.
</event>
<event>
 4    1  0.3065783E+006  0.2612969E+02  0.7546771E-02  0.1456552E+00
         21   -1    0    0  504  501  0.00000000000E+00  0.00000000000E+00  0.14307630032E+02  0.14307630032E+02  0.00000000000E+00 0.  1.
         21   -1    0    0  503  502 -0.00000000000E+00 -0.00000000000E+00 -0.51581436885E+02  0.51581436885E+02  0.00000000000E+00 0.  1.
         21    1    1    2  503  501 -0.24611222064E+02  0.87777145236E+01 -0.27650735620E+02  0.38043707812E+02  0.00000000000E+00 0.  1.
         21    1    1    2  504  502  0.24611222064E+02 -0.87777145236E+01 -0.96230712332E+01  0.27845359106E+02  0.00000000000E+00 0.  1.
</event>
<event>
 4    1  0.3065783E+006  0.2322002E+02  0.7546771E-02  0.1489754E+00
         21   -1    0    0  504  501  0.00000000000E+00  0.00000000000E+00  0.75212526178E+02  0.75212526178E+02  0.00000000000E+00 0.  1.
         21   -1    0    0  503  502 -0.00000000000E+00 -0.00000000000E+00 -0.10038131931E+04  0.10038131931E+04  0.00000000000E+00 0. -1.
         21    1    1    2  503  501 -0.20738334777E+02 -0.10444651185E+02  0.73282641714E+02  0.76873368889E+02  0.00000000000E+00 0.  1.
         21    1    1    2  504  502  0.20738334777E+02  0.10444651185E+02 -0.10018833087E+04  0.10021523504E+04  0.00000000000E+00 0. -1.
</event>
<event>
 4    1  0.3065783E+006  0.2083023E+02  0.7546771E-02  0.1521703E+00
         21   -1    0    0  504  501  0.00000000000E+00  0.00000000000E+00  0.16730227239E+03  0.16730227239E+03  0.00000000000E+00 0.  1.
         21   -1    0    0  503  502 -0.00000000000E+00 -0.00000000000E+00 -0.12836477230E+02  0.12836477230E+02  0.00000000000E+00 0.  1.
         21    1    1    2  503  501  0.18252071209E+02  0.10037940606E+02  0.15769054612E+03  0.15906038693E+03  0.00000000000E+00 0.  1.
         21    1    1    2  504  502 -0.18252071209E+02 -0.10037940606E+02 -0.32247509575E+01  0.21078362692E+02  0.00000000000E+00 0.  1.
</event>
<event>
 4    1  0.3065783E+006  0.2217903E+02  0.7546771E-02  0.1503073E+00
         21   -1    0    0  504  501  0.00000000000E+00  0.00000000000E+00  0.17469368976E+01  0.17469368976E+01  0.00000000000E+00 0. -1.
         21   -1    0    0  503  502 -0.00000000000E+00 -0.00000000000E+00 -0.28943990867E+03  0.28943990867E+03  0.00000000000E+00 0. -1.
         21    1    1    2  503  501  0.59891407647E+01  0.21355086058E+02 -0.11986034858E+03  0.12189508878E+03  0.00000000000E+00 0. -1.
         21    1    1    2  504  502 -0.59891407647E+01 -0.21355086058E+02 -0.16783262319E+03  0.16929175678E+03  0.00000000000E+00 0. -1.
</event>
<event>
 4    1  0.3065783E+006  0.2207540E+02  0.7546771E-02  0.1504447E+00
         21   -1    0    0  504  501  0.00000000000E+00  0.00000000000E+00  0.79469941447E+01  0.79469941447E+01  0.00000000000E+00 0. -1.
         21   -1    0    0  501  502 -0.00000000000E+00 -0.00000000000E+00 -0.37224352437E+03  0.37224352437E+03  0.00000000000E+00 0. -1.
         21    1    1    2  503  502  0.39016152987E+01  0.21727874675E+02 -0.35588166499E+03  0.35656567784E+03  0.00000000000E+00 0. -1.
         21    1    1    2  504  503 -0.39016152987E+01 -0.21727874675E+02 -0.84148652353E+01  0.23624840671E+02  0.00000000000E+00 0. -1.
</event>
<event>
 4    1  0.3065783E+006  0.2008671E+02  0.7546771E-02  0.1532714E+00
         21   -1    0    0  504  501  0.00000000000E+00  0.00000000000E+00  0.14769217616E+03  0.14769217616E+03  0.00000000000E+00 0. -1.
         21   -1    0    0  503  502 -0.00000000000E+00 -0.00000000000E+00 -0.74898451872E+01  0.74898451872E+01  0.00000000000E+00 0.  1.
         21    1    1    2  503  501 -0.19697891936E+02 -0.39330568244E+01  0.82588051368E+01  0.21718281355E+02  0.00000000000E+00 0.  1.
         21    1    1    2  504  502  0.19697891936E+02  0.39330568244E+01  0.13194352583E+03  0.13346373999E+03  0.00000000000E+00 0. -1.
</event>
<event>
 4    1  0.3065783E+006  0.4563799E+02  0.7546771E-02  0.1318280E+00
         21   -1    0    0  504  501  0.00000000000E+00  0.00000000000E+00  0.32799716534E+02  0.32799716534E+02  0.00000000000E+00 0.  1.
         21   -1    0    0  503  502 -0.00000000000E+00 -0.00000000000E+00 -0.31128354948E+03  0.31128354948E+03  0.00000000000E+00 0.  1.
         21    1    1    2  503  501  0.40272513092E+02 -0.21469768007E+02  0.14251772536E+02  0.47811497252E+02  0.00000000000E+00 0.  1.
         21    1    1    2  504  502 -0.40272513092E+02  0.21469768007E+02 -0.29273560548E+03  0.29627176876E+03  0.00000000000E+00 0.  1.
</event>
<event>
 4    1  0.3065783E+006  0.2225183E+02  0.7546771E-02  0.1502113E+00
         21   -1    0    0  503  501  0.00000000000E+00  0.00000000000E+00  0.13372804054E+02  0.13372804054E+02  0.00000000000E+00 0.  1.
         21   -1    0    0  504  502 -0.00000000000E+00 -0.00000000000E+00 -0.50041063361E+03  0.50041063361E+03  0.00000000000E+00 0.  1.
         21    1    1    2  503  502  0.15671000652E+02  0.15797580725E+02 -0.49072409682E+03  0.49122834102E+03  0.00000000000E+00 0.  1.
         21    1    1    2  504  501 -0.15671000652E+02 -0.15797580725E+02  0.36862672685E+01  0.22555096643E+02  0.00000000000E+00 0.  1.
</event>
<event>
 4    1  0.3065783E+006  0.2848620E+02  0.7546771E-02  0.1433224E+00
         21   -1    0    0  504  501  0.00000000000E+00  0.00000000000E+00  0.50401961657E+03  0.50401961657E+03  0.00000000000E+00 0. -1.
         21   -1    0    0  501  502 -0.00000000000E+00 -0.00000000000E+00 -0.56747036798E+02  0.56747036798E+02  0.00000000000E+00 0. -1.
         21    1    1    2  503  502 -0.90255903751E+01 -0.27018554085E+02 -0.52741006377E+02  0.59942283074E+02  0.00000000000E+00 0. -1.
         21    1    1    2  504  503  0.90255903751E+01  0.27018554085E+02  0.50001358615E+03  0.50082437029E+03  0.00000000000E+00 0. -1.
</event>
<event>
 4    1  0.3065783E+006  0.2085995E+02  0.7546771E-02  0.1521274E+00
         21   -1    0    0  504  501  0.00000000000E+00  0.00000000000E+00  0.15806919128E+02  0.15806919128E+02  0.00000000000E+00 0.  1.
         21   -1    0    0  503  502 -0.00000000000E+00 -0.00000000000E+00 -0.82923162883E+02  0.82923162883E+02  0.00000000000E+00 0.  1.
         21    1    1    2  503  501  0.11863553280E+02  0.17157905803E+02  0.67893487944E+01  0.21937020879E+02  0.00000000000E+00 0.  1.
         21    1    1    2  504  502 -0.11863553280E+02 -0.17157905803E+02 -0.73905592549E+02  0.76793061132E+02  0.00000000000E+00 0.  1.
</event>
<event>
 4    1  0.3065783E+006  0.2778738E+02  0.7546771E-02  0.1439855E+00
         21   -1    0    0  503  501  0.00000000000E+00  0.00000000000E+00  0.12058776144E+02  0.12058776144E+02  0.00000000000E+00 0. -1.
         21   -1    0    0  504  502 -0.00000000000E+00 -0.00000000000E+00 -0.68863932450E+02  0.68863932450E+02  0.00000000000E+00 0. -1.
         21    1    1    2  503  502  0.22638725141E+02 -0.16112937887E+02 -0.39121179975E+02  0.47985470363E+02  0.00000000000E+00 0. -1.
         21    1    1    2  504  501 -0.22638725141E+02  0.16112937887E+02 -0.17683976332E+02  0.32937238230E+02  0.00000000000E+00 0. -1.
</event>
<event>
 4    1  0.3065783E+006  0.2963756E+02  0.7546771E-02  0.1422773E+00
         21   -1    0    0  502  501  0.00000000000E+00  0.00000000000E+00  0.34573846660E+02  0.34573846660E+02  0.00000000000E+00 0. -1.
         21   -1    0    0  503  502 -0.00000000000E+00 -0.00000000000E+00 -0.42563068429E+03  0.42563068429E+03  0.00000000000E+00 0. -1.
         21    1    1    2  503  504 -0.29322654976E+02  0.43089396634E+01 -0.41865758130E+03  0.41970531976E+03  0.00000000000E+00 0. -1.
         21    1    1    2  504  501  0.29322654976E+02 -0.43089396634E+01  0.27600743669E+02  0.40499211189E+02  0.00000000000E+00 0. -1.
</event>
<event>
 4    1  0.3065783E+006  0.2294639E+02  0.7546771E-02  0.1493172E+00
         21   -1    0    0  503  501  0.00000000000E+00  0.00000000000E+00  0.19463812669E+01  0.19463812669E+01  0.00000000000E+00 0.  1.
         21   -1    0    0  504  502 -0.00000000000E+00 -0.00000000000E+00 -0.40835878233E+03  0.40835878233E+03  0.00000000000E+00 0. -1.
         21    1    1    2  503  502 -0.11752268689E+01 -0.22916276738E+02 -0.32239632233E+03  0.32321188956E+03  0.00000000000E+00 0. -1.
         21    1    1    2  504  501  0.11752268689E+01  0.22916276738E+02 -0.84016078735E+02  0.87093274044E+02  0.00000000000E+00 0.  1.
</event>
<event>
 4    1  0.3065783E+006  0.2830557E+02  0.7546771E-02  0.1434917E+00
         21   -1    0    0  504  501  0.00000000000E+00  0.00000000000E+00  0.15499291331E+04  0.15499291331E+04  0.00000000000E+00 0. -1.
         21   -1    0    0  503  502 -0.00000000000E+00 -0.00000000000E+00 -0.21174141584E+01  0.21174141584E+01  0.00000000000E+00 0.  1.
         21    1    1    2  503  501 -0.24009615603E+02  0.14991446617E+02  0.14485853501E+04  0.14488618711E+04  0.00000000000E+00 0. -1.
         21    1    1    2  504  502  0.24009615603E+02 -0.14991446617E+02  0.99226368903E+02  0.10318467618E+03  0.00000000000E+00 0.  1.
</event>
<event>
 4    1  0.3065783E+006  0.2479798E+02  0.7546771E-02  0.1471076E+00
         21   -1    0    0  504  501  0.00000000000E+00  0.00000000000E+00  0.13507789972E+03  0.13507789972E+03  0.00000000000E+00 0. -1.
         21   -1    0    0  503  502 -0.00000000000E+00 -0.00000000000E+00 -0.60694673838E+01  0.60694673838E+01  0.00000000000E+00 0.  1.
         21    1    1    2  503  501  0.14307790278E+02 -0.20254054690E+02  0.29221800447E+02  0.38325620874E+02  0.00000000000E+00 0.  1.
         21    1    1    2  504  502 -0.14307790278E+02  0.20254054690E+02  0.99786631892E+02  0.10282174623E+03  0.00000000000E+00 0. -1.
</event>
<event>
 4    1  0.3065783E+006  0.2218397E+02  0.7546771E-02  0.1503007E+00
         21   -1    0    0  504  501  0.00000000000E+00  0.00000000000E+00  0.73976593129E+01  0.73976593129E+01  0.00000000000E+00 0.  1.
         21   -1    0    0  503  502 -0.00000000000E+00 -0.00000000000E+00 -0.62346651327E+03  0.62346651327E+03  0.00000000000E+00 0. -1.
         21    1    1    2  503  501 -0.12509431228E+02 -0.18320556444E+02 -0.60616336333E+03  0.60656916481E+03  0.00000000000E+00 0. -1.
         21    1    1    2  504  502  0.12509431228E+02  0.18320556444E+02 -0.99054906301E+01  0.24295007773E+02  0.00000000000E+00 0.  1.
</event>
<event>
 4    1  0.3065783E+006  0.2346925E+02  0.7546771E-02  0.1486688E+00
         21   -1    0    0  503  501  0.00000000000E+00  0.00000000000E+00  0.52646211090E+01  0.52646211090E+01  0.00000000000E+00 0. -1.
         21   -1    0    0  504  502 -0.00000000000E+00 -0.00000000000E+00 -0.12600274125E+03  0.12600274125E+03  0.00000000000E+00 0.  1.
         21    1    1    2  503  502 -0.20236919490E+02  0.11885830004E+02 -0.87404133242E+02  0.90500212006E+02  0.00000000000E+00 0.  1.
         21    1    1    2  504  501  0.20236919490E+02 -0.11885830004E+02 -0.33333986900E+02  0.40767150354E+02  0.00000000000E+00 0. -1.
</event>
<event>
 4    1  0.3065783E+006  0.2082750E+02  0.7546771E-02  0.1521742E+00
         21   -1    0    0  502  501  0.00000000000E+00  0.00000000000E+00  0.36955079042E+02  0.36955079042E+02  0.00000000000E+00 0. -1.
         21   -1    0    0  504  502 -0.00000000000E+00 -0.00000000000E+00 -0.22355886929E+02  0.22355886929E+02  0.00000000000E+00 0. -1.
         21    1    1    2  503  501 -0.83944004490E+01  0.19060921753E+02  0.27736955752E+02  0.34686069414E+02  0.00000000000E+00 0. -1.
         21    1    1    2  504  503  0.83944004490E+01 -0.19060921753E+02 -0.13137763639E+02  0.24624896557E+02  0.00000000000E+00 0. -1.
</event>
<event>
 4    1  0.3065783E+006  0.3387227E+02  0.7546771E-02  0.1388670E+00
         21   -1    0    0  504  501  0.00000000000E+00  0.00000000000E+00  0.33517787556E+01  0.33517787556E+01  0.00000000000E+00 0. -1.
         21   -1    0    0  503  502 -0.00000000000E+00 -0.00000000000E+00 -0.36381265933E+03  0.36381265933E+03  0.00000000000E+00 0. -1.
         21    1    1    2  503  501  0.28456169266E+02 -0.18373269946E+02 -0.22486675323E+03  0.22740357808E+03  0.00000000000E+00 0. -1.
         21    1    1    2  504  502 -0.28456169266E+02  0.18373269946E+02 -0.13559412735E+03  0.13976086001E+03  0.00000000000E+00 0. -1.
</event>
<event>
 4    1  0.3065783E+006  0.2098038E+02  0.7546771E-02  0.1519545E+00
         21   -1    0    0  503  501  0.00000000000E+00  0.00000000000E+00  0.29705604673E+03  0.29705604673E+03  0.00000000000E+00 0. -1.
         21   -1    0    0  501  502 -0.00000000000E+00 -0.00000000000E+00 -0.19245081467E+01  0.19245081467E+01  0.00000000000E+00 0. -1.
         21    1    1    2  503  504 -0.20970025592E+02  0.65911583117E+00  0.21926489838E+03  0.22026636617E+03  0.00000000000E+00 0. -1.
         21    1    1    2  504  502  0.20970025592E+02 -0.65911583117E+00  0.75866640204E+02  0.78714188701E+02  0.00000000000E+00 0. -1.
</event>
<event>
 4    1  0.3065783E+006  0.2319945E+02  0.7546771E-02  0.1490009E+00
         21   -1    0    0  503  501  0.00000000000E+00  0.00000000000E+00  0.29131771527E+03  0.29131771527E+03  0.00000000000E+00 0. -1.
         21   -1    0    0  501  502 -0.00000000000E+00 -0.00000000000E+00 -0.40922548391E+02  0.40922548391E+02  0.00000000000E+00 0.  1.
         21    1    1    2  503  504  0.15016060054E+02  0.17684245306E+02  0.28752452136E+03  0.28845894851E+03  0.00000000000E+00 0. -1.
         21    1    1    2  504  502 -0.15016060054E+02 -0.17684245306E+02 -0.37129354485E+02  0.43781315148E+02  0.00000000000E+00 0.  1.
</event>
<event>
 4    1  0.3065783E+006  0.4687117E+02  0.7546771E-02  0.1312339E+00
         21   -1    0    0  502  501  0.00000000000E+00  0.00000000000E+00  0.76008229611E+01  0.76008229611E+01  0.00000000000E+00 0. -1.
         21   -1    0    0  504  502 -0.00000000000E+00 -0.00000000000E+00 -0.43717915319E+03  0.43717915319E+03  0.00000000000E+00 0.  1.
         21    1    1    2  503  501  0.46353950510E+02 -0.69439380790E+01 -0.85331681254E+02  0.97357089262E+02  0.00000000000E+00 0. -1.
         21    1    1    2  504  503 -0.46353950510E+02  0.69439380790E+01 -0.34424664897E+03  0.34742288689E+03  0.00000000000E+00 0.  1.
</event>
<event>
 4    1  0.3065783E+006  0.2675180E+02  0.7546771E-02  0.1450117E+00
         21   -1    0    0  504  501  0.00000000000E+00  0.00000000000E+00  0.25767807024E+01  0.25767807024E+01  0.00000000000E+00 0.  1.
         21   -1    0    0  503  502 -0.00000000000E+00 -0.00000000000E+00 -0.53336385975E+03  0.53336385975E+03  0.00000000000E+00 0.  1.
         21    1    1    2  503  501 -0.13584578276E+02  0.23045997131E+02 -0.79877707940E+02  0.84238393720E+02  0.00000000000E+00 0.  1.
         21    1    1    2  504  502  0.13584578276E+02 -0.23045997131E+02 -0.45090937111E+03  0.45170224673E+03  0.00000000000E+00 0.  1.
</event>
<event>
 4    1  0.3065783E+006  0.4325007E+02  0.7546771E-02  0.1330425E+00
         21   -1    0    0  504  501  0.00000000000E+00  0.00000000000E+00  0.39191526989E+01  0.39191526989E+01  0.00000000000E+00 0. -1.
         21   -1    0    0  503  502 -0.00000000000E+00 -0.00000000000E+00 -0.80685147907E+03  0.80685147907E+03  0.00000000000E+00 0.  1.
         21    1    1    2  503  501 -0.30764597354E+02 -0.30399153132E+02 -0.14238251012E+03  0.14880641165E+03  0.00000000000E+00 0. -1.
         21    1    1    2  504  502  0.30764597354E+02  0.30399153132E+02 -0.66054981625E+03  0.66196422011E+03  0.00000000000E+00 0.  1.
</event>
<event>
 4    1  0.3065783E+006  0.2442291E+02  0.7546771E-02  0.1475364E+00
         21   -1    0    0  504  501  0.00000000000E+00  0.00000000000E+00  0.11930256499E+03  0.11930256499E+03  0.00000000000E+00 0.  1.
         21   -1    0    0  503  502 -0.00000000000E+00 -0.00000000000E+00 -0.52984995374E+01  0.52984995374E+01  0.00000000000E+00 0.  1.
         21    1    1    2  503  501  0.61622370079E+01 -0.23632714372E+02  0.71796428427E+02  0.75836702779E+02  0.00000000000E+00 0.  1.
         21    1    1    2  504  502 -0.61622370079E+01  0.23632714372E+02  0.42207637031E+02  0.48764361754E+02  0.00000000000E+00 0.  1.
</event>
<event>
 4    1  0.3065783E+006  0.2184306E+02  0.7546771E-02  0.1507560E+00
         21   -1    0    0  503  501  0.00000000000E+00  0.00000000000E+00  0.56935703331E+03  0.56935703331E+03  0.00000000000E+00 0. -1.
         21   -1    0    0  504  502 -0.00000000000E+00 -0.00000000000E+00 -0.27713644442E+02  0.27713644442E+02  0.00000000000E+00 0.  1.
         21    1    1    2  503  502 -0.21509671481E+02  0.38017526666E+01  0.56480887809E+03  0.56523109261E+03  0.00000000000E+00 0. -1.
         21    1    1    2  504  501  0.21509671481E+02 -0.38017526666E+01 -0.23165489223E+02  0.31839585134E+02  0.00000000000E+00 0.  1.
</event>
<event>
 4    1  0.3065783E+006  0.5374217E+02  0.7546771E-02  0.1282715E+00
         21   -1    0    0  502  501  0.00000000000E+00  0.00000000000E+00  0.47948130357E+03  0.47948130357E+03  0.00000000000E+00 0.  1.
         21   -1    0    0  503  502 -0.00000000000E+00 -0.00000000000E+00 -0.49118533825E+02  0.49118533825E+02  0.00000000000E+00 0.  1.
         21    1    1    2  503  504  0.51850063244E+02  0.14134755619E+02 -0.32382486062E+02  0.62744288811E+02  0.00000000000E+00 0.  1.
         21    1    1    2  504  501 -0.51850063244E+02 -0.14134755619E+02  0.46274525580E+03  0.46585554858E+03  0.00000000000E+00 0.  1.
</event>
<event>
 4    1  0.3065783E+006  0.2036461E+02  0.7546771E-02  0.1528533E+00
         21   -1    0    0  503  501  0.00000000000E+00  0.00000000000E+00  0.17607482819E+03  0.17607482819E+03  0.00000000000E+00 0.  1.
         21   -1    0    0  504  502 -0.00000000000E+00 -0.00000000000E+00 -0.42177174657E+01  0.42177174657E+01  0.00000000000E+00 0. -1.
         21    1    1    2  503  502 -0.94638515609E+01 -0.18031998697E+02  0.14583064532E+03  0.14724569460E+03  0.00000000000E+00 0.  1.
         21    1    1    2  504  501  0.94638515609E+01  0.18031998697E+02  0.26026465407E+02  0.33046851060E+02  0.00000000000E+00 0. -1.
</event>
<event>
 4    1  0.3065783E+006  0.3810999E+02  0.7546771E-02  0.1359932E+00
         21   -1    0    0  502  501  0.00000000000E+00  0.00000000000E+00  0.10066632638E+03  0.10066632638E+03  0.00000000000E+00 0.  1.
         21   -1    0    0  504  502 -0.00000000000E+00 -0.00000000000E+00 -0.18405236365E+03  0.18405236365E+03  0.00000000000E+00 0. -1.
         21    1    1    2  503  501  0.14362191744E+02 -0.35300129383E+02  0.94972807919E+02  0.10233379662E+03  0.00000000000E+00 0.  1.
         21    1    1    2  504  503 -0.14362191744E+02  0.35300129383E+02 -0.17835884520E+03  0.18238489341E+03  0.00000000000E+00 0. -1.
</event>
<event>
 4    1  0.3065783E+006  0.3012817E+02  0.7546771E-02  0.1418486E+00
         21   -1    0    0  502  501  0.00000000000E+00  0.00000000000E+00  0.24433585719E+03  0.24433585719E+03  0.00000000000E+00 0. -1.
         21   -1    0    0  504  502 -0.00000000000E+00 -0.00000000000E+00 -0.20394499146E+02  0.20394499146E+02  0.00000000000E+00 0.  1.
         21    1    1    2  503  501 -0.11547415192E+02  0.27827398263E+02  0.23167470928E+03  0.23362550762E+03  0.00000000000E+00 0. -1.
         21    1    1    2  504  503  0.11547415192E+02 -0.27827398263E+02 -0.77333512420E+01  0.31104848708E+02  0.00000000000E+00 0.  1.
</event>
<event>
 4    1  0.3065783E+006  0.2026481E+02  0.7546771E-02  0.1530025E+00
         21   -1    0    0  504  501  0.00000000000E+00  0.00000000000E+00  0.56760084740E+01  0.56760084740E+01  0.00000000000E+00 0. -1.
         21   -1    0    0  501  502 -0.00000000000E+00 -0.00000000000E+00 -0.44511192040E+03  0.44511192040E+03  0.00000000000E+00 0.  1.
         21    1    1    2  503  502  0.12137098804E+02 -0.16228160352E+02 -0.42598180489E+03  0.42646355114E+03  0.00000000000E+00 0.  1.
         21    1    1    2  504  503 -0.12137098804E+02  0.16228160352E+02 -0.13454107033E+02  0.24324377728E+02  0.00000000000E+00 0. -1.
</event>
<event>
 4    1  0.3065783E+006  0.2622038E+02  0.7546771E-02  0.1455601E+00
         21   -1    0    0  504  501  0.00000000000E+00  0.00000000000E+00  0.27423807818E+02  0.27423807818E+02  0.00000000000E+00 0.  1.
         21   -1    0    0  503  502 -0.00000000000E+00 -0.00000000000E+00 -0.23490183414E+03  0.23490183414E+03  0.00000000000E+00 0. -1.
         21    1    1    2  503  501  0.44760502740E+00 -0.26216556538E+02  0.20227242872E+02  0.33115699316E+02  0.00000000000E+00 0.  1.
         21    1    1    2  504  502 -0.44760502740E+00  0.26216556538E+02 -0.22770526919E+03  0.22920994264E+03  0.00000000000E+00 0. -1.
</event>
<event>
 4    1  0.3065783E+006  0.3496577E+02  0.7546771E-02  0.1380804E+00
         21   -1    0    0  503  501  0.00000000000E+00  0.00000000000E+00  0.49105544435E+02  0.49105544435E+02  0.00000000000E+00 0.  1.
         21   -1    0    0  504  502 -0.00000000000E+00 -0.00000000000E+00 -0.62630525515E+02  0.62630525515E+02  0.00000000000E+00 0.  1.
         21    1    1    2  503  502  0.10231712988E+02  0.33435272237E+02  0.36601692892E+02  0.50619060667E+02  0.00000000000E+00 0.  1.
         21    1    1    2  504  501 -0.10231712988E+02 -0.33435272237E+02 -0.50126673971E+02  0.61117009283E+02  0.00000000000E+00 0.  1.
</event>
<event>
 4    1  0.3065783E+006  0.7540661E+02  0.7546771E-02  0.1214932E+00
         21   -1    0    0  503  501  0.00000000000E+00  0.00000000000E+00  0.10463804178E+03  0.10463804178E+03  0.00000000000E+00 0.  1.
         21   -1    0    0  501  502 -0.00000000000E+00 -0.00000000000E+00 -0.34218550198E+03  0.34218550198E+03  0.00000000000E+00 0.  1.
         21    1    1    2  503  504 -0.66963963657E+02 -0.34669653205E+02  0.86131981902E+02  0.11447652855E+03  0.00000000000E+00 0.  1.
         21    1    1    2  504  502  0.66963963657E+02  0.34669653205E+02 -0.32367944210E+03  0.33234701521E+03  0.00000000000E+00 0.  1.
</event>
<event>
 4    1  0.3065783E+006  0.2390487E+02  0.7546771E-02  0.1481438E+00
         21   -1    0    0  502  501  0.00000000000E+00  0.00000000000E+00  0.16572559072E+01  0.16572559072E+01  0.00000000000E+00 0. -1.
         21   -1    0    0  504  502 -0.00000000000E+00 -0.00000000000E+00 -0.51033381441E+03  0.51033381441E+03  0.00000000000E+00 0.  1.
         21    1    1    2  503  501  0.90838686786E+01 -0.22111675573E+02 -0.10854687049E+03  0.11114794627E+03  0.00000000000E+00 0. -1.
         21    1    1    2  504  503 -0.90838686786E+01  0.22111675573E+02 -0.40012968802E+03  0.40084312405E+03  0.00000000000E+00 0.  1.
</event>
<event>
 4    1  0.3065783E+006  0.3331367E+02  0.7546771E-02  0.1392823E+00
         21   -1    0    0  502  501  0.00000000000E+00  0.00000000000E+00  0.18655253775E+03  0.18655253775E+03  0.00000000000E+00 0.  1.
         21   -1    0    0  504  502 -0.00000000000E+00 -0.00000000000E+00 -0.88156027649E+02  0.88156027649E+02  0.00000000000E+00 0.  1.
         21    1    1    2  503  501 -0.30318825110E+02  0.13804680025E+02  0.18183708489E+03  0.18486353288E+03  0.00000000000E+00 0.  1.
         21    1    1    2  504  503  0.30318825110E+02 -0.13804680025E+02 -0.83440574791E+02  0.89845032518E+02  0.00000000000E+00 0.  1.
</event>
<event>
 4    1  0.3065783E+006  0.2067865E+02  0.7546771E-02  0.1523903E+00
         21   -1    0    0  503  501  0.00000000000E+00  0.00000000000E+00  0.13080615670E+03  0.13080615670E+03  0.00000000000E+00 0. -1.
         21   -1    0    0  504  502 -0.00000000000E+00 -0.00000000000E+00 -0.12233111740E+02  0.12233111740E+02  0.00000000000E+00 0.  1.
         21    1    1    2  503  502 -0.20132039093E+02  0.47230952311E+01 -0.19358567556E+01  0.20769067577E+02  0.00000000000E+00 0.  1.
         21    1    1    2  504  501  0.20132039093E+02 -0.47230952311E+01  0.12050890171E+03  0.12227020086E+03  0.00000000000E+00 0. -1.
</event>
<event>
 4    1  0.3065783E+006  0.2088853E+02  0.7546771E-02  0.1520862E+00
         21   -1    0    0  504  501  0.00000000000E+00  0.00000000000E+00  0.26987728272E+02  0.26987728272E+02  0.00000000000E+00 0. -1.
         21   -1    0    0  503  502 -0.00000000000E+00 -0.00000000000E+00 -0.21971218232E+02  0.21971218232E+02  0.00000000000E+00 0. -1.
         21    1    1    2  503  501  0.18308311230E+02  0.10056650897E+02 -0.10072864825E+02  0.23190366387E+02  0.00000000000E+00 0. -1.
         21    1    1    2  504  502 -0.18308311230E+02 -0.10056650897E+02  0.15089374866E+02  0.25768580116E+02  0.00000000000E+00 0. -1.
</event>
<event>
 4    1  0.3065783E+006  0.2067099E+02  0.7546771E-02  0.1524014E+00
         21   -1    0    0  503  501  0.00000000000E+00  0.00000000000E+00  0.29169078264E+02  0.29169078264E+02  0.00000000000E+00 0. -1.
         21   -1    0    0  504  502 -0.00000000000E+00 -0.00000000000E+00 -0.62004477856E+02  0.62004477856E+02  0.00000000000E+00 0. -1.
         21    1    1    2  503  502 -0.34992546085E+01  0.20372656617E+02 -0.56257185739E+02  0.59934638296E+02  0.00000000000E+00 0. -1.
         21    1    1    2  504  501  0.34992546085E+01 -0.20372656617E+02  0.23421786147E+02  0.31238917823E+02  0.00000000000E+00 0. -1.
</event>
<event>
 4    1  0.3065783E+006  0.2246539E+02  0.7546771E-02  0.1499323E+00
         21   -1    0    0  503  501  0.00000000000E+00  0.00000000000E+00  0.11041176985E+03  0.11041176985E+03  0.00000000000E+00 0. -1.
         21   -1    0    0  504  502 -0.00000000000E+00 -0.00000000000E+00 -0.12259070821E+03  0.12259070821E+03  0.00000000000E+00 0.  1.
         21    1    1    2  503  502  0.11522187137E+02 -0.19285559698E+02  0.10821915881E+03  0.11052637668E+03  0.00000000000E+00 0. -1.
         21    1    1    2  504  501 -0.11522187137E+02  0.19285559698E+02 -0.12039809716E+03  0.12247610138E+03  0.00000000000E+00 0.  1.
</event>
<event>
 4    1  0.3065783E+006  0.3712478E+02  0.7546771E-02  0.1366211E+00
         21   -1    0    0  503  501  0.00000000000E+00  0.00000000000E+00  0.95708660847E+01  0.95708660847E+01  0.00000000000E+00 0. -1.
         21   -1    0    0  504  502 -0.00000000000E+00 -0.00000000000E+00 -0.27958514619E+03  0.27958514619E+03  0.00000000000E+00 0.  1.
         21    1    1    2  503  502 -0.93248184644E+01  0.35934618531E+02 -0.34326997396E+02  0.50562751098E+02  0.00000000000E+00 0. -1.
         21    1    1    2  504  501  0.93248184644E+01 -0.35934618531E+02 -0.23568728271E+03  0.23859326118E+03  0.00000000000E+00 0.  1.
</event>
<event>
 4    1  0.3065783E+006  0.3222729E+02  0.7546771E-02  0.1401180E+00
         21   -1    0    0  504  501  0.00000000000E+00  0.00000000000E+00  0.19194724794E+03  0.19194724794E+03  0.00000000000E+00 0.  1.
         21   -1    0    0  501  502 -0.00000000000E+00 -0.00000000000E+00 -0.56022228676E+02  0.56022228676E+02  0.00000000000E+00 0. -1.
         21    1    1    2  503  502 -0.22136567116E+02  0.23421578596E+02 -0.49882750285E+02  0.59387597389E+02  0.00000000000E+00 0. -1.
         21    1    1    2  504  503  0.22136567116E+02 -0.23421578596E+02  0.18580776955E+03  0.18858187923E+03  0.00000000000E+00 0.  1.
</event>
<event>
 4    1  0.3065783E+006  0.2105180E+02  0.7546771E-02  0.1518527E+00
         21   -1    0    0  502  501  0.00000000000E+00  0.00000000000E+00  0.67950728134E+01  0.67950728134E+01  0.00000000000E+00 0.  1.
         21   -1    0    0  503  502 -0.00000000000E+00 -0.00000000000E+00 -0.14534772379E+03  0.14534772379E+03  0.00000000000E+00 0. -1.
         21    1    1    2  503  504  0.18876516726E+02  0.93196189360E+01 -0.12575796259E+03  0.12750781676E+03  0.00000000000E+00 0. -1.
         21    1    1    2  504  501 -0.18876516726E+02 -0.93196189360E+01 -0.12794688386E+02  0.24634979840E+02  0.00000000000E+00 0.  1.
</event>
<event>
 4    1  0.3065783E+006  0.2624938E+02  0.7546771E-02  0.1455297E+00
         21   -1    0    0  504  501  0.00000000000E+00  0.00000000000E+00  0.11376944389E+04  0.11376944389E+04  0.00000000000E+00 0.  1.
         21   -1    0    0  503  502 -0.00000000000E+00 -0.00000000000E+00 -0.14375312279E+02  0.14375312279E+02  0.00000000000E+00 0.  1.
         21    1    1    2  503  501  0.25653302037E+02 -0.55622196979E+01  0.11254295853E+04  0.11257356625E+04  0.00000000000E+00 0.  1.
         21    1    1    2  504  502 -0.25653302037E+02  0.55622196979E+01 -0.21104586988E+01  0.26334088731E+02  0.00000000000E+00 0.  1.
</event>
<event>
 4    1  0.3065783E+006  0.2337933E+02  0.7546771E-02  0.1487789E+00
         21   -1    0    0  503  501  0.00000000000E+00  0.00000000000E+00  0.26731744534E+03  0.26731744534E+03  0.00000000000E+00 0. -1.
         21   -1    0    0  504  502 -0.00000000000E+00 -0.00000000000E+00 -0.37587153665E+01  0.37587153665E+01  0.00000000000E+00 0.  1.
         21    1    1    2  503  502 -0.23186347565E+02  0.29977018156E+01  0.40253313915E+02  0.46550211715E+02  0.00000000000E+00 0.  1.
         21    1    1    2  504  501  0.23186347565E+02 -0.29977018156E+01  0.22330541606E+03  0.22452594899E+03  0.00000000000E+00 0. -1.
</event>
<event>
 4    1  0.3065783E+006  0.2387142E+02  0.7546771E-02  0.1481836E+00
         21   -1    0    0  504  501  0.00000000000E+00  0.00000000000E+00  0.32436785382E+03  0.32436785382E+03  0.00000000000E+00 0.  1.
         21   -1    0    0  501  502 -0.00000000000E+00 -0.00000000000E+00 -0.44197147414E+02  0.44197147414E+02  0.00000000000E+00 0. -1.
         21    1    1    2  503  502  0.74236217402E+01 -0.22687766503E+02 -0.40497501243E+02  0.47009493887E+02  0.00000000000E+00 0. -1.
         21    1    1    2  504  503 -0.74236217402E+01  0.22687766503E+02  0.32066820765E+03  0.32155550734E+03  0.00000000000E+00 0.  1.
</event>
<event>
 4    1  0.3065783E+006  0.3517686E+02  0.7546771E-02  0.1379324E+00
         21   -1    0    0  502  501  0.00000000000E+00  0.00000000000E+00  0.51219982499E+02  0.51219982499E+02  0.00000000000E+00 0.  1.
         21   -1    0    0  504  502 -0.00000000000E+00 -0.00000000000E+00 -0.66490952258E+02  0.66490952258E+02  0.00000000000E+00 0. -1.
         21    1    1    2  503  501  0.83903987201E+00  0.35166847403E+02  0.39325903541E+02  0.52763034726E+02  0.00000000000E+00 0.  1.
         21    1    1    2  504  503 -0.83903987201E+00 -0.35166847403E+02 -0.54596873301E+02  0.64947900030E+02  0.00000000000E+00 0. -1.
</event>
<event>
 4    1  0.3065783E+006  0.2053733E+02  0.7546771E-02  0.1525974E+00
         21   -1    0    0  502  501  0.00000000000E+00  0.00000000000E+00  0.15112040647E+03  0.15112040647E+03  0.00000000000E+00 0.  1.
         21   -1    0    0  504  502 -0.00000000000E+00 -0.00000000000E+00 -0.39630780502E+01  0.39630780502E+01  0.00000000000E+00 0.  1.
         21    1    1    2  503  501  0.19430041913E+02 -0.66524650694E+01  0.11574750531E+03  0.11755537761E+03  0.00000000000E+00 0.  1.
         21    1    1    2  504  503 -0.19430041913E+02  0.66524650694E+01  0.31409823107E+02  0.37528106905E+02  0.00000000000E+00 0.  1.
</event>
<event>
 4    1  0.3065783E+006  0.2805427E+02  0.7546771E-02  0.1437296E+00
         21   -1    0    0  504  501  0.00000000000E+00  0.00000000000E+00  0.43434703037E+03  0.43434703037E+03  0.00000000000E+00 0. -1.
         21   -1    0    0  503  502 -0.00000000000E+00 -0.00000000000E+00 -0.23490468444E+02  0.23490468444E+02  0.00000000000E+00 0.  1.
         21    1    1    2  503  501  0.11717791336E+02 -0.25489908422E+02  0.42534067337E+03  0.42626485956E+03  0.00000000000E+00 0. -1.
         21    1    1    2  504  502 -0.11717791336E+02  0.25489908422E+02 -0.14484111450E+02  0.31572639257E+02  0.00000000000E+00 0.  1.
</event>
<event>
 4    1  0.3065783E+006  0.2036152E+02  0.7546771E-02  0.1528579E+00
         21   -1    0    0  503  501  0.00000000000E+00  0.00000000000E+00  0.65842780347E+03  0.65842780347E+03  0.00000000000E+00 0. -1.
         21   -1    0    0  501  502 -0.00000000000E+00 -0.00000000000E+00 -0.13894026580E+01  0.13894026580E+01  0.00000000000E+00 0. -1.
         21    1    1    2  503  504 -0.18541045995E+02 -0.84155252922E+01  0.57247453289E+03  0.57283652316E+03  0.00000000000E+00 0. -1.
         21    1    1    2  504  502  0.18541045995E+02  0.84155252922E+01  0.84563867923E+02  0.86980682974E+02  0.00000000000E+00 0. -1.
</event>
<event>
 4    1  0.3065783E+006  0.2545320E+02  0.7546771E-02  0.1463797E+00
         21   -1    0    0  504  501  0.00000000000E+00  0.00000000000E+00  0.13159648290E+04  0.13159648290E+04  0.00000000000E+00 0. -1.
         21   -1    0    0  501  502 -0.00000000000E+00 -0.00000000000E+00 -0.22614342840E+01  0.22614342840E+01  0.00000000000E+00 0. -1.
         21    1    1    2  503  502 -0.21766192999E+02 -0.13194629348E+02  0.73880775307E+02  0.78142397975E+02  0.00000000000E+00 0. -1.
         21    1    1    2  504  503  0.21766192999E+02  0.13194629348E+02  0.12398226194E+04  0.12400838653E+04  0.00000000000E+00 0. -1.
</event>
<event>
 4    1  0.3065783E+006  0.2975148E+02  0.7546771E-02  0.1421769E+00
         21   -1    0    0  503  501  0.00000000000E+00  0.00000000000E+00  0.19900232209E+03  0.19900232209E+03  0.00000000000E+00 0.  1.
         21   -1    0    0  504  502 -0.00000000000E+00 -0.00000000000E+00 -0.48481372297E+01  0.48481372297E+01  0.00000000000E+00 0.  1.
         21    1    1    2  503  502  0.20606201242E+02 -0.21460075060E+02  0.12636115912E+03  0.12981638142E+03  0.00000000000E+00 0.  1.
         21    1    1    2  504  501 -0.20606201242E+02  0.21460075060E+02  0.67793025736E+02  0.74034077894E+02  0.00000000000E+00 0.  1.
</event>
<event>
 4    1  0.3065783E+006  0.2424727E+02  0.7546771E-02  0.1477403E+00
         21   -1    0    0  502  501  0.00000000000E+00  0.00000000000E+00  0.33947634035E+01  0.33947634035E+01  0.00000000000E+00 0.  1.
         21   -1    0    0  504  502 -0.00000000000E+00 -0.00000000000E+00 -0.18617350691E+03  0.18617350691E+03  0.00000000000E+00 0.  1.
         21    1    1    2  503  501 -0.21528733055E+02 -0.11155430385E+02 -0.66356103931E+02  0.70647452204E+02  0.00000000000E+00 0.  1.
         21    1    1    2  504  503  0.21528733055E+02  0.11155430385E+02 -0.11642263958E+03  0.11892081811E+03  0.00000000000E+00 0.  1.
</event>
<event>
 4    1  0.3065783E+006  0.2279037E+02  0.7546771E-02  0.1495147E+00
         21   -1    0    0  503  501  0.00000000000E+00  0.00000000000E+00  0.18076579031E+03  0.18076579031E+03  0.00000000000E+00 0.  1.
         21   -1    0    0  504  502 -0.00000000000E+00 -0.00000000000E+00 -0.46800898770E+01  0.46800898770E+01  0.00000000000E+00 0.  1.
         21    1    1    2  503  502 -0.20842490904E+02 -0.92190816094E+01  0.30431299078E+02  0.38019269540E+02  0.00000000000E+00 0.  1.
         21    1    1    2  504  501  0.20842490904E+02  0.92190816094E+01  0.14565440136E+03  0.14742661065E+03  0.00000000000E+00 0.  1.
</event>
<event>
 4    1  0.3065783E+006  0.2009629E+02  0.7546771E-02  0.1532569E+00
         21   -1    0    0  503  501  0.00000000000E+00  0.00000000000E+00  0.94459147281E+01  0.94459147281E+01  0.00000000000E+00 0.  1.
         21   -1    0    0  501  502 -0.00000000000E+00 -0.00000000000E+00 -0.49443570234E+02  0.49443570234E+02  0.00000000000E+00 0.  1.
         21    1    1    2  503  504  0.17846950280E+02 -0.92383588076E+01 -0.91691218148E+01  0.22089221413E+02  0.00000000000E+00 0.  1.
         21    1    1    2  504  502 -0.17846950280E+02  0.92383588076E+01 -0.30828533691E+02  0.36800263549E+02  0.00000000000E+00 0.  1.
</event>
