<event>
 4    1  0.5591986E+002  0.2373137E+02  0.7546771E-02  0.1483513E+00
          2   -1    0    0  503    0  0.00000000000E+00  0.00000000000E+00  0.13072873228E+04  0.13072873228E+04  0.00000000000E+00 0. -1.
         -2   -1    0    0    0  501 -0.00000000000E+00 -0.00000000000E+00 -0.43396670087E+00  0.43396670087E+00  0.00000000000E+00 0.  1.
         21    1    1    2  502  501  0.95018842363E+01 -0.21746080730E+02  0.70929191867E+03  0.70968880766E+03  0.00000000000E+00 0. -1.
         21    1    1    2  503  502 -0.95018842363E+01  0.21746080730E+02  0.59756143748E+03  0.59803248188E+03  0.00000000000E+00 0.  1.
</event>
<event>
 4    1  0.5591986E+002  0.5571715E+02  0.7546771E-02  0.1275122E+00
          2   -1    0    0  502    0  0.00000000000E+00  0.00000000000E+00  0.27760885016E+04  0.27760885016E+04  0.00000000000E+00 0. -1.
         -2   -1    0    0    0  501 -0.00000000000E+00 -0.00000000000E+00 -0.44623729707E+01  0.44623729707E+01  0.00000000000E+00 0.  1.
         21    1    1    2  502  503 -0.51874131477E+02 -0.20334103348E+02  0.25893463154E+04  0.25899457026E+04  0.00000000000E+00 0. -1.
         21    1    1    2  503  501  0.51874131477E+02  0.20334103348E+02  0.18227981320E+03  0.19060517196E+03  0.00000000000E+00 0.  1.
</event>
<event>
 4    1  0.5591986E+002  0.2585832E+02  0.7546771E-02  0.1459426E+00
          2   -1    0    0  502    0  0.00000000000E+00  0.00000000000E+00  0.86294832683E+01  0.86294832683E+01  0.00000000000E+00 0. -1.
         -2   -1    0    0    0  501 -0.00000000000E+00 -0.00000000000E+00 -0.80505598304E+02  0.80505598304E+02  0.00000000000E+00 0.  1.
         21    1    1    2  502  503 -0.20865729590E+02  0.15273307057E+02 -0.27304763438E+02  0.37605886323E+02  0.00000000000E+00 0. -1.
         21    1    1    2  503  501  0.20865729590E+02 -0.15273307057E+02 -0.44571351598E+02  0.51529195249E+02  0.00000000000E+00 0.  1.
</event>
<event>
 4    1  0.5591986E+002  0.2872533E+02  0.7546771E-02  0.1431006E+00
          2   -1    0    0  502    0  0.00000000000E+00  0.00000000000E+00  0.38909798845E+02  0.38909798845E+02  0.00000000000E+00 0.  1.
         -2   -1    0    0    0  501 -0.00000000000E+00 -0.00000000000E+00 -0.57212482134E+02  0.57212482134E+02  0.00000000000E+00 0. -1.
         21    1    1    2  502  503 -0.28617823119E+02  0.24828714463E+01  0.28975902824E+02  0.40801316096E+02  0.00000000000E+00 0.  1.
         21    1    1    2  503  501  0.28617823119E+02 -0.24828714463E+01 -0.47278586113E+02  0.55320964883E+02  0.00000000000E+00 0. -1.
</event>
<event>
 4    1  0.5591986E+002  0.3337958E+02  0.7546771E-02  0.1392328E+00
          2   -1    0    0  502    0  0.00000000000E+00  0.00000000000E+00  0.59304918050E+02  0.59304918050E+02  0.00000000000E+00 0. -1.
         -2   -1    0    0    0  501 -0.00000000000E+00 -0.00000000000E+00 -0.11067389099E+03  0.11067389099E+03  0.00000000000E+00 0.  1.
         21    1    1    2  502  503 -0.10619916247E+02  0.31645125663E+02  0.51755911610E+02  0.61586288944E+02  0.00000000000E+00 0. -1.
         21    1    1    2  503  501  0.10619916247E+02 -0.31645125663E+02 -0.10312488455E+03  0.10839252010E+03  0.00000000000E+00 0.  1.
</event>
<event>
 4    1  0.5591986E+002  0.2611413E+02  0.7546771E-02  0.1456716E+00
          2   -1    0    0  503    0  0.00000000000E+00  0.00000000000E+00  0.86808435447E+03  0.86808435447E+03  0.00000000000E+00 0. -1.
         -2   -1    0    0    0  501 -0.00000000000E+00 -0.00000000000E+00 -0.87670472358E+00  0.87670472358E+00  0.00000000000E+00 0.  1.
         21    1    1    2  502  501  0.24355485978E+02  0.94211519802E+01  0.29352677452E+03  0.29468612991E+03  0.00000000000E+00 0.  1.
         21    1    1    2  503  502 -0.24355485978E+02 -0.94211519802E+01  0.57368087523E+03  0.57427492928E+03  0.00000000000E+00 0. -1.
</event>
<event>
 4    1  0.5591986E+002  0.2403419E+02  0.7546771E-02  0.1479905E+00
          2   -1    0    0  502    0  0.00000000000E+00  0.00000000000E+00  0.56100512559E+02  0.56100512559E+02  0.00000000000E+00 0.  1.
         -2   -1    0    0    0  501 -0.00000000000E+00 -0.00000000000E+00 -0.10307441801E+02  0.10307441801E+02  0.00000000000E+00 0. -1.
         21    1    1    2  502  503 -0.23430212867E+02 -0.53542068888E+01  0.23975295591E+02  0.33947860096E+02  0.00000000000E+00 0. -1.
         21    1    1    2  503  501  0.23430212867E+02  0.53542068888E+01  0.21817775167E+02  0.32460094264E+02  0.00000000000E+00 0.  1.
</event>
<event>
 4    1  0.5591986E+002  0.2035440E+02  0.7546771E-02  0.1528685E+00
          2   -1    0    0  503    0  0.00000000000E+00  0.00000000000E+00  0.25186447151E+01  0.25186447151E+01  0.00000000000E+00 0. -1.
         -2   -1    0    0    0  501 -0.00000000000E+00 -0.00000000000E+00 -0.31178024353E+03  0.31178024353E+03  0.00000000000E+00 0.  1.
         21    1    1    2  502  501  0.49849270357E+01 -0.19734545614E+02 -0.26264223471E+03  0.26342977288E+03  0.00000000000E+00 0.  1.
         21    1    1    2  503  502 -0.49849270357E+01  0.19734545614E+02 -0.46619364108E+02  0.50869115364E+02  0.00000000000E+00 0. -1.
</event>
<event>
 4    1  0.5591986E+002  0.2347072E+02  0.7546771E-02  0.1486670E+00
          2   -1    0    0  503    0  0.00000000000E+00  0.00000000000E+00  0.25360312019E+03  0.25360312019E+03  0.00000000000E+00 0.  1.
         -2   -1    0    0    0  501 -0.00000000000E+00 -0.00000000000E+00 -0.13034217375E+02  0.13034217375E+02  0.00000000000E+00 0. -1.
         21    1    1    2  502  501  0.23386957822E+02 -0.19811072081E+01 -0.14192823159E+01  0.23513590628E+02  0.00000000000E+00 0. -1.
         21    1    1    2  503  502 -0.23386957822E+02  0.19811072081E+01  0.24198818513E+03  0.24312374693E+03  0.00000000000E+00 0.  1.
</event>
<event>
 4    1  0.5591986E+002  0.3615091E+02  0.7546771E-02  0.1372648E+00
          2   -1    0    0  502    0  0.00000000000E+00  0.00000000000E+00  0.18892931972E+03  0.18892931972E+03  0.00000000000E+00 0. -1.
         -2   -1    0    0    0  501 -0.00000000000E+00 -0.00000000000E+00 -0.69808075782E+01  0.69808075782E+01  0.00000000000E+00 0.  1.
         21    1    1    2  502  503 -0.80429768279E+01 -0.35244839354E+02  0.10031438723E+03  0.10662956655E+03  0.00000000000E+00 0.  1.
         21    1    1    2  503  501  0.80429768279E+01  0.35244839354E+02  0.81634124910E+02  0.89280560746E+02  0.00000000000E+00 0. -1.
</event>
<event>
 4    1  0.5591986E+002  0.2178571E+02  0.7546771E-02  0.1508336E+00
          2   -1    0    0  502    0  0.00000000000E+00  0.00000000000E+00  0.15255099604E+02  0.15255099604E+02  0.00000000000E+00 0.  1.
         -2   -1    0    0    0  501 -0.00000000000E+00 -0.00000000000E+00 -0.11821991631E+03  0.11821991631E+03  0.00000000000E+00 0. -1.
         21    1    1    2  502  503 -0.15095783576E+02 -0.15707781101E+02  0.58042391512E+01  0.22545648383E+02  0.00000000000E+00 0.  1.
         21    1    1    2  503  501  0.15095783576E+02  0.15707781101E+02 -0.10876905585E+03  0.11092936753E+03  0.00000000000E+00 0. -1.
</event>
<event>
 4    1  0.5591986E+002  0.6048408E+02  0.7546771E-02  0.1258197E+00
          2   -1    0    0  503    0  0.00000000000E+00  0.00000000000E+00  0.14968333110E+03  0.14968333110E+03  0.00000000000E+00 0.  1.
         -2   -1    0    0    0  501 -0.00000000000E+00 -0.00000000000E+00 -0.24513844673E+02  0.24513844673E+02  0.00000000000E+00 0. -1.
         21    1    1    2  502  501  0.12387905408E+02  0.59201891224E+02  0.67351397450E+02  0.90523670183E+02  0.00000000000E+00 0.  1.
         21    1    1    2  503  502 -0.12387905408E+02 -0.59201891224E+02  0.57818088980E+02  0.83673505593E+02  0.00000000000E+00 0. -1.
</event>
<event>
 4    1  0.5591986E+002  0.4058309E+02  0.7546771E-02  0.1345102E+00
          2   -1    0    0  503    0  0.00000000000E+00  0.00000000000E+00  0.20169200356E+04  0.20169200356E+04  0.00000000000E+00 0.  1.
         -2   -1    0    0    0  501 -0.00000000000E+00 -0.00000000000E+00 -0.23543180968E+01  0.23543180968E+01  0.00000000000E+00 0. -1.
         21    1    1    2  502  501 -0.40583047270E+02  0.55465718283E-01  0.19131465933E+03  0.19557168935E+03  0.00000000000E+00 0. -1.
         21    1    1    2  503  502  0.40583047270E+02 -0.55465718283E-01  0.18232510581E+04  0.18237026643E+04  0.00000000000E+00 0.  1.
</event>
<event>
 4    1  0.5591986E+002  0.3846326E+02  0.7546771E-02  0.1357734E+00
          2   -1    0    0  502    0  0.00000000000E+00  0.00000000000E+00  0.34754931165E+02  0.34754931165E+02  0.00000000000E+00 0. -1.
         -2   -1    0    0    0  501 -0.00000000000E+00 -0.00000000000E+00 -0.27909070125E+03  0.27909070125E+03  0.00000000000E+00 0.  1.
         21    1    1    2  502  503 -0.20751177882E+02  0.32385357168E+02  0.22293072794E+02  0.44456763681E+02  0.00000000000E+00 0. -1.
         21    1    1    2  503  501  0.20751177882E+02 -0.32385357168E+02 -0.26662884288E+03  0.26938886873E+03  0.00000000000E+00 0.  1.
</event>
<event>
 4    1  0.5591986E+002  0.2100161E+02  0.7546771E-02  0.1519242E+00
          2   -1    0    0  502    0  0.00000000000E+00  0.00000000000E+00  0.91008619935E+02  0.91008619935E+02  0.00000000000E+00 0.  1.
         -2   -1    0    0    0  501 -0.00000000000E+00 -0.00000000000E+00 -0.55994033830E+01  0.55994033830E+01  0.00000000000E+00 0. -1.
         21    1    1    2  502  503 -0.18415610298E+02  0.10096182231E+02  0.60417927160E+02  0.63964001755E+02  0.00000000000E+00 0.  1.
         21    1    1    2  503  501  0.18415610298E+02 -0.10096182231E+02  0.24991289393E+02  0.32644021563E+02  0.00000000000E+00 0. -1.
</event>
<event>
 4    1  0.5591986E+002  0.3253387E+02  0.7546771E-02  0.1398782E+00
          2   -1    0    0  502    0  0.00000000000E+00  0.00000000000E+00  0.45270666749E+03  0.45270666749E+03  0.00000000000E+00 0. -1.
         -2   -1    0    0    0  501 -0.00000000000E+00 -0.00000000000E+00 -0.23380592754E+01  0.23380592754E+01  0.00000000000E+00 0.  1.
         21    1    1    2  502  503 -0.13557465015E+02 -0.29574449514E+02  0.22550487833E+03  0.22783964333E+03  0.00000000000E+00 0.  1.
         21    1    1    2  503  501  0.13557465015E+02  0.29574449514E+02  0.22486372988E+03  0.22720508344E+03  0.00000000000E+00 0. -1.
</event>
<event>
 4    1  0.5591986E+002  0.2717169E+02  0.7546771E-02  0.1445891E+00
          2   -1    0    0  502    0  0.00000000000E+00  0.00000000000E+00  0.51458746753E+00  0.51458746753E+00  0.00000000000E+00 0.  1.
         -2   -1    0    0    0  501 -0.00000000000E+00 -0.00000000000E+00 -0.19138018831E+04  0.19138018831E+04  0.00000000000E+00 0. -1.
         21    1    1    2  502  503  0.14231850325E+02 -0.23146386011E+02 -0.14355269742E+04  0.14357841044E+04  0.00000000000E+00 0.  1.
         21    1    1    2  503  501 -0.14231850325E+02  0.23146386011E+02 -0.47776032148E+03  0.47853236623E+03  0.00000000000E+00 0. -1.
</event>
<event>
 4    1  0.5591986E+002  0.2828029E+02  0.7546771E-02  0.1435155E+00
          2   -1    0    0  503    0  0.00000000000E+00  0.00000000000E+00  0.73892262426E+03  0.73892262426E+03  0.00000000000E+00 0.  1.
         -2   -1    0    0    0  501 -0.00000000000E+00 -0.00000000000E+00 -0.11244482228E+01  0.11244482228E+01  0.00000000000E+00 0. -1.
         21    1    1    2  502  501  0.26654681609E+02 -0.94500218218E+01  0.29730500902E+03  0.29864702134E+03  0.00000000000E+00 0. -1.
         21    1    1    2  503  502 -0.26654681609E+02  0.94500218218E+01  0.44049316702E+03  0.44140005115E+03  0.00000000000E+00 0.  1.
</event>
<event>
 4    1  0.5591986E+002  0.2071029E+02  0.7546771E-02  0.1523442E+00
          2   -1    0    0  502    0  0.00000000000E+00  0.00000000000E+00  0.44466565177E+02  0.44466565177E+02  0.00000000000E+00 0. -1.
         -2   -1    0    0    0  501 -0.00000000000E+00 -0.00000000000E+00 -0.53899236862E+02  0.53899236862E+02  0.00000000000E+00 0.  1.
         21    1    1    2  502  503  0.20688586068E+02  0.94788623097E+00  0.39848907507E+02  0.44909369972E+02  0.00000000000E+00 0. -1.
         21    1    1    2  503  501 -0.20688586068E+02 -0.94788623097E+00 -0.49281579192E+02  0.53456432068E+02  0.00000000000E+00 0.  1.
</event>
<event>
 4    1  0.5591986E+002  0.2877989E+02  0.7546771E-02  0.1430504E+00
          2   -1    0    0  502    0  0.00000000000E+00  0.00000000000E+00  0.16165265374E+02  0.16165265374E+02  0.00000000000E+00 0.  1.
         -2   -1    0    0    0  501 -0.00000000000E+00 -0.00000000000E+00 -0.51560256326E+02  0.51560256326E+02  0.00000000000E+00 0. -1.
         21    1    1    2  502  503  0.98333369441E-01 -0.28779720511E+02 -0.15021961244E+02  0.32464462136E+02  0.00000000000E+00 0. -1.
         21    1    1    2  503  501 -0.98333369441E-01  0.28779720511E+02 -0.20373029708E+02  0.35261059565E+02  0.00000000000E+00 0.  1.
</event>
<event>
 4    1  0.5591986E+002  0.3185434E+02  0.7546771E-02  0.1404138E+00
          2   -1    0    0  502    0  0.00000000000E+00  0.00000000000E+00  0.12364118659E+01  0.12364118659E+01  0.00000000000E+00 0. -1.
         -2   -1    0    0    0  501 -0.00000000000E+00 -0.00000000000E+00 -0.98202142756E+03  0.98202142756E+03  0.00000000000E+00 0.  1.
         21    1    1    2  502  503 -0.30485717817E+02 -0.92368975028E+01 -0.29111924001E+03  0.29285681001E+03  0.00000000000E+00 0.  1.
         21    1    1    2  503  501  0.30485717817E+02  0.92368975028E+01 -0.68966577568E+03  0.69040102941E+03  0.00000000000E+00 0. -1.
</event>
<event>
 4    1  0.5591986E+002  0.2007137E+02  0.7546771E-02  0.1532947E+00
          2   -1    0    0  502    0  0.00000000000E+00  0.00000000000E+00  0.18387593676E+04  0.18387593676E+04  0.00000000000E+00 0.  1.
         -2   -1    0    0    0  501 -0.00000000000E+00 -0.00000000000E+00 -0.33846067927E+00  0.33846067927E+00  0.00000000000E+00 0. -1.
         21    1    1    2  502  503 -0.96433269993E+00 -0.20048195104E+02  0.14652993546E+04  0.14654368150E+04  0.00000000000E+00 0.  1.
         21    1    1    2  503  501  0.96433269993E+00  0.20048195104E+02  0.37312155224E+03  0.37366101323E+03  0.00000000000E+00 0. -1.
</event>
<event>
 4    1  0.5591986E+002  0.4529071E+02  0.7546771E-02  0.1319992E+00
          2   -1    0    0  503    0  0.00000000000E+00  0.00000000000E+00  0.41139241507E+03  0.41139241507E+03  0.00000000000E+00 0. -1.
         -2   -1    0    0    0  501 -0.00000000000E+00 -0.00000000000E+00 -0.88683490891E+01  0.88683490891E+01  0.00000000000E+00 0.  1.
         21    1    1    2  502  501 -0.39696090443E+02  0.21805257722E+02  0.62232053192E+02  0.76968027812E+02  0.00000000000E+00 0.  1.
         21    1    1    2  503  502  0.39696090443E+02 -0.21805257722E+02  0.34029201279E+03  0.34329273635E+03  0.00000000000E+00 0. -1.
</event>
<event>
 4    1  0.5591986E+002  0.3074351E+02  0.7546771E-02  0.1413243E+00
          2   -1    0    0  503    0  0.00000000000E+00  0.00000000000E+00  0.41737540373E+03  0.41737540373E+03  0.00000000000E+00 0.  1.
         -2   -1    0    0    0  501 -0.00000000000E+00 -0.00000000000E+00 -0.61426219536E+01  0.61426219536E+01  0.00000000000E+00 0. -1.
         21    1    1    2  502  501 -0.15674219354E+01  0.30703531825E+02  0.37359271231E+02  0.48382629372E+02  0.00000000000E+00 0. -1.
         21    1    1    2  503  502  0.15674219354E+01 -0.30703531825E+02  0.37387351055E+03  0.37513539631E+03  0.00000000000E+00 0.  1.
</event>
<event>
 4    1  0.5591986E+002  0.3234845E+02  0.7546771E-02  0.1400228E+00
          2   -1    0    0  503    0  0.00000000000E+00  0.00000000000E+00  0.13649883693E+04  0.13649883693E+04  0.00000000000E+00 0. -1.
         -2   -1    0    0    0  501 -0.00000000000E+00 -0.00000000000E+00 -0.89776261280E+00  0.89776261280E+00  0.00000000000E+00 0.  1.
         21    1    1    2  502  501  0.10148019690E+02  0.30715464564E+02  0.42102030145E+03  0.42226119441E+03  0.00000000000E+00 0.  1.
         21    1    1    2  503  502 -0.10148019690E+02 -0.30715464564E+02  0.94307030519E+03  0.94362493746E+03  0.00000000000E+00 0. -1.
</event>
<event>
 4    1  0.5591986E+002  0.2389803E+02  0.7546771E-02  0.1481519E+00
          2   -1    0    0  502    0  0.00000000000E+00  0.00000000000E+00  0.27617367875E+03  0.27617367875E+03  0.00000000000E+00 0.  1.
         -2   -1    0    0    0  501 -0.00000000000E+00 -0.00000000000E+00 -0.24004362529E+01  0.24004362529E+01  0.00000000000E+00 0. -1.
         21    1    1    2  502  503 -0.10728575349E+02  0.21354467626E+02  0.85048747086E+02  0.88342543531E+02  0.00000000000E+00 0. -1.
         21    1    1    2  503  501  0.10728575349E+02 -0.21354467626E+02  0.18872449541E+03  0.19023157147E+03  0.00000000000E+00 0.  1.
</event>
<event>
 4    1  0.5591986E+002  0.2227923E+02  0.7546771E-02  0.1501753E+00
          2   -1    0    0  503    0  0.00000000000E+00  0.00000000000E+00  0.52604094924E+03  0.52604094924E+03  0.00000000000E+00 0.  1.
         -2   -1    0    0    0  501 -0.00000000000E+00 -0.00000000000E+00 -0.11435968830E+01  0.11435968830E+01  0.00000000000E+00 0. -1.
         21    1    1    2  502  501  0.15991045316E+01 -0.22221771984E+02  0.37268487371E+03  0.37335021010E+03  0.00000000000E+00 0.  1.
         21    1    1    2  503  502 -0.15991045316E+01  0.22221771984E+02  0.15221247864E+03  0.15383433602E+03  0.00000000000E+00 0. -1.
</event>
<event>
 4    1  0.5591986E+002  0.2064164E+02  0.7546771E-02  0.1524443E+00
          2   -1    0    0  503    0  0.00000000000E+00  0.00000000000E+00  0.39419959675E+03  0.39419959675E+03  0.00000000000E+00 0.  1.
         -2   -1    0    0    0  501 -0.00000000000E+00 -0.00000000000E+00 -0.16575694424E+01  0.16575694424E+01  0.00000000000E+00 0. -1.
         21    1    1    2  502  501  0.12831729565E+02  0.16168618029E+02  0.79523297074E+02  0.82158580015E+02  0.00000000000E+00 0. -1.
         21    1    1    2  503  502 -0.12831729565E+02 -0.16168618029E+02  0.31301873023E+03  0.31369858617E+03  0.00000000000E+00 0.  1.
</event>
<event>
 4    1  0.5591986E+002  0.2028491E+02  0.7546771E-02  0.1529724E+00
          2   -1    0    0  503    0  0.00000000000E+00  0.00000000000E+00  0.12616594249E+04  0.12616594249E+04  0.00000000000E+00 0.  1.
         -2   -1    0    0    0  501 -0.00000000000E+00 -0.00000000000E+00 -0.32704359794E+00  0.32704359794E+00  0.00000000000E+00 0. -1.
         21    1    1    2  502  501  0.91957763783E-02 -0.20284909741E+02  0.59749956290E+03  0.59784379675E+03  0.00000000000E+00 0.  1.
         21    1    1    2  503  502 -0.91957763783E-02  0.20284909741E+02  0.66383281841E+03  0.66414267176E+03  0.00000000000E+00 0. -1.
</event>
<event>
 4    1  0.5591986E+002  0.2386525E+02  0.7546771E-02  0.1481910E+00
          2   -1    0    0  503    0  0.00000000000E+00  0.00000000000E+00  0.23711267022E+04  0.23711267022E+04  0.00000000000E+00 0.  1.
         -2   -1    0    0    0  501 -0.00000000000E+00 -0.00000000000E+00 -0.29673967991E+00  0.29673967991E+00  0.00000000000E+00 0. -1.
         21    1    1    2  502  501 -0.18988042940E+02  0.14456987916E+02  0.66785720586E+03  0.66828347106E+03  0.00000000000E+00 0. -1.
         21    1    1    2  503  502  0.18988042940E+02 -0.14456987916E+02  0.17029727567E+04  0.17031399708E+04  0.00000000000E+00 0.  1.
</event>
<event>
 4    1  0.5591986E+002  0.2379649E+02  0.7546771E-02  0.1482732E+00
          2   -1    0    0  503    0  0.00000000000E+00  0.00000000000E+00  0.15072189317E+01  0.15072189317E+01  0.00000000000E+00 0. -1.
         -2   -1    0    0    0  501 -0.00000000000E+00 -0.00000000000E+00 -0.10232083625E+04  0.10232083625E+04  0.00000000000E+00 0.  1.
         21    1    1    2  502  501 -0.10816165552E+02  0.21196311970E+02 -0.91842935053E+03  0.91873758223E+03  0.00000000000E+00 0.  1.
         21    1    1    2  503  502  0.10816165552E+02 -0.21196311970E+02 -0.10327179303E+03  0.10597799919E+03  0.00000000000E+00 0. -1.
</event>
<event>
 4    1  0.5591986E+002  0.2112977E+02  0.7546771E-02  0.1517420E+00
          2   -1    0    0  502    0  0.00000000000E+00  0.00000000000E+00  0.59536849743E+02  0.59536849743E+02  0.00000000000E+00 0. -1.
         -2   -1    0    0    0  501 -0.00000000000E+00 -0.00000000000E+00 -0.88629148695E+01  0.88629148695E+01  0.00000000000E+00 0.  1.
         21    1    1    2  502  503 -0.72941141789E+01 -0.19830857693E+02  0.38753165688E+02  0.44139266752E+02  0.00000000000E+00 0. -1.
         21    1    1    2  503  501  0.72941141789E+01  0.19830857693E+02  0.11920769185E+02  0.24260497861E+02  0.00000000000E+00 0.  1.
</event>
<event>
 4    1  0.5591986E+002  0.4168793E+02  0.7546771E-02  0.1338869E+00
          2   -1    0    0  502    0  0.00000000000E+00  0.00000000000E+00  0.84246859367E+03  0.84246859367E+03  0.00000000000E+00 0. -1.
         -2   -1    0    0    0  501 -0.00000000000E+00 -0.00000000000E+00 -0.20687324516E+01  0.20687324516E+01  0.00000000000E+00 0.  1.
         21    1    1    2  502  503 -0.37326111292E+02  0.18564620051E+02  0.44272319677E+03  0.44468158570E+03  0.00000000000E+00 0.  1.
         21    1    1    2  503  501  0.37326111292E+02 -0.18564620051E+02  0.39767666445E+03  0.39985574042E+03  0.00000000000E+00 0. -1.
</event>
<event>
 4    1  0.5591986E+002  0.2121535E+02  0.7546771E-02  0.1516212E+00
          2   -1    0    0  502    0  0.00000000000E+00  0.00000000000E+00  0.34265658334E+02  0.34265658334E+02  0.00000000000E+00 0. -1.
         -2   -1    0    0    0  501 -0.00000000000E+00 -0.00000000000E+00 -0.13379665607E+02  0.13379665607E+02  0.00000000000E+00 0.  1.
         21    1    1    2  502  503  0.21147076223E+02  0.17007183169E+01  0.13662188401E+02  0.25233839730E+02  0.00000000000E+00 0.  1.
         21    1    1    2  503  501 -0.21147076223E+02 -0.17007183169E+01  0.72238043257E+01  0.22411484211E+02  0.00000000000E+00 0. -1.
</event>
<event>
 4    1  0.5591986E+002  0.3945224E+02  0.7546771E-02  0.1351726E+00
          2   -1    0    0  502    0  0.00000000000E+00  0.00000000000E+00  0.59628977880E+03  0.59628977880E+03  0.00000000000E+00 0.  1.
         -2   -1    0    0    0  501 -0.00000000000E+00 -0.00000000000E+00 -0.33919667357E+01  0.33919667357E+01  0.00000000000E+00 0. -1.
         21    1    1    2  502  503  0.37554045429E+02 -0.12090210459E+02  0.44038945912E+03  0.44215309026E+03  0.00000000000E+00 0.  1.
         21    1    1    2  503  501 -0.37554045429E+02  0.12090210459E+02  0.15250835294E+03  0.15752865527E+03  0.00000000000E+00 0. -1.
</event>
<event>
 4    1  0.5591986E+002  0.2002035E+02  0.7546771E-02  0.1533725E+00
          2   -1    0    0  502    0  0.00000000000E+00  0.00000000000E+00  0.83274863928E+03  0.83274863928E+03  0.00000000000E+00 0. -1.
         -2   -1    0    0    0  501 -0.00000000000E+00 -0.00000000000E+00 -0.10457327856E+01  0.10457327856E+01  0.00000000000E+00 0.  1.
         21    1    1    2  502  503 -0.86328697406E+01 -0.18063447998E+02  0.72213161145E+03  0.72240907999E+03  0.00000000000E+00 0. -1.
         21    1    1    2  503  501  0.86328697406E+01  0.18063447998E+02  0.10957129504E+03  0.11138529207E+03  0.00000000000E+00 0.  1.
</event>
<event>
 4    1  0.5591986E+002  0.2010118E+02  0.7546771E-02  0.1532495E+00
          2   -1    0    0  502    0  0.00000000000E+00  0.00000000000E+00  0.15345257330E+01  0.15345257330E+01  0.00000000000E+00 0.  1.
         -2   -1    0    0    0  501 -0.00000000000E+00 -0.00000000000E+00 -0.28534222094E+03  0.28534222094E+03  0.00000000000E+00 0. -1.
         21    1    1    2  502  503 -0.13005061881E+02 -0.15327289790E+02 -0.10204708764E+03  0.10400800711E+03  0.00000000000E+00 0. -1.
         21    1    1    2  503  501  0.13005061881E+02  0.15327289790E+02 -0.18176060757E+03  0.18286873956E+03  0.00000000000E+00 0.  1.
</event>
<event>
 4    1  0.5591986E+002  0.3470824E+02  0.7546771E-02  0.1382626E+00
          2   -1    0    0  503    0  0.00000000000E+00  0.00000000000E+00  0.10764628454E+04  0.10764628454E+04  0.00000000000E+00 0. -1.
         -2   -1    0    0    0  501 -0.00000000000E+00 -0.00000000000E+00 -0.20356423036E+01  0.20356423036E+01  0.00000000000E+00 0.  1.
         21    1    1    2  502  501  0.18049568022E+02 -0.29645822430E+02  0.17537341211E+03  0.17877498530E+03  0.00000000000E+00 0.  1.
         21    1    1    2  503  502 -0.18049568022E+02  0.29645822430E+02  0.89905379100E+03  0.89972350242E+03  0.00000000000E+00 0. -1.
</event>
<event>
 4    1  0.5591986E+002  0.2344744E+02  0.7546771E-02  0.1486955E+00
          2   -1    0    0  502    0  0.00000000000E+00  0.00000000000E+00  0.31687654891E+01  0.31687654891E+01  0.00000000000E+00 0.  1.
         -2   -1    0    0    0  501 -0.00000000000E+00 -0.00000000000E+00 -0.18175236593E+03  0.18175236593E+03  0.00000000000E+00 0. -1.
         21    1    1    2  502  503 -0.78920917843E+01 -0.22079340999E+02 -0.69590609868E+02  0.73434565386E+02  0.00000000000E+00 0.  1.
         21    1    1    2  503  501  0.78920917843E+01  0.22079340999E+02 -0.10899299057E+03  0.11148656603E+03  0.00000000000E+00 0. -1.
</event>
<event>
 4    1  0.5591986E+002  0.4255813E+02  0.7546771E-02  0.1334114E+00
          2   -1    0    0  503    0  0.00000000000E+00  0.00000000000E+00  0.75833282615E+03  0.75833282615E+03  0.00000000000E+00 0. -1.
         -2   -1    0    0    0  501 -0.00000000000E+00 -0.00000000000E+00 -0.24325625083E+01  0.24325625083E+01  0.00000000000E+00 0.  1.
         21    1    1    2  502  501  0.20575856681E+02 -0.37253572646E+02  0.42920848900E+03  0.43131325227E+03  0.00000000000E+00 0. -1.
         21    1    1    2  503  502 -0.20575856681E+02  0.37253572646E+02  0.32669177464E+03  0.32945213639E+03  0.00000000000E+00 0.  1.
</event>
<event>
 4    1  0.5591986E+002  0.3067335E+02  0.7546771E-02  0.1413834E+00
          2   -1    0    0  503    0  0.00000000000E+00  0.00000000000E+00  0.12028015186E+04  0.12028015186E+04  0.00000000000E+00 0. -1.
         -2   -1    0    0    0  501 -0.00000000000E+00 -0.00000000000E+00 -0.11376260999E+01  0.11376260999E+01  0.00000000000E+00 0.  1.
         21    1    1    2  502  501  0.29368749709E+02 -0.88504878214E+01  0.26436871141E+03  0.26614219915E+03  0.00000000000E+00 0.  1.
         21    1    1    2  503  502 -0.29368749709E+02  0.88504878214E+01  0.93729518111E+03  0.93779694558E+03  0.00000000000E+00 0. -1.
</event>
<event>
 4    1  0.5591986E+002  0.2572669E+02  0.7546771E-02  0.1460836E+00
          2   -1    0    0  503    0  0.00000000000E+00  0.00000000000E+00  0.45577455202E+02  0.45577455202E+02  0.00000000000E+00 0. -1.
         -2   -1    0    0    0  501 -0.00000000000E+00 -0.00000000000E+00 -0.14523364260E+02  0.14523364260E+02  0.00000000000E+00 0.  1.
         21    1    1    2  502  501  0.16480472472E+01 -0.25673847071E+02  0.15206110215E+02  0.29884582497E+02  0.00000000000E+00 0. -1.
         21    1    1    2  503  502 -0.16480472472E+01  0.25673847071E+02  0.15847980728E+02  0.30216236965E+02  0.00000000000E+00 0.  1.
</event>
<event>
 4    1  0.5591986E+002  0.2659580E+02  0.7546771E-02  0.1451711E+00
          2   -1    0    0  502    0  0.00000000000E+00  0.00000000000E+00  0.10837644019E+02  0.10837644019E+02  0.00000000000E+00 0.  1.
         -2   -1    0    0    0  501 -0.00000000000E+00 -0.00000000000E+00 -0.19137165384E+03  0.19137165384E+03  0.00000000000E+00 0. -1.
         21    1    1    2  502  503 -0.21485768126E+02  0.15674776168E+02 -0.81943540101E+01  0.27829557624E+02  0.00000000000E+00 0.  1.
         21    1    1    2  503  501  0.21485768126E+02 -0.15674776168E+02 -0.17233965581E+03  0.17437974024E+03  0.00000000000E+00 0. -1.
</event>
<event>
 4    1  0.5591986E+002  0.2528382E+02  0.7546771E-02  0.1465653E+00
          2   -1    0    0  502    0  0.00000000000E+00  0.00000000000E+00  0.60508808678E+03  0.60508808678E+03  0.00000000000E+00 0. -1.
         -2   -1    0    0    0  501 -0.00000000000E+00 -0.00000000000E+00 -0.13984916869E+01  0.13984916869E+01  0.00000000000E+00 0.  1.
         21    1    1    2  502  503  0.24604216331E+02 -0.58227403419E+01  0.45180396255E+03  0.45251087538E+03  0.00000000000E+00 0. -1.
         21    1    1    2  503  501 -0.24604216331E+02  0.58227403419E+01  0.15188563255E+03  0.15397570309E+03  0.00000000000E+00 0.  1.
</event>
<event>
 4    1  0.5591986E+002  0.3553644E+02  0.7546771E-02  0.1376831E+00
          2   -1    0    0  503    0  0.00000000000E+00  0.00000000000E+00  0.34348543696E+02  0.34348543696E+02  0.00000000000E+00 0. -1.
         -2   -1    0    0    0  501 -0.00000000000E+00 -0.00000000000E+00 -0.48969958521E+02  0.48969958521E+02  0.00000000000E+00 0.  1.
         21    1    1    2  502  501  0.30146608155E+02 -0.18815425856E+02 -0.28108032477E+02  0.45308936460E+02  0.00000000000E+00 0.  1.
         21    1    1    2  503  502 -0.30146608155E+02  0.18815425856E+02  0.13486617652E+02  0.38009565757E+02  0.00000000000E+00 0. -1.
</event>
<event>
 4    1  0.5591986E+002  0.3537640E+02  0.7546771E-02  0.1377936E+00
          2   -1    0    0  503    0  0.00000000000E+00  0.00000000000E+00  0.13481822840E+03  0.13481822840E+03  0.00000000000E+00 0.  1.
         -2   -1    0    0    0  501 -0.00000000000E+00 -0.00000000000E+00 -0.69817624114E+02  0.69817624114E+02  0.00000000000E+00 0. -1.
         21    1    1    2  502  501  0.32591241087E+02 -0.13758660740E+02 -0.62773141547E+02  0.72055236038E+02  0.00000000000E+00 0. -1.
         21    1    1    2  503  502 -0.32591241087E+02  0.13758660740E+02  0.12777374583E+03  0.13258061647E+03  0.00000000000E+00 0.  1.
</event>
<event>
 4    1  0.5591986E+002  0.2107075E+02  0.7546771E-02  0.1518257E+00
          2   -1    0    0  503    0  0.00000000000E+00  0.00000000000E+00  0.13449482461E+04  0.13449482461E+04  0.00000000000E+00 0.  1.
         -2   -1    0    0    0  501 -0.00000000000E+00 -0.00000000000E+00 -0.49209324030E+00  0.49209324030E+00  0.00000000000E+00 0. -1.
         21    1    1    2  502  501 -0.19614466891E+02  0.76973482302E+01  0.28626108873E+03  0.28703551593E+03  0.00000000000E+00 0. -1.
         21    1    1    2  503  502  0.19614466891E+02 -0.76973482302E+01  0.10581950641E+04  0.10584048234E+04  0.00000000000E+00 0.  1.
</event>
<event>
 4    1  0.5591986E+002  0.2914962E+02  0.7546771E-02  0.1427133E+00
          2   -1    0    0  502    0  0.00000000000E+00  0.00000000000E+00  0.29970623362E+02  0.29970623362E+02  0.00000000000E+00 0.  1.
         -2   -1    0    0    0  501 -0.00000000000E+00 -0.00000000000E+00 -0.40746781311E+02  0.40746781311E+02  0.00000000000E+00 0. -1.
         21    1    1    2  502  503  0.28628215154E+02 -0.54886585797E+01  0.14114179242E+02  0.32386882091E+02  0.00000000000E+00 0. -1.
         21    1    1    2  503  501 -0.28628215154E+02  0.54886585797E+01 -0.24890337191E+02  0.38330522582E+02  0.00000000000E+00 0.  1.
</event>
<event>
 4    1  0.5591986E+002  0.2063394E+02  0.7546771E-02  0.1524556E+00
          2   -1    0    0  502    0  0.00000000000E+00  0.00000000000E+00  0.15010058735E+02  0.15010058735E+02  0.00000000000E+00 0. -1.
         -2   -1    0    0    0  501 -0.00000000000E+00 -0.00000000000E+00 -0.45218254706E+02  0.45218254706E+02  0.00000000000E+00 0.  1.
         21    1    1    2  502  503  0.63157985683E+01 -0.19643573969E+02  0.32806027240E+01  0.20893100873E+02  0.00000000000E+00 0. -1.
         21    1    1    2  503  501 -0.63157985683E+01  0.19643573969E+02 -0.33488798695E+02  0.39335212569E+02  0.00000000000E+00 0.  1.
</event>
<event>
 4    1  0.5591986E+002  0.2028067E+02  0.7546771E-02  0.1529788E+00
          2   -1    0    0  502    0  0.00000000000E+00  0.00000000000E+00  0.28897906518E+03  0.28897906518E+03  0.00000000000E+00 0. -1.
         -2   -1    0    0    0  501 -0.00000000000E+00 -0.00000000000E+00 -0.20253204685E+02  0.20253204685E+02  0.00000000000E+00 0.  1.
         21    1    1    2  502  503 -0.40717672053E+01  0.19867716756E+02  0.28344723884E+03  0.28417185411E+03  0.00000000000E+00 0. -1.
         21    1    1    2  503  501  0.40717672053E+01 -0.19867716756E+02 -0.14721378353E+02  0.25060415756E+02  0.00000000000E+00 0.  1.
</event>
<event>
 4    1  0.5591986E+002  0.3460716E+02  0.7546771E-02  0.1383346E+00
          2   -1    0    0  503    0  0.00000000000E+00  0.00000000000E+00  0.14696040141E+04  0.14696040141E+04  0.00000000000E+00 0. -1.
         -2   -1    0    0    0  501 -0.00000000000E+00 -0.00000000000E+00 -0.11238937555E+01  0.11238937555E+01  0.00000000000E+00 0.  1.
         21    1    1    2  502  501  0.34567117900E+02 -0.16643203957E+01  0.11197881477E+04  0.11203227889E+04  0.00000000000E+00 0. -1.
         21    1    1    2  503  502 -0.34567117900E+02  0.16643203957E+01  0.34869197257E+03  0.35040511888E+03  0.00000000000E+00 0.  1.
</event>
<event>
 4    1  0.5591986E+002  0.2172573E+02  0.7546771E-02  0.1509151E+00
          2   -1    0    0  502    0  0.00000000000E+00  0.00000000000E+00  0.14992436092E+04  0.14992436092E+04  0.00000000000E+00 0. -1.
         -2   -1    0    0    0  501 -0.00000000000E+00 -0.00000000000E+00 -0.73246106618E+00  0.73246106618E+00  0.00000000000E+00 0.  1.
         21    1    1    2  502  503 -0.21131329918E+02 -0.50472119367E+01  0.13155708250E+04  0.13157502055E+04  0.00000000000E+00 0. -1.
         21    1    1    2  503  501  0.21131329918E+02  0.50472119367E+01  0.18294032304E+03  0.18422586476E+03  0.00000000000E+00 0.  1.
</event>
<event>
 4    1  0.5591986E+002  0.2573363E+02  0.7546771E-02  0.1460761E+00
          2   -1    0    0  503    0  0.00000000000E+00  0.00000000000E+00  0.65487457755E+02  0.65487457755E+02  0.00000000000E+00 0.  1.
         -2   -1    0    0    0  501 -0.00000000000E+00 -0.00000000000E+00 -0.12060314112E+02  0.12060314112E+02  0.00000000000E+00 0. -1.
         21    1    1    2  502  501 -0.17943426265E+02 -0.18445958988E+02  0.42297292876E+02  0.49510412377E+02  0.00000000000E+00 0.  1.
         21    1    1    2  503  502  0.17943426265E+02  0.18445958988E+02  0.11129850766E+02  0.28037359490E+02  0.00000000000E+00 0. -1.
</event>
<event>
 4    1  0.5591986E+002  0.2228468E+02  0.7546771E-02  0.1501681E+00
          2   -1    0    0  503    0  0.00000000000E+00  0.00000000000E+00  0.87576410876E+02  0.87576410876E+02  0.00000000000E+00 0.  1.
         -2   -1    0    0    0  501 -0.00000000000E+00 -0.00000000000E+00 -0.30864685484E+02  0.30864685484E+02  0.00000000000E+00 0. -1.
         21    1    1    2  502  501  0.58091731379E+01 -0.21514196327E+02 -0.25148741378E+02  0.33601582240E+02  0.00000000000E+00 0. -1.
         21    1    1    2  503  502 -0.58091731379E+01  0.21514196327E+02  0.81860466771E+02  0.84839514120E+02  0.00000000000E+00 0.  1.
</event>
<event>
 4    1  0.5591986E+002  0.2578352E+02  0.7546771E-02  0.1460226E+00
          2   -1    0    0  502    0  0.00000000000E+00  0.00000000000E+00  0.81288200747E+01  0.81288200747E+01  0.00000000000E+00 0.  1.
         -2   -1    0    0    0  501 -0.00000000000E+00 -0.00000000000E+00 -0.27214314296E+03  0.27214314296E+03  0.00000000000E+00 0. -1.
         21    1    1    2  502  503 -0.23759945510E+02  0.10012734737E+02 -0.14803738548E+02  0.29731137592E+02  0.00000000000E+00 0.  1.
         21    1    1    2  503  501  0.23759945510E+02 -0.10012734737E+02 -0.24921058433E+03  0.25054082544E+03  0.00000000000E+00 0. -1.
</event>
<event>
 4    1  0.5591986E+002  0.3489631E+02  0.7546771E-02  0.1381294E+00
          2   -1    0    0  503    0  0.00000000000E+00  0.00000000000E+00  0.65272547436E+02  0.65272547436E+02  0.00000000000E+00 0.  1.
         -2   -1    0    0    0  501 -0.00000000000E+00 -0.00000000000E+00 -0.30986122176E+02  0.30986122176E+02  0.00000000000E+00 0. -1.
         21    1    1    2  502  501 -0.24185477321E+02 -0.25155816063E+02 -0.13216834925E+02  0.37315373782E+02  0.00000000000E+00 0. -1.
         21    1    1    2  503  502  0.24185477321E+02  0.25155816063E+02  0.47503260185E+02  0.58943295830E+02  0.00000000000E+00 0.  1.
</event>
<event>
 4    1  0.5591986E+002  0.2077849E+02  0.7546771E-02  0.1522451E+00
          2   -1    0    0  503    0  0.00000000000E+00  0.00000000000E+00  0.24550825133E+01  0.24550825133E+01  0.00000000000E+00 0. -1.
         -2   -1    0    0    0  501 -0.00000000000E+00 -0.00000000000E+00 -0.39454326168E+03  0.39454326168E+03  0.00000000000E+00 0.  1.
         21    1    1    2  502  501  0.13343926190E+01 -0.20735598623E+02 -0.34382598813E+03  0.34445327080E+03  0.00000000000E+00 0.  1.
         21    1    1    2  503  502 -0.13343926190E+01  0.20735598623E+02 -0.48262191044E+02  0.52545073397E+02  0.00000000000E+00 0. -1.
</event>
<event>
 4    1  0.5591986E+002  0.2204477E+02  0.7546771E-02  0.1504854E+00
          2   -1    0    0  503    0  0.00000000000E+00  0.00000000000E+00  0.71711790493E+02  0.71711790493E+02  0.00000000000E+00 0. -1.
         -2   -1    0    0    0  501 -0.00000000000E+00 -0.00000000000E+00 -0.82854088338E+01  0.82854088338E+01  0.00000000000E+00 0.  1.
         21    1    1    2  502  501  0.21389358944E+02 -0.53354745663E+01  0.14645091374E+02  0.26466028531E+02  0.00000000000E+00 0.  1.
         21    1    1    2  503  502 -0.21389358944E+02  0.53354745663E+01  0.48781290285E+02  0.53531170796E+02  0.00000000000E+00 0. -1.
</event>
<event>
 4    1  0.5591986E+002  0.3076742E+02  0.7546771E-02  0.1413042E+00
          2   -1    0    0  502    0  0.00000000000E+00  0.00000000000E+00  0.11083173965E+01  0.11083173965E+01  0.00000000000E+00 0. -1.
         -2   -1    0    0    0  501 -0.00000000000E+00 -0.00000000000E+00 -0.99469204632E+03  0.99469204632E+03  0.00000000000E+00 0.  1.
         21    1    1    2  502  503 -0.29002902430E+02  0.10269650364E+02 -0.30961584174E+03  0.31114080981E+03  0.00000000000E+00 0. -1.
         21    1    1    2  503  501  0.29002902430E+02 -0.10269650364E+02 -0.68396788718E+03  0.68465955391E+03  0.00000000000E+00 0.  1.
</event>
<event>
 4    1  0.5591986E+002  0.2971289E+02  0.7546771E-02  0.1422108E+00
          2   -1    0    0  503    0  0.00000000000E+00  0.00000000000E+00  0.66937209083E+03  0.66937209083E+03  0.00000000000E+00 0. -1.
         -2   -1    0    0    0  501 -0.00000000000E+00 -0.00000000000E+00 -0.35314829389E+01  0.35314829389E+01  0.00000000000E+00 0.  1.
         21    1    1    2  502  501 -0.66197328331E+01  0.28966099690E+02  0.66608147145E+02  0.72934909749E+02  0.00000000000E+00 0.  1.
         21    1    1    2  503  502  0.66197328331E+01 -0.28966099690E+02  0.59923246075E+03  0.59996866402E+03  0.00000000000E+00 0. -1.
</event>
<event>
 4    1  0.5591986E+002  0.2574609E+02  0.7546771E-02  0.1460627E+00
          2   -1    0    0  502    0  0.00000000000E+00  0.00000000000E+00  0.77917207121E+02  0.77917207121E+02  0.00000000000E+00 0.  1.
         -2   -1    0    0    0  501 -0.00000000000E+00 -0.00000000000E+00 -0.14635145961E+02  0.14635145961E+02  0.00000000000E+00 0. -1.
         21    1    1    2  502  503  0.14363723472E+02 -0.21366909665E+02  0.61585355845E+02  0.66750411498E+02  0.00000000000E+00 0. -1.
         21    1    1    2  503  501 -0.14363723472E+02  0.21366909665E+02  0.16967053145E+01  0.25801941584E+02  0.00000000000E+00 0.  1.
</event>
<event>
 4    1  0.5591986E+002  0.2096696E+02  0.7546771E-02  0.1519737E+00
          2   -1    0    0  503    0  0.00000000000E+00  0.00000000000E+00  0.38938305294E+02  0.38938305294E+02  0.00000000000E+00 0. -1.
         -2   -1    0    0    0  501 -0.00000000000E+00 -0.00000000000E+00 -0.12135403622E+02  0.12135403622E+02  0.00000000000E+00 0.  1.
         21    1    1    2  502  501 -0.93439495165E+01 -0.18769767644E+02  0.66612682766E+01  0.21999683294E+02  0.00000000000E+00 0.  1.
         21    1    1    2  503  502  0.93439495165E+01  0.18769767644E+02  0.20141633396E+02  0.29074025621E+02  0.00000000000E+00 0. -1.
</event>
<event>
 4    1  0.5591986E+002  0.2180514E+02  0.7546771E-02  0.1508073E+00
          2   -1    0    0  502    0  0.00000000000E+00  0.00000000000E+00  0.28060670202E+03  0.28060670202E+03  0.00000000000E+00 0.  1.
         -2   -1    0    0    0  501 -0.00000000000E+00 -0.00000000000E+00 -0.10953026406E+02  0.10953026406E+02  0.00000000000E+00 0. -1.
         21    1    1    2  502  503  0.10774706401E+02 -0.18957057726E+02  0.26885726179E+03  0.26974004440E+03  0.00000000000E+00 0.  1.
         21    1    1    2  503  501 -0.10774706401E+02  0.18957057726E+02  0.79641381561E+00  0.21819684017E+02  0.00000000000E+00 0. -1.
</event>
<event>
 4    1  0.5591986E+002  0.5893683E+02  0.7546771E-02  0.1263488E+00
          2   -1    0    0  503    0  0.00000000000E+00  0.00000000000E+00  0.23326140902E+03  0.23326140902E+03  0.00000000000E+00 0. -1.
         -2   -1    0    0    0  501 -0.00000000000E+00 -0.00000000000E+00 -0.27869342553E+02  0.27869342553E+02  0.00000000000E+00 0.  1.
         21    1    1    2  502  501 -0.58417388831E+02  0.78075816154E+01  0.13597530950E+02  0.60485060109E+02  0.00000000000E+00 0.  1.
         21    1    1    2  503  502  0.58417388831E+02 -0.78075816154E+01  0.19179453552E+03  0.20064569147E+03  0.00000000000E+00 0. -1.
</event>
<event>
 4    1  0.5591986E+002  0.2115081E+02  0.7546771E-02  0.1517122E+00
          2   -1    0    0  502    0  0.00000000000E+00  0.00000000000E+00  0.29693587710E+03  0.29693587710E+03  0.00000000000E+00 0.  1.
         -2   -1    0    0    0  501 -0.00000000000E+00 -0.00000000000E+00 -0.39055428546E+01  0.39055428546E+01  0.00000000000E+00 0. -1.
         21    1    1    2  502  503  0.70692163964E+01  0.19934471270E+02  0.26440569219E+03  0.26525031014E+03  0.00000000000E+00 0.  1.
         21    1    1    2  503  501 -0.70692163964E+01 -0.19934471270E+02  0.28624642055E+02  0.35591109818E+02  0.00000000000E+00 0. -1.
</event>
<event>
 4    1  0.5591986E+002  0.2318848E+02  0.7546771E-02  0.1490145E+00
          2   -1    0    0  503    0  0.00000000000E+00  0.00000000000E+00  0.35570893101E+03  0.35570893101E+03  0.00000000000E+00 0.  1.
         -2   -1    0    0    0  501 -0.00000000000E+00 -0.00000000000E+00 -0.15249766696E+01  0.15249766696E+01  0.00000000000E+00 0. -1.
         21    1    1    2  502  501 -0.21013291696E+02 -0.98054741803E+01  0.16039154791E+03  0.16205910772E+03  0.00000000000E+00 0.  1.
         21    1    1    2  503  502  0.21013291696E+02  0.98054741803E+01  0.19379240642E+03  0.19517479996E+03  0.00000000000E+00 0. -1.
</event>
<event>
 4    1  0.5591986E+002  0.5377971E+02  0.7546771E-02  0.1282567E+00
          2   -1    0    0  502    0  0.00000000000E+00  0.00000000000E+00  0.20000346911E+04  0.20000346911E+04  0.00000000000E+00 0. -1.
         -2   -1    0    0    0  501 -0.00000000000E+00 -0.00000000000E+00 -0.41806700941E+01  0.41806700941E+01  0.00000000000E+00 0.  1.
         21    1    1    2  502  503 -0.14935411387E+02 -0.51664208330E+02  0.18083946951E+04  0.18091941936E+04  0.00000000000E+00 0. -1.
         21    1    1    2  503  501  0.14935411387E+02  0.51664208330E+02  0.18745932590E+03  0.19502116758E+03  0.00000000000E+00 0.  1.
</event>
<event>
 4    1  0.5591986E+002  0.2324242E+02  0.7546771E-02  0.1489476E+00
          2   -1    0    0  502    0  0.00000000000E+00  0.00000000000E+00  0.20046951166E+02  0.20046951166E+02  0.00000000000E+00 0. -1.
         -2   -1    0    0    0  501 -0.00000000000E+00 -0.00000000000E+00 -0.35774539281E+02  0.35774539281E+02  0.00000000000E+00 0.  1.
         21    1    1    2  502  503  0.19632573592E+02 -0.12440753276E+02  0.60005071579E+01  0.24004507370E+02  0.00000000000E+00 0. -1.
         21    1    1    2  503  501 -0.19632573592E+02  0.12440753276E+02 -0.21728095274E+02  0.31816983077E+02  0.00000000000E+00 0.  1.
</event>
<event>
 4    1  0.5591986E+002  0.4171870E+02  0.7546771E-02  0.1338698E+00
          2   -1    0    0  502    0  0.00000000000E+00  0.00000000000E+00  0.46424524602E+03  0.46424524602E+03  0.00000000000E+00 0.  1.
         -2   -1    0    0    0  501 -0.00000000000E+00 -0.00000000000E+00 -0.46680339953E+01  0.46680339953E+01  0.00000000000E+00 0. -1.
         21    1    1    2  502  503  0.74636755300E+01  0.41045624180E+02  0.33381995410E+03  0.33641672294E+03  0.00000000000E+00 0.  1.
         21    1    1    2  503  501 -0.74636755300E+01 -0.41045624180E+02  0.12575725793E+03  0.13249655708E+03  0.00000000000E+00 0. -1.
</event>
<event>
 4    1  0.5591986E+002  0.3974935E+02  0.7546771E-02  0.1349961E+00
          2   -1    0    0  503    0  0.00000000000E+00  0.00000000000E+00  0.20728277576E+03  0.20728277576E+03  0.00000000000E+00 0.  1.
         -2   -1    0    0    0  501 -0.00000000000E+00 -0.00000000000E+00 -0.76503625978E+01  0.76503625978E+01  0.00000000000E+00 0. -1.
         21    1    1    2  502  501  0.35362983726E+02  0.18151308755E+02  0.10630301081E+03  0.11349158883E+03  0.00000000000E+00 0. -1.
         21    1    1    2  503  502 -0.35362983726E+02 -0.18151308755E+02  0.93329402351E+02  0.10144154953E+03  0.00000000000E+00 0.  1.
</event>
<event>
 4    1  0.5591986E+002  0.3142375E+02  0.7546771E-02  0.1407615E+00
          2   -1    0    0  503    0  0.00000000000E+00  0.00000000000E+00  0.39167458257E+01  0.39167458257E+01  0.00000000000E+00 0.  1.
         -2   -1    0    0    0  501 -0.00000000000E+00 -0.00000000000E+00 -0.41501451187E+03  0.41501451187E+03  0.00000000000E+00 0. -1.
         21    1    1    2  502  501 -0.28090097807E+02  0.14085400162E+02 -0.33678314752E+03  0.33824597639E+03  0.00000000000E+00 0. -1.
         21    1    1    2  503  502  0.28090097807E+02 -0.14085400162E+02 -0.74314618526E+02  0.80685281304E+02  0.00000000000E+00 0.  1.
</event>
<event>
 4    1  0.5591986E+002  0.2689687E+02  0.7546771E-02  0.1448647E+00
          2   -1    0    0  503    0  0.00000000000E+00  0.00000000000E+00  0.10598993148E+04  0.10598993148E+04  0.00000000000E+00 0.  1.
         -2   -1    0    0    0  501 -0.00000000000E+00 -0.00000000000E+00 -0.78030196077E+00  0.78030196077E+00  0.00000000000E+00 0. -1.
         21    1    1    2  502  501  0.18342254625E+02  0.19672405925E+02  0.34185714995E+03  0.34291362299E+03  0.00000000000E+00 0. -1.
         21    1    1    2  503  502 -0.18342254625E+02 -0.19672405925E+02  0.71726186289E+03  0.71776599377E+03  0.00000000000E+00 0.  1.
</event>
<event>
 4    1  0.5591986E+002  0.4442835E+02  0.7546771E-02  0.1324323E+00
          2   -1    0    0  503    0  0.00000000000E+00  0.00000000000E+00  0.11044007769E+03  0.11044007769E+03  0.00000000000E+00 0.  1.
         -2   -1    0    0    0  501 -0.00000000000E+00 -0.00000000000E+00 -0.74737423966E+02  0.74737423966E+02  0.00000000000E+00 0. -1.
         21    1    1    2  502  501  0.17976715248E+01  0.44391964099E+02 -0.62911234964E+02  0.77017540757E+02  0.00000000000E+00 0. -1.
         21    1    1    2  503  502 -0.17976715248E+01 -0.44391964099E+02  0.98613888690E+02  0.10815996090E+03  0.00000000000E+00 0.  1.
</event>
<event>
 4    1  0.5591986E+002  0.2445941E+02  0.7546771E-02  0.1474943E+00
          2   -1    0    0  503    0  0.00000000000E+00  0.00000000000E+00  0.12050813717E+03  0.12050813717E+03  0.00000000000E+00 0. -1.
         -2   -1    0    0    0  501 -0.00000000000E+00 -0.00000000000E+00 -0.51327795685E+01  0.51327795685E+01  0.00000000000E+00 0.  1.
         21    1    1    2  502  501 -0.47554949791E+01  0.23992664360E+02  0.69062384871E+02  0.73265787921E+02  0.00000000000E+00 0.  1.
         21    1    1    2  503  502  0.47554949791E+01 -0.23992664360E+02  0.46312972732E+02  0.52375128820E+02  0.00000000000E+00 0. -1.
</event>
<event>
 4    1  0.5591986E+002  0.3792690E+02  0.7546771E-02  0.1361082E+00
          2   -1    0    0  502    0  0.00000000000E+00  0.00000000000E+00  0.20575608294E+01  0.20575608294E+01  0.00000000000E+00 0. -1.
         -2   -1    0    0    0  501 -0.00000000000E+00 -0.00000000000E+00 -0.11238709830E+04  0.11238709830E+04  0.00000000000E+00 0.  1.
         21    1    1    2  502  503  0.37801635250E+02  0.30799477470E+01 -0.21480973368E+03  0.21813223372E+03  0.00000000000E+00 0. -1.
         21    1    1    2  503  501 -0.37801635250E+02 -0.30799477470E+01 -0.90700368854E+03  0.90779631016E+03  0.00000000000E+00 0.  1.
</event>
<event>
 4    1  0.5591986E+002  0.3735016E+02  0.7546771E-02  0.1364755E+00
          2   -1    0    0  502    0  0.00000000000E+00  0.00000000000E+00  0.90992886985E+03  0.90992886985E+03  0.00000000000E+00 0.  1.
         -2   -1    0    0    0  501 -0.00000000000E+00 -0.00000000000E+00 -0.17927033911E+01  0.17927033911E+01  0.00000000000E+00 0. -1.
         21    1    1    2  502  503 -0.23808864867E+01  0.37274198845E+02  0.62753331785E+03  0.62864385747E+03  0.00000000000E+00 0.  1.
         21    1    1    2  503  501  0.23808864867E+01 -0.37274198845E+02  0.28060284862E+03  0.28307771578E+03  0.00000000000E+00 0. -1.
</event>
<event>
 4    1  0.5591986E+002  0.3828381E+02  0.7546771E-02  0.1358847E+00
          2   -1    0    0  503    0  0.00000000000E+00  0.00000000000E+00  0.20048051949E+03  0.20048051949E+03  0.00000000000E+00 0. -1.
         -2   -1    0    0    0  501 -0.00000000000E+00 -0.00000000000E+00 -0.14628706192E+02  0.14628706192E+02  0.00000000000E+00 0.  1.
         21    1    1    2  502  501 -0.38086416866E+02  0.38826781025E+01  0.16854253722E+02  0.41829609220E+02  0.00000000000E+00 0.  1.
         21    1    1    2  503  502  0.38086416866E+02 -0.38826781025E+01  0.16899755958E+03  0.17327961647E+03  0.00000000000E+00 0. -1.
</event>
<event>
 4    1  0.5591986E+002  0.2501748E+02  0.7546771E-02  0.1468608E+00
          2   -1    0    0  503    0  0.00000000000E+00  0.00000000000E+00  0.77220805235E+02  0.77220805235E+02  0.00000000000E+00 0.  1.
         -2   -1    0    0    0  501 -0.00000000000E+00 -0.00000000000E+00 -0.89014623227E+01  0.89014623227E+01  0.00000000000E+00 0. -1.
         21    1    1    2  502  501 -0.21147381092E+02  0.13366465376E+02  0.21278980085E+02  0.32843098471E+02  0.00000000000E+00 0. -1.
         21    1    1    2  503  502  0.21147381092E+02 -0.13366465376E+02  0.47040362827E+02  0.53279169087E+02  0.00000000000E+00 0.  1.
</event>
<event>
 4    1  0.5591986E+002  0.2511941E+02  0.7546771E-02  0.1467472E+00
          2   -1    0    0  503    0  0.00000000000E+00  0.00000000000E+00  0.16460757464E+04  0.16460757464E+04  0.00000000000E+00 0. -1.
         -2   -1    0    0    0  501 -0.00000000000E+00 -0.00000000000E+00 -0.39478338674E+00  0.39478338674E+00  0.00000000000E+00 0.  1.
         21    1    1    2  502  501 -0.13332913180E+02 -0.21288923767E+02  0.68260003027E+03  0.68306206612E+03  0.00000000000E+00 0.  1.
         21    1    1    2  503  502  0.13332913180E+02  0.21288923767E+02  0.96308093279E+03  0.96340846371E+03  0.00000000000E+00 0. -1.
</event>
<event>
 4    1  0.5591986E+002  0.2809691E+02  0.7546771E-02  0.1436890E+00
          2   -1    0    0  502    0  0.00000000000E+00  0.00000000000E+00  0.81219624188E+01  0.81219624188E+01  0.00000000000E+00 0. -1.
         -2   -1    0    0    0  501 -0.00000000000E+00 -0.00000000000E+00 -0.11779819978E+03  0.11779819978E+03  0.00000000000E+00 0.  1.
         21    1    1    2  502  503 -0.27733266311E+02 -0.45058016192E+01 -0.28509109474E+02  0.40027560899E+02  0.00000000000E+00 0. -1.
         21    1    1    2  503  501  0.27733266311E+02  0.45058016192E+01 -0.81167127886E+02  0.85892601299E+02  0.00000000000E+00 0.  1.
</event>
<event>
 4    1  0.5591986E+002  0.3145390E+02  0.7546771E-02  0.1407369E+00
          2   -1    0    0  503    0  0.00000000000E+00  0.00000000000E+00  0.38854011381E+03  0.38854011381E+03  0.00000000000E+00 0. -1.
         -2   -1    0    0    0  501 -0.00000000000E+00 -0.00000000000E+00 -0.64358563522E+01  0.64358563522E+01  0.00000000000E+00 0.  1.
         21    1    1    2  502  501 -0.44957086260E+01 -0.31130953511E+02  0.37524551516E+02  0.48963656206E+02  0.00000000000E+00 0.  1.
         21    1    1    2  503  502  0.44957086260E+01  0.31130953511E+02  0.34457970595E+03  0.34601231396E+03  0.00000000000E+00 0. -1.
</event>
<event>
 4    1  0.5591986E+002  0.2291464E+02  0.7546771E-02  0.1493573E+00
          2   -1    0    0  503    0  0.00000000000E+00  0.00000000000E+00  0.68631686167E+02  0.68631686167E+02  0.00000000000E+00 0.  1.
         -2   -1    0    0    0  501 -0.00000000000E+00 -0.00000000000E+00 -0.24952988005E+03  0.24952988005E+03  0.00000000000E+00 0. -1.
         21    1    1    2  502  501 -0.22316976802E+02 -0.51993441248E+01 -0.24707214901E+03  0.24813247963E+03  0.00000000000E+00 0. -1.
         21    1    1    2  503  502  0.22316976802E+02  0.51993441248E+01  0.66173955118E+02  0.70029086592E+02  0.00000000000E+00 0.  1.
</event>
<event>
 4    1  0.5591986E+002  0.5566884E+02  0.7546771E-02  0.1275304E+00
          2   -1    0    0  502    0  0.00000000000E+00  0.00000000000E+00  0.44250661970E+02  0.44250661970E+02  0.00000000000E+00 0.  1.
         -2   -1    0    0    0  501 -0.00000000000E+00 -0.00000000000E+00 -0.11136238819E+03  0.11136238819E+03  0.00000000000E+00 0. -1.
         21    1    1    2  502  503  0.19953064857E+02 -0.51970138609E+02  0.13843732627E+02  0.57364353368E+02  0.00000000000E+00 0.  1.
         21    1    1    2  503  501 -0.19953064857E+02  0.51970138609E+02 -0.80955458849E+02  0.98248696794E+02  0.00000000000E+00 0. -1.
</event>
<event>
 4    1  0.5591986E+002  0.2009634E+02  0.7546771E-02  0.1532568E+00
          2   -1    0    0  502    0  0.00000000000E+00  0.00000000000E+00  0.10402745670E+04  0.10402745670E+04  0.00000000000E+00 0. -1.
         -2   -1    0    0    0  501 -0.00000000000E+00 -0.00000000000E+00 -0.39007950791E+00  0.39007950791E+00  0.00000000000E+00 0.  1.
         21    1    1    2  502  503 -0.95218289764E+01  0.17697390726E+02  0.55579831667E+03  0.55616151582E+03  0.00000000000E+00 0.  1.
         21    1    1    2  503  501  0.95218289764E+01 -0.17697390726E+02  0.48408617083E+03  0.48450313070E+03  0.00000000000E+00 0. -1.
</event>
<event>
 4    1  0.5591986E+002  0.4222269E+02  0.7546771E-02  0.1335931E+00
          2   -1    0    0  502    0  0.00000000000E+00  0.00000000000E+00  0.42360049261E+03  0.42360049261E+03  0.00000000000E+00 0. -1.
         -2   -1    0    0    0  501 -0.00000000000E+00 -0.00000000000E+00 -0.84971428622E+01  0.84971428622E+01  0.00000000000E+00 0.  1.
         21    1    1    2  502  503  0.41770140403E+02  0.61653097055E+01  0.36103861578E+03  0.36349915785E+03  0.00000000000E+00 0. -1.
         21    1    1    2  503  501 -0.41770140403E+02 -0.61653097055E+01  0.54064733964E+02  0.68598477619E+02  0.00000000000E+00 0.  1.
</event>
<event>
 4    1  0.5591986E+002  0.3409403E+02  0.7546771E-02  0.1387047E+00
          2   -1    0    0  502    0  0.00000000000E+00  0.00000000000E+00  0.63111055150E+02  0.63111055150E+02  0.00000000000E+00 0.  1.
         -2   -1    0    0    0  501 -0.00000000000E+00 -0.00000000000E+00 -0.10503870576E+03  0.10503870576E+03  0.00000000000E+00 0. -1.
         21    1    1    2  502  503  0.18178903465E+02  0.28843198480E+02  0.55384851422E+02  0.65037561430E+02  0.00000000000E+00 0.  1.
         21    1    1    2  503  501 -0.18178903465E+02 -0.28843198480E+02 -0.97312502028E+02  0.10311219948E+03  0.00000000000E+00 0. -1.
</event>
<event>
 4    1  0.5591986E+002  0.2243902E+02  0.7546771E-02  0.1499665E+00
          2   -1    0    0  502    0  0.00000000000E+00  0.00000000000E+00  0.17474953253E+01  0.17474953253E+01  0.00000000000E+00 0. -1.
         -2   -1    0    0    0  501 -0.00000000000E+00 -0.00000000000E+00 -0.43412268987E+03  0.43412268987E+03  0.00000000000E+00 0.  1.
         21    1    1    2  502  503 -0.74929016158E+00 -0.22426502767E+02 -0.89806131853E+02  0.92567006976E+02  0.00000000000E+00 0. -1.
         21    1    1    2  503  501  0.74929016158E+00  0.22426502767E+02 -0.34256906269E+03  0.34330317822E+03  0.00000000000E+00 0.  1.
</event>
<event>
 4    1  0.5591986E+002  0.2052286E+02  0.7546771E-02  0.1526187E+00
          2   -1    0    0  502    0  0.00000000000E+00  0.00000000000E+00  0.14507617114E+03  0.14507617114E+03  0.00000000000E+00 0.  1.
         -2   -1    0    0    0  501 -0.00000000000E+00 -0.00000000000E+00 -0.48981472748E+01  0.48981472748E+01  0.00000000000E+00 0. -1.
         21    1    1    2  502  503  0.18157372851E+02 -0.95654420797E+01  0.11794481887E+03  0.11971703375E+03  0.00000000000E+00 0.  1.
         21    1    1    2  503  501 -0.18157372851E+02  0.95654420797E+01  0.22233204991E+02  0.30257284663E+02  0.00000000000E+00 0. -1.
</event>
<event>
 4    1  0.5591986E+002  0.2114311E+02  0.7546771E-02  0.1517231E+00
          2   -1    0    0  503    0  0.00000000000E+00  0.00000000000E+00  0.78659977286E+03  0.78659977286E+03  0.00000000000E+00 0. -1.
         -2   -1    0    0    0  501 -0.00000000000E+00 -0.00000000000E+00 -0.89526250013E+00  0.89526250013E+00  0.00000000000E+00 0.  1.
         21    1    1    2  502  501 -0.20509401063E+02  0.51376777914E+01  0.63080242573E+03  0.63115666167E+03  0.00000000000E+00 0. -1.
         21    1    1    2  503  502  0.20509401063E+02 -0.51376777914E+01  0.15490208463E+03  0.15633837369E+03  0.00000000000E+00 0.  1.
</event>
<event>
 4    1  0.5591986E+002  0.5568627E+02  0.7546771E-02  0.1275238E+00
          2   -1    0    0  502    0  0.00000000000E+00  0.00000000000E+00  0.14851170932E+02  0.14851170932E+02  0.00000000000E+00 0. -1.
         -2   -1    0    0    0  501 -0.00000000000E+00 -0.00000000000E+00 -0.21492373071E+03  0.21492373071E+03  0.00000000000E+00 0.  1.
         21    1    1    2  502  503  0.36513717194E+02  0.42044139489E+02 -0.80647487466E+02  0.98004991931E+02  0.00000000000E+00 0. -1.
         21    1    1    2  503  501 -0.36513717194E+02 -0.42044139489E+02 -0.11942507231E+03  0.13176990971E+03  0.00000000000E+00 0.  1.
</event>
<event>
 4    1  0.5591986E+002  0.2164064E+02  0.7546771E-02  0.1510311E+00
          2   -1    0    0  502    0  0.00000000000E+00  0.00000000000E+00  0.44251031656E+02  0.44251031656E+02  0.00000000000E+00 0.  1.
         -2   -1    0    0    0  501 -0.00000000000E+00 -0.00000000000E+00 -0.17492210290E+02  0.17492210290E+02  0.00000000000E+00 0. -1.
         21    1    1    2  502  503 -0.21113376132E+02 -0.47479220622E+01  0.32781347292E+02  0.39280200430E+02  0.00000000000E+00 0.  1.
         21    1    1    2  503  501  0.21113376132E+02  0.47479220622E+01 -0.60225259252E+01  0.22463041515E+02  0.00000000000E+00 0. -1.
</event>
<event>
 4    1  0.5591986E+002  0.2054007E+02  0.7546771E-02  0.1525934E+00
          2   -1    0    0  502    0  0.00000000000E+00  0.00000000000E+00  0.11567114498E+03  0.11567114498E+03  0.00000000000E+00 0. -1.
         -2   -1    0    0    0  501 -0.00000000000E+00 -0.00000000000E+00 -0.31781847020E+02  0.31781847020E+02  0.00000000000E+00 0.  1.
         21    1    1    2  502  503 -0.75795638358E+01 -0.19090434171E+02  0.11131174558E+03  0.11319098537E+03  0.00000000000E+00 0. -1.
         21    1    1    2  503  501  0.75795638358E+01  0.19090434171E+02 -0.27422447621E+02  0.34262006630E+02  0.00000000000E+00 0.  1.
</event>
<event>
 4    1  0.5591986E+002  0.2021126E+02  0.7546771E-02  0.1530830E+00
          2   -1    0    0  503    0  0.00000000000E+00  0.00000000000E+00  0.26388734389E+02  0.26388734389E+02  0.00000000000E+00 0.  1.
         -2   -1    0    0    0  501 -0.00000000000E+00 -0.00000000000E+00 -0.17618636776E+02  0.17618636776E+02  0.00000000000E+00 0. -1.
         21    1    1    2  502  501  0.11064776761E+02 -0.16913475172E+02 -0.32812918037E+01  0.20475883450E+02  0.00000000000E+00 0. -1.
         21    1    1    2  503  502 -0.11064776761E+02  0.16913475172E+02  0.12051389417E+02  0.23531487714E+02  0.00000000000E+00 0.  1.
</event>
<event>
 4    1  0.5591986E+002  0.2642841E+02  0.7546771E-02  0.1453436E+00
          2   -1    0    0  502    0  0.00000000000E+00  0.00000000000E+00  0.37201553354E+03  0.37201553354E+03  0.00000000000E+00 0.  1.
         -2   -1    0    0    0  501 -0.00000000000E+00 -0.00000000000E+00 -0.24544818742E+01  0.24544818742E+01  0.00000000000E+00 0. -1.
         21    1    1    2  502  503 -0.24109856394E+02  0.10824760933E+02  0.94001243313E+02  0.97645759606E+02  0.00000000000E+00 0.  1.
         21    1    1    2  503  501  0.24109856394E+02 -0.10824760933E+02  0.27555980835E+03  0.27682425581E+03  0.00000000000E+00 0. -1.
</event>
<event>
 4    1  0.5591986E+002  0.3558128E+02  0.7546771E-02  0.1376522E+00
          2   -1    0    0  503    0  0.00000000000E+00  0.00000000000E+00  0.12065998373E+04  0.12065998373E+04  0.00000000000E+00 0. -1.
         -2   -1    0    0    0  501 -0.00000000000E+00 -0.00000000000E+00 -0.13567429663E+01  0.13567429663E+01  0.00000000000E+00 0.  1.
         21    1    1    2  502  501  0.28419619713E+02 -0.21409174818E+02  0.31508796944E+03  0.31709061172E+03  0.00000000000E+00 0.  1.
         21    1    1    2  503  502 -0.28419619713E+02  0.21409174818E+02  0.89015512492E+03  0.89086596857E+03  0.00000000000E+00 0. -1.
</event>
<event>
 4    1  0.5591986E+002  0.2130917E+02  0.7546771E-02  0.1514896E+00
          2   -1    0    0  503    0  0.00000000000E+00  0.00000000000E+00  0.27033033167E+02  0.27033033167E+02  0.00000000000E+00 0.  1.
         -2   -1    0    0    0  501 -0.00000000000E+00 -0.00000000000E+00 -0.20144199113E+02  0.20144199113E+02  0.00000000000E+00 0. -1.
         21    1    1    2  502  501  0.10222374466E+02 -0.18697159579E+02  0.13059472093E+02  0.24992609456E+02  0.00000000000E+00 0.  1.
         21    1    1    2  503  502 -0.10222374466E+02  0.18697159579E+02 -0.61706380397E+01  0.22184622824E+02  0.00000000000E+00 0. -1.
</event>
<event>
 4    1  0.5591986E+002  0.2277010E+02  0.7546771E-02  0.1495405E+00
          2   -1    0    0  503    0  0.00000000000E+00  0.00000000000E+00  0.36156572966E+03  0.36156572966E+03  0.00000000000E+00 0.  1.
         -2   -1    0    0    0  501 -0.00000000000E+00 -0.00000000000E+00 -0.26113880388E+01  0.26113880388E+01  0.00000000000E+00 0. -1.
         21    1    1    2  502  501  0.15505313611E+02  0.16675213158E+02  0.57209756574E+02  0.61574619214E+02  0.00000000000E+00 0. -1.
         21    1    1    2  503  502 -0.15505313611E+02 -0.16675213158E+02  0.30174458504E+03  0.30260249848E+03  0.00000000000E+00 0.  1.
</event>
<event>
 4    1  0.5591986E+002  0.2332257E+02  0.7546771E-02  0.1488487E+00
          2   -1    0    0  503    0  0.00000000000E+00  0.00000000000E+00  0.22722503527E+01  0.22722503527E+01  0.00000000000E+00 0. -1.
         -2   -1    0    0    0  501 -0.00000000000E+00 -0.00000000000E+00 -0.31426788368E+03  0.31426788368E+03  0.00000000000E+00 0.  1.
         21    1    1    2  502  501 -0.21607452789E+02 -0.87783848785E+01 -0.23325534742E+03  0.23441842751E+03  0.00000000000E+00 0.  1.
         21    1    1    2  503  502  0.21607452789E+02  0.87783848785E+01 -0.78740285905E+02  0.82121706519E+02  0.00000000000E+00 0. -1.
</event>
<event>
 4    1  0.5591986E+002  0.2377573E+02  0.7546771E-02  0.1482980E+00
          2   -1    0    0  503    0  0.00000000000E+00  0.00000000000E+00  0.42241142532E+02  0.42241142532E+02  0.00000000000E+00 0. -1.
         -2   -1    0    0    0  501 -0.00000000000E+00 -0.00000000000E+00 -0.14536794717E+02  0.14536794717E+02  0.00000000000E+00 0.  1.
         21    1    1    2  502  501 -0.19440312701E+02 -0.13687943771E+02  0.58519395807E+01  0.24485317222E+02  0.00000000000E+00 0. -1.
         21    1    1    2  503  502  0.19440312701E+02  0.13687943771E+02  0.21852408234E+02  0.32292620028E+02  0.00000000000E+00 0.  1.
</event>
<event>
 4    1  0.5591986E+002  0.2444098E+02  0.7546771E-02  0.1475155E+00
          2   -1    0    0  502    0  0.00000000000E+00  0.00000000000E+00  0.91829337427E+01  0.91829337427E+01  0.00000000000E+00 0.  1.
         -2   -1    0    0    0  501 -0.00000000000E+00 -0.00000000000E+00 -0.26506665047E+03  0.26506665047E+03  0.00000000000E+00 0. -1.
         21    1    1    2  502  503 -0.22548850878E+02  0.94292491589E+01 -0.88258466829E+01  0.25985707327E+02  0.00000000000E+00 0.  1.
         21    1    1    2  503  501  0.22548850878E+02 -0.94292491589E+01 -0.24705787004E+03  0.24826387689E+03  0.00000000000E+00 0. -1.
</event>
<event>
 4    1  0.5591986E+002  0.3340627E+02  0.7546771E-02  0.1392128E+00
          2   -1    0    0  503    0  0.00000000000E+00  0.00000000000E+00  0.62340429637E+03  0.62340429637E+03  0.00000000000E+00 0. -1.
         -2   -1    0    0    0  501 -0.00000000000E+00 -0.00000000000E+00 -0.20000443591E+02  0.20000443591E+02  0.00000000000E+00 0.  1.
         21    1    1    2  502  501  0.26241809845E+02 -0.20672350673E+02 -0.52660586241E+01  0.33818782351E+02  0.00000000000E+00 0.  1.
         21    1    1    2  503  502 -0.26241809845E+02  0.20672350673E+02  0.60866991140E+03  0.60958595761E+03  0.00000000000E+00 0. -1.
</event>
<event>
 4    1  0.5591986E+002  0.2001307E+02  0.7546771E-02  0.1533836E+00
          2   -1    0    0  503    0  0.00000000000E+00  0.00000000000E+00  0.85492404856E+00  0.85492404856E+00  0.00000000000E+00 0.  1.
         -2   -1    0    0    0  501 -0.00000000000E+00 -0.00000000000E+00 -0.50845505814E+03  0.50845505814E+03  0.00000000000E+00 0. -1.
         21    1    1    2  502  501 -0.11138739326E+01 -0.19982050115E+02 -0.32519513318E+03  0.32581037074E+03  0.00000000000E+00 0. -1.
         21    1    1    2  503  502  0.11138739326E+01  0.19982050115E+02 -0.18240500091E+03  0.18349961144E+03  0.00000000000E+00 0.  1.
</event>
<event>
 4    1  0.5591986E+002  0.2333078E+02  0.7546771E-02  0.1488386E+00
          2   -1    0    0  503    0  0.00000000000E+00  0.00000000000E+00  0.13620858818E+04  0.13620858818E+04  0.00000000000E+00 0. -1.
         -2   -1    0    0    0  501 -0.00000000000E+00 -0.00000000000E+00 -0.68502263191E+00  0.68502263191E+00  0.00000000000E+00 0.  1.
         21    1    1    2  502  501  0.13477274137E+02  0.19044373116E+02  0.24089078934E+03  0.24201796928E+03  0.00000000000E+00 0.  1.
         21    1    1    2  503  502 -0.13477274137E+02 -0.19044373116E+02  0.11205100698E+04  0.11207529351E+04  0.00000000000E+00 0. -1.
</event>
<event>
 4    1  0.5591986E+002  0.2756356E+02  0.7546771E-02  0.1442028E+00
          2   -1    0    0  502    0  0.00000000000E+00  0.00000000000E+00  0.10567367822E+04  0.10567367822E+04  0.00000000000E+00 0. -1.
         -2   -1    0    0    0  501 -0.00000000000E+00 -0.00000000000E+00 -0.38458065576E+01  0.38458065576E+01  0.00000000000E+00 0.  1.
         21    1    1    2  502  503  0.18210081043E+02 -0.20691617259E+02  0.10046064939E+04  0.10049845559E+04  0.00000000000E+00 0. -1.
         21    1    1    2  503  501 -0.18210081043E+02  0.20691617259E+02  0.48284481706E+02  0.55598032789E+02  0.00000000000E+00 0.  1.
</event>
<event>
 4    1  0.5591986E+002  0.2254783E+02  0.7546771E-02  0.1498255E+00
          2   -1    0    0  503    0  0.00000000000E+00  0.00000000000E+00  0.67575293051E+03  0.67575293051E+03  0.00000000000E+00 0. -1.
         -2   -1    0    0    0  501 -0.00000000000E+00 -0.00000000000E+00 -0.18507815684E+01  0.18507815684E+01  0.00000000000E+00 0.  1.
         21    1    1    2  502  501 -0.21679791976E+02 -0.61960736455E+01  0.75942894523E+02  0.79219492155E+02  0.00000000000E+00 0.  1.
         21    1    1    2  503  502  0.21679791976E+02  0.61960736455E+01  0.59795925442E+03  0.59838421993E+03  0.00000000000E+00 0. -1.
</event>
<event>
 4    1  0.5591986E+002  0.4271009E+02  0.7546771E-02  0.1333297E+00
          2   -1    0    0  502    0  0.00000000000E+00  0.00000000000E+00  0.86620912407E+02  0.86620912407E+02  0.00000000000E+00 0. -1.
         -2   -1    0    0    0  501 -0.00000000000E+00 -0.00000000000E+00 -0.16114019065E+03  0.16114019065E+03  0.00000000000E+00 0.  1.
         21    1    1    2  502  503 -0.39698689440E+02  0.15753291691E+02  0.78242775618E+02  0.89140810400E+02  0.00000000000E+00 0. -1.
         21    1    1    2  503  501  0.39698689440E+02 -0.15753291691E+02 -0.15276205386E+03  0.15862029266E+03  0.00000000000E+00 0.  1.
</event>
<event>
 4    1  0.5591986E+002  0.2111573E+02  0.7546771E-02  0.1517619E+00
          2   -1    0    0  503    0  0.00000000000E+00  0.00000000000E+00  0.75738961152E+01  0.75738961152E+01  0.00000000000E+00 0.  1.
         -2   -1    0    0    0  501 -0.00000000000E+00 -0.00000000000E+00 -0.80638372595E+02  0.80638372595E+02  0.00000000000E+00 0. -1.
         21    1    1    2  502  501 -0.14285433560E+02  0.15549927871E+02 -0.59448455870E+02  0.63087183913E+02  0.00000000000E+00 0. -1.
         21    1    1    2  503  502  0.14285433560E+02 -0.15549927871E+02 -0.13616020609E+02  0.25125084796E+02  0.00000000000E+00 0.  1.
</event>
<event>
 4    1  0.5591986E+002  0.5638877E+02  0.7546771E-02  0.1272622E+00
          2   -1    0    0  503    0  0.00000000000E+00  0.00000000000E+00  0.71297528489E+02  0.71297528489E+02  0.00000000000E+00 0. -1.
         -2   -1    0    0    0  501 -0.00000000000E+00 -0.00000000000E+00 -0.10457950546E+03  0.10457950546E+03  0.00000000000E+00 0.  1.
         21    1    1    2  502  501 -0.25725158019E+00  0.56388182510E+02 -0.83239764272E+02  0.10054129331E+03  0.00000000000E+00 0.  1.
         21    1    1    2  503  502  0.25725158019E+00 -0.56388182510E+02  0.49957787300E+02  0.75335740635E+02  0.00000000000E+00 0. -1.
</event>
<event>
 4    1  0.5591986E+002  0.2382933E+02  0.7546771E-02  0.1482339E+00
          2   -1    0    0  503    0  0.00000000000E+00  0.00000000000E+00  0.17118385614E+04  0.17118385614E+04  0.00000000000E+00 0.  1.
         -2   -1    0    0    0  501 -0.00000000000E+00 -0.00000000000E+00 -0.68954086167E+00  0.68954086167E+00  0.00000000000E+00 0. -1.
         21    1    1    2  502  501  0.20933945998E+02 -0.11384500556E+02  0.23874442365E+03  0.23993069160E+03  0.00000000000E+00 0. -1.
         21    1    1    2  503  502 -0.20933945998E+02  0.11384500556E+02  0.14724045969E+04  0.14725974106E+04  0.00000000000E+00 0.  1.
</event>
<event>
 4    1  0.5591986E+002  0.2107310E+02  0.7546771E-02  0.1518224E+00
          2   -1    0    0  502    0  0.00000000000E+00  0.00000000000E+00  0.99324979346E+01  0.99324979346E+01  0.00000000000E+00 0.  1.
         -2   -1    0    0    0  501 -0.00000000000E+00 -0.00000000000E+00 -0.98734751098E+02  0.98734751098E+02  0.00000000000E+00 0. -1.
         21    1    1    2  502  503 -0.86264098793E+01 -0.19226559434E+02 -0.42097708722E+01  0.21489478958E+02  0.00000000000E+00 0.  1.
         21    1    1    2  503  501  0.86264098793E+01  0.19226559434E+02 -0.84592482291E+02  0.87177770075E+02  0.00000000000E+00 0. -1.
</event>
<event>
 4    1  0.5591986E+002  0.2527998E+02  0.7546771E-02  0.1465695E+00
          2   -1    0    0  502    0  0.00000000000E+00  0.00000000000E+00  0.31422942490E+03  0.31422942490E+03  0.00000000000E+00 0.  1.
         -2   -1    0    0    0  501 -0.00000000000E+00 -0.00000000000E+00 -0.16052292921E+02  0.16052292921E+02  0.00000000000E+00 0. -1.
         21    1    1    2  502  503 -0.49169266081E+01 -0.24797201679E+02  0.30341374305E+03  0.30446506672E+03  0.00000000000E+00 0.  1.
         21    1    1    2  503  501  0.49169266081E+01  0.24797201679E+02 -0.52366110788E+01  0.25816651099E+02  0.00000000000E+00 0. -1.
</event>
<event>
 4    1  0.5591986E+002  0.2010810E+02  0.7546771E-02  0.1532390E+00
          2   -1    0    0  503    0  0.00000000000E+00  0.00000000000E+00  0.21292404957E+03  0.21292404957E+03  0.00000000000E+00 0.  1.
         -2   -1    0    0    0  501 -0.00000000000E+00 -0.00000000000E+00 -0.19596416565E+01  0.19596416565E+01  0.00000000000E+00 0. -1.
         21    1    1    2  502  501  0.36939990100E+01  0.19765885514E+02  0.86576761082E+02  0.88881220841E+02  0.00000000000E+00 0.  1.
         21    1    1    2  503  502 -0.36939990100E+01 -0.19765885514E+02  0.12438764684E+03  0.12600247039E+03  0.00000000000E+00 0. -1.
</event>
<event>
 4    1  0.5591986E+002  0.2142432E+02  0.7546771E-02  0.1513292E+00
          2   -1    0    0  503    0  0.00000000000E+00  0.00000000000E+00  0.37072586497E+01  0.37072586497E+01  0.00000000000E+00 0.  1.
         -2   -1    0    0    0  501 -0.00000000000E+00 -0.00000000000E+00 -0.31482313791E+03  0.31482313791E+03  0.00000000000E+00 0. -1.
         21    1    1    2  502  501 -0.72033066669E+01 -0.20177062703E+02 -0.27961383516E+03  0.28043341153E+03  0.00000000000E+00 0. -1.
         21    1    1    2  503  502  0.72033066669E+01  0.20177062703E+02 -0.31502044097E+02  0.38096985032E+02  0.00000000000E+00 0.  1.
</event>
<event>
 4    1  0.5591986E+002  0.2064364E+02  0.7546771E-02  0.1524414E+00
          2   -1    0    0  502    0  0.00000000000E+00  0.00000000000E+00  0.71244526622E+02  0.71244526622E+02  0.00000000000E+00 0. -1.
         -2   -1    0    0    0  501 -0.00000000000E+00 -0.00000000000E+00 -0.18564168875E+02  0.18564168875E+02  0.00000000000E+00 0.  1.
         21    1    1    2  502  503 -0.13780392882E+02 -0.15370769851E+02  0.63308901057E+02  0.66589614406E+02  0.00000000000E+00 0. -1.
         21    1    1    2  503  501  0.13780392882E+02  0.15370769851E+02 -0.10628543309E+02  0.23219081090E+02  0.00000000000E+00 0.  1.
</event>
<event>
 4    1  0.5591986E+002  0.2062227E+02  0.7546771E-02  0.1524727E+00
          2   -1    0    0  503    0  0.00000000000E+00  0.00000000000E+00  0.11163902317E+03  0.11163902317E+03  0.00000000000E+00 0.  1.
         -2   -1    0    0    0  501 -0.00000000000E+00 -0.00000000000E+00 -0.16667653824E+02  0.16667653824E+02  0.00000000000E+00 0. -1.
         21    1    1    2  502  501  0.78649756245E+00 -0.20607265970E+02 -0.88615981703E+01  0.22445621206E+02  0.00000000000E+00 0. -1.
         21    1    1    2  503  502 -0.78649756245E+00  0.20607265970E+02  0.10383296752E+03  0.10586105579E+03  0.00000000000E+00 0.  1.
</event>
<event>
 4    1  0.5591986E+002  0.2044929E+02  0.7546771E-02  0.1527275E+00
          2   -1    0    0  503    0  0.00000000000E+00  0.00000000000E+00  0.52031519802E+00  0.52031519802E+00  0.00000000000E+00 0.  1.
         -2   -1    0    0    0  501 -0.00000000000E+00 -0.00000000000E+00 -0.82578681750E+03  0.82578681750E+03  0.00000000000E+00 0. -1.
         21    1    1    2  502  501 -0.57915890141E+01  0.19612011667E+02 -0.34505354996E+03  0.34565897333E+03  0.00000000000E+00 0.  1.
         21    1    1    2  503  502  0.57915890141E+01 -0.19612011667E+02 -0.48021295234E+03  0.48064815936E+03  0.00000000000E+00 0. -1.
</event>
<event>
 4    1  0.5591986E+002  0.2073267E+02  0.7546771E-02  0.1523116E+00
          2   -1    0    0  503    0  0.00000000000E+00  0.00000000000E+00  0.19579218480E+03  0.19579218480E+03  0.00000000000E+00 0. -1.
         -2   -1    0    0    0  501 -0.00000000000E+00 -0.00000000000E+00 -0.25805698925E+01  0.25805698925E+01  0.00000000000E+00 0.  1.
         21    1    1    2  502  501  0.15293600973E+02 -0.13998189463E+02  0.13492500609E+03  0.13650861074E+03  0.00000000000E+00 0.  1.
         21    1    1    2  503  502 -0.15293600973E+02  0.13998189463E+02  0.58286608816E+02  0.61864143947E+02  0.00000000000E+00 0. -1.
</event>
<event>
 4    1  0.5591986E+002  0.2195070E+02  0.7546771E-02  0.1506112E+00
          2   -1    0    0  503    0  0.00000000000E+00  0.00000000000E+00  0.36306215633E+02  0.36306215633E+02  0.00000000000E+00 0.  1.
         -2   -1    0    0    0  501 -0.00000000000E+00 -0.00000000000E+00 -0.47574922233E+02  0.47574922233E+02  0.00000000000E+00 0. -1.
         21    1    1    2  502  501 -0.10561084115E+02 -0.19243097101E+02 -0.41247865874E+02  0.46724936842E+02  0.00000000000E+00 0. -1.
         21    1    1    2  503  502  0.10561084115E+02  0.19243097101E+02  0.29979159274E+02  0.37156201024E+02  0.00000000000E+00 0.  1.
</event>
<event>
 4    1  0.5591986E+002  0.2800981E+02  0.7546771E-02  0.1437720E+00
          2   -1    0    0  502    0  0.00000000000E+00  0.00000000000E+00  0.95212929384E+03  0.95212929384E+03  0.00000000000E+00 0.  1.
         -2   -1    0    0    0  501 -0.00000000000E+00 -0.00000000000E+00 -0.84706152502E+00  0.84706152502E+00  0.00000000000E+00 0. -1.
         21    1    1    2  502  503  0.18668904363E+01  0.27947523771E+02  0.39701083691E+03  0.39799768088E+03  0.00000000000E+00 0. -1.
         21    1    1    2  503  501 -0.18668904363E+01 -0.27947523771E+02  0.55427139540E+03  0.55497867448E+03  0.00000000000E+00 0.  1.
</event>
<event>
 4    1  0.5591986E+002  0.2870462E+02  0.7546771E-02  0.1431197E+00
          2   -1    0    0  502    0  0.00000000000E+00  0.00000000000E+00  0.47223157472E+02  0.47223157472E+02  0.00000000000E+00 0. -1.
         -2   -1    0    0    0  501 -0.00000000000E+00 -0.00000000000E+00 -0.41752719813E+02  0.41752719813E+02  0.00000000000E+00 0.  1.
         21    1    1    2  502  503  0.25743515607E+02 -0.12697514338E+02  0.36677740728E+02  0.46574801461E+02  0.00000000000E+00 0. -1.
         21    1    1    2  503  501 -0.25743515607E+02  0.12697514338E+02 -0.31207303070E+02  0.42401075825E+02  0.00000000000E+00 0.  1.
</event>
<event>
 4    1  0.5591986E+002  0.4153976E+02  0.7546771E-02  0.1339692E+00
          2   -1    0    0  503    0  0.00000000000E+00  0.00000000000E+00  0.25292415958E+03  0.25292415958E+03  0.00000000000E+00 0. -1.
         -2   -1    0    0    0  501 -0.00000000000E+00 -0.00000000000E+00 -0.10867992180E+02  0.10867992180E+02  0.00000000000E+00 0.  1.
         21    1    1    2  502  501  0.31536385033E+02  0.27037155259E+02  0.40555501743E+02  0.58054285519E+02  0.00000000000E+00 0.  1.
         21    1    1    2  503  502 -0.31536385033E+02 -0.27037155259E+02  0.20150066566E+03  0.20573786624E+03  0.00000000000E+00 0. -1.
</event>
<event>
 4    1  0.5591986E+002  0.6568367E+02  0.7546771E-02  0.1241655E+00
          2   -1    0    0  503    0  0.00000000000E+00  0.00000000000E+00  0.15169349412E+04  0.15169349412E+04  0.00000000000E+00 0.  1.
         -2   -1    0    0    0  501 -0.00000000000E+00 -0.00000000000E+00 -0.47038452742E+01  0.47038452742E+01  0.00000000000E+00 0. -1.
         21    1    1    2  502  501 -0.65669004167E+02  0.13877924148E+01  0.12345027232E+04  0.12362488899E+04  0.00000000000E+00 0.  1.
         21    1    1    2  503  502  0.65669004167E+02 -0.13877924148E+01  0.27772837271E+03  0.28538989661E+03  0.00000000000E+00 0. -1.
</event>
<event>
 4    1  0.5591986E+002  0.3481866E+02  0.7546771E-02  0.1381843E+00
          2   -1    0    0  503    0  0.00000000000E+00  0.00000000000E+00  0.33937656886E+02  0.33937656886E+02  0.00000000000E+00 0. -1.
         -2   -1    0    0    0  501 -0.00000000000E+00 -0.00000000000E+00 -0.61523845910E+02  0.61523845910E+02  0.00000000000E+00 0.  1.
         21    1    1    2  502  501  0.18281246094E+02  0.29633339994E+02 -0.44702987624E+02  0.56663002925E+02  0.00000000000E+00 0.  1.
         21    1    1    2  503  502 -0.18281246094E+02 -0.29633339994E+02  0.17116798599E+02  0.38798499871E+02  0.00000000000E+00 0. -1.
</event>
<event>
 4    1  0.5591986E+002  0.2268950E+02  0.7546771E-02  0.1496434E+00
          2   -1    0    0  502    0  0.00000000000E+00  0.00000000000E+00  0.29268765007E+02  0.29268765007E+02  0.00000000000E+00 0.  1.
         -2   -1    0    0    0  501 -0.00000000000E+00 -0.00000000000E+00 -0.18585348647E+02  0.18585348647E+02  0.00000000000E+00 0. -1.
         21    1    1    2  502  503  0.11071015157E+02  0.19805197242E+02  0.10881239892E+02  0.25163755602E+02  0.00000000000E+00 0. -1.
         21    1    1    2  503  501 -0.11071015157E+02 -0.19805197242E+02 -0.19782353218E+00  0.22690358053E+02  0.00000000000E+00 0.  1.
</event>
<event>
 4    1  0.5591986E+002  0.3911474E+02  0.7546771E-02  0.1353753E+00
          2   -1    0    0  503    0  0.00000000000E+00  0.00000000000E+00  0.30355208623E+03  0.30355208623E+03  0.00000000000E+00 0. -1.
         -2   -1    0    0    0  501 -0.00000000000E+00 -0.00000000000E+00 -0.46702966869E+02  0.46702966869E+02  0.00000000000E+00 0.  1.
         21    1    1    2  502  501 -0.19985914348E+02  0.33623302621E+02 -0.36983334401E+02  0.53830570077E+02  0.00000000000E+00 0.  1.
         21    1    1    2  503  502  0.19985914348E+02 -0.33623302621E+02  0.29383245376E+03  0.29642448302E+03  0.00000000000E+00 0. -1.
</event>
<event>
 4    1  0.5591986E+002  0.4203728E+02  0.7546771E-02  0.1336944E+00
          2   -1    0    0  502    0  0.00000000000E+00  0.00000000000E+00  0.69411918212E+03  0.69411918212E+03  0.00000000000E+00 0.  1.
         -2   -1    0    0    0  501 -0.00000000000E+00 -0.00000000000E+00 -0.29463222147E+01  0.29463222147E+01  0.00000000000E+00 0. -1.
         21    1    1    2  502  503  0.34237903647E+02 -0.24390553652E+02  0.47408017534E+03  0.47594027546E+03  0.00000000000E+00 0.  1.
         21    1    1    2  503  501 -0.34237903647E+02  0.24390553652E+02  0.21709268457E+03  0.22112522888E+03  0.00000000000E+00 0. -1.
</event>
<event>
 4    1  0.5591986E+002  0.2513707E+02  0.7546771E-02  0.1467276E+00
          2   -1    0    0  503    0  0.00000000000E+00  0.00000000000E+00  0.35998886513E+02  0.35998886513E+02  0.00000000000E+00 0. -1.
         -2   -1    0    0    0  501 -0.00000000000E+00 -0.00000000000E+00 -0.23739986725E+02  0.23739986725E+02  0.00000000000E+00 0.  1.
         21    1    1    2  502  501  0.58735820611E+01 -0.24441222325E+02 -0.91195767319E+01  0.26740213064E+02  0.00000000000E+00 0.  1.
         21    1    1    2  503  502 -0.58735820611E+01  0.24441222325E+02  0.21378476520E+02  0.32998660174E+02  0.00000000000E+00 0. -1.
</event>
<event>
 4    1  0.5591986E+002  0.4568908E+02  0.7546771E-02  0.1318029E+00
          2   -1    0    0  503    0  0.00000000000E+00  0.00000000000E+00  0.13636723816E+03  0.13636723816E+03  0.00000000000E+00 0. -1.
         -2   -1    0    0    0  501 -0.00000000000E+00 -0.00000000000E+00 -0.55862968646E+02  0.55862968646E+02  0.00000000000E+00 0.  1.
         21    1    1    2  502  501  0.45261613442E+02 -0.62352441313E+01 -0.41641918077E+02  0.61818615820E+02  0.00000000000E+00 0.  1.
         21    1    1    2  503  502 -0.45261613442E+02  0.62352441313E+01  0.12214618759E+03  0.13041159099E+03  0.00000000000E+00 0. -1.
</event>
<event>
 4    1  0.5591986E+002  0.2326084E+02  0.7546771E-02  0.1489248E+00
          2   -1    0    0  503    0  0.00000000000E+00  0.00000000000E+00  0.77938362360E+02  0.77938362360E+02  0.00000000000E+00 0.  1.
         -2   -1    0    0    0  501 -0.00000000000E+00 -0.00000000000E+00 -0.70589543297E+01  0.70589543297E+01  0.00000000000E+00 0. -1.
         21    1    1    2  502  501 -0.13776100613E+02 -0.18742620656E+02  0.29974982081E+02  0.37941617360E+02  0.00000000000E+00 0. -1.
         21    1    1    2  503  502  0.13776100613E+02  0.18742620656E+02  0.40904425949E+02  0.47055699329E+02  0.00000000000E+00 0.  1.
</event>
<event>
 4    1  0.5591986E+002  0.2604608E+02  0.7546771E-02  0.1457433E+00
          2   -1    0    0  503    0  0.00000000000E+00  0.00000000000E+00  0.11388009580E+04  0.11388009580E+04  0.00000000000E+00 0.  1.
         -2   -1    0    0    0  501 -0.00000000000E+00 -0.00000000000E+00 -0.60265064762E+00  0.60265064762E+00  0.00000000000E+00 0. -1.
         21    1    1    2  502  501 -0.23765894282E+02  0.10657412543E+02  0.50797246800E+03  0.50863978061E+03  0.00000000000E+00 0. -1.
         21    1    1    2  503  502  0.23765894282E+02 -0.10657412543E+02  0.63022583939E+03  0.63076382807E+03  0.00000000000E+00 0.  1.
</event>
<event>
 4    1  0.5591986E+002  0.3973287E+02  0.7546771E-02  0.1350058E+00
          2   -1    0    0  502    0  0.00000000000E+00  0.00000000000E+00  0.20411914993E+04  0.20411914993E+04  0.00000000000E+00 0. -1.
         -2   -1    0    0    0  501 -0.00000000000E+00 -0.00000000000E+00 -0.95660296135E+00  0.95660296135E+00  0.00000000000E+00 0.  1.
         21    1    1    2  502  503 -0.29648175897E+02  0.26451592828E+02  0.14669371448E+04  0.14674751405E+04  0.00000000000E+00 0. -1.
         21    1    1    2  503  501  0.29648175897E+02 -0.26451592828E+02  0.57329775151E+03  0.57467296177E+03  0.00000000000E+00 0.  1.
</event>
<event>
 4    1  0.5591986E+002  0.2056371E+02  0.7546771E-02  0.1525586E+00
          2   -1    0    0  502    0  0.00000000000E+00  0.00000000000E+00  0.22783634951E+03  0.22783634951E+03  0.00000000000E+00 0. -1.
         -2   -1    0    0    0  501 -0.00000000000E+00 -0.00000000000E+00 -0.34526803393E+01  0.34526803393E+01  0.00000000000E+00 0.  1.
         21    1    1    2  502  503 -0.19398488638E+02 -0.68238534473E+01  0.19083384449E+03  0.19193859055E+03  0.00000000000E+00 0. -1.
         21    1    1    2  503  501  0.19398488638E+02  0.68238534473E+01  0.33549824674E+02  0.39350439298E+02  0.00000000000E+00 0.  1.
</event>
<event>
 4    1  0.5591986E+002  0.3449806E+02  0.7546771E-02  0.1384127E+00
          2   -1    0    0  503    0  0.00000000000E+00  0.00000000000E+00  0.24914454748E+02  0.24914454748E+02  0.00000000000E+00 0. -1.
         -2   -1    0    0    0  501 -0.00000000000E+00 -0.00000000000E+00 -0.47813966480E+02  0.47813966480E+02  0.00000000000E+00 0.  1.
         21    1    1    2  502  501  0.33993932695E+02  0.58761385463E+01 -0.10323627851E+02  0.36009634215E+02  0.00000000000E+00 0. -1.
         21    1    1    2  503  502 -0.33993932695E+02 -0.58761385463E+01 -0.12575883880E+02  0.36718787013E+02  0.00000000000E+00 0.  1.
</event>
<event>
 4    1  0.5591986E+002  0.2241309E+02  0.7546771E-02  0.1500002E+00
          2   -1    0    0  502    0  0.00000000000E+00  0.00000000000E+00  0.41850079451E+03  0.41850079451E+03  0.00000000000E+00 0. -1.
         -2   -1    0    0    0  501 -0.00000000000E+00 -0.00000000000E+00 -0.30927947576E+01  0.30927947576E+01  0.00000000000E+00 0.  1.
         21    1    1    2  502  503 -0.40570195486E+01  0.22042848000E+02  0.37259627006E+03  0.37326977780E+03  0.00000000000E+00 0. -1.
         21    1    1    2  503  501  0.40570195486E+01 -0.22042848000E+02  0.42811729690E+02  0.48323811466E+02  0.00000000000E+00 0.  1.
</event>
<event>
 4    1  0.5591986E+002  0.2019076E+02  0.7546771E-02  0.1531139E+00
          2   -1    0    0  502    0  0.00000000000E+00  0.00000000000E+00  0.24058165514E+01  0.24058165514E+01  0.00000000000E+00 0.  1.
         -2   -1    0    0    0  501 -0.00000000000E+00 -0.00000000000E+00 -0.22365993432E+03  0.22365993432E+03  0.00000000000E+00 0. -1.
         21    1    1    2  502  503 -0.38093346509E+00 -0.20187162492E+02 -0.54979205913E+02  0.58569443591E+02  0.00000000000E+00 0.  1.
         21    1    1    2  503  501  0.38093346509E+00  0.20187162492E+02 -0.16627491186E+03  0.16749630728E+03  0.00000000000E+00 0. -1.
</event>
<event>
 4    1  0.5591986E+002  0.2452190E+02  0.7546771E-02  0.1474223E+00
          2   -1    0    0  502    0  0.00000000000E+00  0.00000000000E+00  0.13873988071E+04  0.13873988071E+04  0.00000000000E+00 0. -1.
         -2   -1    0    0    0  501 -0.00000000000E+00 -0.00000000000E+00 -0.45913277880E+00  0.45913277880E+00  0.00000000000E+00 0.  1.
         21    1    1    2  502  503  0.65393176330E+01 -0.23633891817E+02  0.52924536833E+03  0.52981315897E+03  0.00000000000E+00 0.  1.
         21    1    1    2  503  501 -0.65393176330E+01  0.23633891817E+02  0.85769430596E+03  0.85804478088E+03  0.00000000000E+00 0. -1.
</event>
<event>
 4    1  0.5591986E+002  0.4330669E+02  0.7546771E-02  0.1330127E+00
          2   -1    0    0  502    0  0.00000000000E+00  0.00000000000E+00  0.24278266342E+02  0.24278266342E+02  0.00000000000E+00 0.  1.
         -2   -1    0    0    0  501 -0.00000000000E+00 -0.00000000000E+00 -0.15420633588E+03  0.15420633588E+03  0.00000000000E+00 0. -1.
         21    1    1    2  502  503  0.14435213580E+02  0.40830060658E+02 -0.19198606109E+01  0.43349222706E+02  0.00000000000E+00 0.  1.
         21    1    1    2  503  501 -0.14435213580E+02 -0.40830060658E+02 -0.12800820893E+03  0.13513537952E+03  0.00000000000E+00 0. -1.
</event>
<event>
 4    1  0.5591986E+002  0.2103897E+02  0.7546771E-02  0.1518709E+00
          2   -1    0    0  503    0  0.00000000000E+00  0.00000000000E+00  0.89555476947E+02  0.89555476947E+02  0.00000000000E+00 0.  1.
         -2   -1    0    0    0  501 -0.00000000000E+00 -0.00000000000E+00 -0.29195245208E+02  0.29195245208E+02  0.00000000000E+00 0. -1.
         21    1    1    2  502  501 -0.16733411252E+02  0.12752696600E+02 -0.23936373407E+02  0.31868296073E+02  0.00000000000E+00 0. -1.
         21    1    1    2  503  502  0.16733411252E+02 -0.12752696600E+02  0.84296605146E+02  0.86882426082E+02  0.00000000000E+00 0.  1.
</event>
<event>
 4    1  0.5591986E+002  0.2869990E+02  0.7546771E-02  0.1431241E+00
          2   -1    0    0  503    0  0.00000000000E+00  0.00000000000E+00  0.49194479876E+02  0.49194479876E+02  0.00000000000E+00 0. -1.
         -2   -1    0    0    0  501 -0.00000000000E+00 -0.00000000000E+00 -0.16921735492E+02  0.16921735492E+02  0.00000000000E+00 0.  1.
         21    1    1    2  502  501 -0.27311910227E+02  0.88172389345E+01  0.12742913702E+02  0.31401687730E+02  0.00000000000E+00 0.  1.
         21    1    1    2  503  502  0.27311910227E+02 -0.88172389345E+01  0.19529830682E+02  0.34714527638E+02  0.00000000000E+00 0. -1.
</event>
<event>
 4    1  0.5591986E+002  0.2447043E+02  0.7546771E-02  0.1474816E+00
          2   -1    0    0  502    0  0.00000000000E+00  0.00000000000E+00  0.30397248664E+03  0.30397248664E+03  0.00000000000E+00 0. -1.
         -2   -1    0    0    0  501 -0.00000000000E+00 -0.00000000000E+00 -0.56808672855E+01  0.56808672855E+01  0.00000000000E+00 0.  1.
         21    1    1    2  502  503 -0.16858354213E+02  0.17736911445E+02  0.27428136858E+03  0.27537078872E+03  0.00000000000E+00 0. -1.
         21    1    1    2  503  501  0.16858354213E+02 -0.17736911445E+02  0.24010250780E+02  0.34282565203E+02  0.00000000000E+00 0.  1.
</event>
<event>
 4    1  0.5591986E+002  0.2099950E+02  0.7546771E-02  0.1519272E+00
          2   -1    0    0  503    0  0.00000000000E+00  0.00000000000E+00  0.94572054171E+03  0.94572054171E+03  0.00000000000E+00 0. -1.
         -2   -1    0    0    0  501 -0.00000000000E+00 -0.00000000000E+00 -0.65890346409E+00  0.65890346409E+00  0.00000000000E+00 0.  1.
         21    1    1    2  502  501 -0.45210368743E+01 -0.20507049408E+02  0.21669041201E+03  0.21770556609E+03  0.00000000000E+00 0.  1.
         21    1    1    2  503  502  0.45210368743E+01  0.20507049408E+02  0.72837122623E+03  0.72867387908E+03  0.00000000000E+00 0. -1.
</event>
<event>
 4    1  0.5591986E+002  0.2981976E+02  0.7546771E-02  0.1421169E+00
          2   -1    0    0  503    0  0.00000000000E+00  0.00000000000E+00  0.46567069205E+02  0.46567069205E+02  0.00000000000E+00 0. -1.
         -2   -1    0    0    0  501 -0.00000000000E+00 -0.00000000000E+00 -0.35878963042E+02  0.35878963042E+02  0.00000000000E+00 0.  1.
         21    1    1    2  502  501 -0.78064862370E+01  0.28779799777E+02 -0.22850261861E+02  0.37567972659E+02  0.00000000000E+00 0.  1.
         21    1    1    2  503  502  0.78064862370E+01 -0.28779799777E+02  0.33538368024E+02  0.44878059587E+02  0.00000000000E+00 0. -1.
</event>
<event>
 4    1  0.5591986E+002  0.2836784E+02  0.7546771E-02  0.1434331E+00
          2   -1    0    0  502    0  0.00000000000E+00  0.00000000000E+00  0.16510374563E+03  0.16510374563E+03  0.00000000000E+00 0.  1.
         -2   -1    0    0    0  501 -0.00000000000E+00 -0.00000000000E+00 -0.17418491785E+02  0.17418491785E+02  0.00000000000E+00 0. -1.
         21    1    1    2  502  503 -0.15612765100E+02 -0.23684926261E+02  0.15128971782E+03  0.15392632291E+03  0.00000000000E+00 0.  1.
         21    1    1    2  503  501  0.15612765100E+02  0.23684926261E+02 -0.36044639724E+01  0.28595914509E+02  0.00000000000E+00 0. -1.
</event>
<event>
 4    1  0.5591986E+002  0.2577360E+02  0.7546771E-02  0.1460332E+00
          2   -1    0    0  503    0  0.00000000000E+00  0.00000000000E+00  0.17878931032E+04  0.17878931032E+04  0.00000000000E+00 0.  1.
         -2   -1    0    0    0  501 -0.00000000000E+00 -0.00000000000E+00 -0.40126482131E+00  0.40126482131E+00  0.00000000000E+00 0. -1.
         21    1    1    2  502  501  0.23745752570E+02 -0.10020856122E+02  0.11370977572E+04  0.11373898135E+04  0.00000000000E+00 0.  1.
         21    1    1    2  503  502 -0.23745752570E+02  0.10020856122E+02  0.65039408113E+03  0.65090455452E+03  0.00000000000E+00 0. -1.
</event>
<event>
 4    1  0.5591986E+002  0.4626339E+02  0.7546771E-02  0.1315240E+00
          2   -1    0    0  502    0  0.00000000000E+00  0.00000000000E+00  0.51001165491E+03  0.51001165491E+03  0.00000000000E+00 0. -1.
         -2   -1    0    0    0  501 -0.00000000000E+00 -0.00000000000E+00 -0.69649036337E+01  0.69649036337E+01  0.00000000000E+00 0.  1.
         21    1    1    2  502  503 -0.46062038073E+02  0.43116052954E+01  0.41448759313E+03  0.41706146567E+03  0.00000000000E+00 0. -1.
         21    1    1    2  503  501  0.46062038073E+02 -0.43116052954E+01  0.88559158152E+02  0.99915092875E+02  0.00000000000E+00 0.  1.
</event>
<event>
 4    1  0.5591986E+002  0.2373724E+02  0.7546771E-02  0.1483442E+00
          2   -1    0    0  503    0  0.00000000000E+00  0.00000000000E+00  0.16719896580E+02  0.16719896580E+02  0.00000000000E+00 0. -1.
         -2   -1    0    0    0  501 -0.00000000000E+00 -0.00000000000E+00 -0.37234890250E+02  0.37234890250E+02  0.00000000000E+00 0.  1.
         21    1    1    2  502  501 -0.22214677395E+02  0.83644884880E+01 -0.18569916193E+02  0.30137988434E+02  0.00000000000E+00 0. -1.
         21    1    1    2  503  502  0.22214677395E+02 -0.83644884880E+01 -0.19450774774E+01  0.23816798396E+02  0.00000000000E+00 0.  1.
</event>
<event>
 4    1  0.5591986E+002  0.3911382E+02  0.7546771E-02  0.1353759E+00
          2   -1    0    0  502    0  0.00000000000E+00  0.00000000000E+00  0.12155582464E+03  0.12155582464E+03  0.00000000000E+00 0.  1.
         -2   -1    0    0    0  501 -0.00000000000E+00 -0.00000000000E+00 -0.30909313599E+02  0.30909313599E+02  0.00000000000E+00 0. -1.
         21    1    1    2  502  503 -0.19239170089E+02 -0.34055027831E+02  0.10401796505E+03  0.11112887851E+03  0.00000000000E+00 0.  1.
         21    1    1    2  503  501  0.19239170089E+02  0.34055027831E+02 -0.13371454005E+02  0.41336259731E+02  0.00000000000E+00 0. -1.
</event>
<event>
 4    1  0.5591986E+002  0.2347525E+02  0.7546771E-02  0.1486615E+00
          2   -1    0    0  502    0  0.00000000000E+00  0.00000000000E+00  0.21462543770E+04  0.21462543770E+04  0.00000000000E+00 0.  1.
         -2   -1    0    0    0  501 -0.00000000000E+00 -0.00000000000E+00 -0.35297024454E+00  0.35297024454E+00  0.00000000000E+00 0. -1.
         21    1    1    2  502  503  0.21756217992E+02 -0.88178440797E+01  0.16332864441E+04  0.16334551405E+04  0.00000000000E+00 0. -1.
         21    1    1    2  503  501 -0.21756217992E+02  0.88178440797E+01  0.51261496268E+03  0.51315220681E+03  0.00000000000E+00 0.  1.
</event>
<event>
 4    1  0.5591986E+002  0.4472039E+02  0.7546771E-02  0.1322844E+00
          2   -1    0    0  502    0  0.00000000000E+00  0.00000000000E+00  0.15351902384E+04  0.15351902384E+04  0.00000000000E+00 0.  1.
         -2   -1    0    0    0  501 -0.00000000000E+00 -0.00000000000E+00 -0.22693492430E+01  0.22693492430E+01  0.00000000000E+00 0. -1.
         21    1    1    2  502  503 -0.34232277936E+02 -0.28776102280E+02  0.12681724454E+04  0.12689607024E+04  0.00000000000E+00 0.  1.
         21    1    1    2  503  501  0.34232277936E+02  0.28776102280E+02  0.26474844374E+03  0.26849888524E+03  0.00000000000E+00 0. -1.
</event>
<event>
 4    1  0.5591986E+002  0.2209119E+02  0.7546771E-02  0.1504237E+00
          2   -1    0    0  502    0  0.00000000000E+00  0.00000000000E+00  0.10116144473E+04  0.10116144473E+04  0.00000000000E+00 0.  1.
         -2   -1    0    0    0  501 -0.00000000000E+00 -0.00000000000E+00 -0.82260372948E+00  0.82260372948E+00  0.00000000000E+00 0. -1.
         21    1    1    2  502  503 -0.18255461319E+02  0.12440202808E+02  0.83093344986E+03  0.83122705600E+03  0.00000000000E+00 0.  1.
         21    1    1    2  503  501  0.18255461319E+02 -0.12440202808E+02  0.17985839366E+03  0.18120999499E+03  0.00000000000E+00 0. -1.
</event>
<event>
 4    1  0.5591986E+002  0.2028777E+02  0.7546771E-02  0.1529681E+00
          2   -1    0    0  503    0  0.00000000000E+00  0.00000000000E+00  0.28212224921E+03  0.28212224921E+03  0.00000000000E+00 0. -1.
         -2   -1    0    0    0  501 -0.00000000000E+00 -0.00000000000E+00 -0.14821200566E+02  0.14821200566E+02  0.00000000000E+00 0.  1.
         21    1    1    2  502  501  0.23637374641E+01  0.20149594540E+02 -0.73245644480E+01  0.21569484446E+02  0.00000000000E+00 0.  1.
         21    1    1    2  503  502 -0.23637374641E+01 -0.20149594540E+02  0.27462561309E+03  0.27537396533E+03  0.00000000000E+00 0. -1.
</event>
<event>
 4    1  0.5591986E+002  0.3380494E+02  0.7546771E-02  0.1389165E+00
          2   -1    0    0  503    0  0.00000000000E+00  0.00000000000E+00  0.26001843712E+02  0.26001843712E+02  0.00000000000E+00 0.  1.
         -2   -1    0    0    0  501 -0.00000000000E+00 -0.00000000000E+00 -0.54062807559E+02  0.54062807559E+02  0.00000000000E+00 0. -1.
         21    1    1    2  502  501  0.28226766922E+02 -0.18601706893E+02 -0.31344716930E+02  0.46100598148E+02  0.00000000000E+00 0. -1.
         21    1    1    2  503  502 -0.28226766922E+02  0.18601706893E+02  0.32837530829E+01  0.33964053123E+02  0.00000000000E+00 0.  1.
</event>
<event>
 4    1  0.5591986E+002  0.3876077E+02  0.7546771E-02  0.1355905E+00
          2   -1    0    0  502    0  0.00000000000E+00  0.00000000000E+00  0.16339678094E+04  0.16339678094E+04  0.00000000000E+00 0.  1.
         -2   -1    0    0    0  501 -0.00000000000E+00 -0.00000000000E+00 -0.18041423542E+01  0.18041423542E+01  0.00000000000E+00 0. -1.
         21    1    1    2  502  503  0.21647722159E+02  0.32152344717E+02  0.13888075326E+04  0.13893483219E+04  0.00000000000E+00 0.  1.
         21    1    1    2  503  501 -0.21647722159E+02 -0.32152344717E+02  0.24335613449E+03  0.24642362984E+03  0.00000000000E+00 0. -1.
</event>
<event>
 4    1  0.5591986E+002  0.2498980E+02  0.7546771E-02  0.1468918E+00
          2   -1    0    0  502    0  0.00000000000E+00  0.00000000000E+00  0.80280676959E+03  0.80280676959E+03  0.00000000000E+00 0. -1.
         -2   -1    0    0    0  501 -0.00000000000E+00 -0.00000000000E+00 -0.10978551073E+01  0.10978551073E+01  0.00000000000E+00 0.  1.
         21    1    1    2  502  503  0.13886115080E+02 -0.20776565567E+02  0.61785357525E+03  0.61835873918E+03  0.00000000000E+00 0. -1.
         21    1    1    2  503  501 -0.13886115080E+02  0.20776565567E+02  0.18385533923E+03  0.18554588552E+03  0.00000000000E+00 0.  1.
</event>
<event>
 4    1  0.5591986E+002  0.2324467E+02  0.7546771E-02  0.1489448E+00
          2   -1    0    0  502    0  0.00000000000E+00  0.00000000000E+00  0.62411821197E+02  0.62411821197E+02  0.00000000000E+00 0.  1.
         -2   -1    0    0    0  501 -0.00000000000E+00 -0.00000000000E+00 -0.17448072427E+02  0.17448072427E+02  0.00000000000E+00 0. -1.
         21    1    1    2  502  503 -0.32840429217E+01  0.23011516210E+02 -0.58607282015E+01  0.23972128634E+02  0.00000000000E+00 0.  1.
         21    1    1    2  503  501  0.32840429217E+01 -0.23011516210E+02  0.50824476971E+02  0.55887764990E+02  0.00000000000E+00 0. -1.
</event>
<event>
 4    1  0.5591986E+002  0.2141201E+02  0.7546771E-02  0.1513463E+00
          2   -1    0    0  502    0  0.00000000000E+00  0.00000000000E+00  0.38100779960E+03  0.38100779960E+03  0.00000000000E+00 0. -1.
         -2   -1    0    0    0  501 -0.00000000000E+00 -0.00000000000E+00 -0.12518546502E+01  0.12518546502E+01  0.00000000000E+00 0.  1.
         21    1    1    2  502  503 -0.75891442761E+01 -0.20021968363E+02  0.22751169691E+03  0.22851705967E+03  0.00000000000E+00 0.  1.
         21    1    1    2  503  501  0.75891442761E+01  0.20021968363E+02  0.15224424804E+03  0.15374259458E+03  0.00000000000E+00 0. -1.
</event>
<event>
 4    1  0.5591986E+002  0.5980852E+02  0.7546771E-02  0.1260485E+00
          2   -1    0    0  503    0  0.00000000000E+00  0.00000000000E+00  0.51912558304E+02  0.51912558304E+02  0.00000000000E+00 0. -1.
         -2   -1    0    0    0  501 -0.00000000000E+00 -0.00000000000E+00 -0.12393912346E+03  0.12393912346E+03  0.00000000000E+00 0.  1.
         21    1    1    2  502  501 -0.96106375608E+01  0.59031301944E+02 -0.94603689303E+02  0.11192371059E+03  0.00000000000E+00 0.  1.
         21    1    1    2  503  502  0.96106375608E+01 -0.59031301944E+02  0.22577124145E+02  0.63927971172E+02  0.00000000000E+00 0. -1.
</event>
<event>
 4    1  0.5591986E+002  0.2983965E+02  0.7546771E-02  0.1420995E+00
          2   -1    0    0  502    0  0.00000000000E+00  0.00000000000E+00  0.33082446315E+02  0.33082446315E+02  0.00000000000E+00 0. -1.
         -2   -1    0    0    0  501 -0.00000000000E+00 -0.00000000000E+00 -0.39707017118E+02  0.39707017118E+02  0.00000000000E+00 0.  1.
         21    1    1    2  502  503  0.29804768256E+02  0.14423724475E+01  0.17345284294E+02  0.34514685806E+02  0.00000000000E+00 0. -1.
         21    1    1    2  503  501 -0.29804768256E+02 -0.14423724475E+01 -0.23969855097E+02  0.38274777627E+02  0.00000000000E+00 0.  1.
</event>
<event>
 4    1  0.5591986E+002  0.2090966E+02  0.7546771E-02  0.1520559E+00
          2   -1    0    0  502    0  0.00000000000E+00  0.00000000000E+00  0.69973594369E+02  0.69973594369E+02  0.00000000000E+00 0. -1.
         -2   -1    0    0    0  501 -0.00000000000E+00 -0.00000000000E+00 -0.10776765884E+02  0.10776765884E+02  0.00000000000E+00 0.  1.
         21    1    1    2  502  503 -0.85359589346E+01 -0.19087990807E+02  0.55771033313E+02  0.59561918579E+02  0.00000000000E+00 0. -1.
         21    1    1    2  503  501  0.85359589346E+01  0.19087990807E+02  0.34257951722E+01  0.21188441674E+02  0.00000000000E+00 0.  1.
</event>
<event>
 4    1  0.5591986E+002  0.2989748E+02  0.7546771E-02  0.1420490E+00
          2   -1    0    0  503    0  0.00000000000E+00  0.00000000000E+00  0.76938312261E+03  0.76938312261E+03  0.00000000000E+00 0.  1.
         -2   -1    0    0    0  501 -0.00000000000E+00 -0.00000000000E+00 -0.12215984919E+01  0.12215984919E+01  0.00000000000E+00 0. -1.
         21    1    1    2  502  501  0.25553516001E+02 -0.15520221899E+02  0.29882396791E+03  0.30031587249E+03  0.00000000000E+00 0. -1.
         21    1    1    2  503  502 -0.25553516001E+02  0.15520221899E+02  0.46933755620E+03  0.47028884861E+03  0.00000000000E+00 0.  1.
</event>
<event>
 4    1  0.5591986E+002  0.4861607E+02  0.7546771E-02  0.1304287E+00
          2   -1    0    0  502    0  0.00000000000E+00  0.00000000000E+00  0.25052594333E+03  0.25052594333E+03  0.00000000000E+00 0.  1.
         -2   -1    0    0    0  501 -0.00000000000E+00 -0.00000000000E+00 -0.23230904742E+02  0.23230904742E+02  0.00000000000E+00 0. -1.
         21    1    1    2  502  503 -0.41292705138E+02 -0.25659977568E+02  0.21913210108E+03  0.22446024073E+03  0.00000000000E+00 0.  1.
         21    1    1    2  503  501  0.41292705138E+02  0.25659977568E+02  0.81629375098E+01  0.49296607340E+02  0.00000000000E+00 0. -1.
</event>
<event>
 4    1  0.5591986E+002  0.2912965E+02  0.7546771E-02  0.1427313E+00
          2   -1    0    0  502    0  0.00000000000E+00  0.00000000000E+00  0.61431379946E+02  0.61431379946E+02  0.00000000000E+00 0. -1.
         -2   -1    0    0    0  501 -0.00000000000E+00 -0.00000000000E+00 -0.13943842420E+02  0.13943842420E+02  0.00000000000E+00 0.  1.
         21    1    1    2  502  503 -0.26700797352E+02  0.11644916881E+02  0.20089621424E+02  0.35385442732E+02  0.00000000000E+00 0. -1.
         21    1    1    2  503  501  0.26700797352E+02 -0.11644916881E+02  0.27397916102E+02  0.39989779633E+02  0.00000000000E+00 0.  1.
</event>
<event>
 4    1  0.5591986E+002  0.3107005E+02  0.7546771E-02  0.1410520E+00
          2   -1    0    0  503    0  0.00000000000E+00  0.00000000000E+00  0.29053424693E+03  0.29053424693E+03  0.00000000000E+00 0. -1.
         -2   -1    0    0    0  501 -0.00000000000E+00 -0.00000000000E+00 -0.16128176133E+02  0.16128176133E+02  0.00000000000E+00 0.  1.
         21    1    1    2  502  501 -0.15314675721E+02 -0.27033476127E+02  0.57608061649E+00  0.31075392079E+02  0.00000000000E+00 0.  1.
         21    1    1    2  503  502  0.15314675721E+02  0.27033476127E+02  0.27382999018E+03  0.27558703098E+03  0.00000000000E+00 0. -1.
</event>
<event>
 4    1  0.5591986E+002  0.2772793E+02  0.7546771E-02  0.1440430E+00
          2   -1    0    0  503    0  0.00000000000E+00  0.00000000000E+00  0.75163689672E+03  0.75163689672E+03  0.00000000000E+00 0.  1.
         -2   -1    0    0    0  501 -0.00000000000E+00 -0.00000000000E+00 -0.47143558174E+01  0.47143558174E+01  0.00000000000E+00 0. -1.
         21    1    1    2  502  501  0.67884543919E+01  0.26884106228E+02  0.38818026171E+02  0.47704061007E+02  0.00000000000E+00 0. -1.
         21    1    1    2  503  502 -0.67884543919E+01 -0.26884106228E+02  0.70810451473E+03  0.70864719153E+03  0.00000000000E+00 0.  1.
</event>
<event>
 4    1  0.5591986E+002  0.2916405E+02  0.7546771E-02  0.1427002E+00
          2   -1    0    0  502    0  0.00000000000E+00  0.00000000000E+00  0.15002998017E+04  0.15002998017E+04  0.00000000000E+00 0. -1.
         -2   -1    0    0    0  501 -0.00000000000E+00 -0.00000000000E+00 -0.63994773540E+00  0.63994773540E+00  0.00000000000E+00 0.  1.
         21    1    1    2  502  503  0.61661690716E+01 -0.28504743939E+02  0.10033548005E+04  0.10037785601E+04  0.00000000000E+00 0. -1.
         21    1    1    2  503  501 -0.61661690716E+01  0.28504743939E+02  0.49630505344E+03  0.49716118929E+03  0.00000000000E+00 0.  1.
</event>
<event>
 4    1  0.5591986E+002  0.3714780E+02  0.7546771E-02  0.1366062E+00
          2   -1    0    0  502    0  0.00000000000E+00  0.00000000000E+00  0.56584929451E+03  0.56584929451E+03  0.00000000000E+00 0.  1.
         -2   -1    0    0    0  501 -0.00000000000E+00 -0.00000000000E+00 -0.57778387600E+01  0.57778387600E+01  0.00000000000E+00 0. -1.
         21    1    1    2  502  503 -0.28055897357E+02  0.24348007863E+02  0.49731325698E+03  0.49869874116E+03  0.00000000000E+00 0.  1.
         21    1    1    2  503  501  0.28055897357E+02 -0.24348007863E+02  0.62758198772E+02  0.72928392115E+02  0.00000000000E+00 0. -1.
</event>
<event>
 4    1  0.5591986E+002  0.2730989E+02  0.7546771E-02  0.1444520E+00
          2   -1    0    0  502    0  0.00000000000E+00  0.00000000000E+00  0.33310372051E+02  0.33310372051E+02  0.00000000000E+00 0.  1.
         -2   -1    0    0    0  501 -0.00000000000E+00 -0.00000000000E+00 -0.15111423013E+03  0.15111423013E+03  0.00000000000E+00 0. -1.
         21    1    1    2  502  503  0.27242405905E+02  0.19186477499E+01  0.26205170503E+02  0.37848921382E+02  0.00000000000E+00 0.  1.
         21    1    1    2  503  501 -0.27242405905E+02 -0.19186477499E+01 -0.14400902858E+03  0.14657568080E+03  0.00000000000E+00 0. -1.
</event>
<event>
 4    1  0.5591986E+002  0.2516393E+02  0.7546771E-02  0.1466978E+00
          2   -1    0    0  502    0  0.00000000000E+00  0.00000000000E+00  0.14989063016E+04  0.14989063016E+04  0.00000000000E+00 0.  1.
         -2   -1    0    0    0  501 -0.00000000000E+00 -0.00000000000E+00 -0.42263823253E+00  0.42263823253E+00  0.00000000000E+00 0. -1.
         21    1    1    2  502  503 -0.11258657787E+02  0.22504799516E+02  0.76476809694E+03  0.76518198193E+03  0.00000000000E+00 0.  1.
         21    1    1    2  503  501  0.11258657787E+02 -0.22504799516E+02  0.73371556644E+03  0.73414695792E+03  0.00000000000E+00 0. -1.
</event>
<event>
 4    1  0.5591986E+002  0.2731301E+02  0.7546771E-02  0.1444489E+00
          2   -1    0    0  502    0  0.00000000000E+00  0.00000000000E+00  0.10693249195E+04  0.10693249195E+04  0.00000000000E+00 0. -1.
         -2   -1    0    0    0  501 -0.00000000000E+00 -0.00000000000E+00 -0.38053122092E+01  0.38053122092E+01  0.00000000000E+00 0.  1.
         21    1    1    2  502  503  0.17164811010E+02  0.21245463893E+02  0.10176519039E+04  0.10180183682E+04  0.00000000000E+00 0. -1.
         21    1    1    2  503  501 -0.17164811010E+02 -0.21245463893E+02  0.47867703464E+02  0.55111863586E+02  0.00000000000E+00 0.  1.
</event>
<event>
 4    1  0.5591986E+002  0.2706797E+02  0.7546771E-02  0.1446927E+00
          2   -1    0    0  502    0  0.00000000000E+00  0.00000000000E+00  0.87757832998E+03  0.87757832998E+03  0.00000000000E+00 0.  1.
         -2   -1    0    0    0  501 -0.00000000000E+00 -0.00000000000E+00 -0.60886243992E+01  0.60886243992E+01  0.00000000000E+00 0. -1.
         21    1    1    2  502  503  0.26624187106E+02  0.48813736804E+01  0.84616944629E+03  0.84660227202E+03  0.00000000000E+00 0.  1.
         21    1    1    2  503  501 -0.26624187106E+02 -0.48813736804E+01  0.25320259287E+02  0.37064682359E+02  0.00000000000E+00 0. -1.
</event>
<event>
 4    1  0.5591986E+002  0.2485972E+02  0.7546771E-02  0.1470379E+00
          2   -1    0    0  502    0  0.00000000000E+00  0.00000000000E+00  0.91945697669E+00  0.91945697669E+00  0.00000000000E+00 0. -1.
         -2   -1    0    0    0  501 -0.00000000000E+00 -0.00000000000E+00 -0.10363587543E+04  0.10363587543E+04  0.00000000000E+00 0.  1.
         21    1    1    2  502  503  0.21296015191E+02 -0.12825184454E+02 -0.21025854616E+03  0.21172307822E+03  0.00000000000E+00 0. -1.
         21    1    1    2  503  501 -0.21296015191E+02  0.12825184454E+02 -0.82518075115E+03  0.82555513304E+03  0.00000000000E+00 0.  1.
</event>
<event>
 4    1  0.5591986E+002  0.4005634E+02  0.7546771E-02  0.1348156E+00
          2   -1    0    0  502    0  0.00000000000E+00  0.00000000000E+00  0.67322229334E+03  0.67322229334E+03  0.00000000000E+00 0.  1.
         -2   -1    0    0    0  501 -0.00000000000E+00 -0.00000000000E+00 -0.24293377202E+01  0.24293377202E+01  0.00000000000E+00 0. -1.
         21    1    1    2  502  503  0.35042501850E+02 -0.19404464268E+02  0.38188752023E+03  0.38398253642E+03  0.00000000000E+00 0.  1.
         21    1    1    2  503  501 -0.35042501850E+02  0.19404464268E+02  0.28890543539E+03  0.29166909464E+03  0.00000000000E+00 0. -1.
</event>
<event>
 4    1  0.5591986E+002  0.3415951E+02  0.7546771E-02  0.1386570E+00
          2   -1    0    0  503    0  0.00000000000E+00  0.00000000000E+00  0.20823046002E+04  0.20823046002E+04  0.00000000000E+00 0.  1.
         -2   -1    0    0    0  501 -0.00000000000E+00 -0.00000000000E+00 -0.61436127967E+00  0.61436127967E+00  0.00000000000E+00 0. -1.
         21    1    1    2  502  501  0.31222773365E+02  0.13856788734E+02  0.73212086599E+03  0.73291734499E+03  0.00000000000E+00 0. -1.
         21    1    1    2  503  502 -0.31222773365E+02 -0.13856788734E+02  0.13495693729E+04  0.13500016165E+04  0.00000000000E+00 0.  1.
</event>
<event>
 4    1  0.5591986E+002  0.3076068E+02  0.7546771E-02  0.1413099E+00
          2   -1    0    0  502    0  0.00000000000E+00  0.00000000000E+00  0.14085899180E+04  0.14085899180E+04  0.00000000000E+00 0. -1.
         -2   -1    0    0    0  501 -0.00000000000E+00 -0.00000000000E+00 -0.12438688286E+01  0.12438688286E+01  0.00000000000E+00 0.  1.
         21    1    1    2  502  503 -0.35490250290E+01 -0.30555256272E+02  0.11817458075E+04  0.11821460878E+04  0.00000000000E+00 0. -1.
         21    1    1    2  503  501  0.35490250290E+01  0.30555256272E+02  0.22560024166E+03  0.22768769906E+03  0.00000000000E+00 0.  1.
</event>
<event>
 4    1  0.5591986E+002  0.3117123E+02  0.7546771E-02  0.1409684E+00
          2   -1    0    0  503    0  0.00000000000E+00  0.00000000000E+00  0.84756212209E+03  0.84756212209E+03  0.00000000000E+00 0. -1.
         -2   -1    0    0    0  501 -0.00000000000E+00 -0.00000000000E+00 -0.12366575950E+01  0.12366575950E+01  0.00000000000E+00 0.  1.
         21    1    1    2  502  501  0.23663272393E+02 -0.20290265192E+02  0.30850810247E+03  0.31007885225E+03  0.00000000000E+00 0.  1.
         21    1    1    2  503  502 -0.23663272393E+02  0.20290265192E+02  0.53781736203E+03  0.53871992744E+03  0.00000000000E+00 0. -1.
</event>
<event>
 4    1  0.5591986E+002  0.2434785E+02  0.7546771E-02  0.1476233E+00
          2   -1    0    0  502    0  0.00000000000E+00  0.00000000000E+00  0.34392787505E+03  0.34392787505E+03  0.00000000000E+00 0.  1.
         -2   -1    0    0    0  501 -0.00000000000E+00 -0.00000000000E+00 -0.23458791495E+01  0.23458791495E+01  0.00000000000E+00 0. -1.
         21    1    1    2  502  503  0.19777029481E+02  0.14201645392E+02  0.25995827408E+03  0.26109600129E+03  0.00000000000E+00 0. -1.
         21    1    1    2  503  501 -0.19777029481E+02 -0.14201645392E+02  0.81623721829E+02  0.85177752917E+02  0.00000000000E+00 0.  1.
</event>
<event>
 4    1  0.5591986E+002  0.2233110E+02  0.7546771E-02  0.1501073E+00
          2   -1    0    0  502    0  0.00000000000E+00  0.00000000000E+00  0.11690241627E+04  0.11690241627E+04  0.00000000000E+00 0.  1.
         -2   -1    0    0    0  501 -0.00000000000E+00 -0.00000000000E+00 -0.42898604882E+00  0.42898604882E+00  0.00000000000E+00 0. -1.
         21    1    1    2  502  503 -0.20705488895E+02 -0.83642507079E+01  0.62812242931E+03  0.62851926316E+03  0.00000000000E+00 0.  1.
         21    1    1    2  503  501  0.20705488895E+02  0.83642507079E+01  0.54047274738E+03  0.54093388563E+03  0.00000000000E+00 0. -1.
</event>
<event>
 4    1  0.5591986E+002  0.2348758E+02  0.7546771E-02  0.1486465E+00
          2   -1    0    0  502    0  0.00000000000E+00  0.00000000000E+00  0.37870198187E+02  0.37870198187E+02  0.00000000000E+00 0. -1.
         -2   -1    0    0    0  501 -0.00000000000E+00 -0.00000000000E+00 -0.87546515073E+02  0.87546515073E+02  0.00000000000E+00 0.  1.
         21    1    1    2  502  503  0.17307416701E+02  0.15878280769E+02  0.32415809062E+02  0.40030627651E+02  0.00000000000E+00 0. -1.
         21    1    1    2  503  501 -0.17307416701E+02 -0.15878280769E+02 -0.82092125948E+02  0.85386085609E+02  0.00000000000E+00 0.  1.
</event>
<event>
 4    1  0.5591986E+002  0.2389214E+02  0.7546771E-02  0.1481589E+00
          2   -1    0    0  503    0  0.00000000000E+00  0.00000000000E+00  0.87254165551E+01  0.87254165551E+01  0.00000000000E+00 0. -1.
         -2   -1    0    0    0  501 -0.00000000000E+00 -0.00000000000E+00 -0.70598141101E+02  0.70598141101E+02  0.00000000000E+00 0.  1.
         21    1    1    2  502  501 -0.23467633480E+02  0.44838235500E+01 -0.20197031957E+02  0.31285053854E+02  0.00000000000E+00 0. -1.
         21    1    1    2  503  502  0.23467633480E+02 -0.44838235500E+01 -0.41675692589E+02  0.48038503802E+02  0.00000000000E+00 0.  1.
</event>
<event>
 4    1  0.5591986E+002  0.2274416E+02  0.7546771E-02  0.1495736E+00
          2   -1    0    0  503    0  0.00000000000E+00  0.00000000000E+00  0.10234122196E+04  0.10234122196E+04  0.00000000000E+00 0.  1.
         -2   -1    0    0    0  501 -0.00000000000E+00 -0.00000000000E+00 -0.21567876481E+01  0.21567876481E+01  0.00000000000E+00 0. -1.
         21    1    1    2  502  501 -0.22195986063E+02 -0.49633880776E+01  0.61936642873E+02  0.65980639198E+02  0.00000000000E+00 0. -1.
         21    1    1    2  503  502  0.22195986063E+02  0.49633880776E+01  0.95931878906E+03  0.95958836803E+03  0.00000000000E+00 0.  1.
</event>
<event>
 4    1  0.5591986E+002  0.2895386E+02  0.7546771E-02  0.1428910E+00
          2   -1    0    0  503    0  0.00000000000E+00  0.00000000000E+00  0.32940105214E+01  0.32940105214E+01  0.00000000000E+00 0.  1.
         -2   -1    0    0    0  501 -0.00000000000E+00 -0.00000000000E+00 -0.31916678241E+03  0.31916678241E+03  0.00000000000E+00 0. -1.
         21    1    1    2  502  501 -0.20214927956E+02 -0.20728792450E+02 -0.23050991218E+03  0.23232121247E+03  0.00000000000E+00 0. -1.
         21    1    1    2  503  502  0.20214927956E+02  0.20728792450E+02 -0.85362859706E+02  0.90139580462E+02  0.00000000000E+00 0.  1.
</event>
<event>
 4    1  0.5591986E+002  0.3432659E+02  0.7546771E-02  0.1385360E+00
          2   -1    0    0  503    0  0.00000000000E+00  0.00000000000E+00  0.16483014388E+04  0.16483014388E+04  0.00000000000E+00 0.  1.
         -2   -1    0    0    0  501 -0.00000000000E+00 -0.00000000000E+00 -0.71923524153E+00  0.71923524153E+00  0.00000000000E+00 0. -1.
         21    1    1    2  502  501 -0.28848298802E+02  0.18603501582E+02  0.75952752400E+03  0.76030281752E+03  0.00000000000E+00 0.  1.
         21    1    1    2  503  502  0.28848298802E+02 -0.18603501582E+02  0.88805467951E+03  0.88871785648E+03  0.00000000000E+00 0. -1.
</event>
<event>
 4    1  0.5591986E+002  0.2036456E+02  0.7546771E-02  0.1528534E+00
          2   -1    0    0  503    0  0.00000000000E+00  0.00000000000E+00  0.10766634548E+01  0.10766634548E+01  0.00000000000E+00 0.  1.
         -2   -1    0    0    0  501 -0.00000000000E+00 -0.00000000000E+00 -0.40309813001E+03  0.40309813001E+03  0.00000000000E+00 0. -1.
         21    1    1    2  502  501  0.20359488360E+02  0.45429528026E+00 -0.24361111819E+03  0.24446081906E+03  0.00000000000E+00 0. -1.
         21    1    1    2  503  502 -0.20359488360E+02 -0.45429528026E+00 -0.15841034836E+03  0.15971397440E+03  0.00000000000E+00 0.  1.
</event>
<event>
 4    1  0.5591986E+002  0.4517348E+02  0.7546771E-02  0.1320574E+00
          2   -1    0    0  503    0  0.00000000000E+00  0.00000000000E+00  0.47612767806E+02  0.47612767806E+02  0.00000000000E+00 0.  1.
         -2   -1    0    0    0  501 -0.00000000000E+00 -0.00000000000E+00 -0.62972499934E+02  0.62972499934E+02  0.00000000000E+00 0. -1.
         21    1    1    2  502  501  0.50540590465E+01 -0.44889861637E+02 -0.38928707282E+02  0.59632939231E+02  0.00000000000E+00 0. -1.
         21    1    1    2  503  502 -0.50540590465E+01  0.44889861637E+02  0.23568975154E+02  0.50952328509E+02  0.00000000000E+00 0.  1.
</event>
<event>
 4    1  0.5591986E+002  0.3229568E+02  0.7546771E-02  0.1400642E+00
          2   -1    0    0  502    0  0.00000000000E+00  0.00000000000E+00  0.18288650989E+02  0.18288650989E+02  0.00000000000E+00 0.  1.
         -2   -1    0    0    0  501 -0.00000000000E+00 -0.00000000000E+00 -0.65666674515E+02  0.65666674515E+02  0.00000000000E+00 0. -1.
         21    1    1    2  502  503 -0.18753740240E+02  0.26292744961E+02 -0.84658089121E+01  0.33386840687E+02  0.00000000000E+00 0.  1.
         21    1    1    2  503  501  0.18753740240E+02 -0.26292744961E+02 -0.38912214613E+02  0.50568484817E+02  0.00000000000E+00 0. -1.
</event>
<event>
 4    1  0.5591986E+002  0.2534819E+02  0.7546771E-02  0.1464946E+00
          2   -1    0    0  503    0  0.00000000000E+00  0.00000000000E+00  0.19512453011E+02  0.19512453011E+02  0.00000000000E+00 0.  1.
         -2   -1    0    0    0  501 -0.00000000000E+00 -0.00000000000E+00 -0.33320109887E+02  0.33320109887E+02  0.00000000000E+00 0. -1.
         21    1    1    2  502  501  0.80280378029E+01 -0.24043317136E+02 -0.97648932477E+01  0.27164013511E+02  0.00000000000E+00 0.  1.
         21    1    1    2  503  502 -0.80280378029E+01  0.24043317136E+02 -0.40427636280E+01  0.25668549387E+02  0.00000000000E+00 0. -1.
</event>
<event>
 4    1  0.5591986E+002  0.2575347E+02  0.7546771E-02  0.1460548E+00
          2   -1    0    0  503    0  0.00000000000E+00  0.00000000000E+00  0.23736127799E+03  0.23736127799E+03  0.00000000000E+00 0.  1.
         -2   -1    0    0    0  501 -0.00000000000E+00 -0.00000000000E+00 -0.13807890585E+02  0.13807890585E+02  0.00000000000E+00 0. -1.
         21    1    1    2  502  501 -0.25378380259E+01  0.25628116548E+02 -0.38345931022E+00  0.25756320015E+02  0.00000000000E+00 0. -1.
         21    1    1    2  503  502  0.25378380259E+01 -0.25628116548E+02  0.22393684672E+03  0.22541284856E+03  0.00000000000E+00 0.  1.
</event>
<event>
 4    1  0.5591986E+002  0.2002943E+02  0.7546771E-02  0.1533586E+00
          2   -1    0    0  503    0  0.00000000000E+00  0.00000000000E+00  0.77828311948E+03  0.77828311948E+03  0.00000000000E+00 0.  1.
         -2   -1    0    0    0  501 -0.00000000000E+00 -0.00000000000E+00 -0.70728200333E+00  0.70728200333E+00  0.00000000000E+00 0. -1.
         21    1    1    2  502  501  0.19962222668E+02 -0.16394432527E+01  0.59162566494E+03  0.59196461510E+03  0.00000000000E+00 0.  1.
         21    1    1    2  503  502 -0.19962222668E+02  0.16394432527E+01  0.18595017253E+03  0.18702578638E+03  0.00000000000E+00 0. -1.
</event>
<event>
 4    1  0.5591986E+002  0.5778696E+02  0.7546771E-02  0.1267543E+00
          2   -1    0    0  502    0  0.00000000000E+00  0.00000000000E+00  0.17566501519E+03  0.17566501519E+03  0.00000000000E+00 0.  1.
         -2   -1    0    0    0  501 -0.00000000000E+00 -0.00000000000E+00 -0.47228251495E+02  0.47228251495E+02  0.00000000000E+00 0. -1.
         21    1    1    2  502  503  0.56197853703E+02  0.13458588240E+02  0.15036409683E+03  0.16108598317E+03  0.00000000000E+00 0.  1.
         21    1    1    2  503  501 -0.56197853703E+02 -0.13458588240E+02 -0.21927333129E+02  0.61807283522E+02  0.00000000000E+00 0. -1.
</event>
<event>
 4    1  0.5591986E+002  0.3363760E+02  0.7546771E-02  0.1390403E+00
          2   -1    0    0  503    0  0.00000000000E+00  0.00000000000E+00  0.74817567216E+02  0.74817567216E+02  0.00000000000E+00 0. -1.
         -2   -1    0    0    0  501 -0.00000000000E+00 -0.00000000000E+00 -0.15131992812E+02  0.15131992812E+02  0.00000000000E+00 0.  1.
         21    1    1    2  502  501 -0.32137796081E+02  0.99322696853E+01  0.28764336956E+02  0.44259179823E+02  0.00000000000E+00 0. -1.
         21    1    1    2  503  502  0.32137796081E+02 -0.99322696853E+01  0.30921237447E+02  0.45690380205E+02  0.00000000000E+00 0.  1.
</event>
<event>
 4    1  0.5591986E+002  0.3667836E+02  0.7546771E-02  0.1369133E+00
          2   -1    0    0  503    0  0.00000000000E+00  0.00000000000E+00  0.85478577992E+02  0.85478577992E+02  0.00000000000E+00 0. -1.
         -2   -1    0    0    0  501 -0.00000000000E+00 -0.00000000000E+00 -0.37342425153E+02  0.37342425153E+02  0.00000000000E+00 0.  1.
         21    1    1    2  502  501  0.35446168392E+02 -0.94271509756E+01 -0.22641724809E+02  0.43103941021E+02  0.00000000000E+00 0.  1.
         21    1    1    2  503  502 -0.35446168392E+02  0.94271509756E+01  0.70777877649E+02  0.79717062124E+02  0.00000000000E+00 0. -1.
</event>
<event>
 4    1  0.5591986E+002  0.3418214E+02  0.7546771E-02  0.1386406E+00
          2   -1    0    0  502    0  0.00000000000E+00  0.00000000000E+00  0.31685064880E+02  0.31685064880E+02  0.00000000000E+00 0. -1.
         -2   -1    0    0    0  501 -0.00000000000E+00 -0.00000000000E+00 -0.37091800473E+02  0.37091800473E+02  0.00000000000E+00 0.  1.
         21    1    1    2  502  503 -0.19866753003E+02 -0.27816017078E+02 -0.80403577410E-01  0.34182234358E+02  0.00000000000E+00 0. -1.
         21    1    1    2  503  501  0.19866753003E+02  0.27816017078E+02 -0.53263320154E+01  0.34594630995E+02  0.00000000000E+00 0.  1.
</event>
<event>
 4    1  0.5591986E+002  0.2565750E+02  0.7546771E-02  0.1461581E+00
          2   -1    0    0  502    0  0.00000000000E+00  0.00000000000E+00  0.13870294684E+04  0.13870294684E+04  0.00000000000E+00 0. -1.
         -2   -1    0    0    0  501 -0.00000000000E+00 -0.00000000000E+00 -0.61193416833E+00  0.61193416833E+00  0.00000000000E+00 0.  1.
         21    1    1    2  502  503  0.15705575334E+02 -0.20288966675E+02  0.10218771223E+04  0.10221991784E+04  0.00000000000E+00 0. -1.
         21    1    1    2  503  501 -0.15705575334E+02  0.20288966675E+02  0.36454041195E+03  0.36544222418E+03  0.00000000000E+00 0.  1.
</event>
<event>
 4    1  0.5591986E+002  0.2290528E+02  0.7546771E-02  0.1493691E+00
          2   -1    0    0  502    0  0.00000000000E+00  0.00000000000E+00  0.12419429129E+04  0.12419429129E+04  0.00000000000E+00 0. -1.
         -2   -1    0    0    0  501 -0.00000000000E+00 -0.00000000000E+00 -0.10708687651E+01  0.10708687651E+01  0.00000000000E+00 0.  1.
         21    1    1    2  502  503  0.15286824559E+02 -0.17057690621E+02  0.11040596260E+04  0.11042972017E+04  0.00000000000E+00 0. -1.
         21    1    1    2  503  501 -0.15286824559E+02  0.17057690621E+02  0.13681241812E+03  0.13871658000E+03  0.00000000000E+00 0.  1.
</event>
<event>
 4    1  0.5591986E+002  0.2573284E+02  0.7546771E-02  0.1460770E+00
          2   -1    0    0  502    0  0.00000000000E+00  0.00000000000E+00  0.14557532498E+04  0.14557532498E+04  0.00000000000E+00 0.  1.
         -2   -1    0    0    0  501 -0.00000000000E+00 -0.00000000000E+00 -0.46084943774E+00  0.46084943774E+00  0.00000000000E+00 0. -1.
         21    1    1    2  502  503  0.24177955451E+02  0.88094136617E+01  0.81057883611E+03  0.81098719401E+03  0.00000000000E+00 0.  1.
         21    1    1    2  503  501 -0.24177955451E+02 -0.88094136617E+01  0.64471356425E+03  0.64522690522E+03  0.00000000000E+00 0. -1.
</event>
<event>
 4    1  0.5591986E+002  0.4833015E+02  0.7546771E-02  0.1305579E+00
          2   -1    0    0  503    0  0.00000000000E+00  0.00000000000E+00  0.25549998359E+04  0.25549998359E+04  0.00000000000E+00 0.  1.
         -2   -1    0    0    0  501 -0.00000000000E+00 -0.00000000000E+00 -0.24150339598E+01  0.24150339598E+01  0.00000000000E+00 0. -1.
         21    1    1    2  502  501  0.11269381412E+02 -0.46997915728E+02  0.26825966352E+03  0.27257852101E+03  0.00000000000E+00 0. -1.
         21    1    1    2  503  502 -0.11269381412E+02  0.46997915728E+02  0.22843251384E+04  0.22848363488E+04  0.00000000000E+00 0.  1.
</event>
<event>
 4    1  0.5591986E+002  0.2030650E+02  0.7546771E-02  0.1529401E+00
          2   -1    0    0  502    0  0.00000000000E+00  0.00000000000E+00  0.13736749319E+02  0.13736749319E+02  0.00000000000E+00 0. -1.
         -2   -1    0    0    0  501 -0.00000000000E+00 -0.00000000000E+00 -0.65410453038E+02  0.65410453038E+02  0.00000000000E+00 0.  1.
         21    1    1    2  502  503 -0.18596823479E+02 -0.81555057345E+01  0.32726900910E+01  0.20568534652E+02  0.00000000000E+00 0. -1.
         21    1    1    2  503  501  0.18596823479E+02  0.81555057345E+01 -0.54946393810E+02  0.58578667704E+02  0.00000000000E+00 0.  1.
</event>
<event>
 4    1  0.5591986E+002  0.4410210E+02  0.7546771E-02  0.1325991E+00
          2   -1    0    0  503    0  0.00000000000E+00  0.00000000000E+00  0.93063796151E+02  0.93063796151E+02  0.00000000000E+00 0. -1.
         -2   -1    0    0    0  501 -0.00000000000E+00 -0.00000000000E+00 -0.53430223136E+02  0.53430223136E+02  0.00000000000E+00 0.  1.
         21    1    1    2  502  501  0.41578059834E+02  0.14705799420E+02 -0.37336687478E+02  0.57784287034E+02  0.00000000000E+00 0.  1.
         21    1    1    2  503  502 -0.41578059834E+02 -0.14705799420E+02  0.76970260493E+02  0.88709732254E+02  0.00000000000E+00 0. -1.
</event>
<event>
 4    1  0.5591986E+002  0.2596350E+02  0.7546771E-02  0.1458307E+00
          2   -1    0    0  502    0  0.00000000000E+00  0.00000000000E+00  0.72871046433E+02  0.72871046433E+02  0.00000000000E+00 0.  1.
         -2   -1    0    0    0  501 -0.00000000000E+00 -0.00000000000E+00 -0.13602393722E+02  0.13602393722E+02  0.00000000000E+00 0. -1.
         21    1    1    2  502  503 -0.25772006229E+02 -0.31475515302E+01  0.54089881198E+02  0.59998488595E+02  0.00000000000E+00 0.  1.
         21    1    1    2  503  501  0.25772006229E+02  0.31475515302E+01  0.51787715135E+01  0.26474951559E+02  0.00000000000E+00 0. -1.
</event>
<event>
 4    1  0.5591986E+002  0.2623957E+02  0.7546771E-02  0.1455400E+00
          2   -1    0    0  503    0  0.00000000000E+00  0.00000000000E+00  0.83844857408E+03  0.83844857408E+03  0.00000000000E+00 0. -1.
         -2   -1    0    0    0  501 -0.00000000000E+00 -0.00000000000E+00 -0.59358319589E+01  0.59358319589E+01  0.00000000000E+00 0.  1.
         21    1    1    2  502  501  0.20165935085E+02 -0.16788397217E+02  0.24354304911E+02  0.35800103166E+02  0.00000000000E+00 0.  1.
         21    1    1    2  503  502 -0.20165935085E+02  0.16788397217E+02  0.80815843721E+03  0.80858430287E+03  0.00000000000E+00 0. -1.
</event>
<event>
 4    1  0.5591986E+002  0.2449976E+02  0.7546771E-02  0.1474478E+00
          2   -1    0    0  503    0  0.00000000000E+00  0.00000000000E+00  0.73238678535E+03  0.73238678535E+03  0.00000000000E+00 0. -1.
         -2   -1    0    0    0  501 -0.00000000000E+00 -0.00000000000E+00 -0.97611253092E+00  0.97611253092E+00  0.00000000000E+00 0.  1.
         21    1    1    2  502  501  0.67278885456E+01  0.23557878197E+02  0.21885904294E+03  0.22022606291E+03  0.00000000000E+00 0.  1.
         21    1    1    2  503  502 -0.67278885456E+01 -0.23557878197E+02  0.51255162988E+03  0.51313683497E+03  0.00000000000E+00 0. -1.
</event>
<event>
 4    1  0.5591986E+002  0.4560204E+02  0.7546771E-02  0.1318456E+00
          2   -1    0    0  503    0  0.00000000000E+00  0.00000000000E+00  0.29032746691E+03  0.29032746691E+03  0.00000000000E+00 0.  1.
         -2   -1    0    0    0  501 -0.00000000000E+00 -0.00000000000E+00 -0.81416276642E+01  0.81416276642E+01  0.00000000000E+00 0. -1.
         21    1    1    2  502  501 -0.43346770849E+02  0.14163451128E+02  0.89347036522E+02  0.10031170832E+03  0.00000000000E+00 0. -1.
         21    1    1    2  503  502  0.43346770849E+02 -0.14163451128E+02  0.19283880272E+03  0.19815738625E+03  0.00000000000E+00 0.  1.
</event>
<event>
 4    1  0.5591986E+002  0.2610314E+02  0.7546771E-02  0.1456831E+00
          2   -1    0    0  503    0  0.00000000000E+00  0.00000000000E+00  0.12357770493E+04  0.12357770493E+04  0.00000000000E+00 0. -1.
         -2   -1    0    0    0  501 -0.00000000000E+00 -0.00000000000E+00 -0.64641538782E+00  0.64641538782E+00  0.00000000000E+00 0.  1.
         21    1    1    2  502  501  0.12636184851E+02  0.22840766274E+02  0.85461570706E+03  0.85501425750E+03  0.00000000000E+00 0. -1.
         21    1    1    2  503  502 -0.12636184851E+02 -0.22840766274E+02  0.38051492682E+03  0.38140920716E+03  0.00000000000E+00 0.  1.
</event>
<event>
 4    1  0.5591986E+002  0.2297196E+02  0.7546771E-02  0.1492851E+00
          2   -1    0    0  503    0  0.00000000000E+00  0.00000000000E+00  0.18803245864E+03  0.18803245864E+03  0.00000000000E+00 0.  1.
         -2   -1    0    0    0  501 -0.00000000000E+00 -0.00000000000E+00 -0.28259869461E+01  0.28259869461E+01  0.00000000000E+00 0. -1.
         21    1    1    2  502  501 -0.22953919949E+02 -0.91020952434E+00  0.84676453579E+02  0.87737179765E+02  0.00000000000E+00 0. -1.
         21    1    1    2  503  502  0.22953919949E+02  0.91020952434E+00  0.10053001812E+03  0.10312126582E+03  0.00000000000E+00 0.  1.
</event>
<event>
 4    1  0.5591986E+002  0.8284009E+02  0.7546771E-02  0.1197403E+00
          2   -1    0    0  503    0  0.00000000000E+00  0.00000000000E+00  0.59340433818E+03  0.59340433818E+03  0.00000000000E+00 0.  1.
         -2   -1    0    0    0  501 -0.00000000000E+00 -0.00000000000E+00 -0.38872922329E+02  0.38872922329E+02  0.00000000000E+00 0. -1.
         21    1    1    2  502  501 -0.73651301298E+02  0.37920528029E+02  0.12292767745E+02  0.83747195581E+02  0.00000000000E+00 0. -1.
         21    1    1    2  503  502  0.73651301298E+02 -0.37920528029E+02  0.54223864811E+03  0.54853006493E+03  0.00000000000E+00 0.  1.
</event>
<event>
 4    1  0.5591986E+002  0.2267086E+02  0.7546771E-02  0.1496673E+00
          2   -1    0    0  502    0  0.00000000000E+00  0.00000000000E+00  0.22766492603E+03  0.22766492603E+03  0.00000000000E+00 0. -1.
         -2   -1    0    0    0  501 -0.00000000000E+00 -0.00000000000E+00 -0.31019606920E+01  0.31019606920E+01  0.00000000000E+00 0.  1.
         21    1    1    2  502  503 -0.83464611688E+01 -0.21078526644E+02  0.17248184576E+03  0.17396538396E+03  0.00000000000E+00 0. -1.
         21    1    1    2  503  501  0.83464611688E+01  0.21078526644E+02  0.52081119579E+02  0.56801502763E+02  0.00000000000E+00 0.  1.
</event>
<event>
 4    1  0.5591986E+002  0.3400746E+02  0.7546771E-02  0.1387678E+00
          2   -1    0    0  503    0  0.00000000000E+00  0.00000000000E+00  0.43354473622E+02  0.43354473622E+02  0.00000000000E+00 0. -1.
         -2   -1    0    0    0  501 -0.00000000000E+00 -0.00000000000E+00 -0.26693873772E+02  0.26693873772E+02  0.00000000000E+00 0.  1.
         21    1    1    2  502  501  0.54820705934E+01 -0.33562694690E+02  0.74144834643E+01  0.34806351976E+02  0.00000000000E+00 0. -1.
         21    1    1    2  503  502 -0.54820705934E+01  0.33562694690E+02  0.92461163859E+01  0.35241995418E+02  0.00000000000E+00 0.  1.
</event>
<event>
 4    1  0.5591986E+002  0.3385786E+02  0.7546771E-02  0.1388776E+00
          2   -1    0    0  502    0  0.00000000000E+00  0.00000000000E+00  0.75760459095E+03  0.75760459095E+03  0.00000000000E+00 0.  1.
         -2   -1    0    0    0  501 -0.00000000000E+00 -0.00000000000E+00 -0.79367834088E+01  0.79367834088E+01  0.00000000000E+00 0. -1.
         21    1    1    2  502  503  0.27653412756E+02 -0.19535688370E+02  0.71918974336E+03  0.71998627855E+03  0.00000000000E+00 0.  1.
         21    1    1    2  503  501 -0.27653412756E+02  0.19535688370E+02  0.30478064180E+02  0.45555095800E+02  0.00000000000E+00 0. -1.
</event>
<event>
 4    1  0.5591986E+002  0.2880437E+02  0.7546771E-02  0.1430279E+00
          2   -1    0    0  502    0  0.00000000000E+00  0.00000000000E+00  0.17948643961E+04  0.17948643961E+04  0.00000000000E+00 0. -1.
         -2   -1    0    0    0  501 -0.00000000000E+00 -0.00000000000E+00 -0.60344692517E+00  0.60344692517E+00  0.00000000000E+00 0.  1.
         21    1    1    2  502  503  0.37303141145E+01  0.28561801685E+02  0.13313679192E+04  0.13316794764E+04  0.00000000000E+00 0. -1.
         21    1    1    2  503  501 -0.37303141145E+01 -0.28561801685E+02  0.46289303003E+03  0.46378836661E+03  0.00000000000E+00 0.  1.
</event>
<event>
 4    1  0.5591986E+002  0.2175208E+02  0.7546771E-02  0.1508792E+00
          2   -1    0    0  502    0  0.00000000000E+00  0.00000000000E+00  0.42109579713E+03  0.42109579713E+03  0.00000000000E+00 0. -1.
         -2   -1    0    0    0  501 -0.00000000000E+00 -0.00000000000E+00 -0.14306174064E+01  0.14306174064E+01  0.00000000000E+00 0.  1.
         21    1    1    2  502  503 -0.43777865264E+01 -0.21306993288E+02  0.30769755713E+03  0.30846545939E+03  0.00000000000E+00 0. -1.
         21    1    1    2  503  501  0.43777865264E+01  0.21306993288E+02  0.11196762259E+03  0.11406095514E+03  0.00000000000E+00 0.  1.
</event>
<event>
 4    1  0.5591986E+002  0.2792538E+02  0.7546771E-02  0.1438528E+00
          2   -1    0    0  503    0  0.00000000000E+00  0.00000000000E+00  0.30280659031E+02  0.30280659031E+02  0.00000000000E+00 0. -1.
         -2   -1    0    0    0  501 -0.00000000000E+00 -0.00000000000E+00 -0.33572452011E+02  0.33572452011E+02  0.00000000000E+00 0.  1.
         21    1    1    2  502  501 -0.34363532452E+01 -0.27713142877E+02 -0.17053689691E+02  0.32720867101E+02  0.00000000000E+00 0.  1.
         21    1    1    2  503  502  0.34363532452E+01  0.27713142877E+02  0.13761896711E+02  0.31132243942E+02  0.00000000000E+00 0. -1.
</event>
<event>
 4    1  0.5591986E+002  0.2204845E+02  0.7546771E-02  0.1504805E+00
          2   -1    0    0  502    0  0.00000000000E+00  0.00000000000E+00  0.48354174220E+03  0.48354174220E+03  0.00000000000E+00 0. -1.
         -2   -1    0    0    0  501 -0.00000000000E+00 -0.00000000000E+00 -0.88205932943E+01  0.88205932943E+01  0.00000000000E+00 0.  1.
         21    1    1    2  502  503  0.14182699977E+02 -0.16881502107E+02  0.46908769727E+03  0.46960558112E+03  0.00000000000E+00 0. -1.
         21    1    1    2  503  501 -0.14182699977E+02  0.16881502107E+02  0.56334516314E+01  0.22756754367E+02  0.00000000000E+00 0.  1.
</event>
<event>
 4    1  0.5591986E+002  0.3281197E+02  0.7546771E-02  0.1396635E+00
          2   -1    0    0  503    0  0.00000000000E+00  0.00000000000E+00  0.24704689049E+03  0.24704689049E+03  0.00000000000E+00 0. -1.
         -2   -1    0    0    0  501 -0.00000000000E+00 -0.00000000000E+00 -0.46732120514E+01  0.46732120514E+01  0.00000000000E+00 0.  1.
         21    1    1    2  502  501  0.30027517502E+02  0.13227768248E+02  0.88498365672E+02  0.94385308108E+02  0.00000000000E+00 0.  1.
         21    1    1    2  503  502 -0.30027517502E+02 -0.13227768248E+02  0.15387531276E+03  0.15733479443E+03  0.00000000000E+00 0. -1.
</event>
<event>
 4    1  0.5591986E+002  0.3007282E+02  0.7546771E-02  0.1418965E+00
          2   -1    0    0  503    0  0.00000000000E+00  0.00000000000E+00  0.24513046643E+04  0.24513046643E+04  0.00000000000E+00 0. -1.
         -2   -1    0    0    0  501 -0.00000000000E+00 -0.00000000000E+00 -0.70958231774E+00  0.70958231774E+00  0.00000000000E+00 0.  1.
         21    1    1    2  502  501  0.10649203976E+02  0.28124167577E+02  0.37583643243E+03  0.37703766163E+03  0.00000000000E+00 0.  1.
         21    1    1    2  503  502 -0.10649203976E+02 -0.28124167577E+02  0.20747586496E+04  0.20749765850E+04  0.00000000000E+00 0. -1.
</event>
<event>
 4    1  0.5591986E+002  0.2237072E+02  0.7546771E-02  0.1500555E+00
          2   -1    0    0  503    0  0.00000000000E+00  0.00000000000E+00  0.14809602805E+04  0.14809602805E+04  0.00000000000E+00 0. -1.
         -2   -1    0    0    0  501 -0.00000000000E+00 -0.00000000000E+00 -0.46722351220E+00  0.46722351220E+00  0.00000000000E+00 0.  1.
         21    1    1    2  502  501  0.90482901680E+01  0.20459165118E+02  0.35058283604E+03  0.35129584956E+03  0.00000000000E+00 0.  1.
         21    1    1    2  503  502 -0.90482901680E+01 -0.20459165118E+02  0.11299102210E+04  0.11301316545E+04  0.00000000000E+00 0. -1.
</event>
<event>
 4    1  0.5591986E+002  0.2251003E+02  0.7546771E-02  0.1498744E+00
          2   -1    0    0  503    0  0.00000000000E+00  0.00000000000E+00  0.42834612135E+02  0.42834612135E+02  0.00000000000E+00 0.  1.
         -2   -1    0    0    0  501 -0.00000000000E+00 -0.00000000000E+00 -0.13168148172E+02  0.13168148172E+02  0.00000000000E+00 0. -1.
         21    1    1    2  502  501 -0.21256614960E+02  0.74066061852E+01  0.59044903306E+01  0.23271538428E+02  0.00000000000E+00 0. -1.
         21    1    1    2  503  502  0.21256614960E+02 -0.74066061852E+01  0.23761973633E+02  0.32731221879E+02  0.00000000000E+00 0.  1.
</event>
<event>
 4    1  0.5591986E+002  0.4377668E+02  0.7546771E-02  0.1327671E+00
          2   -1    0    0  502    0  0.00000000000E+00  0.00000000000E+00  0.12449020863E+04  0.12449020863E+04  0.00000000000E+00 0.  1.
         -2   -1    0    0    0  501 -0.00000000000E+00 -0.00000000000E+00 -0.57934624735E+01  0.57934624735E+01  0.00000000000E+00 0. -1.
         21    1    1    2  502  503  0.12665686218E+02 -0.41904392353E+02  0.11554183696E+04  0.11562473812E+04  0.00000000000E+00 0.  1.
         21    1    1    2  503  501 -0.12665686218E+02  0.41904392353E+02  0.83690254178E+02  0.94448167533E+02  0.00000000000E+00 0. -1.
</event>
<event>
 4    1  0.5591986E+002  0.5831156E+02  0.7546771E-02  0.1265680E+00
          2   -1    0    0  502    0  0.00000000000E+00  0.00000000000E+00  0.70213815787E+03  0.70213815787E+03  0.00000000000E+00 0.  1.
         -2   -1    0    0    0  501 -0.00000000000E+00 -0.00000000000E+00 -0.60601879232E+01  0.60601879232E+01  0.00000000000E+00 0. -1.
         21    1    1    2  502  503  0.37117207887E+02  0.44972778092E+02  0.50675321462E+03  0.51009710686E+03  0.00000000000E+00 0.  1.
         21    1    1    2  503  501 -0.37117207887E+02 -0.44972778092E+02  0.18932475532E+03  0.19810123893E+03  0.00000000000E+00 0. -1.
</event>
<event>
 4    1  0.5591986E+002  0.2584916E+02  0.7546771E-02  0.1459524E+00
          2   -1    0    0  503    0  0.00000000000E+00  0.00000000000E+00  0.26082417655E+03  0.26082417655E+03  0.00000000000E+00 0.  1.
         -2   -1    0    0    0  501 -0.00000000000E+00 -0.00000000000E+00 -0.48126603893E+01  0.48126603893E+01  0.00000000000E+00 0. -1.
         21    1    1    2  502  501  0.20667446764E+02 -0.15525328659E+02  0.21883800258E+03  0.22035936685E+03  0.00000000000E+00 0.  1.
         21    1    1    2  503  502 -0.20667446764E+02  0.15525328659E+02  0.37173513581E+02  0.45277470089E+02  0.00000000000E+00 0. -1.
</event>
<event>
 4    1  0.5591986E+002  0.2169908E+02  0.7546771E-02  0.1509514E+00
          2   -1    0    0  502    0  0.00000000000E+00  0.00000000000E+00  0.51591064199E+03  0.51591064199E+03  0.00000000000E+00 0. -1.
         -2   -1    0    0    0  501 -0.00000000000E+00 -0.00000000000E+00 -0.16602931311E+01  0.16602931311E+01  0.00000000000E+00 0.  1.
         21    1    1    2  502  503 -0.19403192443E+02 -0.97142163856E+01  0.43078221836E+03  0.43132837784E+03  0.00000000000E+00 0. -1.
         21    1    1    2  503  501  0.19403192443E+02  0.97142163856E+01  0.83468130495E+02  0.86242557275E+02  0.00000000000E+00 0.  1.
</event>
<event>
 4    1  0.5591986E+002  0.3193608E+02  0.7546771E-02  0.1403486E+00
          2   -1    0    0  503    0  0.00000000000E+00  0.00000000000E+00  0.20561876298E+02  0.20561876298E+02  0.00000000000E+00 0.  1.
         -2   -1    0    0    0  501 -0.00000000000E+00 -0.00000000000E+00 -0.90782584817E+02  0.90782584817E+02  0.00000000000E+00 0. -1.
         21    1    1    2  502  501 -0.21471396764E+01  0.31863820946E+02 -0.72606170181E+02  0.79319412771E+02  0.00000000000E+00 0. -1.
         21    1    1    2  503  502  0.21471396764E+01 -0.31863820946E+02  0.23854616610E+01  0.32025048344E+02  0.00000000000E+00 0.  1.
</event>
<event>
 4    1  0.5591986E+002  0.3104960E+02  0.7546771E-02  0.1410689E+00
          2   -1    0    0  502    0  0.00000000000E+00  0.00000000000E+00  0.15274555572E+04  0.15274555572E+04  0.00000000000E+00 0.  1.
         -2   -1    0    0    0  501 -0.00000000000E+00 -0.00000000000E+00 -0.13440966965E+01  0.13440966965E+01  0.00000000000E+00 0. -1.
         21    1    1    2  502  503 -0.23368687404E+02  0.20444606700E+02  0.13197658093E+04  0.13201310045E+04  0.00000000000E+00 0.  1.
         21    1    1    2  503  501  0.23368687404E+02 -0.20444606700E+02  0.20634565118E+03  0.20866864943E+03  0.00000000000E+00 0. -1.
</event>
<event>
 4    1  0.5591986E+002  0.2091894E+02  0.7546771E-02  0.1520425E+00
          2   -1    0    0  503    0  0.00000000000E+00  0.00000000000E+00  0.27317685154E+02  0.27317685154E+02  0.00000000000E+00 0.  1.
         -2   -1    0    0    0  501 -0.00000000000E+00 -0.00000000000E+00 -0.16281079759E+02  0.16281079759E+02  0.00000000000E+00 0. -1.
         21    1    1    2  502  501 -0.15013931086E+02 -0.14566528586E+02  0.27524893262E+01  0.21099243569E+02  0.00000000000E+00 0. -1.
         21    1    1    2  503  502  0.15013931086E+02  0.14566528586E+02  0.82841160684E+01  0.22499521344E+02  0.00000000000E+00 0.  1.
</event>
<event>
 4    1  0.5591986E+002  0.2322207E+02  0.7546771E-02  0.1489728E+00
          2   -1    0    0  502    0  0.00000000000E+00  0.00000000000E+00  0.14797626362E+04  0.14797626362E+04  0.00000000000E+00 0.  1.
         -2   -1    0    0    0  501 -0.00000000000E+00 -0.00000000000E+00 -0.11344114542E+01  0.11344114542E+01  0.00000000000E+00 0. -1.
         21    1    1    2  502  503 -0.22168937211E+02  0.69139402825E+01  0.13493435043E+04  0.13495433142E+04  0.00000000000E+00 0.  1.
         21    1    1    2  503  501  0.22168937211E+02 -0.69139402825E+01  0.12928472039E+03  0.13135373339E+03  0.00000000000E+00 0. -1.
</event>
<event>
 4    1  0.5591986E+002  0.2105423E+02  0.7546771E-02  0.1518492E+00
          2   -1    0    0  503    0  0.00000000000E+00  0.00000000000E+00  0.45287669224E+03  0.45287669224E+03  0.00000000000E+00 0.  1.
         -2   -1    0    0    0  501 -0.00000000000E+00 -0.00000000000E+00 -0.11710000721E+01  0.11710000721E+01  0.00000000000E+00 0. -1.
         21    1    1    2  502  501  0.80293705751E+00  0.21038910948E+02  0.13388037067E+03  0.13552576925E+03  0.00000000000E+00 0. -1.
         21    1    1    2  503  502 -0.80293705751E+00 -0.21038910948E+02  0.31782532150E+03  0.31852192306E+03  0.00000000000E+00 0.  1.
</event>
<event>
 4    1  0.5591986E+002  0.2043570E+02  0.7546771E-02  0.1527476E+00
          2   -1    0    0  502    0  0.00000000000E+00  0.00000000000E+00  0.14415211544E+03  0.14415211544E+03  0.00000000000E+00 0. -1.
         -2   -1    0    0    0  501 -0.00000000000E+00 -0.00000000000E+00 -0.60704595312E+01  0.60704595312E+01  0.00000000000E+00 0.  1.
         21    1    1    2  502  503  0.20156110759E+02  0.33688293437E+01  0.12334792254E+03  0.12502930779E+03  0.00000000000E+00 0. -1.
         21    1    1    2  503  501 -0.20156110759E+02 -0.33688293437E+01  0.14733733365E+02  0.25193267175E+02  0.00000000000E+00 0.  1.
</event>
<event>
 4    1  0.5591986E+002  0.2719379E+02  0.7546771E-02  0.1445671E+00
          2   -1    0    0  503    0  0.00000000000E+00  0.00000000000E+00  0.20705624053E+03  0.20705624053E+03  0.00000000000E+00 0. -1.
         -2   -1    0    0    0  501 -0.00000000000E+00 -0.00000000000E+00 -0.88655880493E+01  0.88655880493E+01  0.00000000000E+00 0.  1.
         21    1    1    2  502  501 -0.10961461656E+02 -0.24886714632E+02  0.15668025380E+02  0.31384538010E+02  0.00000000000E+00 0.  1.
         21    1    1    2  503  502  0.10961461656E+02  0.24886714632E+02  0.18252262710E+03  0.18453729057E+03  0.00000000000E+00 0. -1.
</event>
<event>
 4    1  0.5591986E+002  0.2092923E+02  0.7546771E-02  0.1520278E+00
          2   -1    0    0  503    0  0.00000000000E+00  0.00000000000E+00  0.80208793240E+03  0.80208793240E+03  0.00000000000E+00 0.  1.
         -2   -1    0    0    0  501 -0.00000000000E+00 -0.00000000000E+00 -0.61305192993E+00  0.61305192993E+00  0.00000000000E+00 0. -1.
         21    1    1    2  502  501 -0.10623268933E+02  0.18032716507E+02  0.26811829717E+03  0.26893392122E+03  0.00000000000E+00 0.  1.
         21    1    1    2  503  502  0.10623268933E+02 -0.18032716507E+02  0.53335658330E+03  0.53376706310E+03  0.00000000000E+00 0. -1.
</event>
<event>
 4    1  0.5591986E+002  0.3245704E+02  0.7546771E-02  0.1399380E+00
          2   -1    0    0  502    0  0.00000000000E+00  0.00000000000E+00  0.10745572665E+04  0.10745572665E+04  0.00000000000E+00 0.  1.
         -2   -1    0    0    0  501 -0.00000000000E+00 -0.00000000000E+00 -0.10357501345E+01  0.10357501345E+01  0.00000000000E+00 0. -1.
         21    1    1    2  502  503 -0.25162185639E+02 -0.20501806336E+02  0.41240030675E+03  0.41367556449E+03  0.00000000000E+00 0.  1.
         21    1    1    2  503  501  0.25162185639E+02  0.20501806336E+02  0.66112120965E+03  0.66191745218E+03  0.00000000000E+00 0. -1.
</event>
<event>
 4    1  0.5591986E+002  0.4217026E+02  0.7546771E-02  0.1336217E+00
          2   -1    0    0  502    0  0.00000000000E+00  0.00000000000E+00  0.86724676257E+02  0.86724676257E+02  0.00000000000E+00 0. -1.
         -2   -1    0    0    0  501 -0.00000000000E+00 -0.00000000000E+00 -0.64245410795E+02  0.64245410795E+02  0.00000000000E+00 0.  1.
         21    1    1    2  502  503 -0.34508482530E+02  0.24238307832E+02  0.73523979039E+02  0.84759108224E+02  0.00000000000E+00 0. -1.
         21    1    1    2  503  501  0.34508482530E+02 -0.24238307832E+02 -0.51044713578E+02  0.66210978828E+02  0.00000000000E+00 0.  1.
</event>
<event>
 4    1  0.5591986E+002  0.2673160E+02  0.7546771E-02  0.1450323E+00
          2   -1    0    0  503    0  0.00000000000E+00  0.00000000000E+00  0.12782618739E+04  0.12782618739E+04  0.00000000000E+00 0. -1.
         -2   -1    0    0    0  501 -0.00000000000E+00 -0.00000000000E+00 -0.87302045222E+00  0.87302045222E+00  0.00000000000E+00 0.  1.
         21    1    1    2  502  501  0.24182870828E+02 -0.11391551697E+02  0.25513141958E+03  0.25652801007E+03  0.00000000000E+00 0.  1.
         21    1    1    2  503  502 -0.24182870828E+02  0.11391551697E+02  0.10222574338E+04  0.10226068842E+04  0.00000000000E+00 0. -1.
</event>
<event>
 4    1  0.5591986E+002  0.2012727E+02  0.7546771E-02  0.1532099E+00
          2   -1    0    0  502    0  0.00000000000E+00  0.00000000000E+00  0.13611330345E+04  0.13611330345E+04  0.00000000000E+00 0. -1.
         -2   -1    0    0    0  501 -0.00000000000E+00 -0.00000000000E+00 -0.33485556864E+00  0.33485556864E+00  0.00000000000E+00 0.  1.
         21    1    1    2  502  503  0.29210888371E+01 -0.19914167539E+02  0.90738565470E+03  0.90760885473E+03  0.00000000000E+00 0. -1.
         21    1    1    2  503  501 -0.29210888371E+01  0.19914167539E+02  0.45341252423E+03  0.45385903534E+03  0.00000000000E+00 0.  1.
</event>
<event>
 4    1  0.5591986E+002  0.2043561E+02  0.7546771E-02  0.1527477E+00
          2   -1    0    0  502    0  0.00000000000E+00  0.00000000000E+00  0.26645935086E+02  0.26645935086E+02  0.00000000000E+00 0.  1.
         -2   -1    0    0    0  501 -0.00000000000E+00 -0.00000000000E+00 -0.18260569351E+02  0.18260569351E+02  0.00000000000E+00 0. -1.
         21    1    1    2  502  503  0.12494313925E+02  0.16171158456E+02  0.12645309743E+02  0.24031606371E+02  0.00000000000E+00 0.  1.
         21    1    1    2  503  501 -0.12494313925E+02 -0.16171158456E+02 -0.42599440080E+01  0.20874898065E+02  0.00000000000E+00 0. -1.
</event>
<event>
 4    1  0.5591986E+002  0.5588905E+02  0.7546771E-02  0.1274478E+00
          2   -1    0    0  502    0  0.00000000000E+00  0.00000000000E+00  0.40579108835E+02  0.40579108835E+02  0.00000000000E+00 0. -1.
         -2   -1    0    0    0  501 -0.00000000000E+00 -0.00000000000E+00 -0.94709546696E+02  0.94709546696E+02  0.00000000000E+00 0.  1.
         21    1    1    2  502  503  0.62951240691E+01 -0.55533385305E+02  0.22060781212E+01  0.55932568787E+02  0.00000000000E+00 0. -1.
         21    1    1    2  503  501 -0.62951240691E+01  0.55533385305E+02 -0.56336515982E+02  0.79356086745E+02  0.00000000000E+00 0.  1.
</event>
<event>
 4    1  0.5591986E+002  0.3933180E+02  0.7546771E-02  0.1352447E+00
          2   -1    0    0  502    0  0.00000000000E+00  0.00000000000E+00  0.23061817418E+01  0.23061817418E+01  0.00000000000E+00 0.  1.
         -2   -1    0    0    0  501 -0.00000000000E+00 -0.00000000000E+00 -0.68335050225E+03  0.68335050225E+03  0.00000000000E+00 0. -1.
         21    1    1    2  502  503  0.93478350394E+01  0.38204817822E+02 -0.38698009617E+03  0.38897375870E+03  0.00000000000E+00 0. -1.
         21    1    1    2  503  501 -0.93478350394E+01 -0.38204817822E+02 -0.29406422434E+03  0.29668292530E+03  0.00000000000E+00 0.  1.
</event>
<event>
 4    1  0.5591986E+002  0.2169968E+02  0.7546771E-02  0.1509505E+00
          2   -1    0    0  502    0  0.00000000000E+00  0.00000000000E+00  0.20794601748E+03  0.20794601748E+03  0.00000000000E+00 0. -1.
         -2   -1    0    0    0  501 -0.00000000000E+00 -0.00000000000E+00 -0.53739188661E+01  0.53739188661E+01  0.00000000000E+00 0.  1.
         21    1    1    2  502  503  0.18870631397E+02  0.10713324463E+02  0.18241978221E+03  0.18370588720E+03  0.00000000000E+00 0. -1.
         21    1    1    2  503  501 -0.18870631397E+02 -0.10713324463E+02  0.20152316404E+02  0.29614049147E+02  0.00000000000E+00 0.  1.
</event>
<event>
 4    1  0.5591986E+002  0.2153206E+02  0.7546771E-02  0.1511802E+00
          2   -1    0    0  503    0  0.00000000000E+00  0.00000000000E+00  0.51569372600E+03  0.51569372600E+03  0.00000000000E+00 0.  1.
         -2   -1    0    0    0  501 -0.00000000000E+00 -0.00000000000E+00 -0.16700102249E+01  0.16700102249E+01  0.00000000000E+00 0. -1.
         21    1    1    2  502  501  0.16412595339E+02  0.13937587042E+02  0.81249833644E+02  0.84054536377E+02  0.00000000000E+00 0. -1.
         21    1    1    2  503  502 -0.16412595339E+02 -0.13937587042E+02  0.43277388213E+03  0.43330919985E+03  0.00000000000E+00 0.  1.
</event>
<event>
 4    1  0.5591986E+002  0.2670743E+02  0.7546771E-02  0.1450569E+00
          2   -1    0    0  503    0  0.00000000000E+00  0.00000000000E+00  0.90778599663E+03  0.90778599663E+03  0.00000000000E+00 0.  1.
         -2   -1    0    0    0  501 -0.00000000000E+00 -0.00000000000E+00 -0.59003113523E+01  0.59003113523E+01  0.00000000000E+00 0. -1.
         21    1    1    2  502  501  0.25217139079E+02 -0.87967426080E+01  0.25604889934E+02  0.36998610411E+02  0.00000000000E+00 0. -1.
         21    1    1    2  503  502 -0.25217139079E+02  0.87967426080E+01  0.87628079534E+03  0.87668769757E+03  0.00000000000E+00 0.  1.
</event>
<event>
 4    1  0.5591986E+002  0.3358600E+02  0.7546771E-02  0.1390786E+00
          2   -1    0    0  503    0  0.00000000000E+00  0.00000000000E+00  0.19202828451E+01  0.19202828451E+01  0.00000000000E+00 0.  1.
         -2   -1    0    0    0  501 -0.00000000000E+00 -0.00000000000E+00 -0.62523380735E+03  0.62523380735E+03  0.00000000000E+00 0. -1.
         21    1    1    2  502  501 -0.13279744859E+02  0.30849117628E+02 -0.38876963956E+03  0.39021769863E+03  0.00000000000E+00 0.  1.
         21    1    1    2  503  502  0.13279744859E+02 -0.30849117628E+02 -0.23454388494E+03  0.23693639156E+03  0.00000000000E+00 0. -1.
</event>
<event>
 4    1  0.5591986E+002  0.5403585E+02  0.7546771E-02  0.1281563E+00
          2   -1    0    0  503    0  0.00000000000E+00  0.00000000000E+00  0.32234350735E+02  0.32234350735E+02  0.00000000000E+00 0.  1.
         -2   -1    0    0    0  501 -0.00000000000E+00 -0.00000000000E+00 -0.10126898915E+03  0.10126898915E+03  0.00000000000E+00 0. -1.
         21    1    1    2  502  501  0.53860659313E+02  0.43477072130E+01 -0.56201259582E+02  0.77964445475E+02  0.00000000000E+00 0. -1.
         21    1    1    2  503  502 -0.53860659313E+02 -0.43477072130E+01 -0.12833378829E+02  0.55538894406E+02  0.00000000000E+00 0.  1.
</event>
<event>
 4    1  0.5591986E+002  0.3492531E+02  0.7546771E-02  0.1381089E+00
          2   -1    0    0  502    0  0.00000000000E+00  0.00000000000E+00  0.12628374323E+02  0.12628374323E+02  0.00000000000E+00 0. -1.
         -2   -1    0    0    0  501 -0.00000000000E+00 -0.00000000000E+00 -0.34763867380E+03  0.34763867380E+03  0.00000000000E+00 0.  1.
         21    1    1    2  502  503 -0.13277924497E+02 -0.32302848376E+02 -0.14428379749E+02  0.37788297584E+02  0.00000000000E+00 0. -1.
         21    1    1    2  503  501  0.13277924497E+02  0.32302848376E+02 -0.32058191972E+03  0.32247875053E+03  0.00000000000E+00 0.  1.
</event>
<event>
 4    1  0.5591986E+002  0.2042199E+02  0.7546771E-02  0.1527680E+00
          2   -1    0    0  503    0  0.00000000000E+00  0.00000000000E+00  0.10653016365E+04  0.10653016365E+04  0.00000000000E+00 0. -1.
         -2   -1    0    0    0  501 -0.00000000000E+00 -0.00000000000E+00 -0.52608218915E+00  0.52608218915E+00  0.00000000000E+00 0.  1.
         21    1    1    2  502  501 -0.16704066225E+01 -0.20353557548E+02  0.26283974359E+03  0.26363191835E+03  0.00000000000E+00 0.  1.
         21    1    1    2  503  502  0.16704066225E+01  0.20353557548E+02  0.80193581073E+03  0.80219580035E+03  0.00000000000E+00 0. -1.
</event>
<event>
 4    1  0.5591986E+002  0.7799430E+02  0.7546771E-02  0.1208582E+00
          2   -1    0    0  502    0  0.00000000000E+00  0.00000000000E+00  0.21961014095E+04  0.21961014095E+04  0.00000000000E+00 0. -1.
         -2   -1    0    0    0  501 -0.00000000000E+00 -0.00000000000E+00 -0.28482154801E+01  0.28482154801E+01  0.00000000000E+00 0.  1.
         21    1    1    2  502  503 -0.48150010181E+02 -0.61357050087E+02  0.91438028398E+03  0.91770061284E+03  0.00000000000E+00 0. -1.
         21    1    1    2  503  501  0.48150010181E+02  0.61357050087E+02  0.12788729101E+04  0.12812490122E+04  0.00000000000E+00 0.  1.
</event>
<event>
 4    1  0.5591986E+002  0.2090477E+02  0.7546771E-02  0.1520629E+00
          2   -1    0    0  502    0  0.00000000000E+00  0.00000000000E+00  0.12724613810E+02  0.12724613810E+02  0.00000000000E+00 0.  1.
         -2   -1    0    0    0  501 -0.00000000000E+00 -0.00000000000E+00 -0.34348257700E+02  0.34348257700E+02  0.00000000000E+00 0. -1.
         21    1    1    2  502  503  0.24500091717E+01  0.20760706258E+02 -0.10538722465E+02  0.23410983329E+02  0.00000000000E+00 0. -1.
         21    1    1    2  503  501 -0.24500091717E+01 -0.20760706258E+02 -0.11084921425E+02  0.23661888180E+02  0.00000000000E+00 0.  1.
</event>
<event>
 4    1  0.5591986E+002  0.2455833E+02  0.7546771E-02  0.1473805E+00
          2   -1    0    0  503    0  0.00000000000E+00  0.00000000000E+00  0.16830754023E+04  0.16830754023E+04  0.00000000000E+00 0.  1.
         -2   -1    0    0    0  501 -0.00000000000E+00 -0.00000000000E+00 -0.36220115199E+00  0.36220115199E+00  0.00000000000E+00 0. -1.
         21    1    1    2  502  501  0.23004425419E+02 -0.85969796783E+01  0.75443980093E+03  0.75483940337E+03  0.00000000000E+00 0. -1.
         21    1    1    2  503  502 -0.23004425419E+02  0.85969796783E+01  0.92827340021E+03  0.92859820008E+03  0.00000000000E+00 0.  1.
</event>
<event>
 4    1  0.5591986E+002  0.2587280E+02  0.7546771E-02  0.1459272E+00
          2   -1    0    0  503    0  0.00000000000E+00  0.00000000000E+00  0.41824270184E+03  0.41824270184E+03  0.00000000000E+00 0.  1.
         -2   -1    0    0    0  501 -0.00000000000E+00 -0.00000000000E+00 -0.19460505309E+01  0.19460505309E+01  0.00000000000E+00 0. -1.
         21    1    1    2  502  501  0.20120937239E+02  0.16264987627E+02  0.11961915383E+03  0.12238522746E+03  0.00000000000E+00 0. -1.
         21    1    1    2  503  502 -0.20120937239E+02 -0.16264987627E+02  0.29667749748E+03  0.29780352491E+03  0.00000000000E+00 0.  1.
</event>
<event>
 4    1  0.5591986E+002  0.2371758E+02  0.7546771E-02  0.1483679E+00
          2   -1    0    0  503    0  0.00000000000E+00  0.00000000000E+00  0.83172151071E+03  0.83172151071E+03  0.00000000000E+00 0.  1.
         -2   -1    0    0    0  501 -0.00000000000E+00 -0.00000000000E+00 -0.18119117759E+01  0.18119117759E+01  0.00000000000E+00 0. -1.
         21    1    1    2  502  501  0.23398820977E+02  0.38754273514E+01  0.85016729161E+02  0.88263061343E+02  0.00000000000E+00 0. -1.
         21    1    1    2  503  502 -0.23398820977E+02 -0.38754273514E+01  0.74489286977E+03  0.74527036114E+03  0.00000000000E+00 0.  1.
</event>
<event>
 4    1  0.5591986E+002  0.3295288E+02  0.7546771E-02  0.1395556E+00
          2   -1    0    0  502    0  0.00000000000E+00  0.00000000000E+00  0.40613169922E+03  0.40613169922E+03  0.00000000000E+00 0.  1.
         -2   -1    0    0    0  501 -0.00000000000E+00 -0.00000000000E+00 -0.27854032630E+01  0.27854032630E+01  0.00000000000E+00 0. -1.
         21    1    1    2  502  503  0.52437049756E+01  0.32532991686E+02  0.16073675293E+03  0.16407984560E+03  0.00000000000E+00 0. -1.
         21    1    1    2  503  501 -0.52437049756E+01 -0.32532991686E+02  0.24260954303E+03  0.24483725688E+03  0.00000000000E+00 0.  1.
</event>
<event>
 4    1  0.5591986E+002  0.2295192E+02  0.7546771E-02  0.1493103E+00
          2   -1    0    0  502    0  0.00000000000E+00  0.00000000000E+00  0.10469894053E+04  0.10469894053E+04  0.00000000000E+00 0.  1.
         -2   -1    0    0    0  501 -0.00000000000E+00 -0.00000000000E+00 -0.40455139995E+01  0.40455139995E+01  0.00000000000E+00 0. -1.
         21    1    1    2  502  503  0.98307558311E+01  0.20739976935E+02  0.10132249519E+04  0.10134848759E+04  0.00000000000E+00 0.  1.
         21    1    1    2  503  501 -0.98307558311E+01 -0.20739976935E+02  0.29718939322E+02  0.37550043381E+02  0.00000000000E+00 0. -1.
</event>
<event>
 4    1  0.5591986E+002  0.8821724E+02  0.7546771E-02  0.1185958E+00
          2   -1    0    0  503    0  0.00000000000E+00  0.00000000000E+00  0.12342752699E+03  0.12342752699E+03  0.00000000000E+00 0. -1.
         -2   -1    0    0    0  501 -0.00000000000E+00 -0.00000000000E+00 -0.63086639102E+02  0.63086639102E+02  0.00000000000E+00 0.  1.
         21    1    1    2  502  501 -0.44480121651E+00  0.88216117369E+02  0.27967091991E+02  0.92544256689E+02  0.00000000000E+00 0.  1.
         21    1    1    2  503  502  0.44480121651E+00 -0.88216117369E+02  0.32373795893E+02  0.93969909398E+02  0.00000000000E+00 0. -1.
</event>
<event>
 4    1  0.5591986E+002  0.3631648E+02  0.7546771E-02  0.1371537E+00
          2   -1    0    0  503    0  0.00000000000E+00  0.00000000000E+00  0.35775812996E+01  0.35775812996E+01  0.00000000000E+00 0.  1.
         -2   -1    0    0    0  501 -0.00000000000E+00 -0.00000000000E+00 -0.39805032650E+03  0.39805032650E+03  0.00000000000E+00 0. -1.
         21    1    1    2  502  501  0.25301112644E+01  0.36228238468E+02 -0.25180932850E+03  0.25441467066E+03  0.00000000000E+00 0. -1.
         21    1    1    2  503  502 -0.25301112644E+01 -0.36228238468E+02 -0.14266341670E+03  0.14721323714E+03  0.00000000000E+00 0.  1.
</event>
<event>
 4    1  0.5591986E+002  0.3617622E+02  0.7546771E-02  0.1372477E+00
          2   -1    0    0  503    0  0.00000000000E+00  0.00000000000E+00  0.21898769934E+02  0.21898769934E+02  0.00000000000E+00 0.  1.
         -2   -1    0    0    0  501 -0.00000000000E+00 -0.00000000000E+00 -0.76537552793E+02  0.76537552793E+02  0.00000000000E+00 0. -1.
         21    1    1    2  502  501 -0.24867871106E+02 -0.26273715201E+02 -0.50361576573E+02  0.62008124618E+02  0.00000000000E+00 0. -1.
         21    1    1    2  503  502  0.24867871106E+02  0.26273715201E+02 -0.42772062860E+01  0.36428198108E+02  0.00000000000E+00 0.  1.
</event>
<event>
 4    1  0.5591986E+002  0.3576682E+02  0.7546771E-02  0.1375251E+00
          2   -1    0    0  503    0  0.00000000000E+00  0.00000000000E+00  0.27649738252E+02  0.27649738252E+02  0.00000000000E+00 0.  1.
         -2   -1    0    0    0  501 -0.00000000000E+00 -0.00000000000E+00 -0.71524734789E+02  0.71524734789E+02  0.00000000000E+00 0. -1.
         21    1    1    2  502  501  0.27993167935E+02 -0.22263158601E+02 -0.51404805868E+02  0.62623635699E+02  0.00000000000E+00 0. -1.
         21    1    1    2  503  502 -0.27993167935E+02  0.22263158601E+02  0.75298093309E+01  0.36550837343E+02  0.00000000000E+00 0.  1.
</event>
<event>
 4    1  0.5591986E+002  0.2023340E+02  0.7546771E-02  0.1530497E+00
          2   -1    0    0  502    0  0.00000000000E+00  0.00000000000E+00  0.10205746151E+04  0.10205746151E+04  0.00000000000E+00 0.  1.
         -2   -1    0    0    0  501 -0.00000000000E+00 -0.00000000000E+00 -0.46478909720E+00  0.46478909720E+00  0.00000000000E+00 0. -1.
         21    1    1    2  502  503 -0.41241498280E+01  0.19808632804E+02  0.69898010698E+03  0.69927289416E+03  0.00000000000E+00 0. -1.
         21    1    1    2  503  501  0.41241498280E+01 -0.19808632804E+02  0.32112971897E+03  0.32176650999E+03  0.00000000000E+00 0.  1.
</event>
<event>
 4    1  0.5591986E+002  0.2371864E+02  0.7546771E-02  0.1483666E+00
          2   -1    0    0  502    0  0.00000000000E+00  0.00000000000E+00  0.50869351037E+03  0.50869351037E+03  0.00000000000E+00 0. -1.
         -2   -1    0    0    0  501 -0.00000000000E+00 -0.00000000000E+00 -0.11088125377E+01  0.11088125377E+01  0.00000000000E+00 0.  1.
         21    1    1    2  502  503 -0.20161526485E+02  0.12493460112E+02  0.26681428011E+03  0.26786644763E+03  0.00000000000E+00 0.  1.
         21    1    1    2  503  501  0.20161526485E+02 -0.12493460112E+02  0.24077041772E+03  0.24193587528E+03  0.00000000000E+00 0. -1.
</event>
<event>
 4    1  0.5591986E+002  0.2131227E+02  0.7546771E-02  0.1514853E+00
          2   -1    0    0  503    0  0.00000000000E+00  0.00000000000E+00  0.13074324292E+02  0.13074324292E+02  0.00000000000E+00 0. -1.
         -2   -1    0    0    0  501 -0.00000000000E+00 -0.00000000000E+00 -0.62135183568E+02  0.62135183568E+02  0.00000000000E+00 0.  1.
         21    1    1    2  502  501 -0.14935271486E+02 -0.15203629392E+02 -0.49499628364E+02  0.53892725754E+02  0.00000000000E+00 0.  1.
         21    1    1    2  503  502  0.14935271486E+02  0.15203629392E+02  0.43876908903E+00  0.21316782106E+02  0.00000000000E+00 0. -1.
</event>
<event>
 4    1  0.5591986E+002  0.2320456E+02  0.7546771E-02  0.1489945E+00
          2   -1    0    0  503    0  0.00000000000E+00  0.00000000000E+00  0.70140521618E+02  0.70140521618E+02  0.00000000000E+00 0. -1.
         -2   -1    0    0    0  501 -0.00000000000E+00 -0.00000000000E+00 -0.56541405820E+02  0.56541405820E+02  0.00000000000E+00 0.  1.
         21    1    1    2  502  501  0.80680734892E+01  0.21756789344E+02 -0.52084639454E+02  0.57019833036E+02  0.00000000000E+00 0.  1.
         21    1    1    2  503  502 -0.80680734892E+01 -0.21756789344E+02  0.65683755252E+02  0.69662094401E+02  0.00000000000E+00 0. -1.
</event>
<event>
 4    1  0.5591986E+002  0.2118138E+02  0.7546771E-02  0.1516691E+00
          2   -1    0    0  502    0  0.00000000000E+00  0.00000000000E+00  0.10285392165E+04  0.10285392165E+04  0.00000000000E+00 0. -1.
         -2   -1    0    0    0  501 -0.00000000000E+00 -0.00000000000E+00 -0.45878602200E+00  0.45878602200E+00  0.00000000000E+00 0.  1.
         21    1    1    2  502  503  0.20410177199E+02  0.56635349321E+01  0.62819107215E+03  0.62854806824E+03  0.00000000000E+00 0. -1.
         21    1    1    2  503  501 -0.20410177199E+02 -0.56635349321E+01  0.39988935829E+03  0.40044993424E+03  0.00000000000E+00 0.  1.
</event>
<event>
 4    1  0.5591986E+002  0.2236075E+02  0.7546771E-02  0.1500685E+00
          2   -1    0    0  502    0  0.00000000000E+00  0.00000000000E+00  0.10422341767E+03  0.10422341767E+03  0.00000000000E+00 0.  1.
         -2   -1    0    0    0  501 -0.00000000000E+00 -0.00000000000E+00 -0.79089156602E+01  0.79089156602E+01  0.00000000000E+00 0. -1.
         21    1    1    2  502  503  0.20078381630E+02  0.98418333908E+01  0.83323598980E+02  0.86271810230E+02  0.00000000000E+00 0.  1.
         21    1    1    2  503  501 -0.20078381630E+02 -0.98418333908E+01  0.12990903025E+02  0.25860523096E+02  0.00000000000E+00 0. -1.
</event>
<event>
 4    1  0.5591986E+002  0.2352010E+02  0.7546771E-02  0.1486068E+00
          2   -1    0    0  503    0  0.00000000000E+00  0.00000000000E+00  0.44634286652E+03  0.44634286652E+03  0.00000000000E+00 0.  1.
         -2   -1    0    0    0  501 -0.00000000000E+00 -0.00000000000E+00 -0.23961961840E+01  0.23961961840E+01  0.00000000000E+00 0. -1.
         21    1    1    2  502  501  0.22702782286E+02 -0.61464468763E+01  0.66078383984E+02  0.70139489324E+02  0.00000000000E+00 0. -1.
         21    1    1    2  503  502 -0.22702782286E+02  0.61464468763E+01  0.37786828635E+03  0.37859957338E+03  0.00000000000E+00 0.  1.
</event>
<event>
 4    1  0.5591986E+002  0.6867629E+02  0.7546771E-02  0.1232898E+00
          2   -1    0    0  502    0  0.00000000000E+00  0.00000000000E+00  0.20575165608E+04  0.20575165608E+04  0.00000000000E+00 0. -1.
         -2   -1    0    0    0  501 -0.00000000000E+00 -0.00000000000E+00 -0.24426482124E+01  0.24426482124E+01  0.00000000000E+00 0.  1.
         21    1    1    2  502  503 -0.66583447626E+02 -0.16824884524E+02  0.12830754938E+04  0.12849121195E+04  0.00000000000E+00 0.  1.
         21    1    1    2  503  501  0.66583447626E+02  0.16824884524E+02  0.77199841881E+03  0.77504708946E+03  0.00000000000E+00 0. -1.
</event>
<event>
 4    1  0.5591986E+002  0.3049524E+02  0.7546771E-02  0.1415341E+00
          2   -1    0    0  502    0  0.00000000000E+00  0.00000000000E+00  0.16551052366E+04  0.16551052366E+04  0.00000000000E+00 0.  1.
         -2   -1    0    0    0  501 -0.00000000000E+00 -0.00000000000E+00 -0.14746092639E+01  0.14746092639E+01  0.00000000000E+00 0. -1.
         21    1    1    2  502  503 -0.16282986148E+02 -0.25784176721E+02  0.14784684430E+04  0.14787829105E+04  0.00000000000E+00 0.  1.
         21    1    1    2  503  501  0.16282986148E+02  0.25784176721E+02  0.17516218428E+03  0.17779693531E+03  0.00000000000E+00 0. -1.
</event>
<event>
 4    1  0.5591986E+002  0.2236814E+02  0.7546771E-02  0.1500589E+00
          2   -1    0    0  502    0  0.00000000000E+00  0.00000000000E+00  0.74672351973E+03  0.74672351973E+03  0.00000000000E+00 0.  1.
         -2   -1    0    0    0  501 -0.00000000000E+00 -0.00000000000E+00 -0.15895733518E+01  0.15895733518E+01  0.00000000000E+00 0. -1.
         21    1    1    2  502  503 -0.16068108642E+02 -0.15561161878E+02  0.65714216855E+03  0.65752274756E+03  0.00000000000E+00 0.  1.
         21    1    1    2  503  501  0.16068108642E+02  0.15561161878E+02  0.87991777830E+02  0.90790345522E+02  0.00000000000E+00 0. -1.
</event>
<event>
 4    1  0.5591986E+002  0.2593339E+02  0.7546771E-02  0.1458627E+00
          2   -1    0    0  502    0  0.00000000000E+00  0.00000000000E+00  0.11553859185E+04  0.11553859185E+04  0.00000000000E+00 0. -1.
         -2   -1    0    0    0  501 -0.00000000000E+00 -0.00000000000E+00 -0.67268727275E+00  0.67268727275E+00  0.00000000000E+00 0.  1.
         21    1    1    2  502  503 -0.14603186590E+01  0.25892238559E+02  0.78948400552E+03  0.78990982746E+03  0.00000000000E+00 0. -1.
         21    1    1    2  503  501  0.14603186590E+01 -0.25892238559E+02  0.36522922572E+03  0.36614877833E+03  0.00000000000E+00 0.  1.
</event>
<event>
 4    1  0.5591986E+002  0.3314127E+02  0.7546771E-02  0.1394124E+00
          2   -1    0    0  502    0  0.00000000000E+00  0.00000000000E+00  0.37486929587E+02  0.37486929587E+02  0.00000000000E+00 0.  1.
         -2   -1    0    0    0  501 -0.00000000000E+00 -0.00000000000E+00 -0.29300925399E+02  0.29300925399E+02  0.00000000000E+00 0. -1.
         21    1    1    2  502  503 -0.11312410292E+02 -0.31150814052E+02  0.38505822278E+01  0.33364214755E+02  0.00000000000E+00 0.  1.
         21    1    1    2  503  501  0.11312410292E+02  0.31150814052E+02  0.43354219600E+01  0.33423640231E+02  0.00000000000E+00 0. -1.
</event>
<event>
 4    1  0.5591986E+002  0.6043888E+02  0.7546771E-02  0.1258349E+00
          2   -1    0    0  503    0  0.00000000000E+00  0.00000000000E+00  0.42625859545E+03  0.42625859545E+03  0.00000000000E+00 0. -1.
         -2   -1    0    0    0  501 -0.00000000000E+00 -0.00000000000E+00 -0.41638065987E+02  0.41638065987E+02  0.00000000000E+00 0.  1.
         21    1    1    2  502  501  0.97573369554E+01  0.59646056139E+02 -0.16178100589E+02  0.62566673046E+02  0.00000000000E+00 0.  1.
         21    1    1    2  503  502 -0.97573369554E+01 -0.59646056139E+02  0.40079863005E+03  0.40532998839E+03  0.00000000000E+00 0. -1.
</event>
<event>
 4    1  0.5591986E+002  0.2705479E+02  0.7546771E-02  0.1447058E+00
          2   -1    0    0  502    0  0.00000000000E+00  0.00000000000E+00  0.13710527105E+04  0.13710527105E+04  0.00000000000E+00 0. -1.
         -2   -1    0    0    0  501 -0.00000000000E+00 -0.00000000000E+00 -0.81230484539E+00  0.81230484539E+00  0.00000000000E+00 0.  1.
         21    1    1    2  502  503 -0.14338921281E+02  0.22942477059E+02  0.10867119599E+04  0.10870486860E+04  0.00000000000E+00 0. -1.
         21    1    1    2  503  501  0.14338921281E+02 -0.22942477059E+02  0.28352844580E+03  0.28481632941E+03  0.00000000000E+00 0.  1.
</event>
<event>
 4    1  0.5591986E+002  0.2066178E+02  0.7546771E-02  0.1524149E+00
          2   -1    0    0  502    0  0.00000000000E+00  0.00000000000E+00  0.16076249385E+02  0.16076249385E+02  0.00000000000E+00 0.  1.
         -2   -1    0    0    0  501 -0.00000000000E+00 -0.00000000000E+00 -0.42930480382E+02  0.42930480382E+02  0.00000000000E+00 0. -1.
         21    1    1    2  502  503  0.11201815377E+02 -0.17361693054E+02  0.47943034863E+01  0.21210714259E+02  0.00000000000E+00 0.  1.
         21    1    1    2  503  501 -0.11201815377E+02  0.17361693054E+02 -0.31648534483E+02  0.37796015509E+02  0.00000000000E+00 0. -1.
</event>
<event>
 4    1  0.5591986E+002  0.2279684E+02  0.7546771E-02  0.1495065E+00
          2   -1    0    0  502    0  0.00000000000E+00  0.00000000000E+00  0.32067101750E+02  0.32067101750E+02  0.00000000000E+00 0.  1.
         -2   -1    0    0    0  501 -0.00000000000E+00 -0.00000000000E+00 -0.23145823248E+02  0.23145823248E+02  0.00000000000E+00 0. -1.
         21    1    1    2  502  503 -0.19553895463E+02  0.11719264782E+02 -0.10655208347E+02  0.25164050940E+02  0.00000000000E+00 0. -1.
         21    1    1    2  503  501  0.19553895463E+02 -0.11719264782E+02  0.19576486849E+02  0.30048874058E+02  0.00000000000E+00 0.  1.
</event>
<event>
 4    1  0.5591986E+002  0.3089474E+02  0.7546771E-02  0.1411977E+00
          2   -1    0    0  502    0  0.00000000000E+00  0.00000000000E+00  0.47065347977E+03  0.47065347977E+03  0.00000000000E+00 0.  1.
         -2   -1    0    0    0  501 -0.00000000000E+00 -0.00000000000E+00 -0.32115442713E+01  0.32115442713E+01  0.00000000000E+00 0. -1.
         21    1    1    2  502  503  0.29059731575E+02 -0.10488902572E+02  0.37755446047E+03  0.37881638784E+03  0.00000000000E+00 0.  1.
         21    1    1    2  503  501 -0.29059731575E+02  0.10488902572E+02  0.89887475025E+02  0.95048636196E+02  0.00000000000E+00 0. -1.
</event>
<event>
 4    1  0.5591986E+002  0.2354249E+02  0.7546771E-02  0.1485796E+00
          2   -1    0    0  502    0  0.00000000000E+00  0.00000000000E+00  0.21912800578E+03  0.21912800578E+03  0.00000000000E+00 0. -1.
         -2   -1    0    0    0  501 -0.00000000000E+00 -0.00000000000E+00 -0.17133560394E+02  0.17133560394E+02  0.00000000000E+00 0.  1.
         21    1    1    2  502  503 -0.10427080995E+02 -0.21107458512E+02  0.21006048641E+03  0.21137562957E+03  0.00000000000E+00 0. -1.
         21    1    1    2  503  501  0.10427080995E+02  0.21107458512E+02 -0.80660410281E+01  0.24885936606E+02  0.00000000000E+00 0.  1.
</event>
<event>
 4    1  0.5591986E+002  0.3399683E+02  0.7546771E-02  0.1387756E+00
          2   -1    0    0  502    0  0.00000000000E+00  0.00000000000E+00  0.10708005153E+02  0.10708005153E+02  0.00000000000E+00 0. -1.
         -2   -1    0    0    0  501 -0.00000000000E+00 -0.00000000000E+00 -0.14681644204E+03  0.14681644204E+03  0.00000000000E+00 0.  1.
         21    1    1    2  502  503  0.33816446691E+02 -0.34974682695E+01 -0.27522636525E+02  0.43741054770E+02  0.00000000000E+00 0. -1.
         21    1    1    2  503  501 -0.33816446691E+02  0.34974682695E+01 -0.10858580037E+03  0.11378339243E+03  0.00000000000E+00 0.  1.
</event>
<event>
 4    1  0.5591986E+002  0.2117407E+02  0.7546771E-02  0.1516794E+00
          2   -1    0    0  502    0  0.00000000000E+00  0.00000000000E+00  0.81695749736E+01  0.81695749736E+01  0.00000000000E+00 0.  1.
         -2   -1    0    0    0  501 -0.00000000000E+00 -0.00000000000E+00 -0.12361116204E+03  0.12361116204E+03  0.00000000000E+00 0. -1.
         21    1    1    2  502  503  0.20798775800E+02  0.39689035439E+01 -0.85879532679E+01  0.22849380986E+02  0.00000000000E+00 0.  1.
         21    1    1    2  503  501 -0.20798775800E+02 -0.39689035439E+01 -0.10685363380E+03  0.10893135603E+03  0.00000000000E+00 0. -1.
</event>
<event>
 4    1  0.5591986E+002  0.2491445E+02  0.7546771E-02  0.1469763E+00
          2   -1    0    0  502    0  0.00000000000E+00  0.00000000000E+00  0.85045414094E+03  0.85045414094E+03  0.00000000000E+00 0. -1.
         -2   -1    0    0    0  501 -0.00000000000E+00 -0.00000000000E+00 -0.35511478464E+01  0.35511478464E+01  0.00000000000E+00 0.  1.
         21    1    1    2  502  503  0.95462825496E+00  0.24896150774E+02  0.80405110041E+03  0.80443700916E+03  0.00000000000E+00 0. -1.
         21    1    1    2  503  501 -0.95462825496E+00 -0.24896150774E+02  0.42851892689E+02  0.49568279630E+02  0.00000000000E+00 0.  1.
</event>
<event>
 4    1  0.5591986E+002  0.2424627E+02  0.7546771E-02  0.1477415E+00
          2   -1    0    0  503    0  0.00000000000E+00  0.00000000000E+00  0.58307591463E+03  0.58307591463E+03  0.00000000000E+00 0.  1.
         -2   -1    0    0    0  501 -0.00000000000E+00 -0.00000000000E+00 -0.14067223224E+01  0.14067223224E+01  0.00000000000E+00 0. -1.
         21    1    1    2  502  501  0.15492369105E+02  0.18651226381E+02  0.13529507513E+03  0.13745049691E+03  0.00000000000E+00 0. -1.
         21    1    1    2  503  502 -0.15492369105E+02 -0.18651226381E+02  0.44637411718E+03  0.44703214005E+03  0.00000000000E+00 0.  1.
</event>
<event>
 4    1  0.5591986E+002  0.3549903E+02  0.7546771E-02  0.1377088E+00
          2   -1    0    0  503    0  0.00000000000E+00  0.00000000000E+00  0.92789774528E+03  0.92789774528E+03  0.00000000000E+00 0.  1.
         -2   -1    0    0    0  501 -0.00000000000E+00 -0.00000000000E+00 -0.14210116323E+01  0.14210116323E+01  0.00000000000E+00 0. -1.
         21    1    1    2  502  501  0.28091106789E+02 -0.21704159171E+02  0.36547173327E+03  0.36719173279E+03  0.00000000000E+00 0. -1.
         21    1    1    2  503  502 -0.28091106789E+02  0.21704159171E+02  0.56100500038E+03  0.56212702413E+03  0.00000000000E+00 0.  1.
</event>
<event>
 4    1  0.5591986E+002  0.2498416E+02  0.7546771E-02  0.1468981E+00
          2   -1    0    0  503    0  0.00000000000E+00  0.00000000000E+00  0.27145572359E+02  0.27145572359E+02  0.00000000000E+00 0.  1.
         -2   -1    0    0    0  501 -0.00000000000E+00 -0.00000000000E+00 -0.61693664357E+02  0.61693664357E+02  0.00000000000E+00 0. -1.
         21    1    1    2  502  501  0.11920318400E+02 -0.21957101871E+02 -0.52454657177E+02  0.58100769125E+02  0.00000000000E+00 0. -1.
         21    1    1    2  503  502 -0.11920318400E+02  0.21957101871E+02  0.17906565179E+02  0.30738467591E+02  0.00000000000E+00 0.  1.
</event>
<event>
 4    1  0.5591986E+002  0.2002139E+02  0.7546771E-02  0.1533709E+00
          2   -1    0    0  502    0  0.00000000000E+00  0.00000000000E+00  0.21259391037E+02  0.21259391037E+02  0.00000000000E+00 0.  1.
         -2   -1    0    0    0  501 -0.00000000000E+00 -0.00000000000E+00 -0.19057922695E+03  0.19057922695E+03  0.00000000000E+00 0. -1.
         21    1    1    2  502  503 -0.18295299698E+02 -0.81325299863E+01  0.15883243186E+02  0.25556475679E+02  0.00000000000E+00 0.  1.
         21    1    1    2  503  501  0.18295299698E+02  0.81325299863E+01 -0.18520307910E+03  0.18628214231E+03  0.00000000000E+00 0. -1.
</event>
<event>
 4    1  0.5591986E+002  0.2422639E+02  0.7546771E-02  0.1477647E+00
          2   -1    0    0  503    0  0.00000000000E+00  0.00000000000E+00  0.18186883999E+01  0.18186883999E+01  0.00000000000E+00 0. -1.
         -2   -1    0    0    0  501 -0.00000000000E+00 -0.00000000000E+00 -0.62434769044E+03  0.62434769044E+03  0.00000000000E+00 0.  1.
         21    1    1    2  502  501  0.23462159208E+02 -0.60369544471E+01 -0.52887799131E+03  0.52943257118E+03  0.00000000000E+00 0.  1.
         21    1    1    2  503  502 -0.23462159208E+02  0.60369544471E+01 -0.93651010730E+02  0.96733807660E+02  0.00000000000E+00 0. -1.
</event>
<event>
 4    1  0.5591986E+002  0.2091619E+02  0.7546771E-02  0.1520465E+00
          2   -1    0    0  502    0  0.00000000000E+00  0.00000000000E+00  0.52662520257E+03  0.52662520257E+03  0.00000000000E+00 0. -1.
         -2   -1    0    0    0  501 -0.00000000000E+00 -0.00000000000E+00 -0.24188065198E+01  0.24188065198E+01  0.00000000000E+00 0.  1.
         21    1    1    2  502  503  0.20206748317E+02 -0.54013391963E+01  0.47643961607E+03  0.47689851635E+03  0.00000000000E+00 0. -1.
         21    1    1    2  503  501 -0.20206748317E+02  0.54013391963E+01  0.47766779979E+02  0.52145492732E+02  0.00000000000E+00 0.  1.
</event>
<event>
 4    1  0.5591986E+002  0.2090872E+02  0.7546771E-02  0.1520572E+00
          2   -1    0    0  502    0  0.00000000000E+00  0.00000000000E+00  0.41620084151E+03  0.41620084151E+03  0.00000000000E+00 0. -1.
         -2   -1    0    0    0  501 -0.00000000000E+00 -0.00000000000E+00 -0.10768785904E+01  0.10768785904E+01  0.00000000000E+00 0.  1.
         21    1    1    2  502  503  0.17203357868E+02 -0.11883569563E+02  0.24028179410E+03  0.24118979108E+03  0.00000000000E+00 0. -1.
         21    1    1    2  503  501 -0.17203357868E+02  0.11883569563E+02  0.17484216882E+03  0.17608792902E+03  0.00000000000E+00 0.  1.
</event>
<event>
 4    1  0.5591986E+002  0.2750613E+02  0.7546771E-02  0.1442589E+00
          2   -1    0    0  502    0  0.00000000000E+00  0.00000000000E+00  0.15034614851E+04  0.15034614851E+04  0.00000000000E+00 0. -1.
         -2   -1    0    0    0  501 -0.00000000000E+00 -0.00000000000E+00 -0.94666876646E+00  0.94666876646E+00  0.00000000000E+00 0.  1.
         21    1    1    2  502  503  0.27497914463E+02  0.67228570828E+00  0.12660749957E+04  0.12663737529E+04  0.00000000000E+00 0. -1.
         21    1    1    2  503  501 -0.27497914463E+02 -0.67228570828E+00  0.23643982067E+03  0.23803440102E+03  0.00000000000E+00 0.  1.
</event>
<event>
 4    1  0.5591986E+002  0.2381393E+02  0.7546771E-02  0.1482523E+00
          2   -1    0    0  503    0  0.00000000000E+00  0.00000000000E+00  0.94220877764E+00  0.94220877764E+00  0.00000000000E+00 0. -1.
         -2   -1    0    0    0  501 -0.00000000000E+00 -0.00000000000E+00 -0.66211947550E+03  0.66211947550E+03  0.00000000000E+00 0.  1.
         21    1    1    2  502  501  0.23542545754E+02 -0.35849575892E+01 -0.43058183479E+03  0.43123986346E+03  0.00000000000E+00 0. -1.
         21    1    1    2  503  502 -0.23542545754E+02  0.35849575892E+01 -0.23059543193E+03  0.23182182083E+03  0.00000000000E+00 0.  1.
</event>
<event>
 4    1  0.5591986E+002  0.2001054E+02  0.7546771E-02  0.1533875E+00
          2   -1    0    0  502    0  0.00000000000E+00  0.00000000000E+00  0.15008238803E+02  0.15008238803E+02  0.00000000000E+00 0. -1.
         -2   -1    0    0    0  501 -0.00000000000E+00 -0.00000000000E+00 -0.49459000885E+02  0.49459000885E+02  0.00000000000E+00 0.  1.
         21    1    1    2  502  503 -0.14320111717E+02  0.13976983113E+02  0.46498462322E+01  0.20543678505E+02  0.00000000000E+00 0. -1.
         21    1    1    2  503  501  0.14320111717E+02 -0.13976983113E+02 -0.39100608313E+02  0.43923561183E+02  0.00000000000E+00 0.  1.
</event>
<event>
 4    1  0.5591986E+002  0.3184597E+02  0.7546771E-02  0.1404205E+00
          2   -1    0    0  502    0  0.00000000000E+00  0.00000000000E+00  0.25395457730E+03  0.25395457730E+03  0.00000000000E+00 0. -1.
         -2   -1    0    0    0  501 -0.00000000000E+00 -0.00000000000E+00 -0.71294368266E+01  0.71294368266E+01  0.00000000000E+00 0.  1.
         21    1    1    2  502  503  0.11886240400E+02  0.29544593269E+02  0.20999042973E+03  0.21239149295E+03  0.00000000000E+00 0. -1.
         21    1    1    2  503  501 -0.11886240400E+02 -0.29544593269E+02  0.36834710742E+02  0.48692521168E+02  0.00000000000E+00 0.  1.
</event>
<event>
 4    1  0.5591986E+002  0.2058048E+02  0.7546771E-02  0.1525340E+00
          2   -1    0    0  503    0  0.00000000000E+00  0.00000000000E+00  0.68677777544E+02  0.68677777544E+02  0.00000000000E+00 0.  1.
         -2   -1    0    0    0  501 -0.00000000000E+00 -0.00000000000E+00 -0.17082828869E+02  0.17082828869E+02  0.00000000000E+00 0. -1.
         21    1    1    2  502  501  0.20217102023E+02  0.38503368395E+01 -0.84793348639E+01  0.22258828085E+02  0.00000000000E+00 0. -1.
         21    1    1    2  503  502 -0.20217102023E+02 -0.38503368395E+01  0.60074283539E+02  0.63501778328E+02  0.00000000000E+00 0.  1.
</event>
<event>
 4    1  0.5591986E+002  0.2044560E+02  0.7546771E-02  0.1527329E+00
          2   -1    0    0  502    0  0.00000000000E+00  0.00000000000E+00  0.15102568779E+04  0.15102568779E+04  0.00000000000E+00 0.  1.
         -2   -1    0    0    0  501 -0.00000000000E+00 -0.00000000000E+00 -0.31549206226E+00  0.31549206226E+00  0.00000000000E+00 0. -1.
         21    1    1    2  502  503  0.96691704796E+01 -0.18014708831E+02  0.10195096344E+04  0.10197146254E+04  0.00000000000E+00 0.  1.
         21    1    1    2  503  501 -0.96691704796E+01  0.18014708831E+02  0.49043175146E+03  0.49085774460E+03  0.00000000000E+00 0. -1.
</event>
<event>
 4    1  0.5591986E+002  0.4005551E+02  0.7546771E-02  0.1348161E+00
          2   -1    0    0  503    0  0.00000000000E+00  0.00000000000E+00  0.24000015802E+03  0.24000015802E+03  0.00000000000E+00 0.  1.
         -2   -1    0    0    0  501 -0.00000000000E+00 -0.00000000000E+00 -0.96496927498E+01  0.96496927498E+01  0.00000000000E+00 0. -1.
         21    1    1    2  502  501 -0.39269808679E+02  0.78946855325E+01  0.18436172803E+03  0.18866290228E+03  0.00000000000E+00 0.  1.
         21    1    1    2  503  502  0.39269808679E+02 -0.78946855325E+01  0.45988737234E+02  0.60986948486E+02  0.00000000000E+00 0. -1.
</event>
<event>
 4    1  0.5591986E+002  0.2414856E+02  0.7546771E-02  0.1478558E+00
          2   -1    0    0  502    0  0.00000000000E+00  0.00000000000E+00  0.13213402086E+02  0.13213402086E+02  0.00000000000E+00 0. -1.
         -2   -1    0    0    0  501 -0.00000000000E+00 -0.00000000000E+00 -0.83310362220E+02  0.83310362220E+02  0.00000000000E+00 0.  1.
         21    1    1    2  502  503 -0.23296372897E+02 -0.63586111305E+01 -0.19529085694E+01  0.24227397251E+02  0.00000000000E+00 0. -1.
         21    1    1    2  503  501  0.23296372897E+02  0.63586111305E+01 -0.68144051565E+02  0.72296367055E+02  0.00000000000E+00 0.  1.
</event>
<event>
 4    1  0.5591986E+002  0.3601207E+02  0.7546771E-02  0.1373584E+00
          2   -1    0    0  502    0  0.00000000000E+00  0.00000000000E+00  0.13065091487E+04  0.13065091487E+04  0.00000000000E+00 0.  1.
         -2   -1    0    0    0  501 -0.00000000000E+00 -0.00000000000E+00 -0.25142888167E+02  0.25142888167E+02  0.00000000000E+00 0. -1.
         21    1    1    2  502  503 -0.21212344636E+02 -0.29101648730E+02  0.12932336538E+04  0.12937349623E+04  0.00000000000E+00 0.  1.
         21    1    1    2  503  501  0.21212344636E+02  0.29101648730E+02 -0.11867393188E+02  0.37917074581E+02  0.00000000000E+00 0. -1.
</event>
<event>
 4    1  0.5591986E+002  0.2858868E+02  0.7546771E-02  0.1432271E+00
          2   -1    0    0  502    0  0.00000000000E+00  0.00000000000E+00  0.15716280451E+04  0.15716280451E+04  0.00000000000E+00 0. -1.
         -2   -1    0    0    0  501 -0.00000000000E+00 -0.00000000000E+00 -0.72591780883E+00  0.72591780883E+00  0.00000000000E+00 0.  1.
         21    1    1    2  502  503 -0.17691271559E+02  0.22457324358E+02  0.12041282672E+04  0.12044675987E+04  0.00000000000E+00 0. -1.
         21    1    1    2  503  501  0.17691271559E+02 -0.22457324358E+02  0.36677386010E+03  0.36788636419E+03  0.00000000000E+00 0.  1.
</event>
<event>
 4    1  0.5591986E+002  0.2581301E+02  0.7546771E-02  0.1459910E+00
          2   -1    0    0  503    0  0.00000000000E+00  0.00000000000E+00  0.14704165552E+04  0.14704165552E+04  0.00000000000E+00 0. -1.
         -2   -1    0    0    0  501 -0.00000000000E+00 -0.00000000000E+00 -0.10706183722E+01  0.10706183722E+01  0.00000000000E+00 0.  1.
         21    1    1    2  502  501 -0.77513067792E+01  0.24621712646E+02  0.17592191283E+03  0.17780559863E+03  0.00000000000E+00 0.  1.
         21    1    1    2  503  502  0.77513067792E+01 -0.24621712646E+02  0.12934240240E+04  0.12936815749E+04  0.00000000000E+00 0. -1.
</event>
<event>
 4    1  0.5591986E+002  0.2098720E+02  0.7546771E-02  0.1519448E+00
          2   -1    0    0  503    0  0.00000000000E+00  0.00000000000E+00  0.26193044652E+02  0.26193044652E+02  0.00000000000E+00 0. -1.
         -2   -1    0    0    0  501 -0.00000000000E+00 -0.00000000000E+00 -0.66390705567E+02  0.66390705567E+02  0.00000000000E+00 0.  1.
         21    1    1    2  502  501  0.15299577344E+02 -0.14366125112E+02 -0.60100778290E+02  0.63659768839E+02  0.00000000000E+00 0.  1.
         21    1    1    2  503  502 -0.15299577344E+02  0.14366125112E+02  0.19903117374E+02  0.28923981380E+02  0.00000000000E+00 0. -1.
</event>
<event>
 4    1  0.5591986E+002  0.2527086E+02  0.7546771E-02  0.1465796E+00
          2   -1    0    0  502    0  0.00000000000E+00  0.00000000000E+00  0.18887929659E+04  0.18887929659E+04  0.00000000000E+00 0.  1.
         -2   -1    0    0    0  501 -0.00000000000E+00 -0.00000000000E+00 -0.47814315695E+00  0.47814315695E+00  0.00000000000E+00 0. -1.
         21    1    1    2  502  503  0.25055108711E+02  0.32950934827E+01  0.14553726291E+04  0.14555920121E+04  0.00000000000E+00 0.  1.
         21    1    1    2  503  501 -0.25055108711E+02 -0.32950934827E+01  0.43294219366E+03  0.43367909698E+03  0.00000000000E+00 0. -1.
</event>
<event>
 4    1  0.5591986E+002  0.2587353E+02  0.7546771E-02  0.1459264E+00
          2   -1    0    0  503    0  0.00000000000E+00  0.00000000000E+00  0.44232547820E+02  0.44232547820E+02  0.00000000000E+00 0. -1.
         -2   -1    0    0    0  501 -0.00000000000E+00 -0.00000000000E+00 -0.15284482640E+02  0.15284482640E+02  0.00000000000E+00 0.  1.
         21    1    1    2  502  501  0.26211315444E+01 -0.25740415809E+02  0.11526584965E+02  0.28324927142E+02  0.00000000000E+00 0. -1.
         21    1    1    2  503  502 -0.26211315444E+01  0.25740415809E+02  0.17421480214E+02  0.31192103319E+02  0.00000000000E+00 0.  1.
</event>
<event>
 4    1  0.5591986E+002  0.2381289E+02  0.7546771E-02  0.1482535E+00
          2   -1    0    0  503    0  0.00000000000E+00  0.00000000000E+00  0.55129744391E+03  0.55129744391E+03  0.00000000000E+00 0. -1.
         -2   -1    0    0    0  501 -0.00000000000E+00 -0.00000000000E+00 -0.10372569367E+01  0.10372569367E+01  0.00000000000E+00 0.  1.
         21    1    1    2  502  501 -0.19396507991E+02 -0.13814087905E+02  0.24987137135E+03  0.25100349752E+03  0.00000000000E+00 0.  1.
         21    1    1    2  503  502  0.19396507991E+02  0.13814087905E+02  0.30038881562E+03  0.30133120332E+03  0.00000000000E+00 0. -1.
</event>
<event>
 4    1  0.5591986E+002  0.2211946E+02  0.7546771E-02  0.1503861E+00
          2   -1    0    0  502    0  0.00000000000E+00  0.00000000000E+00  0.14103137625E+03  0.14103137625E+03  0.00000000000E+00 0.  1.
         -2   -1    0    0    0  501 -0.00000000000E+00 -0.00000000000E+00 -0.11278759124E+02  0.11278759124E+02  0.00000000000E+00 0. -1.
         21    1    1    2  502  503 -0.17808313115E+02 -0.13120004729E+02  0.12824584367E+03  0.13013941355E+03  0.00000000000E+00 0.  1.
         21    1    1    2  503  501  0.17808313115E+02  0.13120004729E+02  0.15067734589E+01  0.22170721828E+02  0.00000000000E+00 0. -1.
</event>
<event>
 4    1  0.5591986E+002  0.2690301E+02  0.7546771E-02  0.1448585E+00
          2   -1    0    0  502    0  0.00000000000E+00  0.00000000000E+00  0.28438722513E+04  0.28438722513E+04  0.00000000000E+00 0. -1.
         -2   -1    0    0    0  501 -0.00000000000E+00 -0.00000000000E+00 -0.25689748445E+00  0.25689748445E+00  0.00000000000E+00 0.  1.
         21    1    1    2  502  503 -0.21898010063E+02 -0.15628476477E+02  0.12844964924E+04  0.12847781953E+04  0.00000000000E+00 0.  1.
         21    1    1    2  503  501  0.21898010063E+02  0.15628476477E+02  0.15591188614E+04  0.15593509535E+04  0.00000000000E+00 0. -1.
</event>
<event>
 4    1  0.5591986E+002  0.2067022E+02  0.7546771E-02  0.1524026E+00
          2   -1    0    0  503    0  0.00000000000E+00  0.00000000000E+00  0.59720766003E+02  0.59720766003E+02  0.00000000000E+00 0.  1.
         -2   -1    0    0    0  501 -0.00000000000E+00 -0.00000000000E+00 -0.90472187924E+01  0.90472187924E+01  0.00000000000E+00 0. -1.
         21    1    1    2  502  501  0.13211383206E+02 -0.15897083347E+02  0.96089256762E+01  0.22794502798E+02  0.00000000000E+00 0. -1.
         21    1    1    2  503  502 -0.13211383206E+02  0.15897083347E+02  0.41064621535E+02  0.45973481997E+02  0.00000000000E+00 0.  1.
</event>
<event>
 4    1  0.5591986E+002  0.2526509E+02  0.7546771E-02  0.1465860E+00
          2   -1    0    0  502    0  0.00000000000E+00  0.00000000000E+00  0.30528212103E+02  0.30528212103E+02  0.00000000000E+00 0.  1.
         -2   -1    0    0    0  501 -0.00000000000E+00 -0.00000000000E+00 -0.30545609433E+02  0.30545609433E+02  0.00000000000E+00 0. -1.
         21    1    1    2  502  503  0.23713179168E+02 -0.87183589747E+01  0.17142925689E+02  0.30532025001E+02  0.00000000000E+00 0.  1.
         21    1    1    2  503  501 -0.23713179168E+02  0.87183589747E+01 -0.17160323019E+02  0.30541796535E+02  0.00000000000E+00 0. -1.
</event>
<event>
 4    1  0.5591986E+002  0.2894200E+02  0.7546771E-02  0.1429019E+00
          2   -1    0    0  503    0  0.00000000000E+00  0.00000000000E+00  0.28743634683E+02  0.28743634683E+02  0.00000000000E+00 0. -1.
         -2   -1    0    0    0  501 -0.00000000000E+00 -0.00000000000E+00 -0.17549108204E+03  0.17549108204E+03  0.00000000000E+00 0.  1.
         21    1    1    2  502  501  0.23389189710E+02  0.17046565131E+02 -0.16662771531E+03  0.16912254459E+03  0.00000000000E+00 0.  1.
         21    1    1    2  503  502 -0.23389189710E+02 -0.17046565131E+02  0.19880267955E+02  0.35112172134E+02  0.00000000000E+00 0. -1.
</event>
<event>
 4    1  0.5591986E+002  0.3037876E+02  0.7546771E-02  0.1416333E+00
          2   -1    0    0  502    0  0.00000000000E+00  0.00000000000E+00  0.37837082084E+02  0.37837082084E+02  0.00000000000E+00 0.  1.
         -2   -1    0    0    0  501 -0.00000000000E+00 -0.00000000000E+00 -0.38014940711E+02  0.38014940711E+02  0.00000000000E+00 0. -1.
         21    1    1    2  502  503  0.22068710714E+02  0.20876801714E+02  0.22615881280E+02  0.37872772917E+02  0.00000000000E+00 0.  1.
         21    1    1    2  503  501 -0.22068710714E+02 -0.20876801714E+02 -0.22793739907E+02  0.37979249878E+02  0.00000000000E+00 0. -1.
</event>
<event>
 4    1  0.5591986E+002  0.4500116E+02  0.7546771E-02  0.1321434E+00
          2   -1    0    0  502    0  0.00000000000E+00  0.00000000000E+00  0.38160916303E+04  0.38160916303E+04  0.00000000000E+00 0. -1.
         -2   -1    0    0    0  501 -0.00000000000E+00 -0.00000000000E+00 -0.80977505442E+00  0.80977505442E+00  0.00000000000E+00 0.  1.
         21    1    1    2  502  503 -0.21014224350E+02 -0.39793295358E+02  0.30280556338E+04  0.30283900055E+04  0.00000000000E+00 0. -1.
         21    1    1    2  503  501  0.21014224350E+02  0.39793295358E+02  0.78722622149E+03  0.78851139991E+03  0.00000000000E+00 0.  1.
</event>
<event>
 4    1  0.5591986E+002  0.2162478E+02  0.7546771E-02  0.1510529E+00
          2   -1    0    0  502    0  0.00000000000E+00  0.00000000000E+00  0.39907519431E+02  0.39907519431E+02  0.00000000000E+00 0. -1.
         -2   -1    0    0    0  501 -0.00000000000E+00 -0.00000000000E+00 -0.11946507872E+02  0.11946507872E+02  0.00000000000E+00 0.  1.
         21    1    1    2  502  503 -0.21236298514E+02  0.40805312424E+01  0.17567299907E+02  0.27861104354E+02  0.00000000000E+00 0. -1.
         21    1    1    2  503  501  0.21236298514E+02 -0.40805312424E+01  0.10393711652E+02  0.23992922950E+02  0.00000000000E+00 0.  1.
</event>
<event>
 4    1  0.5591986E+002  0.3977462E+02  0.7546771E-02  0.1349812E+00
          2   -1    0    0  503    0  0.00000000000E+00  0.00000000000E+00  0.13084692347E+04  0.13084692347E+04  0.00000000000E+00 0. -1.
         -2   -1    0    0    0  501 -0.00000000000E+00 -0.00000000000E+00 -0.34153889362E+01  0.34153889362E+01  0.00000000000E+00 0.  1.
         21    1    1    2  502  501  0.16509904631E+02  0.36186230786E+02  0.12532072202E+03  0.13148119111E+03  0.00000000000E+00 0.  1.
         21    1    1    2  503  502 -0.16509904631E+02 -0.36186230786E+02  0.11797331238E+04  0.11804034325E+04  0.00000000000E+00 0. -1.
</event>
<event>
 4    1  0.5591986E+002  0.6953825E+02  0.7546771E-02  0.1230469E+00
          2   -1    0    0  502    0  0.00000000000E+00  0.00000000000E+00  0.30423314518E+03  0.30423314518E+03  0.00000000000E+00 0. -1.
         -2   -1    0    0    0  501 -0.00000000000E+00 -0.00000000000E+00 -0.21367238743E+02  0.21367238743E+02  0.00000000000E+00 0.  1.
         21    1    1    2  502  503  0.72693775308E+01  0.69157248410E+02  0.59039723028E+02  0.91220928260E+02  0.00000000000E+00 0.  1.
         21    1    1    2  503  501 -0.72693775308E+01 -0.69157248410E+02  0.22382618341E+03  0.23437945566E+03  0.00000000000E+00 0. -1.
</event>
<event>
 4    1  0.5591986E+002  0.2179706E+02  0.7546771E-02  0.1508182E+00
          2   -1    0    0  502    0  0.00000000000E+00  0.00000000000E+00  0.28210614968E+01  0.28210614968E+01  0.00000000000E+00 0. -1.
         -2   -1    0    0    0  501 -0.00000000000E+00 -0.00000000000E+00 -0.25360710934E+03  0.25360710934E+03  0.00000000000E+00 0.  1.
         21    1    1    2  502  503 -0.20270842538E+02 -0.80127912519E+01 -0.51082183222E+02  0.55538287006E+02  0.00000000000E+00 0. -1.
         21    1    1    2  503  501  0.20270842538E+02  0.80127912519E+01 -0.19970386463E+03  0.20088988383E+03  0.00000000000E+00 0.  1.
</event>
<event>
 4    1  0.5591986E+002  0.3155482E+02  0.7546771E-02  0.1406550E+00
          2   -1    0    0  502    0  0.00000000000E+00  0.00000000000E+00  0.94140664445E+01  0.94140664445E+01  0.00000000000E+00 0.  1.
         -2   -1    0    0    0  501 -0.00000000000E+00 -0.00000000000E+00 -0.27483800151E+03  0.27483800151E+03  0.00000000000E+00 0. -1.
         21    1    1    2  502  503  0.30781088723E+02 -0.69448895150E+01 -0.21239264138E+02  0.38036998494E+02  0.00000000000E+00 0.  1.
         21    1    1    2  503  501 -0.30781088723E+02  0.69448895150E+01 -0.24418467093E+03  0.24621506946E+03  0.00000000000E+00 0. -1.
</event>
<event>
 4    1  0.5591986E+002  0.2340948E+02  0.7546771E-02  0.1487419E+00
          2   -1    0    0  503    0  0.00000000000E+00  0.00000000000E+00  0.45521385050E+02  0.45521385050E+02  0.00000000000E+00 0. -1.
         -2   -1    0    0    0  501 -0.00000000000E+00 -0.00000000000E+00 -0.17612619906E+02  0.17612619906E+02  0.00000000000E+00 0.  1.
         21    1    1    2  502  501 -0.22993639066E+02  0.43927336202E+01 -0.38044474128E+01  0.23716605285E+02  0.00000000000E+00 0.  1.
         21    1    1    2  503  502  0.22993639066E+02 -0.43927336202E+01  0.31713212557E+02  0.39417399671E+02  0.00000000000E+00 0. -1.
</event>
<event>
 4    1  0.5591986E+002  0.2360630E+02  0.7546771E-02  0.1485022E+00
          2   -1    0    0  503    0  0.00000000000E+00  0.00000000000E+00  0.16883071829E+04  0.16883071829E+04  0.00000000000E+00 0.  1.
         -2   -1    0    0    0  501 -0.00000000000E+00 -0.00000000000E+00 -0.33012029541E+00  0.33012029541E+00  0.00000000000E+00 0. -1.
         21    1    1    2  502  501  0.21041214055E+02  0.10701618169E+02  0.85454618226E+03  0.85487217461E+03  0.00000000000E+00 0.  1.
         21    1    1    2  503  502 -0.21041214055E+02 -0.10701618169E+02  0.83343088035E+03  0.83376512858E+03  0.00000000000E+00 0. -1.
</event>
<event>
 4    1  0.5591986E+002  0.3434073E+02  0.7546771E-02  0.1385258E+00
          2   -1    0    0  503    0  0.00000000000E+00  0.00000000000E+00  0.28876179679E+01  0.28876179679E+01  0.00000000000E+00 0. -1.
         -2   -1    0    0    0  501 -0.00000000000E+00 -0.00000000000E+00 -0.71059744234E+03  0.71059744234E+03  0.00000000000E+00 0.  1.
         21    1    1    2  502  501 -0.33294817130E+02 -0.84107719332E+01 -0.58649939186E+03  0.58750389155E+03  0.00000000000E+00 0.  1.
         21    1    1    2  503  502  0.33294817130E+02  0.84107719332E+01 -0.12121043251E+03  0.12598116876E+03  0.00000000000E+00 0. -1.
</event>
<event>
 4    1  0.5591986E+002  0.2118688E+02  0.7546771E-02  0.1516613E+00
          2   -1    0    0  502    0  0.00000000000E+00  0.00000000000E+00  0.12294899862E+03  0.12294899862E+03  0.00000000000E+00 0.  1.
         -2   -1    0    0    0  501 -0.00000000000E+00 -0.00000000000E+00 -0.87549066913E+01  0.87549066913E+01  0.00000000000E+00 0. -1.
         21    1    1    2  502  503  0.18866420699E+02  0.96406508169E+01  0.10737704189E+03  0.10944730743E+03  0.00000000000E+00 0.  1.
         21    1    1    2  503  501 -0.18866420699E+02 -0.96406508169E+01  0.68170500403E+01  0.22256597885E+02  0.00000000000E+00 0. -1.
</event>
<event>
 4    1  0.5591986E+002  0.2420414E+02  0.7546771E-02  0.1477907E+00
          2   -1    0    0  503    0  0.00000000000E+00  0.00000000000E+00  0.48344149528E+02  0.48344149528E+02  0.00000000000E+00 0.  1.
         -2   -1    0    0    0  501 -0.00000000000E+00 -0.00000000000E+00 -0.29035933703E+02  0.29035933703E+02  0.00000000000E+00 0. -1.
         21    1    1    2  502  501  0.18709190656E+02  0.15355998317E+02  0.39186820568E+02  0.46059172870E+02  0.00000000000E+00 0.  1.
         21    1    1    2  503  502 -0.18709190656E+02 -0.15355998317E+02 -0.19878604743E+02  0.31320910361E+02  0.00000000000E+00 0. -1.
</event>
<event>
 4    1  0.5591986E+002  0.2479825E+02  0.7546771E-02  0.1471073E+00
          2   -1    0    0  502    0  0.00000000000E+00  0.00000000000E+00  0.27715128428E+02  0.27715128428E+02  0.00000000000E+00 0.  1.
         -2   -1    0    0    0  501 -0.00000000000E+00 -0.00000000000E+00 -0.34151659284E+03  0.34151659284E+03  0.00000000000E+00 0. -1.
         21    1    1    2  502  503  0.22307178998E+02  0.10832489401E+02  0.21617167248E+02  0.32897644008E+02  0.00000000000E+00 0.  1.
         21    1    1    2  503  501 -0.22307178998E+02 -0.10832489401E+02 -0.33541863166E+03  0.33633407726E+03  0.00000000000E+00 0. -1.
</event>
<event>
 4    1  0.5591986E+002  0.3901501E+02  0.7546771E-02  0.1354356E+00
          2   -1    0    0  502    0  0.00000000000E+00  0.00000000000E+00  0.13922870337E+04  0.13922870337E+04  0.00000000000E+00 0. -1.
         -2   -1    0    0    0  501 -0.00000000000E+00 -0.00000000000E+00 -0.14416881256E+01  0.14416881256E+01  0.00000000000E+00 0.  1.
         21    1    1    2  502  503  0.14688108629E+02 -0.36144579291E+02  0.10379944240E+04  0.10387273922E+04  0.00000000000E+00 0. -1.
         21    1    1    2  503  501 -0.14688108629E+02  0.36144579291E+02  0.35285092154E+03  0.35500132955E+03  0.00000000000E+00 0.  1.
</event>
<event>
 4    1  0.5591986E+002  0.2880156E+02  0.7546771E-02  0.1430305E+00
          2   -1    0    0  502    0  0.00000000000E+00  0.00000000000E+00  0.26620452733E+04  0.26620452733E+04  0.00000000000E+00 0.  1.
         -2   -1    0    0    0  501 -0.00000000000E+00 -0.00000000000E+00 -0.32028941763E+00  0.32028941763E+00  0.00000000000E+00 0. -1.
         21    1    1    2  502  503 -0.18442304294E+02 -0.22122644348E+02  0.15499497844E+04  0.15502173603E+04  0.00000000000E+00 0.  1.
         21    1    1    2  503  501  0.18442304294E+02  0.22122644348E+02  0.11117751995E+04  0.11121482025E+04  0.00000000000E+00 0. -1.
</event>
<event>
 4    1  0.5591986E+002  0.2549972E+02  0.7546771E-02  0.1463290E+00
          2   -1    0    0  502    0  0.00000000000E+00  0.00000000000E+00  0.75798904726E+01  0.75798904726E+01  0.00000000000E+00 0.  1.
         -2   -1    0    0    0  501 -0.00000000000E+00 -0.00000000000E+00 -0.16721849135E+03  0.16721849135E+03  0.00000000000E+00 0. -1.
         21    1    1    2  502  503 -0.14289799606E+02 -0.21119591218E+02 -0.18827888360E+02  0.31697395572E+02  0.00000000000E+00 0.  1.
         21    1    1    2  503  501  0.14289799606E+02  0.21119591218E+02 -0.14081071251E+03  0.14310098625E+03  0.00000000000E+00 0. -1.
</event>
<event>
 4    1  0.5591986E+002  0.4018552E+02  0.7546771E-02  0.1347402E+00
          2   -1    0    0  502    0  0.00000000000E+00  0.00000000000E+00  0.46087579527E+02  0.46087579527E+02  0.00000000000E+00 0. -1.
         -2   -1    0    0    0  501 -0.00000000000E+00 -0.00000000000E+00 -0.35353456512E+02  0.35353456512E+02  0.00000000000E+00 0.  1.
         21    1    1    2  502  503  0.32678058045E+02  0.23388470829E+02  0.15284197324E+01  0.40214575867E+02  0.00000000000E+00 0.  1.
         21    1    1    2  503  501 -0.32678058045E+02 -0.23388470829E+02  0.92057032822E+01  0.41226460171E+02  0.00000000000E+00 0. -1.
</event>
<event>
 4    1  0.5591986E+002  0.2555325E+02  0.7546771E-02  0.1462708E+00
          2   -1    0    0  503    0  0.00000000000E+00  0.00000000000E+00  0.17640890048E+04  0.17640890048E+04  0.00000000000E+00 0. -1.
         -2   -1    0    0    0  501 -0.00000000000E+00 -0.00000000000E+00 -0.41543020069E+00  0.41543020069E+00  0.00000000000E+00 0.  1.
         21    1    1    2  502  501  0.23087962381E+02  0.10950544912E+02  0.59054875221E+03  0.59110134256E+03  0.00000000000E+00 0.  1.
         21    1    1    2  503  502 -0.23087962381E+02 -0.10950544912E+02  0.11731248224E+04  0.11734030924E+04  0.00000000000E+00 0. -1.
</event>
<event>
 4    1  0.5591986E+002  0.3583652E+02  0.7546771E-02  0.1374776E+00
          2   -1    0    0  502    0  0.00000000000E+00  0.00000000000E+00  0.22959263446E+04  0.22959263446E+04  0.00000000000E+00 0. -1.
         -2   -1    0    0    0  501 -0.00000000000E+00 -0.00000000000E+00 -0.56372910133E+00  0.56372910133E+00  0.00000000000E+00 0.  1.
         21    1    1    2  502  503  0.30709672086E+02 -0.18470852112E+02  0.12487331688E+04  0.12492472866E+04  0.00000000000E+00 0.  1.
         21    1    1    2  503  501 -0.30709672086E+02  0.18470852112E+02  0.10466294467E+04  0.10472427870E+04  0.00000000000E+00 0. -1.
</event>
<event>
 4    1  0.5591986E+002  0.3738960E+02  0.7546771E-02  0.1364501E+00
          2   -1    0    0  503    0  0.00000000000E+00  0.00000000000E+00  0.16939364328E+03  0.16939364328E+03  0.00000000000E+00 0.  1.
         -2   -1    0    0    0  501 -0.00000000000E+00 -0.00000000000E+00 -0.17510155425E+02  0.17510155425E+02  0.00000000000E+00 0. -1.
         21    1    1    2  502  501  0.21603363781E+02  0.30516831082E+02  0.79924177182E+01  0.38234291505E+02  0.00000000000E+00 0. -1.
         21    1    1    2  503  502 -0.21603363781E+02 -0.30516831082E+02  0.14389107013E+03  0.14866950720E+03  0.00000000000E+00 0.  1.
</event>
<event>
 4    1  0.5591986E+002  0.2069208E+02  0.7546771E-02  0.1523707E+00
          2   -1    0    0  502    0  0.00000000000E+00  0.00000000000E+00  0.55357702213E+02  0.55357702213E+02  0.00000000000E+00 0. -1.
         -2   -1    0    0    0  501 -0.00000000000E+00 -0.00000000000E+00 -0.77433641607E+01  0.77433641607E+01  0.00000000000E+00 0.  1.
         21    1    1    2  502  503 -0.20428538775E+02  0.32919285052E+01  0.24876996007E+02  0.32357795353E+02  0.00000000000E+00 0. -1.
         21    1    1    2  503  501  0.20428538775E+02 -0.32919285052E+01  0.22737342045E+02  0.30743271021E+02  0.00000000000E+00 0.  1.
</event>
<event>
 4    1  0.5591986E+002  0.2114110E+02  0.7546771E-02  0.1517260E+00
          2   -1    0    0  502    0  0.00000000000E+00  0.00000000000E+00  0.28445499411E+02  0.28445499411E+02  0.00000000000E+00 0.  1.
         -2   -1    0    0    0  501 -0.00000000000E+00 -0.00000000000E+00 -0.17645266218E+02  0.17645266218E+02  0.00000000000E+00 0. -1.
         21    1    1    2  502  503  0.17227678928E+02  0.12253708866E+02  0.13027467542E+02  0.24832664230E+02  0.00000000000E+00 0.  1.
         21    1    1    2  503  501 -0.17227678928E+02 -0.12253708866E+02 -0.22272343492E+01  0.21258101398E+02  0.00000000000E+00 0. -1.
</event>
<event>
 4    1  0.5591986E+002  0.2297685E+02  0.7546771E-02  0.1492789E+00
          2   -1    0    0  502    0  0.00000000000E+00  0.00000000000E+00  0.11152880690E+04  0.11152880690E+04  0.00000000000E+00 0.  1.
         -2   -1    0    0    0  501 -0.00000000000E+00 -0.00000000000E+00 -0.13121412192E+01  0.13121412192E+01  0.00000000000E+00 0. -1.
         21    1    1    2  502  503  0.13836795375E+02  0.18343358133E+02  0.10033642231E+04  0.10036272714E+04  0.00000000000E+00 0.  1.
         21    1    1    2  503  501 -0.13836795375E+02 -0.18343358133E+02  0.11061170469E+03  0.11297293883E+03  0.00000000000E+00 0. -1.
</event>
<event>
 4    1  0.5591986E+002  0.4097422E+02  0.7546771E-02  0.1342870E+00
          2   -1    0    0  502    0  0.00000000000E+00  0.00000000000E+00  0.13491834243E+04  0.13491834243E+04  0.00000000000E+00 0. -1.
         -2   -1    0    0    0  501 -0.00000000000E+00 -0.00000000000E+00 -0.18977280063E+01  0.18977280063E+01  0.00000000000E+00 0.  1.
         21    1    1    2  502  503  0.23520396493E+02 -0.33551119048E+02  0.10700205921E+04  0.10708048160E+04  0.00000000000E+00 0. -1.
         21    1    1    2  503  501 -0.23520396493E+02  0.33551119048E+02  0.27726510428E+03  0.28027633630E+03  0.00000000000E+00 0.  1.
</event>
<event>
 4    1  0.5591986E+002  0.4292468E+02  0.7546771E-02  0.1332150E+00
          2   -1    0    0  502    0  0.00000000000E+00  0.00000000000E+00  0.55295436611E+03  0.55295436611E+03  0.00000000000E+00 0. -1.
         -2   -1    0    0    0  501 -0.00000000000E+00 -0.00000000000E+00 -0.76667102406E+01  0.76667102406E+01  0.00000000000E+00 0.  1.
         21    1    1    2  502  503  0.70752116726E+01  0.42337564147E+02  0.48341311439E+03  0.48531512146E+03  0.00000000000E+00 0. -1.
         21    1    1    2  503  501 -0.70752116726E+01 -0.42337564147E+02  0.61874541482E+02  0.75305954889E+02  0.00000000000E+00 0.  1.
</event>
<event>
 4    1  0.5591986E+002  0.2040996E+02  0.7546771E-02  0.1527858E+00
          2   -1    0    0  503    0  0.00000000000E+00  0.00000000000E+00  0.65261947544E+02  0.65261947544E+02  0.00000000000E+00 0.  1.
         -2   -1    0    0    0  501 -0.00000000000E+00 -0.00000000000E+00 -0.16484596568E+02  0.16484596568E+02  0.00000000000E+00 0. -1.
         21    1    1    2  502  501 -0.14182496606E+02  0.14677309348E+02 -0.76073020615E+01  0.21781590032E+02  0.00000000000E+00 0. -1.
         21    1    1    2  503  502  0.14182496606E+02 -0.14677309348E+02  0.56384653038E+02  0.59964954080E+02  0.00000000000E+00 0.  1.
</event>
<event>
 4    1  0.5591986E+002  0.2274206E+02  0.7546771E-02  0.1495763E+00
          2   -1    0    0  502    0  0.00000000000E+00  0.00000000000E+00  0.20286976742E+03  0.20286976742E+03  0.00000000000E+00 0.  1.
         -2   -1    0    0    0  501 -0.00000000000E+00 -0.00000000000E+00 -0.25952048890E+01  0.25952048890E+01  0.00000000000E+00 0. -1.
         21    1    1    2  502  503 -0.78121836387E+01 -0.21358163518E+02  0.11378175782E+03  0.11603227902E+03  0.00000000000E+00 0. -1.
         21    1    1    2  503  501  0.78121836387E+01  0.21358163518E+02  0.86492804708E+02  0.89432693285E+02  0.00000000000E+00 0.  1.
</event>
<event>
 4    1  0.5591986E+002  0.2824821E+02  0.7546771E-02  0.1435457E+00
          2   -1    0    0  502    0  0.00000000000E+00  0.00000000000E+00  0.22303178792E+02  0.22303178792E+02  0.00000000000E+00 0. -1.
         -2   -1    0    0    0  501 -0.00000000000E+00 -0.00000000000E+00 -0.17783462287E+03  0.17783462287E+03  0.00000000000E+00 0.  1.
         21    1    1    2  502  503 -0.27741325989E+02 -0.53272880763E+01  0.11672230379E+02  0.30564720315E+02  0.00000000000E+00 0. -1.
         21    1    1    2  503  501  0.27741325989E+02  0.53272880763E+01 -0.16720367446E+03  0.16957308135E+03  0.00000000000E+00 0.  1.
</event>
<event>
 4    1  0.5591986E+002  0.5277334E+02  0.7546771E-02  0.1286576E+00
          2   -1    0    0  503    0  0.00000000000E+00  0.00000000000E+00  0.11937931369E+03  0.11937931369E+03  0.00000000000E+00 0. -1.
         -2   -1    0    0    0  501 -0.00000000000E+00 -0.00000000000E+00 -0.44745748949E+02  0.44745748949E+02  0.00000000000E+00 0.  1.
         21    1    1    2  502  501  0.26615715431E+02  0.45570047180E+02 -0.19456450552E+02  0.56245701844E+02  0.00000000000E+00 0.  1.
         21    1    1    2  503  502 -0.26615715431E+02 -0.45570047180E+02  0.94090015296E+02  0.10787936080E+03  0.00000000000E+00 0. -1.
</event>
<event>
 4    1  0.5591986E+002  0.2829469E+02  0.7546771E-02  0.1435019E+00
          2   -1    0    0  503    0  0.00000000000E+00  0.00000000000E+00  0.23426549197E+01  0.23426549197E+01  0.00000000000E+00 0. -1.
         -2   -1    0    0    0  501 -0.00000000000E+00 -0.00000000000E+00 -0.40036598061E+03  0.40036598061E+03  0.00000000000E+00 0.  1.
         21    1    1    2  502  501 -0.22374173554E+02 -0.17320099056E+02 -0.12196378305E+03  0.12520285081E+03  0.00000000000E+00 0. -1.
         21    1    1    2  503  502  0.22374173554E+02  0.17320099056E+02 -0.27605954264E+03  0.27750578472E+03  0.00000000000E+00 0.  1.
</event>
<event>
 4    1  0.5591986E+002  0.2828258E+02  0.7546771E-02  0.1435133E+00
          2   -1    0    0  502    0  0.00000000000E+00  0.00000000000E+00  0.46576845422E+01  0.46576845422E+01  0.00000000000E+00 0.  1.
         -2   -1    0    0    0  501 -0.00000000000E+00 -0.00000000000E+00 -0.79930319326E+03  0.79930319326E+03  0.00000000000E+00 0. -1.
         21    1    1    2  502  503 -0.66586499039E+01  0.27487572818E+02 -0.41135513434E+02  0.49920283888E+02  0.00000000000E+00 0.  1.
         21    1    1    2  503  501  0.66586499039E+01 -0.27487572818E+02 -0.75350999528E+03  0.75404059391E+03  0.00000000000E+00 0. -1.
</event>
<event>
 4    1  0.5591986E+002  0.3741790E+02  0.7546771E-02  0.1364319E+00
          2   -1    0    0  503    0  0.00000000000E+00  0.00000000000E+00  0.24919483749E+04  0.24919483749E+04  0.00000000000E+00 0. -1.
         -2   -1    0    0    0  501 -0.00000000000E+00 -0.00000000000E+00 -0.23960234119E+01  0.23960234119E+01  0.00000000000E+00 0.  1.
         21    1    1    2  502  501 -0.37404849714E+02 -0.98808077623E+00  0.15358413449E+03  0.15807651771E+03  0.00000000000E+00 0.  1.
         21    1    1    2  503  502  0.37404849714E+02  0.98808077623E+00  0.23359682170E+04  0.23362678806E+04  0.00000000000E+00 0. -1.
</event>
<event>
 4    1  0.5591986E+002  0.2116296E+02  0.7546771E-02  0.1516951E+00
          2   -1    0    0  502    0  0.00000000000E+00  0.00000000000E+00  0.40504401314E+02  0.40504401314E+02  0.00000000000E+00 0.  1.
         -2   -1    0    0    0  501 -0.00000000000E+00 -0.00000000000E+00 -0.19175227986E+02  0.19175227986E+02  0.00000000000E+00 0. -1.
         21    1    1    2  502  503  0.10435629536E+02  0.18411092569E+02  0.30080040250E+02  0.36778791645E+02  0.00000000000E+00 0.  1.
         21    1    1    2  503  501 -0.10435629536E+02 -0.18411092569E+02 -0.87508669226E+01  0.22900837655E+02  0.00000000000E+00 0. -1.
</event>
<event>
 4    1  0.5591986E+002  0.2839091E+02  0.7546771E-02  0.1434115E+00
          2   -1    0    0  503    0  0.00000000000E+00  0.00000000000E+00  0.36227234988E+03  0.36227234988E+03  0.00000000000E+00 0.  1.
         -2   -1    0    0    0  501 -0.00000000000E+00 -0.00000000000E+00 -0.88915429947E+01  0.88915429947E+01  0.00000000000E+00 0. -1.
         21    1    1    2  502  501  0.20592168297E+02  0.19544983069E+02  0.15996796189E+02  0.32587440014E+02  0.00000000000E+00 0. -1.
         21    1    1    2  503  502 -0.20592168297E+02 -0.19544983069E+02  0.33738401069E+03  0.33857645286E+03  0.00000000000E+00 0.  1.
</event>
<event>
 4    1  0.5591986E+002  0.4102742E+02  0.7546771E-02  0.1342568E+00
          2   -1    0    0  502    0  0.00000000000E+00  0.00000000000E+00  0.37109845577E+02  0.37109845577E+02  0.00000000000E+00 0.  1.
         -2   -1    0    0    0  501 -0.00000000000E+00 -0.00000000000E+00 -0.50614867693E+02  0.50614867693E+02  0.00000000000E+00 0. -1.
         21    1    1    2  502  503  0.23820183791E+02 -0.33404312822E+02 -0.20887425108E+02  0.46038394831E+02  0.00000000000E+00 0.  1.
         21    1    1    2  503  501 -0.23820183791E+02  0.33404312822E+02  0.73824029923E+01  0.41686318438E+02  0.00000000000E+00 0. -1.
</event>
<event>
 4    1  0.5591986E+002  0.2582185E+02  0.7546771E-02  0.1459816E+00
          2   -1    0    0  502    0  0.00000000000E+00  0.00000000000E+00  0.13199239052E+03  0.13199239052E+03  0.00000000000E+00 0. -1.
         -2   -1    0    0    0  501 -0.00000000000E+00 -0.00000000000E+00 -0.10920539577E+02  0.10920539577E+02  0.00000000000E+00 0.  1.
         21    1    1    2  502  503 -0.22898019492E+02  0.11935178059E+02  0.11292017140E+03  0.11583493809E+03  0.00000000000E+00 0. -1.
         21    1    1    2  503  501  0.22898019492E+02 -0.11935178059E+02  0.81516795400E+01  0.27077992009E+02  0.00000000000E+00 0.  1.
</event>
<event>
 4    1  0.5591986E+002  0.2889280E+02  0.7546771E-02  0.1429468E+00
          2   -1    0    0  503    0  0.00000000000E+00  0.00000000000E+00  0.15028787202E+04  0.15028787202E+04  0.00000000000E+00 0. -1.
         -2   -1    0    0    0  501 -0.00000000000E+00 -0.00000000000E+00 -0.66850334728E+00  0.66850334728E+00  0.00000000000E+00 0.  1.
         21    1    1    2  502  501 -0.27542697622E+02 -0.87289007966E+01  0.44196771440E+03  0.44291111352E+03  0.00000000000E+00 0.  1.
         21    1    1    2  503  502  0.27542697622E+02  0.87289007966E+01  0.10602425024E+04  0.10606361100E+04  0.00000000000E+00 0. -1.
</event>
<event>
 4    1  0.5591986E+002  0.2776176E+02  0.7546771E-02  0.1440103E+00
          2   -1    0    0  503    0  0.00000000000E+00  0.00000000000E+00  0.17531895430E+04  0.17531895430E+04  0.00000000000E+00 0.  1.
         -2   -1    0    0    0  501 -0.00000000000E+00 -0.00000000000E+00 -0.16245984810E+01  0.16245984810E+01  0.00000000000E+00 0. -1.
         21    1    1    2  502  501  0.94805531919E+01 -0.26092807635E+02  0.16251340176E+04  0.16253711240E+04  0.00000000000E+00 0.  1.
         21    1    1    2  503  502 -0.94805531919E+01  0.26092807635E+02  0.12643092696E+03  0.12944301755E+03  0.00000000000E+00 0. -1.
</event>
<event>
 4    1  0.5591986E+002  0.2065628E+02  0.7546771E-02  0.1524229E+00
          2   -1    0    0  503    0  0.00000000000E+00  0.00000000000E+00  0.56659686844E+03  0.56659686844E+03  0.00000000000E+00 0.  1.
         -2   -1    0    0    0  501 -0.00000000000E+00 -0.00000000000E+00 -0.90410536591E+00  0.90410536591E+00  0.00000000000E+00 0. -1.
         21    1    1    2  502  501  0.19197828947E+02 -0.76239955944E+01  0.39882542099E+03  0.39935998594E+03  0.00000000000E+00 0.  1.
         21    1    1    2  503  502 -0.19197828947E+02  0.76239955944E+01  0.16686734209E+03  0.16814098786E+03  0.00000000000E+00 0. -1.
</event>
<event>
 4    1  0.5591986E+002  0.2069354E+02  0.7546771E-02  0.1523686E+00
          2   -1    0    0  503    0  0.00000000000E+00  0.00000000000E+00  0.51674176348E+01  0.51674176348E+01  0.00000000000E+00 0. -1.
         -2   -1    0    0    0  501 -0.00000000000E+00 -0.00000000000E+00 -0.87257793239E+02  0.87257793239E+02  0.00000000000E+00 0.  1.
         21    1    1    2  502  501 -0.19344187566E+02 -0.73501608258E+01 -0.51408420146E+02  0.55417038162E+02  0.00000000000E+00 0. -1.
         21    1    1    2  503  502  0.19344187566E+02  0.73501608258E+01 -0.30681955458E+02  0.37008172712E+02  0.00000000000E+00 0.  1.
</event>
<event>
 4    1  0.5591986E+002  0.2512038E+02  0.7546771E-02  0.1467461E+00
          2   -1    0    0  503    0  0.00000000000E+00  0.00000000000E+00  0.36964908444E+03  0.36964908444E+03  0.00000000000E+00 0.  1.
         -2   -1    0    0    0  501 -0.00000000000E+00 -0.00000000000E+00 -0.12416373742E+02  0.12416373742E+02  0.00000000000E+00 0. -1.
         21    1    1    2  502  501 -0.15584142853E+02 -0.19701978726E+02  0.12014521160E+01  0.25149094643E+02  0.00000000000E+00 0. -1.
         21    1    1    2  503  502  0.15584142853E+02  0.19701978726E+02  0.35603125858E+03  0.35691636354E+03  0.00000000000E+00 0.  1.
</event>
<event>
 4    1  0.5591986E+002  0.2114696E+02  0.7546771E-02  0.1517177E+00
          2   -1    0    0  502    0  0.00000000000E+00  0.00000000000E+00  0.18632126735E+03  0.18632126735E+03  0.00000000000E+00 0.  1.
         -2   -1    0    0    0  501 -0.00000000000E+00 -0.00000000000E+00 -0.58449164464E+01  0.58449164464E+01  0.00000000000E+00 0. -1.
         21    1    1    2  502  503 -0.10706454897E+02  0.18236387660E+02  0.16400131478E+03  0.16535907976E+03  0.00000000000E+00 0.  1.
         21    1    1    2  503  501  0.10706454897E+02 -0.18236387660E+02  0.16475036129E+02  0.26807104036E+02  0.00000000000E+00 0. -1.
</event>
<event>
 4    1  0.5591986E+002  0.2180885E+02  0.7546771E-02  0.1508023E+00
          2   -1    0    0  503    0  0.00000000000E+00  0.00000000000E+00  0.24307938783E+02  0.24307938783E+02  0.00000000000E+00 0.  1.
         -2   -1    0    0    0  501 -0.00000000000E+00 -0.00000000000E+00 -0.19723448632E+02  0.19723448632E+02  0.00000000000E+00 0. -1.
         21    1    1    2  502  501  0.87805468911E+01 -0.19963168404E+02  0.32958250578E+00  0.21811343862E+02  0.00000000000E+00 0.  1.
         21    1    1    2  503  502 -0.87805468911E+01  0.19963168404E+02  0.42549076450E+01  0.22220043553E+02  0.00000000000E+00 0. -1.
</event>
<event>
 4    1  0.5591986E+002  0.5010513E+02  0.7546771E-02  0.1297717E+00
          2   -1    0    0  502    0  0.00000000000E+00  0.00000000000E+00  0.12188817156E+04  0.12188817156E+04  0.00000000000E+00 0. -1.
         -2   -1    0    0    0  501 -0.00000000000E+00 -0.00000000000E+00 -0.24471868416E+01  0.24471868416E+01  0.00000000000E+00 0.  1.
         21    1    1    2  502  503 -0.55627667484E+01  0.49795374441E+02  0.85121418133E+03  0.85268757830E+03  0.00000000000E+00 0. -1.
         21    1    1    2  503  501  0.55627667484E+01 -0.49795374441E+02  0.36522034747E+03  0.36864132418E+03  0.00000000000E+00 0.  1.
</event>
<event>
 4    1  0.5591986E+002  0.2670785E+02  0.7546771E-02  0.1450565E+00
          2   -1    0    0  503    0  0.00000000000E+00  0.00000000000E+00  0.21390571240E+03  0.21390571240E+03  0.00000000000E+00 0. -1.
         -2   -1    0    0    0  501 -0.00000000000E+00 -0.00000000000E+00 -0.68788376007E+01  0.68788376007E+01  0.00000000000E+00 0.  1.
         21    1    1    2  502  501  0.10601214257E+02 -0.24513736531E+02  0.24274778280E+02  0.36091188440E+02  0.00000000000E+00 0. -1.
         21    1    1    2  503  502 -0.10601214257E+02  0.24513736531E+02  0.18275209652E+03  0.18469336156E+03  0.00000000000E+00 0.  1.
</event>
<event>
 4    1  0.5591986E+002  0.2531770E+02  0.7546771E-02  0.1465280E+00
          2   -1    0    0  502    0  0.00000000000E+00  0.00000000000E+00  0.50109496780E+00  0.50109496780E+00  0.00000000000E+00 0. -1.
         -2   -1    0    0    0  501 -0.00000000000E+00 -0.00000000000E+00 -0.19221235646E+04  0.19221235646E+04  0.00000000000E+00 0.  1.
         21    1    1    2  502  503 -0.25165553556E+02  0.27714669580E+01 -0.40482588006E+03  0.40561678871E+03  0.00000000000E+00 0. -1.
         21    1    1    2  503  501  0.25165553556E+02 -0.27714669580E+01 -0.15167965896E+04  0.15170078709E+04  0.00000000000E+00 0.  1.
</event>
<event>
 4    1  0.5591986E+002  0.4319909E+02  0.7546771E-02  0.1330694E+00
          2   -1    0    0  503    0  0.00000000000E+00  0.00000000000E+00  0.29942058006E+03  0.29942058006E+03  0.00000000000E+00 0.  1.
         -2   -1    0    0    0  501 -0.00000000000E+00 -0.00000000000E+00 -0.15795698429E+02  0.15795698429E+02  0.00000000000E+00 0. -1.
         21    1    1    2  502  501  0.41579737810E+02  0.11716962006E+02  0.19178958141E+02  0.47265148158E+02  0.00000000000E+00 0. -1.
         21    1    1    2  503  502 -0.41579737810E+02 -0.11716962006E+02  0.26444592349E+03  0.26795113033E+03  0.00000000000E+00 0.  1.
</event>
<event>
 4    1  0.5591986E+002  0.2361925E+02  0.7546771E-02  0.1484865E+00
          2   -1    0    0  503    0  0.00000000000E+00  0.00000000000E+00  0.24470137055E+02  0.24470137055E+02  0.00000000000E+00 0.  1.
         -2   -1    0    0    0  501 -0.00000000000E+00 -0.00000000000E+00 -0.84025339843E+02  0.84025339843E+02  0.00000000000E+00 0. -1.
         21    1    1    2  502  501  0.17977811856E+02 -0.15318859038E+02 -0.76084888887E+02  0.79666677340E+02  0.00000000000E+00 0. -1.
         21    1    1    2  503  502 -0.17977811856E+02  0.15318859038E+02  0.16529686100E+02  0.28828799558E+02  0.00000000000E+00 0.  1.
</event>
<event>
 4    1  0.5591986E+002  0.4381469E+02  0.7546771E-02  0.1327474E+00
          2   -1    0    0  502    0  0.00000000000E+00  0.00000000000E+00  0.15890935877E+03  0.15890935877E+03  0.00000000000E+00 0. -1.
         -2   -1    0    0    0  501 -0.00000000000E+00 -0.00000000000E+00 -0.37710995349E+03  0.37710995349E+03  0.00000000000E+00 0.  1.
         21    1    1    2  502  503 -0.38866603963E+02 -0.20226576275E+02  0.15458159855E+03  0.16067108607E+03  0.00000000000E+00 0. -1.
         21    1    1    2  503  501  0.38866603963E+02  0.20226576275E+02 -0.37278219327E+03  0.37534822619E+03  0.00000000000E+00 0.  1.
</event>
<event>
 4    1  0.5591986E+002  0.2897894E+02  0.7546771E-02  0.1428682E+00
          2   -1    0    0  503    0  0.00000000000E+00  0.00000000000E+00  0.60423855192E+03  0.60423855192E+03  0.00000000000E+00 0. -1.
         -2   -1    0    0    0  501 -0.00000000000E+00 -0.00000000000E+00 -0.43846987007E+01  0.43846987007E+01  0.00000000000E+00 0.  1.
         21    1    1    2  502  501 -0.18043390733E+02  0.22676304424E+02  0.48426471410E+02  0.56434934789E+02  0.00000000000E+00 0.  1.
         21    1    1    2  503  502  0.18043390733E+02 -0.22676304424E+02  0.55142738181E+03  0.55218831583E+03  0.00000000000E+00 0. -1.
</event>
<event>
 4    1  0.5591986E+002  0.2046134E+02  0.7546771E-02  0.1527096E+00
          2   -1    0    0  503    0  0.00000000000E+00  0.00000000000E+00  0.21666970171E+03  0.21666970171E+03  0.00000000000E+00 0. -1.
         -2   -1    0    0    0  501 -0.00000000000E+00 -0.00000000000E+00 -0.75252437519E+01  0.75252437519E+01  0.00000000000E+00 0.  1.
         21    1    1    2  502  501 -0.20321505460E+02 -0.23880339115E+01  0.79323046893E+01  0.21945107605E+02  0.00000000000E+00 0.  1.
         21    1    1    2  503  502  0.20321505460E+02  0.23880339115E+01  0.20121215327E+03  0.20224983786E+03  0.00000000000E+00 0. -1.
</event>
<event>
 4    1  0.5591986E+002  0.2753137E+02  0.7546771E-02  0.1442342E+00
          2   -1    0    0  503    0  0.00000000000E+00  0.00000000000E+00  0.11931225607E+04  0.11931225607E+04  0.00000000000E+00 0.  1.
         -2   -1    0    0    0  501 -0.00000000000E+00 -0.00000000000E+00 -0.10055492473E+01  0.10055492473E+01  0.00000000000E+00 0. -1.
         21    1    1    2  502  501 -0.53850400125E+01  0.26999590266E+02  0.23375432829E+03  0.23537005444E+03  0.00000000000E+00 0. -1.
         21    1    1    2  503  502  0.53850400125E+01 -0.26999590266E+02  0.95836268316E+03  0.95875805551E+03  0.00000000000E+00 0.  1.
</event>
<event>
 4    1  0.5591986E+002  0.2533663E+02  0.7546771E-02  0.1465073E+00
          2   -1    0    0  502    0  0.00000000000E+00  0.00000000000E+00  0.63708692528E+03  0.63708692528E+03  0.00000000000E+00 0. -1.
         -2   -1    0    0    0  501 -0.00000000000E+00 -0.00000000000E+00 -0.29703078739E+01  0.29703078739E+01  0.00000000000E+00 0.  1.
         21    1    1    2  502  503 -0.24775318632E+02 -0.53036298060E+01  0.56914727552E+02  0.62299527404E+02  0.00000000000E+00 0.  1.
         21    1    1    2  503  501  0.24775318632E+02  0.53036298060E+01  0.57720188985E+03  0.57775770575E+03  0.00000000000E+00 0. -1.
</event>
<event>
 4    1  0.5591986E+002  0.2346316E+02  0.7546771E-02  0.1486763E+00
          2   -1    0    0  503    0  0.00000000000E+00  0.00000000000E+00  0.16901145755E+04  0.16901145755E+04  0.00000000000E+00 0. -1.
         -2   -1    0    0    0  501 -0.00000000000E+00 -0.00000000000E+00 -0.70836214970E+00  0.70836214970E+00  0.00000000000E+00 0.  1.
         21    1    1    2  502  501  0.21835058031E+02  0.85877863200E+01  0.22335985031E+03  0.22458883001E+03  0.00000000000E+00 0.  1.
         21    1    1    2  503  502 -0.21835058031E+02 -0.85877863200E+01  0.14660463630E+04  0.14662341076E+04  0.00000000000E+00 0. -1.
</event>
<event>
 4    1  0.5591986E+002  0.2279307E+02  0.7546771E-02  0.1495113E+00
          2   -1    0    0  502    0  0.00000000000E+00  0.00000000000E+00  0.20546136042E+02  0.20546136042E+02  0.00000000000E+00 0. -1.
         -2   -1    0    0    0  501 -0.00000000000E+00 -0.00000000000E+00 -0.16443390767E+03  0.16443390767E+03  0.00000000000E+00 0.  1.
         21    1    1    2  502  503 -0.24784575698E+01  0.22657921603E+02  0.13138164309E+02  0.26308468688E+02  0.00000000000E+00 0. -1.
         21    1    1    2  503  501  0.24784575698E+01 -0.22657921603E+02 -0.15702593594E+03  0.15867157503E+03  0.00000000000E+00 0.  1.
</event>
<event>
 4    1  0.5591986E+002  0.2169643E+02  0.7546771E-02  0.1509550E+00
          2   -1    0    0  503    0  0.00000000000E+00  0.00000000000E+00  0.15428787818E+04  0.15428787818E+04  0.00000000000E+00 0. -1.
         -2   -1    0    0    0  501 -0.00000000000E+00 -0.00000000000E+00 -0.51206091645E+00  0.51206091645E+00  0.00000000000E+00 0.  1.
         21    1    1    2  502  501  0.91535065244E+01  0.19671000377E+02  0.28058341474E+03  0.28142101479E+03  0.00000000000E+00 0.  1.
         21    1    1    2  503  502 -0.91535065244E+01 -0.19671000377E+02  0.12617833061E+04  0.12619698279E+04  0.00000000000E+00 0. -1.
</event>
<event>
 4    1  0.5591986E+002  0.2677934E+02  0.7546771E-02  0.1449837E+00
          2   -1    0    0  502    0  0.00000000000E+00  0.00000000000E+00  0.20081259966E+02  0.20081259966E+02  0.00000000000E+00 0.  1.
         -2   -1    0    0    0  501 -0.00000000000E+00 -0.00000000000E+00 -0.78065990411E+02  0.78065990411E+02  0.00000000000E+00 0. -1.
         21    1    1    2  502  503 -0.21623953054E+02 -0.15796763458E+02  0.71541668709E+01  0.27718498968E+02  0.00000000000E+00 0.  1.
         21    1    1    2  503  501  0.21623953054E+02  0.15796763458E+02 -0.65138897317E+02  0.70428751409E+02  0.00000000000E+00 0. -1.
</event>
<event>
 4    1  0.5591986E+002  0.2679496E+02  0.7546771E-02  0.1449679E+00
          2   -1    0    0  503    0  0.00000000000E+00  0.00000000000E+00  0.14003993949E+03  0.14003993949E+03  0.00000000000E+00 0. -1.
         -2   -1    0    0    0  501 -0.00000000000E+00 -0.00000000000E+00 -0.51673440205E+01  0.51673440205E+01  0.00000000000E+00 0.  1.
         21    1    1    2  502  501  0.15002629599E+01  0.26752926956E+02  0.73860000909E+02  0.78570157337E+02  0.00000000000E+00 0.  1.
         21    1    1    2  503  502 -0.15002629599E+01 -0.26752926956E+02  0.61012594564E+02  0.66637126177E+02  0.00000000000E+00 0. -1.
</event>
<event>
 4    1  0.5591986E+002  0.2821364E+02  0.7546771E-02  0.1435783E+00
          2   -1    0    0  502    0  0.00000000000E+00  0.00000000000E+00  0.13283357848E+04  0.13283357848E+04  0.00000000000E+00 0. -1.
         -2   -1    0    0    0  501 -0.00000000000E+00 -0.00000000000E+00 -0.11618646897E+01  0.11618646897E+01  0.00000000000E+00 0.  1.
         21    1    1    2  502  503  0.14052438339E+02  0.24465050933E+02  0.11261639454E+04  0.11265173064E+04  0.00000000000E+00 0. -1.
         21    1    1    2  503  501 -0.14052438339E+02 -0.24465050933E+02  0.20100997470E+03  0.20298034306E+03  0.00000000000E+00 0.  1.
</event>
<event>
 4    1  0.5591986E+002  0.3547902E+02  0.7546771E-02  0.1377226E+00
          2   -1    0    0  503    0  0.00000000000E+00  0.00000000000E+00  0.13957380487E+03  0.13957380487E+03  0.00000000000E+00 0. -1.
         -2   -1    0    0    0  501 -0.00000000000E+00 -0.00000000000E+00 -0.20238212029E+02  0.20238212029E+02  0.00000000000E+00 0.  1.
         21    1    1    2  502  501  0.28305379142E+02  0.21390802854E+02  0.17255926274E+00  0.35479440691E+02  0.00000000000E+00 0.  1.
         21    1    1    2  503  502 -0.28305379142E+02 -0.21390802854E+02  0.11916303357E+03  0.12433257620E+03  0.00000000000E+00 0. -1.
</event>
<event>
 4    1  0.5591986E+002  0.2035163E+02  0.7546771E-02  0.1528727E+00
          2   -1    0    0  502    0  0.00000000000E+00  0.00000000000E+00  0.27161413603E+03  0.27161413603E+03  0.00000000000E+00 0. -1.
         -2   -1    0    0    0  501 -0.00000000000E+00 -0.00000000000E+00 -0.47441510451E+01  0.47441510451E+01  0.00000000000E+00 0.  1.
         21    1    1    2  502  503  0.18558701640E+02  0.83524481279E+01  0.24726049403E+03  0.24809663582E+03  0.00000000000E+00 0. -1.
         21    1    1    2  503  501 -0.18558701640E+02 -0.83524481279E+01  0.19609490955E+02  0.28261651257E+02  0.00000000000E+00 0.  1.
</event>
<event>
 4    1  0.5591986E+002  0.3471955E+02  0.7546771E-02  0.1382546E+00
          2   -1    0    0  503    0  0.00000000000E+00  0.00000000000E+00  0.51864151063E+02  0.51864151063E+02  0.00000000000E+00 0. -1.
         -2   -1    0    0    0  501 -0.00000000000E+00 -0.00000000000E+00 -0.43006979112E+02  0.43006979112E+02  0.00000000000E+00 0.  1.
         21    1    1    2  502  501  0.15785814471E+02 -0.30923375164E+02 -0.27728630778E+02  0.44433366234E+02  0.00000000000E+00 0.  1.
         21    1    1    2  503  502 -0.15785814471E+02  0.30923375164E+02  0.36585802730E+02  0.50437763941E+02  0.00000000000E+00 0. -1.
</event>
<event>
 4    1  0.5591986E+002  0.2763681E+02  0.7546771E-02  0.1441314E+00
          2   -1    0    0  502    0  0.00000000000E+00  0.00000000000E+00  0.16716766679E+04  0.16716766679E+04  0.00000000000E+00 0. -1.
         -2   -1    0    0    0  501 -0.00000000000E+00 -0.00000000000E+00 -0.49171903885E+00  0.49171903885E+00  0.00000000000E+00 0.  1.
         21    1    1    2  502  503 -0.17817541955E+02 -0.21126492435E+02  0.10580686044E+04  0.10584294804E+04  0.00000000000E+00 0. -1.
         21    1    1    2  503  501  0.17817541955E+02  0.21126492435E+02  0.61311634448E+03  0.61373890650E+03  0.00000000000E+00 0.  1.
</event>
<event>
 4    1  0.5591986E+002  0.2307000E+02  0.7546771E-02  0.1491621E+00
          2   -1    0    0  503    0  0.00000000000E+00  0.00000000000E+00  0.15553856119E+03  0.15553856119E+03  0.00000000000E+00 0.  1.
         -2   -1    0    0    0  501 -0.00000000000E+00 -0.00000000000E+00 -0.26892378462E+02  0.26892378462E+02  0.00000000000E+00 0. -1.
         21    1    1    2  502  501 -0.21223601518E+02  0.90434330464E+01 -0.20891821614E+02  0.31123835770E+02  0.00000000000E+00 0. -1.
         21    1    1    2  503  502  0.21223601518E+02 -0.90434330464E+01  0.14953800435E+03  0.15130710389E+03  0.00000000000E+00 0.  1.
</event>
<event>
 4    1  0.5591986E+002  0.2332645E+02  0.7546771E-02  0.1488439E+00
          2   -1    0    0  502    0  0.00000000000E+00  0.00000000000E+00  0.47307867520E+01  0.47307867520E+01  0.00000000000E+00 0. -1.
         -2   -1    0    0    0  501 -0.00000000000E+00 -0.00000000000E+00 -0.29463941562E+03  0.29463941562E+03  0.00000000000E+00 0.  1.
         21    1    1    2  502  503 -0.23065029975E+02 -0.34824684396E+01 -0.28081680155E+02  0.36506218025E+02  0.00000000000E+00 0. -1.
         21    1    1    2  503  501  0.23065029975E+02  0.34824684396E+01 -0.26182694872E+03  0.26286398435E+03  0.00000000000E+00 0.  1.
</event>
<event>
 4    1  0.5591986E+002  0.2261502E+02  0.7546771E-02  0.1497390E+00
          2   -1    0    0  503    0  0.00000000000E+00  0.00000000000E+00  0.17974725006E+03  0.17974725006E+03  0.00000000000E+00 0.  1.
         -2   -1    0    0    0  501 -0.00000000000E+00 -0.00000000000E+00 -0.35941815822E+01  0.35941815822E+01  0.00000000000E+00 0. -1.
         21    1    1    2  502  501  0.21811335943E+02 -0.59753585568E+01  0.46232838459E+02  0.51467607652E+02  0.00000000000E+00 0. -1.
         21    1    1    2  503  502 -0.21811335943E+02  0.59753585568E+01  0.12992023002E+03  0.13187382399E+03  0.00000000000E+00 0.  1.
</event>
<event>
 4    1  0.5591986E+002  0.2445240E+02  0.7546771E-02  0.1475024E+00
          2   -1    0    0  503    0  0.00000000000E+00  0.00000000000E+00  0.19561497901E+02  0.19561497901E+02  0.00000000000E+00 0. -1.
         -2   -1    0    0    0  501 -0.00000000000E+00 -0.00000000000E+00 -0.30696937939E+02  0.30696937939E+02  0.00000000000E+00 0.  1.
         21    1    1    2  502  501  0.14391025816E+02 -0.19769121418E+02 -0.72079556489E+01  0.25492634433E+02  0.00000000000E+00 0.  1.
         21    1    1    2  503  502 -0.14391025816E+02  0.19769121418E+02 -0.39274843885E+01  0.24765801407E+02  0.00000000000E+00 0. -1.
</event>
<event>
 4    1  0.5591986E+002  0.2406613E+02  0.7546771E-02  0.1479528E+00
          2   -1    0    0  502    0  0.00000000000E+00  0.00000000000E+00  0.17132074696E+02  0.17132074696E+02  0.00000000000E+00 0.  1.
         -2   -1    0    0    0  501 -0.00000000000E+00 -0.00000000000E+00 -0.78560108192E+02  0.78560108192E+02  0.00000000000E+00 0. -1.
         21    1    1    2  502  503  0.16841543604E+02  0.17191306031E+02  0.53985681776E+01  0.24664207516E+02  0.00000000000E+00 0.  1.
         21    1    1    2  503  501 -0.16841543604E+02 -0.17191306031E+02 -0.66826601674E+02  0.71027975371E+02  0.00000000000E+00 0. -1.
</event>
<event>
 4    1  0.5591986E+002  0.2746314E+02  0.7546771E-02  0.1443010E+00
          2   -1    0    0  503    0  0.00000000000E+00  0.00000000000E+00  0.14837160667E+04  0.14837160667E+04  0.00000000000E+00 0.  1.
         -2   -1    0    0    0  501 -0.00000000000E+00 -0.00000000000E+00 -0.11004306757E+01  0.11004306757E+01  0.00000000000E+00 0. -1.
         21    1    1    2  502  501 -0.13159232806E+02 -0.24105156964E+02  0.19673295816E+03  0.19864058202E+03  0.00000000000E+00 0. -1.
         21    1    1    2  503  502  0.13159232806E+02  0.24105156964E+02  0.12858826779E+04  0.12861759154E+04  0.00000000000E+00 0.  1.
</event>
<event>
 4    1  0.5591986E+002  0.2721246E+02  0.7546771E-02  0.1445486E+00
          2   -1    0    0  502    0  0.00000000000E+00  0.00000000000E+00  0.13653087089E+04  0.13653087089E+04  0.00000000000E+00 0.  1.
         -2   -1    0    0    0  501 -0.00000000000E+00 -0.00000000000E+00 -0.13088500056E+01  0.13088500056E+01  0.00000000000E+00 0. -1.
         21    1    1    2  502  503  0.25989592404E+02 -0.80659119773E+01  0.15909915138E+03  0.16140959643E+03  0.00000000000E+00 0. -1.
         21    1    1    2  503  501 -0.25989592404E+02  0.80659119773E+01  0.12049007075E+04  0.12052079624E+04  0.00000000000E+00 0.  1.
</event>
<event>
 4    1  0.5591986E+002  0.2272473E+02  0.7546771E-02  0.1495984E+00
          2   -1    0    0  503    0  0.00000000000E+00  0.00000000000E+00  0.25330267183E+04  0.25330267183E+04  0.00000000000E+00 0. -1.
         -2   -1    0    0    0  501 -0.00000000000E+00 -0.00000000000E+00 -0.20883466414E+00  0.20883466414E+00  0.00000000000E+00 0.  1.
         21    1    1    2  502  501 -0.21859740590E+02  0.62100781865E+01  0.14616629172E+04  0.14618395592E+04  0.00000000000E+00 0.  1.
         21    1    1    2  503  502  0.21859740590E+02 -0.62100781865E+01  0.10711549664E+04  0.10713959937E+04  0.00000000000E+00 0. -1.
</event>
<event>
 4    1  0.5591986E+002  0.2386028E+02  0.7546771E-02  0.1481969E+00
          2   -1    0    0  502    0  0.00000000000E+00  0.00000000000E+00  0.33531478019E+02  0.33531478019E+02  0.00000000000E+00 0.  1.
         -2   -1    0    0    0  501 -0.00000000000E+00 -0.00000000000E+00 -0.41444321580E+03  0.41444321580E+03  0.00000000000E+00 0. -1.
         21    1    1    2  502  503  0.20669378883E+02  0.11920147770E+02  0.28895463054E+02  0.37473469700E+02  0.00000000000E+00 0.  1.
         21    1    1    2  503  501 -0.20669378883E+02 -0.11920147770E+02 -0.40980720083E+03  0.41050122412E+03  0.00000000000E+00 0. -1.
</event>
<event>
 4    1  0.5591986E+002  0.4499823E+02  0.7546771E-02  0.1321448E+00
          2   -1    0    0  503    0  0.00000000000E+00  0.00000000000E+00  0.45050533166E+03  0.45050533166E+03  0.00000000000E+00 0.  1.
         -2   -1    0    0    0  501 -0.00000000000E+00 -0.00000000000E+00 -0.59345264866E+02  0.59345264866E+02  0.00000000000E+00 0. -1.
         21    1    1    2  502  501  0.40938939494E+02 -0.18677354850E+02 -0.49501650707E+02  0.66897337569E+02  0.00000000000E+00 0. -1.
         21    1    1    2  503  502 -0.40938939494E+02  0.18677354850E+02  0.44066171750E+03  0.44295325896E+03  0.00000000000E+00 0.  1.
</event>
<event>
 4    1  0.5591986E+002  0.4216012E+02  0.7546771E-02  0.1336272E+00
          2   -1    0    0  503    0  0.00000000000E+00  0.00000000000E+00  0.20709502546E+04  0.20709502546E+04  0.00000000000E+00 0.  1.
         -2   -1    0    0    0  501 -0.00000000000E+00 -0.00000000000E+00 -0.11960029434E+01  0.11960029434E+01  0.00000000000E+00 0. -1.
         21    1    1    2  502  501  0.31954425344E+02  0.27502547231E+02  0.48432519346E+03  0.48615673237E+03  0.00000000000E+00 0. -1.
         21    1    1    2  503  502 -0.31954425344E+02 -0.27502547231E+02  0.15854290582E+04  0.15859895251E+04  0.00000000000E+00 0.  1.
</event>
<event>
 4    1  0.5591986E+002  0.2156223E+02  0.7546771E-02  0.1511387E+00
          2   -1    0    0  502    0  0.00000000000E+00  0.00000000000E+00  0.31631056808E+03  0.31631056808E+03  0.00000000000E+00 0.  1.
         -2   -1    0    0    0  501 -0.00000000000E+00 -0.00000000000E+00 -0.26988411626E+01  0.26988411626E+01  0.00000000000E+00 0. -1.
         21    1    1    2  502  503 -0.18850897944E+01  0.21479667183E+02  0.26444219605E+03  0.26531981592E+03  0.00000000000E+00 0.  1.
         21    1    1    2  503  501  0.18850897944E+01 -0.21479667183E+02  0.49169530863E+02  0.53689593323E+02  0.00000000000E+00 0. -1.
</event>
<event>
 4    1  0.5591986E+002  0.2194067E+02  0.7546771E-02  0.1506247E+00
          2   -1    0    0  503    0  0.00000000000E+00  0.00000000000E+00  0.36711115571E+01  0.36711115571E+01  0.00000000000E+00 0. -1.
         -2   -1    0    0    0  501 -0.00000000000E+00 -0.00000000000E+00 -0.14156762860E+03  0.14156762860E+03  0.00000000000E+00 0.  1.
         21    1    1    2  502  501 -0.12729623738E+02 -0.17870357306E+02 -0.88666612962E+02  0.91340906744E+02  0.00000000000E+00 0.  1.
         21    1    1    2  503  502  0.12729623738E+02  0.17870357306E+02 -0.49229904085E+02  0.53897833417E+02  0.00000000000E+00 0. -1.
</event>
<event>
 4    1  0.5591986E+002  0.2267697E+02  0.7546771E-02  0.1496595E+00
          2   -1    0    0  503    0  0.00000000000E+00  0.00000000000E+00  0.38422150328E+01  0.38422150328E+01  0.00000000000E+00 0. -1.
         -2   -1    0    0    0  501 -0.00000000000E+00 -0.00000000000E+00 -0.16532764183E+03  0.16532764183E+03  0.00000000000E+00 0.  1.
         21    1    1    2  502  501 -0.43145942806E+01  0.22262732993E+02 -0.11765619718E+03  0.11982164137E+03  0.00000000000E+00 0.  1.
         21    1    1    2  503  502  0.43145942806E+01 -0.22262732993E+02 -0.43829229617E+02  0.49348215499E+02  0.00000000000E+00 0. -1.
</event>
<event>
 4    1  0.5591986E+002  0.2920934E+02  0.7546771E-02  0.1426594E+00
          2   -1    0    0  502    0  0.00000000000E+00  0.00000000000E+00  0.41643504472E+01  0.41643504472E+01  0.00000000000E+00 0. -1.
         -2   -1    0    0    0  501 -0.00000000000E+00 -0.00000000000E+00 -0.44002116028E+03  0.44002116028E+03  0.00000000000E+00 0.  1.
         21    1    1    2  502  503  0.23554519439E+02 -0.17273390971E+02 -0.55574243448E+02  0.62782815773E+02  0.00000000000E+00 0. -1.
         21    1    1    2  503  501 -0.23554519439E+02  0.17273390971E+02 -0.38028256639E+03  0.38140269496E+03  0.00000000000E+00 0.  1.
</event>
<event>
 4    1  0.5591986E+002  0.2027717E+02  0.7546771E-02  0.1529840E+00
          2   -1    0    0  502    0  0.00000000000E+00  0.00000000000E+00  0.34187588885E+02  0.34187588885E+02  0.00000000000E+00 0. -1.
         -2   -1    0    0    0  501 -0.00000000000E+00 -0.00000000000E+00 -0.12074360124E+02  0.12074360124E+02  0.00000000000E+00 0.  1.
         21    1    1    2  502  503  0.97982922204E+01 -0.17752666632E+02  0.96032904972E+01  0.22436285150E+02  0.00000000000E+00 0.  1.
         21    1    1    2  503  501 -0.97982922204E+01  0.17752666632E+02  0.12509938264E+02  0.23825663859E+02  0.00000000000E+00 0. -1.
</event>
<event>
 4    1  0.5591986E+002  0.3400006E+02  0.7546771E-02  0.1387733E+00
          2   -1    0    0  502    0  0.00000000000E+00  0.00000000000E+00  0.20986724603E+03  0.20986724603E+03  0.00000000000E+00 0.  1.
         -2   -1    0    0    0  501 -0.00000000000E+00 -0.00000000000E+00 -0.55279210925E+01  0.55279210925E+01  0.00000000000E+00 0. -1.
         21    1    1    2  502  503  0.33776302238E+02  0.38942672086E+01  0.95747227139E+02  0.10160480016E+03  0.00000000000E+00 0.  1.
         21    1    1    2  503  501 -0.33776302238E+02 -0.38942672086E+01  0.10859209780E+03  0.11379036696E+03  0.00000000000E+00 0. -1.
</event>
<event>
 4    1  0.5591986E+002  0.2053740E+02  0.7546771E-02  0.1525973E+00
          2   -1    0    0  503    0  0.00000000000E+00  0.00000000000E+00  0.12699870823E+03  0.12699870823E+03  0.00000000000E+00 0. -1.
         -2   -1    0    0    0  501 -0.00000000000E+00 -0.00000000000E+00 -0.61483861866E+01  0.61483861866E+01  0.00000000000E+00 0.  1.
         21    1    1    2  502  501  0.20531050771E+02 -0.51060628425E+00  0.15281127779E+02  0.25598781821E+02  0.00000000000E+00 0.  1.
         21    1    1    2  503  502 -0.20531050771E+02  0.51060628425E+00  0.10556919426E+03  0.10754831259E+03  0.00000000000E+00 0. -1.
</event>
<event>
 4    1  0.5591986E+002  0.3100073E+02  0.7546771E-02  0.1411095E+00
          2   -1    0    0  503    0  0.00000000000E+00  0.00000000000E+00  0.53697939817E+01  0.53697939817E+01  0.00000000000E+00 0. -1.
         -2   -1    0    0    0  501 -0.00000000000E+00 -0.00000000000E+00 -0.26000064280E+03  0.26000064280E+03  0.00000000000E+00 0.  1.
         21    1    1    2  502  501  0.24701847735E+02  0.18731370132E+02 -0.20138728397E+03  0.20375937684E+03  0.00000000000E+00 0.  1.
         21    1    1    2  503  502 -0.24701847735E+02 -0.18731370132E+02 -0.53243564855E+02  0.61611059940E+02  0.00000000000E+00 0. -1.
</event>
<event>
 4    1  0.5591986E+002  0.3226417E+02  0.7546771E-02  0.1400890E+00
          2   -1    0    0  503    0  0.00000000000E+00  0.00000000000E+00  0.14409633502E+02  0.14409633502E+02  0.00000000000E+00 0.  1.
         -2   -1    0    0    0  501 -0.00000000000E+00 -0.00000000000E+00 -0.76166968563E+02  0.76166968563E+02  0.00000000000E+00 0. -1.
         21    1    1    2  502  501  0.20645405984E+01  0.32198049048E+02 -0.41159690876E+02  0.52298153346E+02  0.00000000000E+00 0. -1.
         21    1    1    2  503  502 -0.20645405984E+01 -0.32198049048E+02 -0.20597644185E+02  0.38278448719E+02  0.00000000000E+00 0.  1.
</event>
<event>
 4    1  0.5591986E+002  0.3544231E+02  0.7546771E-02  0.1377480E+00
          2   -1    0    0  503    0  0.00000000000E+00  0.00000000000E+00  0.18743657825E+03  0.18743657825E+03  0.00000000000E+00 0.  1.
         -2   -1    0    0    0  501 -0.00000000000E+00 -0.00000000000E+00 -0.77403052000E+01  0.77403052000E+01  0.00000000000E+00 0. -1.
         21    1    1    2  502  501  0.18706244979E+02  0.30103711800E+02  0.54101951700E+02  0.64677494101E+02  0.00000000000E+00 0.  1.
         21    1    1    2  503  502 -0.18706244979E+02 -0.30103711800E+02  0.12559432135E+03  0.13049938935E+03  0.00000000000E+00 0. -1.
</event>
<event>
 4    1  0.5591986E+002  0.2017820E+02  0.7546771E-02  0.1531329E+00
          2   -1    0    0  503    0  0.00000000000E+00  0.00000000000E+00  0.27366055534E+03  0.27366055534E+03  0.00000000000E+00 0. -1.
         -2   -1    0    0    0  501 -0.00000000000E+00 -0.00000000000E+00 -0.61198633894E+01  0.61198633894E+01  0.00000000000E+00 0.  1.
         21    1    1    2  502  501  0.12663309165E+02  0.15709876581E+02  0.12067025439E+02  0.23511119160E+02  0.00000000000E+00 0.  1.
         21    1    1    2  503  502 -0.12663309165E+02 -0.15709876581E+02  0.25547366651E+03  0.25626929957E+03  0.00000000000E+00 0. -1.
</event>
<event>
 4    1  0.5591986E+002  0.2529271E+02  0.7546771E-02  0.1465555E+00
          2   -1    0    0  503    0  0.00000000000E+00  0.00000000000E+00  0.69215756577E+03  0.69215756577E+03  0.00000000000E+00 0. -1.
         -2   -1    0    0    0  501 -0.00000000000E+00 -0.00000000000E+00 -0.47329173606E+01  0.47329173606E+01  0.00000000000E+00 0.  1.
         21    1    1    2  502  501 -0.25246331871E+02 -0.15309730248E+01  0.31135301146E+02  0.40113939333E+02  0.00000000000E+00 0.  1.
         21    1    1    2  503  502  0.25246331871E+02  0.15309730248E+01  0.65628934726E+03  0.65677654380E+03  0.00000000000E+00 0. -1.
</event>
<event>
 4    1  0.5591986E+002  0.2340614E+02  0.7546771E-02  0.1487460E+00
          2   -1    0    0  502    0  0.00000000000E+00  0.00000000000E+00  0.17130905916E+03  0.17130905916E+03  0.00000000000E+00 0.  1.
         -2   -1    0    0    0  501 -0.00000000000E+00 -0.00000000000E+00 -0.32175605186E+01  0.32175605186E+01  0.00000000000E+00 0. -1.
         21    1    1    2  502  503  0.50622409602E+01 -0.22852152987E+02  0.90848837526E+02  0.93815555530E+02  0.00000000000E+00 0. -1.
         21    1    1    2  503  501 -0.50622409602E+01  0.22852152987E+02  0.77242661112E+02  0.80711064145E+02  0.00000000000E+00 0.  1.
</event>
<event>
 4    1  0.5591986E+002  0.2159016E+02  0.7546771E-02  0.1511003E+00
          2   -1    0    0  502    0  0.00000000000E+00  0.00000000000E+00  0.79084553879E+02  0.79084553879E+02  0.00000000000E+00 0.  1.
         -2   -1    0    0    0  501 -0.00000000000E+00 -0.00000000000E+00 -0.11019124402E+02  0.11019124402E+02  0.00000000000E+00 0. -1.
         21    1    1    2  502  503  0.19550048029E+02  0.91613552879E+01  0.64757268917E+02  0.68261546175E+02  0.00000000000E+00 0.  1.
         21    1    1    2  503  501 -0.19550048029E+02 -0.91613552879E+01  0.33081605597E+01  0.21842132106E+02  0.00000000000E+00 0. -1.
</event>
<event>
 4    1  0.5591986E+002  0.3219591E+02  0.7546771E-02  0.1401427E+00
          2   -1    0    0  503    0  0.00000000000E+00  0.00000000000E+00  0.24417166051E+04  0.24417166051E+04  0.00000000000E+00 0.  1.
         -2   -1    0    0    0  501 -0.00000000000E+00 -0.00000000000E+00 -0.14125743356E+01  0.14125743356E+01  0.00000000000E+00 0. -1.
         21    1    1    2  502  501 -0.87932245847E+01 -0.30971851233E+02  0.19850822852E+03  0.20110219581E+03  0.00000000000E+00 0. -1.
         21    1    1    2  503  502  0.87932245847E+01  0.30971851233E+02  0.22417958022E+04  0.22420269836E+04  0.00000000000E+00 0.  1.
</event>
<event>
 4    1  0.5591986E+002  0.2135080E+02  0.7546771E-02  0.1514315E+00
          2   -1    0    0  502    0  0.00000000000E+00  0.00000000000E+00  0.54641341152E+02  0.54641341152E+02  0.00000000000E+00 0.  1.
         -2   -1    0    0    0  501 -0.00000000000E+00 -0.00000000000E+00 -0.87944304630E+01  0.87944304630E+01  0.00000000000E+00 0. -1.
         21    1    1    2  502  503  0.10182404702E+02 -0.18766329955E+02  0.30111957399E+02  0.36913229118E+02  0.00000000000E+00 0. -1.
         21    1    1    2  503  501 -0.10182404702E+02  0.18766329955E+02  0.15734953290E+02  0.26522542497E+02  0.00000000000E+00 0.  1.
</event>
<event>
 4    1  0.5591986E+002  0.8113117E+02  0.7546771E-02  0.1201246E+00
          2   -1    0    0  502    0  0.00000000000E+00  0.00000000000E+00  0.25191591729E+03  0.25191591729E+03  0.00000000000E+00 0. -1.
         -2   -1    0    0    0  501 -0.00000000000E+00 -0.00000000000E+00 -0.26216572502E+02  0.26216572502E+02  0.00000000000E+00 0.  1.
         21    1    1    2  502  503 -0.77674606436E+02  0.23429087084E+02  0.12089519402E+03  0.14559503612E+03  0.00000000000E+00 0.  1.
         21    1    1    2  503  501  0.77674606436E+02 -0.23429087084E+02  0.10480415077E+03  0.13253745367E+03  0.00000000000E+00 0. -1.
</event>
<event>
 4    1  0.5591986E+002  0.3030187E+02  0.7546771E-02  0.1416991E+00
          2   -1    0    0  502    0  0.00000000000E+00  0.00000000000E+00  0.26819499276E+01  0.26819499276E+01  0.00000000000E+00 0. -1.
         -2   -1    0    0    0  501 -0.00000000000E+00 -0.00000000000E+00 -0.40131499151E+03  0.40131499151E+03  0.00000000000E+00 0.  1.
         21    1    1    2  502  503 -0.29538026236E+02  0.67608136810E+01 -0.12189703668E+03  0.12560689132E+03  0.00000000000E+00 0. -1.
         21    1    1    2  503  501  0.29538026236E+02 -0.67608136810E+01 -0.27673600490E+03  0.27839005011E+03  0.00000000000E+00 0.  1.
</event>
<event>
 4    1  0.5591986E+002  0.2671893E+02  0.7546771E-02  0.1450452E+00
          2   -1    0    0  503    0  0.00000000000E+00  0.00000000000E+00  0.95599865817E+03  0.95599865817E+03  0.00000000000E+00 0. -1.
         -2   -1    0    0    0  501 -0.00000000000E+00 -0.00000000000E+00 -0.11579833862E+01  0.11579833862E+01  0.00000000000E+00 0.  1.
         21    1    1    2  502  501 -0.17639390403E+02 -0.20068707093E+02  0.19222592418E+03  0.19407397307E+03  0.00000000000E+00 0.  1.
         21    1    1    2  503  502  0.17639390403E+02  0.20068707093E+02  0.76261475060E+03  0.76308266848E+03  0.00000000000E+00 0. -1.
</event>
<event>
 4    1  0.5591986E+002  0.2081693E+02  0.7546771E-02  0.1521895E+00
          2   -1    0    0  503    0  0.00000000000E+00  0.00000000000E+00  0.34576057894E+03  0.34576057894E+03  0.00000000000E+00 0.  1.
         -2   -1    0    0    0  501 -0.00000000000E+00 -0.00000000000E+00 -0.14732248846E+01  0.14732248846E+01  0.00000000000E+00 0. -1.
         21    1    1    2  502  501 -0.39871411188E+01  0.20431531453E+02  0.10506476820E+03  0.10710719065E+03  0.00000000000E+00 0.  1.
         21    1    1    2  503  502  0.39871411188E+01 -0.20431531453E+02  0.23922258585E+03  0.24012661317E+03  0.00000000000E+00 0. -1.
</event>
<event>
 4    1  0.5591986E+002  0.2388066E+02  0.7546771E-02  0.1481726E+00
          2   -1    0    0  503    0  0.00000000000E+00  0.00000000000E+00  0.94342207665E+03  0.94342207665E+03  0.00000000000E+00 0.  1.
         -2   -1    0    0    0  501 -0.00000000000E+00 -0.00000000000E+00 -0.38281140327E+01  0.38281140327E+01  0.00000000000E+00 0. -1.
         21    1    1    2  502  501  0.12897582078E+02  0.20098219553E+02  0.35171994436E+02  0.42513000897E+02  0.00000000000E+00 0. -1.
         21    1    1    2  503  502 -0.12897582078E+02 -0.20098219553E+02  0.90442196818E+03  0.90473718978E+03  0.00000000000E+00 0.  1.
</event>
<event>
 4    1  0.5591986E+002  0.2863280E+02  0.7546771E-02  0.1431862E+00
          2   -1    0    0  503    0  0.00000000000E+00  0.00000000000E+00  0.10711103231E+02  0.10711103231E+02  0.00000000000E+00 0. -1.
         -2   -1    0    0    0  501 -0.00000000000E+00 -0.00000000000E+00 -0.52944253180E+03  0.52944253180E+03  0.00000000000E+00 0.  1.
         21    1    1    2  502  501 -0.20394552558E+02  0.20097245248E+02 -0.50915848000E+03  0.50996293473E+03  0.00000000000E+00 0.  1.
         21    1    1    2  503  502  0.20394552558E+02 -0.20097245248E+02 -0.95729485719E+01  0.30190700306E+02  0.00000000000E+00 0. -1.
</event>
<event>
 4    1  0.5591986E+002  0.2768328E+02  0.7546771E-02  0.1440863E+00
          2   -1    0    0  502    0  0.00000000000E+00  0.00000000000E+00  0.11779337877E+02  0.11779337877E+02  0.00000000000E+00 0.  1.
         -2   -1    0    0    0  501 -0.00000000000E+00 -0.00000000000E+00 -0.21692924961E+03  0.21692924961E+03  0.00000000000E+00 0. -1.
         21    1    1    2  502  503 -0.84539272925E+01 -0.26360864127E+02 -0.68933835235E+01  0.28528630892E+02  0.00000000000E+00 0.  1.
         21    1    1    2  503  501  0.84539272925E+01  0.26360864127E+02 -0.19825652821E+03  0.20017995660E+03  0.00000000000E+00 0. -1.
</event>
<event>
 4    1  0.5591986E+002  0.3101048E+02  0.7546771E-02  0.1411014E+00
          2   -1    0    0  503    0  0.00000000000E+00  0.00000000000E+00  0.17531703816E+04  0.17531703816E+04  0.00000000000E+00 0. -1.
         -2   -1    0    0    0  501 -0.00000000000E+00 -0.00000000000E+00 -0.57647631342E+00  0.57647631342E+00  0.00000000000E+00 0.  1.
         21    1    1    2  502  501 -0.30577798532E+02  0.51621862128E+01  0.68319703566E+03  0.68390046020E+03  0.00000000000E+00 0.  1.
         21    1    1    2  503  502  0.30577798532E+02 -0.51621862128E+01  0.10693968697E+04  0.10698463978E+04  0.00000000000E+00 0. -1.
</event>
<event>
 4    1  0.5591986E+002  0.2218684E+02  0.7546771E-02  0.1502970E+00
          2   -1    0    0  502    0  0.00000000000E+00  0.00000000000E+00  0.19291122206E+03  0.19291122206E+03  0.00000000000E+00 0.  1.
         -2   -1    0    0    0  501 -0.00000000000E+00 -0.00000000000E+00 -0.14141209743E+02  0.14141209743E+02  0.00000000000E+00 0. -1.
         21    1    1    2  502  503  0.22129567074E+02 -0.15931055856E+01  0.18310649661E+03  0.18444577747E+03  0.00000000000E+00 0.  1.
         21    1    1    2  503  501 -0.22129567074E+02  0.15931055856E+01 -0.43364842937E+01  0.22606654337E+02  0.00000000000E+00 0. -1.
</event>
<event>
 4    1  0.5591986E+002  0.2154234E+02  0.7546771E-02  0.1511661E+00
          2   -1    0    0  502    0  0.00000000000E+00  0.00000000000E+00  0.24437514664E+03  0.24437514664E+03  0.00000000000E+00 0.  1.
         -2   -1    0    0    0  501 -0.00000000000E+00 -0.00000000000E+00 -0.52323010498E+01  0.52323010498E+01  0.00000000000E+00 0. -1.
         21    1    1    2  502  503 -0.13576671569E+02 -0.16725620774E+02  0.21918473611E+03  0.22024082488E+03  0.00000000000E+00 0.  1.
         21    1    1    2  503  501  0.13576671569E+02  0.16725620774E+02  0.19958109483E+02  0.29366622810E+02  0.00000000000E+00 0. -1.
</event>
<event>
 4    1  0.5591986E+002  0.2064937E+02  0.7546771E-02  0.1524330E+00
          2   -1    0    0  502    0  0.00000000000E+00  0.00000000000E+00  0.21304339156E+03  0.21304339156E+03  0.00000000000E+00 0. -1.
         -2   -1    0    0    0  501 -0.00000000000E+00 -0.00000000000E+00 -0.32924390807E+02  0.32924390807E+02  0.00000000000E+00 0.  1.
         21    1    1    2  502  503  0.66074895449E+01 -0.19563682458E+02  0.20924672884E+03  0.21026314494E+03  0.00000000000E+00 0. -1.
         21    1    1    2  503  501 -0.66074895449E+01  0.19563682458E+02 -0.29127728095E+02  0.35704637421E+02  0.00000000000E+00 0.  1.
</event>
<event>
 4    1  0.5591986E+002  0.2822421E+02  0.7546771E-02  0.1435684E+00
          2   -1    0    0  503    0  0.00000000000E+00  0.00000000000E+00  0.96849598515E+03  0.96849598515E+03  0.00000000000E+00 0.  1.
         -2   -1    0    0    0  501 -0.00000000000E+00 -0.00000000000E+00 -0.99193825857E+00  0.99193825857E+00  0.00000000000E+00 0. -1.
         21    1    1    2  502  501  0.20972785218E+02 -0.18887788025E+02  0.28341943671E+03  0.28482131830E+03  0.00000000000E+00 0.  1.
         21    1    1    2  503  502 -0.20972785218E+02  0.18887788025E+02  0.68408461019E+03  0.68466660511E+03  0.00000000000E+00 0. -1.
</event>
<event>
 4    1  0.5591986E+002  0.3047575E+02  0.7546771E-02  0.1415506E+00
          2   -1    0    0  502    0  0.00000000000E+00  0.00000000000E+00  0.21746943578E+03  0.21746943578E+03  0.00000000000E+00 0.  1.
         -2   -1    0    0    0  501 -0.00000000000E+00 -0.00000000000E+00 -0.44217212910E+01  0.44217212910E+01  0.00000000000E+00 0. -1.
         21    1    1    2  502  503 -0.10421963722E+02 -0.28638326207E+02  0.12702001429E+03  0.13062486396E+03  0.00000000000E+00 0.  1.
         21    1    1    2  503  501  0.10421963722E+02  0.28638326207E+02  0.86027700204E+02  0.91266293111E+02  0.00000000000E+00 0. -1.
</event>
<event>
 4    1  0.5591986E+002  0.2399020E+02  0.7546771E-02  0.1480425E+00
          2   -1    0    0  502    0  0.00000000000E+00  0.00000000000E+00  0.17561279476E+04  0.17561279476E+04  0.00000000000E+00 0.  1.
         -2   -1    0    0    0  501 -0.00000000000E+00 -0.00000000000E+00 -0.14295222483E+01  0.14295222483E+01  0.00000000000E+00 0. -1.
         21    1    1    2  502  503 -0.17349612406E+02  0.16568665028E+02  0.16488468859E+04  0.16490214016E+04  0.00000000000E+00 0.  1.
         21    1    1    2  503  501  0.17349612406E+02 -0.16568665028E+02  0.10585153938E+03  0.10853606820E+03  0.00000000000E+00 0. -1.
</event>
<event>
 4    1  0.5591986E+002  0.3637130E+02  0.7546771E-02  0.1371171E+00
          2   -1    0    0  503    0  0.00000000000E+00  0.00000000000E+00  0.18457148748E+04  0.18457148748E+04  0.00000000000E+00 0.  1.
         -2   -1    0    0    0  501 -0.00000000000E+00 -0.00000000000E+00 -0.14786764315E+01  0.14786764315E+01  0.00000000000E+00 0. -1.
         21    1    1    2  502  501  0.27305623875E+02  0.24026538613E+02  0.25912467465E+03  0.26166480211E+03  0.00000000000E+00 0. -1.
         21    1    1    2  503  502 -0.27305623875E+02 -0.24026538613E+02  0.15851115237E+04  0.15855287491E+04  0.00000000000E+00 0.  1.
</event>
<event>
 4    1  0.5591986E+002  0.3143964E+02  0.7546771E-02  0.1407485E+00
          2   -1    0    0  503    0  0.00000000000E+00  0.00000000000E+00  0.15013705580E+04  0.15013705580E+04  0.00000000000E+00 0. -1.
         -2   -1    0    0    0  501 -0.00000000000E+00 -0.00000000000E+00 -0.10881560363E+01  0.10881560363E+01  0.00000000000E+00 0.  1.
         21    1    1    2  502  501  0.20924082282E+02  0.23465582729E+02  0.27801802972E+03  0.27979005637E+03  0.00000000000E+00 0.  1.
         21    1    1    2  503  502 -0.20924082282E+02 -0.23465582729E+02  0.12222643723E+04  0.12226686577E+04  0.00000000000E+00 0. -1.
</event>
<event>
 4    1  0.5591986E+002  0.2283981E+02  0.7546771E-02  0.1494520E+00
          2   -1    0    0  503    0  0.00000000000E+00  0.00000000000E+00  0.67592079529E+02  0.67592079529E+02  0.00000000000E+00 0.  1.
         -2   -1    0    0    0  501 -0.00000000000E+00 -0.00000000000E+00 -0.93991769511E+01  0.93991769511E+01  0.00000000000E+00 0. -1.
         21    1    1    2  502  501  0.22677663404E+02 -0.27167163942E+01  0.12814406234E+02  0.26189042986E+02  0.00000000000E+00 0. -1.
         21    1    1    2  503  502 -0.22677663404E+02  0.27167163942E+01  0.45378496344E+02  0.50802213494E+02  0.00000000000E+00 0.  1.
</event>
<event>
 4    1  0.5591986E+002  0.2529415E+02  0.7546771E-02  0.1465540E+00
          2   -1    0    0  502    0  0.00000000000E+00  0.00000000000E+00  0.24774849647E+03  0.24774849647E+03  0.00000000000E+00 0.  1.
         -2   -1    0    0    0  501 -0.00000000000E+00 -0.00000000000E+00 -0.10061356419E+02  0.10061356419E+02  0.00000000000E+00 0. -1.
         21    1    1    2  502  503 -0.25053602158E+02 -0.34800575181E+01  0.22998111643E+03  0.23136790550E+03  0.00000000000E+00 0.  1.
         21    1    1    2  503  501  0.25053602158E+02  0.34800575181E+01  0.77060236158E+01  0.26441947383E+02  0.00000000000E+00 0. -1.
</event>
<event>
 4    1  0.5591986E+002  0.2624135E+02  0.7546771E-02  0.1455381E+00
          2   -1    0    0  502    0  0.00000000000E+00  0.00000000000E+00  0.14389078675E+04  0.14389078675E+04  0.00000000000E+00 0.  1.
         -2   -1    0    0    0  501 -0.00000000000E+00 -0.00000000000E+00 -0.30831673187E+01  0.30831673187E+01  0.00000000000E+00 0. -1.
         21    1    1    2  502  503 -0.80718083935E+01  0.24969068420E+02  0.13805938896E+04  0.13808432556E+04  0.00000000000E+00 0.  1.
         21    1    1    2  503  501  0.80718083935E+01 -0.24969068420E+02  0.55230810550E+02  0.61147779212E+02  0.00000000000E+00 0. -1.
</event>
<event>
 4    1  0.5591986E+002  0.3733634E+02  0.7546771E-02  0.1364844E+00
          2   -1    0    0  502    0  0.00000000000E+00  0.00000000000E+00  0.11384425581E+04  0.11384425581E+04  0.00000000000E+00 0.  1.
         -2   -1    0    0    0  501 -0.00000000000E+00 -0.00000000000E+00 -0.16330556636E+01  0.16330556636E+01  0.00000000000E+00 0. -1.
         21    1    1    2  502  503  0.23433429715E+01 -0.37262731351E+02  0.85353176034E+03  0.85434797847E+03  0.00000000000E+00 0.  1.
         21    1    1    2  503  501 -0.23433429715E+01  0.37262731351E+02  0.28327774208E+03  0.28572763528E+03  0.00000000000E+00 0. -1.
</event>
<event>
 4    1  0.5591986E+002  0.3089571E+02  0.7546771E-02  0.1411969E+00
          2   -1    0    0  502    0  0.00000000000E+00  0.00000000000E+00  0.27388855221E+03  0.27388855221E+03  0.00000000000E+00 0.  1.
         -2   -1    0    0    0  501 -0.00000000000E+00 -0.00000000000E+00 -0.70198849387E+01  0.70198849387E+01  0.00000000000E+00 0. -1.
         21    1    1    2  502  503 -0.18153810109E+02  0.24999684661E+02  0.23310048459E+03  0.23513906730E+03  0.00000000000E+00 0.  1.
         21    1    1    2  503  501  0.18153810109E+02 -0.24999684661E+02  0.33768182678E+02  0.45769369845E+02  0.00000000000E+00 0. -1.
</event>
<event>
 4    1  0.5591986E+002  0.2826572E+02  0.7546771E-02  0.1435292E+00
          2   -1    0    0  503    0  0.00000000000E+00  0.00000000000E+00  0.62095848973E+03  0.62095848973E+03  0.00000000000E+00 0.  1.
         -2   -1    0    0    0  501 -0.00000000000E+00 -0.00000000000E+00 -0.14587852664E+01  0.14587852664E+01  0.00000000000E+00 0. -1.
         21    1    1    2  502  501 -0.16192539626E+02 -0.23167915451E+02  0.20284380995E+03  0.20480371550E+03  0.00000000000E+00 0.  1.
         21    1    1    2  503  502  0.16192539626E+02  0.23167915451E+02  0.41665589451E+03  0.41761355949E+03  0.00000000000E+00 0. -1.
</event>
<event>
 4    1  0.5591986E+002  0.2545829E+02  0.7546771E-02  0.1463741E+00
          2   -1    0    0  502    0  0.00000000000E+00  0.00000000000E+00  0.18386942698E+04  0.18386942698E+04  0.00000000000E+00 0.  1.
         -2   -1    0    0    0  501 -0.00000000000E+00 -0.00000000000E+00 -0.35812485293E+00  0.35812485293E+00  0.00000000000E+00 0. -1.
         21    1    1    2  502  503  0.20497774240E+02  0.15098538698E+02  0.10344920170E+04  0.10348052270E+04  0.00000000000E+00 0. -1.
         21    1    1    2  503  501 -0.20497774240E+02 -0.15098538698E+02  0.80384412797E+03  0.80424716766E+03  0.00000000000E+00 0.  1.
</event>
<event>
 4    1  0.5591986E+002  0.2479231E+02  0.7546771E-02  0.1471140E+00
          2   -1    0    0  503    0  0.00000000000E+00  0.00000000000E+00  0.49730933195E+01  0.49730933195E+01  0.00000000000E+00 0. -1.
         -2   -1    0    0    0  501 -0.00000000000E+00 -0.00000000000E+00 -0.18634690192E+03  0.18634690192E+03  0.00000000000E+00 0.  1.
         21    1    1    2  502  501  0.24357994701E+02 -0.46202725551E+01 -0.14619754168E+03  0.14828479361E+03  0.00000000000E+00 0.  1.
         21    1    1    2  503  502 -0.24357994701E+02  0.46202725551E+01 -0.35176266922E+02  0.43035201625E+02  0.00000000000E+00 0. -1.
</event>
<event>
 4    1  0.5591986E+002  0.2000157E+02  0.7546771E-02  0.1534012E+00
          2   -1    0    0  502    0  0.00000000000E+00  0.00000000000E+00  0.11751357535E+04  0.11751357535E+04  0.00000000000E+00 0. -1.
         -2   -1    0    0    0  501 -0.00000000000E+00 -0.00000000000E+00 -0.44371163965E+00  0.44371163965E+00  0.00000000000E+00 0.  1.
         21    1    1    2  502  503  0.78365335622E+01 -0.18402485761E+02  0.87091777648E+03  0.87114742503E+03  0.00000000000E+00 0. -1.
         21    1    1    2  503  501 -0.78365335622E+01  0.18402485761E+02  0.30377426541E+03  0.30443204015E+03  0.00000000000E+00 0.  1.
</event>
<event>
 4    1  0.5591986E+002  0.2024425E+02  0.7546771E-02  0.1530334E+00
          2   -1    0    0  503    0  0.00000000000E+00  0.00000000000E+00  0.12455354164E+03  0.12455354164E+03  0.00000000000E+00 0. -1.
         -2   -1    0    0    0  501 -0.00000000000E+00 -0.00000000000E+00 -0.15433463385E+02  0.15433463385E+02  0.00000000000E+00 0.  1.
         21    1    1    2  502  501  0.20069479708E+02 -0.26543578163E+01 -0.75254850451E+01  0.21597744242E+02  0.00000000000E+00 0.  1.
         21    1    1    2  503  502 -0.20069479708E+02  0.26543578163E+01  0.11664556330E+03  0.11838926078E+03  0.00000000000E+00 0. -1.
</event>
<event>
 4    1  0.5591986E+002  0.2774682E+02  0.7546771E-02  0.1440247E+00
          2   -1    0    0  502    0  0.00000000000E+00  0.00000000000E+00  0.10190102991E+04  0.10190102991E+04  0.00000000000E+00 0. -1.
         -2   -1    0    0    0  501 -0.00000000000E+00 -0.00000000000E+00 -0.10270902190E+01  0.10270902190E+01  0.00000000000E+00 0.  1.
         21    1    1    2  502  503 -0.26885435320E+02  0.68599764910E+01  0.77124451740E+03  0.77174347521E+03  0.00000000000E+00 0. -1.
         21    1    1    2  503  501  0.26885435320E+02 -0.68599764910E+01  0.24673869149E+03  0.24829391411E+03  0.00000000000E+00 0.  1.
</event>
<event>
 4    1  0.5591986E+002  0.4693835E+02  0.7546771E-02  0.1312022E+00
          2   -1    0    0  502    0  0.00000000000E+00  0.00000000000E+00  0.12504542902E+03  0.12504542902E+03  0.00000000000E+00 0. -1.
         -2   -1    0    0    0  501 -0.00000000000E+00 -0.00000000000E+00 -0.25840099390E+02  0.25840099390E+02  0.00000000000E+00 0.  1.
         21    1    1    2  502  503 -0.21884448523E+01  0.46887300534E+02  0.92155501580E+02  0.10342071704E+03  0.00000000000E+00 0. -1.
         21    1    1    2  503  501  0.21884448523E+01 -0.46887300534E+02  0.70498280451E+01  0.47464811363E+02  0.00000000000E+00 0.  1.
</event>
<event>
 4    1  0.5591986E+002  0.3218717E+02  0.7546771E-02  0.1401496E+00
          2   -1    0    0  503    0  0.00000000000E+00  0.00000000000E+00  0.53918278854E+01  0.53918278854E+01  0.00000000000E+00 0.  1.
         -2   -1    0    0    0  501 -0.00000000000E+00 -0.00000000000E+00 -0.27870514626E+03  0.27870514626E+03  0.00000000000E+00 0. -1.
         21    1    1    2  502  501 -0.31727033583E+02 -0.54230499246E+01 -0.21581970143E+03  0.21820668564E+03  0.00000000000E+00 0. -1.
         21    1    1    2  503  502  0.31727033583E+02  0.54230499246E+01 -0.57493616936E+02  0.65890288502E+02  0.00000000000E+00 0.  1.
</event>
<event>
 4    1  0.5591986E+002  0.2236828E+02  0.7546771E-02  0.1500587E+00
          2   -1    0    0  502    0  0.00000000000E+00  0.00000000000E+00  0.54552763001E+02  0.54552763001E+02  0.00000000000E+00 0. -1.
         -2   -1    0    0    0  501 -0.00000000000E+00 -0.00000000000E+00 -0.93251506922E+01  0.93251506922E+01  0.00000000000E+00 0.  1.
         21    1    1    2  502  503 -0.31622744729E+01 -0.22143617637E+02  0.26711351503E+02  0.34840150416E+02  0.00000000000E+00 0.  1.
         21    1    1    2  503  501  0.31622744729E+01  0.22143617637E+02  0.18516260806E+02  0.29037763277E+02  0.00000000000E+00 0. -1.
</event>
<event>
 4    1  0.5591986E+002  0.2884033E+02  0.7546771E-02  0.1429949E+00
          2   -1    0    0  503    0  0.00000000000E+00  0.00000000000E+00  0.14602537650E+01  0.14602537650E+01  0.00000000000E+00 0. -1.
         -2   -1    0    0    0  501 -0.00000000000E+00 -0.00000000000E+00 -0.74818063876E+03  0.74818063876E+03  0.00000000000E+00 0.  1.
         21    1    1    2  502  501 -0.16032175554E+02 -0.23973605364E+02 -0.55647944642E+03  0.55722629039E+03  0.00000000000E+00 0.  1.
         21    1    1    2  503  502  0.16032175554E+02  0.23973605364E+02 -0.19024093857E+03  0.19241460214E+03  0.00000000000E+00 0. -1.
</event>
<event>
 4    1  0.5591986E+002  0.2492803E+02  0.7546771E-02  0.1469610E+00
          2   -1    0    0  502    0  0.00000000000E+00  0.00000000000E+00  0.21591923337E+01  0.21591923337E+01  0.00000000000E+00 0.  1.
         -2   -1    0    0    0  501 -0.00000000000E+00 -0.00000000000E+00 -0.47420405541E+03  0.47420405541E+03  0.00000000000E+00 0. -1.
         21    1    1    2  502  503  0.17822019988E+02 -0.17429346252E+02 -0.38535625304E+03  0.38616168668E+03  0.00000000000E+00 0. -1.
         21    1    1    2  503  501 -0.17822019988E+02  0.17429346252E+02 -0.86688610041E+02  0.90201561062E+02  0.00000000000E+00 0.  1.
</event>
<event>
 4    1  0.5591986E+002  0.2069788E+02  0.7546771E-02  0.1523622E+00
          2   -1    0    0  502    0  0.00000000000E+00  0.00000000000E+00  0.31874915102E+03  0.31874915102E+03  0.00000000000E+00 0.  1.
         -2   -1    0    0    0  501 -0.00000000000E+00 -0.00000000000E+00 -0.26408096832E+01  0.26408096832E+01  0.00000000000E+00 0. -1.
         21    1    1    2  502  503 -0.19881494913E+02  0.57557337735E+01  0.27066238395E+03  0.27145262644E+03  0.00000000000E+00 0.  1.
         21    1    1    2  503  501  0.19881494913E+02 -0.57557337735E+01  0.45445957378E+02  0.49937334262E+02  0.00000000000E+00 0. -1.
</event>
<event>
 4    1  0.5591986E+002  0.3150540E+02  0.7546771E-02  0.1406951E+00
          2   -1    0    0  502    0  0.00000000000E+00  0.00000000000E+00  0.10871768928E+02  0.10871768928E+02  0.00000000000E+00 0. -1.
         -2   -1    0    0    0  501 -0.00000000000E+00 -0.00000000000E+00 -0.94524283926E+02  0.94524283926E+02  0.00000000000E+00 0.  1.
         21    1    1    2  502  503  0.28916629315E+02 -0.12506740949E+02 -0.32093079334E+02  0.44972833592E+02  0.00000000000E+00 0. -1.
         21    1    1    2  503  501 -0.28916629315E+02  0.12506740949E+02 -0.51559435664E+02  0.60423219263E+02  0.00000000000E+00 0.  1.
</event>
<event>
 4    1  0.5591986E+002  0.3035512E+02  0.7546771E-02  0.1416535E+00
          2   -1    0    0  502    0  0.00000000000E+00  0.00000000000E+00  0.16143949011E+03  0.16143949011E+03  0.00000000000E+00 0.  1.
         -2   -1    0    0    0  501 -0.00000000000E+00 -0.00000000000E+00 -0.34581665818E+02  0.34581665818E+02  0.00000000000E+00 0. -1.
         21    1    1    2  502  503 -0.23678896550E+01  0.30262623210E+02  0.15298681372E+03  0.15596922273E+03  0.00000000000E+00 0.  1.
         21    1    1    2  503  501  0.23678896550E+01 -0.30262623210E+02 -0.26128989427E+02  0.40051933204E+02  0.00000000000E+00 0. -1.
</event>
<event>
 4    1  0.5591986E+002  0.3260881E+02  0.7546771E-02  0.1398201E+00
          2   -1    0    0  502    0  0.00000000000E+00  0.00000000000E+00  0.34216718319E+04  0.34216718319E+04  0.00000000000E+00 0. -1.
         -2   -1    0    0    0  501 -0.00000000000E+00 -0.00000000000E+00 -0.32841225685E+00  0.32841225685E+00  0.00000000000E+00 0.  1.
         21    1    1    2  502  503 -0.10876986480E+02  0.30741269985E+02  0.21073000606E+04  0.21075523433E+04  0.00000000000E+00 0. -1.
         21    1    1    2  503  501  0.10876986480E+02 -0.30741269985E+02  0.13140433591E+04  0.13144479008E+04  0.00000000000E+00 0.  1.
</event>
<event>
 4    1  0.5591986E+002  0.2016385E+02  0.7546771E-02  0.1531546E+00
          2   -1    0    0  503    0  0.00000000000E+00  0.00000000000E+00  0.58738182090E+03  0.58738182090E+03  0.00000000000E+00 0. -1.
         -2   -1    0    0    0  501 -0.00000000000E+00 -0.00000000000E+00 -0.87837484271E+00  0.87837484271E+00  0.00000000000E+00 0.  1.
         21    1    1    2  502  501  0.11456270724E+02 -0.16593208966E+02  0.15783574928E+03  0.15911852336E+03  0.00000000000E+00 0. -1.
         21    1    1    2  503  502 -0.11456270724E+02  0.16593208966E+02  0.42866769677E+03  0.42914167239E+03  0.00000000000E+00 0.  1.
</event>
<event>
 4    1  0.5591986E+002  0.2336589E+02  0.7546771E-02  0.1487954E+00
          2   -1    0    0  503    0  0.00000000000E+00  0.00000000000E+00  0.52059169562E+00  0.52059169562E+00  0.00000000000E+00 0.  1.
         -2   -1    0    0    0  501 -0.00000000000E+00 -0.00000000000E+00 -0.13114438774E+04  0.13114438774E+04  0.00000000000E+00 0. -1.
         21    1    1    2  502  501  0.22464295034E+02 -0.64280861349E+01 -0.94905839419E+03  0.94934598562E+03  0.00000000000E+00 0. -1.
         21    1    1    2  503  502 -0.22464295034E+02  0.64280861349E+01 -0.36186489155E+03  0.36261848351E+03  0.00000000000E+00 0.  1.
</event>
<event>
 4    1  0.5591986E+002  0.2771416E+02  0.7546771E-02  0.1440563E+00
          2   -1    0    0  502    0  0.00000000000E+00  0.00000000000E+00  0.30838762373E+03  0.30838762373E+03  0.00000000000E+00 0. -1.
         -2   -1    0    0    0  501 -0.00000000000E+00 -0.00000000000E+00 -0.25144688580E+01  0.25144688580E+01  0.00000000000E+00 0.  1.
         21    1    1    2  502  503  0.93082811103E+01  0.26104220077E+02  0.13779529103E+03  0.14055467489E+03  0.00000000000E+00 0. -1.
         21    1    1    2  503  501 -0.93082811103E+01 -0.26104220077E+02  0.16807786383E+03  0.17034741769E+03  0.00000000000E+00 0.  1.
</event>
<event>
 4    1  0.5591986E+002  0.2952244E+02  0.7546771E-02  0.1423792E+00
          2   -1    0    0  503    0  0.00000000000E+00  0.00000000000E+00  0.16565018810E+04  0.16565018810E+04  0.00000000000E+00 0. -1.
         -2   -1    0    0    0  501 -0.00000000000E+00 -0.00000000000E+00 -0.34062560687E+01  0.34062560687E+01  0.00000000000E+00 0.  1.
         21    1    1    2  502  501  0.25538726434E+02 -0.14810398909E+02  0.63381169521E+02  0.69919576040E+02  0.00000000000E+00 0.  1.
         21    1    1    2  503  502 -0.25538726434E+02  0.14810398909E+02  0.15897144554E+04  0.15899885611E+04  0.00000000000E+00 0. -1.
</event>
<event>
 4    1  0.5591986E+002  0.3357096E+02  0.7546771E-02  0.1390898E+00
          2   -1    0    0  503    0  0.00000000000E+00  0.00000000000E+00  0.44682808732E+01  0.44682808732E+01  0.00000000000E+00 0.  1.
         -2   -1    0    0    0  501 -0.00000000000E+00 -0.00000000000E+00 -0.28919737528E+03  0.28919737528E+03  0.00000000000E+00 0. -1.
         21    1    1    2  502  501 -0.15688684280E+02 -0.29679526856E+02 -0.19486567449E+03  0.19773628960E+03  0.00000000000E+00 0. -1.
         21    1    1    2  503  502  0.15688684280E+02  0.29679526856E+02 -0.89863419914E+02  0.95929366554E+02  0.00000000000E+00 0.  1.
</event>
<event>
 4    1  0.5591986E+002  0.4766564E+02  0.7546771E-02  0.1308623E+00
          2   -1    0    0  502    0  0.00000000000E+00  0.00000000000E+00  0.11830411646E+04  0.11830411646E+04  0.00000000000E+00 0.  1.
         -2   -1    0    0    0  501 -0.00000000000E+00 -0.00000000000E+00 -0.22573943610E+01  0.22573943610E+01  0.00000000000E+00 0. -1.
         21    1    1    2  502  503  0.15539201988E+02  0.45061587349E+02  0.81934693774E+03  0.82073224491E+03  0.00000000000E+00 0.  1.
         21    1    1    2  503  501 -0.15539201988E+02 -0.45061587349E+02  0.36143683246E+03  0.36456631401E+03  0.00000000000E+00 0. -1.
</event>
<event>
 4    1  0.5591986E+002  0.2306003E+02  0.7546771E-02  0.1491746E+00
          2   -1    0    0  502    0  0.00000000000E+00  0.00000000000E+00  0.31023355608E+03  0.31023355608E+03  0.00000000000E+00 0. -1.
         -2   -1    0    0    0  501 -0.00000000000E+00 -0.00000000000E+00 -0.24496951715E+01  0.24496951715E+01  0.00000000000E+00 0.  1.
         21    1    1    2  502  503 -0.22491019158E+02  0.50910526524E+01  0.23956499361E+03  0.24067228948E+03  0.00000000000E+00 0. -1.
         21    1    1    2  503  501  0.22491019158E+02 -0.50910526524E+01  0.68218867299E+02  0.72010961772E+02  0.00000000000E+00 0.  1.
</event>
<event>
 4    1  0.5591986E+002  0.3178262E+02  0.7546771E-02  0.1404713E+00
          2   -1    0    0  503    0  0.00000000000E+00  0.00000000000E+00  0.30550091687E+03  0.30550091687E+03  0.00000000000E+00 0.  1.
         -2   -1    0    0    0  501 -0.00000000000E+00 -0.00000000000E+00 -0.60080892688E+01  0.60080892688E+01  0.00000000000E+00 0. -1.
         21    1    1    2  502  501  0.29488397602E+02 -0.11856202291E+02  0.45302521992E+02  0.55339440047E+02  0.00000000000E+00 0. -1.
         21    1    1    2  503  502 -0.29488397602E+02  0.11856202291E+02  0.25419030561E+03  0.25616956609E+03  0.00000000000E+00 0.  1.
</event>
<event>
 4    1  0.5591986E+002  0.3070741E+02  0.7546771E-02  0.1413547E+00
          2   -1    0    0  503    0  0.00000000000E+00  0.00000000000E+00  0.21293233853E+03  0.21293233853E+03  0.00000000000E+00 0.  1.
         -2   -1    0    0    0  501 -0.00000000000E+00 -0.00000000000E+00 -0.92632570963E+01  0.92632570963E+01  0.00000000000E+00 0. -1.
         21    1    1    2  502  501 -0.26528906479E+02 -0.15464858826E+02  0.21571347941E+02  0.37526894216E+02  0.00000000000E+00 0.  1.
         21    1    1    2  503  502  0.26528906479E+02  0.15464858826E+02  0.18209773349E+03  0.18466870141E+03  0.00000000000E+00 0. -1.
</event>
<event>
 4    1  0.5591986E+002  0.2416707E+02  0.7546771E-02  0.1478341E+00
          2   -1    0    0  502    0  0.00000000000E+00  0.00000000000E+00  0.74989729350E+03  0.74989729350E+03  0.00000000000E+00 0.  1.
         -2   -1    0    0    0  501 -0.00000000000E+00 -0.00000000000E+00 -0.98337368111E+00  0.98337368111E+00  0.00000000000E+00 0. -1.
         21    1    1    2  502  503 -0.15573821218E+02 -0.18479806986E+02  0.54568231163E+03  0.54621720258E+03  0.00000000000E+00 0.  1.
         21    1    1    2  503  501  0.15573821218E+02  0.18479806986E+02  0.20323160819E+03  0.20466346460E+03  0.00000000000E+00 0. -1.
</event>
<event>
 4    1  0.5591986E+002  0.2319023E+02  0.7546771E-02  0.1490123E+00
          2   -1    0    0  502    0  0.00000000000E+00  0.00000000000E+00  0.63049531654E+03  0.63049531654E+03  0.00000000000E+00 0. -1.
         -2   -1    0    0    0  501 -0.00000000000E+00 -0.00000000000E+00 -0.10037548625E+01  0.10037548625E+01  0.00000000000E+00 0.  1.
         21    1    1    2  502  503 -0.23034899933E+02 -0.26795506157E+01  0.43712951850E+03  0.43774422046E+03  0.00000000000E+00 0. -1.
         21    1    1    2  503  501  0.23034899933E+02  0.26795506157E+01  0.19236204318E+03  0.19375485094E+03  0.00000000000E+00 0.  1.
</event>
<event>
 4    1  0.5591986E+002  0.3216427E+02  0.7546771E-02  0.1401676E+00
          2   -1    0    0  503    0  0.00000000000E+00  0.00000000000E+00  0.67429251406E+03  0.67429251406E+03  0.00000000000E+00 0. -1.
         -2   -1    0    0    0  501 -0.00000000000E+00 -0.00000000000E+00 -0.50826847663E+01  0.50826847663E+01  0.00000000000E+00 0.  1.
         21    1    1    2  502  501  0.19894225995E+02  0.25273704772E+02  0.50779765605E+02  0.60109275288E+02  0.00000000000E+00 0.  1.
         21    1    1    2  503  502 -0.19894225995E+02 -0.25273704772E+02  0.61843006369E+03  0.61926592354E+03  0.00000000000E+00 0. -1.
</event>
<event>
 4    1  0.5591986E+002  0.3506570E+02  0.7546771E-02  0.1380102E+00
          2   -1    0    0  503    0  0.00000000000E+00  0.00000000000E+00  0.37882944266E+03  0.37882944266E+03  0.00000000000E+00 0. -1.
         -2   -1    0    0    0  501 -0.00000000000E+00 -0.00000000000E+00 -0.95518619331E+01  0.95518619331E+01  0.00000000000E+00 0.  1.
         21    1    1    2  502  501  0.29885572966E+02 -0.18342725356E+02  0.26854572981E+02  0.44167534852E+02  0.00000000000E+00 0.  1.
         21    1    1    2  503  502 -0.29885572966E+02  0.18342725356E+02  0.34242300774E+03  0.34421376974E+03  0.00000000000E+00 0. -1.
</event>
<event>
 4    1  0.5591986E+002  0.2838407E+02  0.7546771E-02  0.1434179E+00
          2   -1    0    0  503    0  0.00000000000E+00  0.00000000000E+00  0.51917071514E+02  0.51917071514E+02  0.00000000000E+00 0. -1.
         -2   -1    0    0    0  501 -0.00000000000E+00 -0.00000000000E+00 -0.18072525219E+02  0.18072525219E+02  0.00000000000E+00 0.  1.
         21    1    1    2  502  501 -0.16750492115E+01  0.28334596597E+02  0.37658059878E+01  0.28632786258E+02  0.00000000000E+00 0.  1.
         21    1    1    2  503  502  0.16750492115E+01 -0.28334596597E+02  0.30078740307E+02  0.41356810475E+02  0.00000000000E+00 0. -1.
</event>
<event>
 4    1  0.5591986E+002  0.4519814E+02  0.7546771E-02  0.1320452E+00
          2   -1    0    0  503    0  0.00000000000E+00  0.00000000000E+00  0.12942033945E+03  0.12942033945E+03  0.00000000000E+00 0. -1.
         -2   -1    0    0    0  501 -0.00000000000E+00 -0.00000000000E+00 -0.49322533095E+02  0.49322533095E+02  0.00000000000E+00 0.  1.
         21    1    1    2  502  501 -0.14680404684E+02 -0.42747598239E+02 -0.33646948129E+02  0.56347036793E+02  0.00000000000E+00 0.  1.
         21    1    1    2  503  502  0.14680404684E+02  0.42747598239E+02  0.11374475449E+03  0.12239583575E+03  0.00000000000E+00 0. -1.
</event>
<event>
 4    1  0.5591986E+002  0.2591271E+02  0.7546771E-02  0.1458847E+00
          2   -1    0    0  503    0  0.00000000000E+00  0.00000000000E+00  0.22323124768E+03  0.22323124768E+03  0.00000000000E+00 0.  1.
         -2   -1    0    0    0  501 -0.00000000000E+00 -0.00000000000E+00 -0.30486974451E+01  0.30486974451E+01  0.00000000000E+00 0. -1.
         21    1    1    2  502  501  0.17148751085E+02 -0.19426503844E+02  0.12317111176E+03  0.12586735672E+03  0.00000000000E+00 0.  1.
         21    1    1    2  503  502 -0.17148751085E+02  0.19426503844E+02  0.97011438477E+02  0.10041258841E+03  0.00000000000E+00 0. -1.
</event>
<event>
 4    1  0.5591986E+002  0.4592913E+02  0.7546771E-02  0.1316858E+00
          2   -1    0    0  502    0  0.00000000000E+00  0.00000000000E+00  0.53484506398E+03  0.53484506398E+03  0.00000000000E+00 0.  1.
         -2   -1    0    0    0  501 -0.00000000000E+00 -0.00000000000E+00 -0.40524255355E+01  0.40524255355E+01  0.00000000000E+00 0. -1.
         21    1    1    2  502  503 -0.11748387423E+02  0.44401126506E+02  0.30944934317E+03  0.31283922489E+03  0.00000000000E+00 0.  1.
         21    1    1    2  503  501  0.11748387423E+02 -0.44401126506E+02  0.22134329527E+03  0.22605826462E+03  0.00000000000E+00 0. -1.
</event>
<event>
 4    1  0.5591986E+002  0.2455074E+02  0.7546771E-02  0.1473892E+00
          2   -1    0    0  502    0  0.00000000000E+00  0.00000000000E+00  0.89928305367E+03  0.89928305367E+03  0.00000000000E+00 0.  1.
         -2   -1    0    0    0  501 -0.00000000000E+00 -0.00000000000E+00 -0.28001433391E+01  0.28001433391E+01  0.00000000000E+00 0. -1.
         21    1    1    2  502  503 -0.23562380023E+02  0.68958721570E+01  0.84161580264E+03  0.84197381079E+03  0.00000000000E+00 0.  1.
         21    1    1    2  503  501  0.23562380023E+02 -0.68958721570E+01  0.54867107696E+02  0.60109386223E+02  0.00000000000E+00 0. -1.
</event>
<event>
 4    1  0.5591986E+002  0.3555279E+02  0.7546771E-02  0.1376718E+00
          2   -1    0    0  502    0  0.00000000000E+00  0.00000000000E+00  0.11406669816E+04  0.11406669816E+04  0.00000000000E+00 0.  1.
         -2   -1    0    0    0  501 -0.00000000000E+00 -0.00000000000E+00 -0.14970822829E+01  0.14970822829E+01  0.00000000000E+00 0. -1.
         21    1    1    2  502  503 -0.15652543665E+02 -0.31921765094E+02  0.86067462714E+03  0.86140862255E+03  0.00000000000E+00 0.  1.
         21    1    1    2  503  501  0.15652543665E+02  0.31921765094E+02  0.27849527214E+03  0.28075544129E+03  0.00000000000E+00 0. -1.
</event>
<event>
 4    1  0.5591986E+002  0.5723810E+02  0.7546771E-02  0.1269517E+00
          2   -1    0    0  503    0  0.00000000000E+00  0.00000000000E+00  0.39952091575E+03  0.39952091575E+03  0.00000000000E+00 0.  1.
         -2   -1    0    0    0  501 -0.00000000000E+00 -0.00000000000E+00 -0.24443999687E+02  0.24443999687E+02  0.00000000000E+00 0. -1.
         21    1    1    2  502  501 -0.57209816040E+02  0.17990892009E+01  0.14733585975E+02  0.59103962041E+02  0.00000000000E+00 0. -1.
         21    1    1    2  503  502  0.57209816040E+02 -0.17990892009E+01  0.36034333008E+03  0.36486095339E+03  0.00000000000E+00 0.  1.
</event>
<event>
 4    1  0.5591986E+002  0.3431360E+02  0.7546771E-02  0.1385454E+00
          2   -1    0    0  503    0  0.00000000000E+00  0.00000000000E+00  0.43371959935E+01  0.43371959935E+01  0.00000000000E+00 0. -1.
         -2   -1    0    0    0  501 -0.00000000000E+00 -0.00000000000E+00 -0.48509920402E+03  0.48509920402E+03  0.00000000000E+00 0.  1.
         21    1    1    2  502  501 -0.20066541217E+02 -0.27834457734E+02 -0.40277884121E+03  0.40423782362E+03  0.00000000000E+00 0.  1.
         21    1    1    2  503  502  0.20066541217E+02  0.27834457734E+02 -0.77983166818E+02  0.85198576401E+02  0.00000000000E+00 0. -1.
</event>
<event>
 4    1  0.5591986E+002  0.3222814E+02  0.7546771E-02  0.1401173E+00
          2   -1    0    0  502    0  0.00000000000E+00  0.00000000000E+00  0.27082663193E+02  0.27082663193E+02  0.00000000000E+00 0. -1.
         -2   -1    0    0    0  501 -0.00000000000E+00 -0.00000000000E+00 -0.11155760201E+03  0.11155760201E+03  0.00000000000E+00 0.  1.
         21    1    1    2  502  503 -0.13863181142E+02  0.29094072626E+02  0.13916997239E+02  0.35104638803E+02  0.00000000000E+00 0. -1.
         21    1    1    2  503  501  0.13863181142E+02 -0.29094072626E+02 -0.98391936054E+02  0.10353562640E+03  0.00000000000E+00 0.  1.
</event>
<event>
 4    1  0.5591986E+002  0.2205494E+02  0.7546771E-02  0.1504719E+00
          2   -1    0    0  503    0  0.00000000000E+00  0.00000000000E+00  0.36587503581E+03  0.36587503581E+03  0.00000000000E+00 0.  1.
         -2   -1    0    0    0  501 -0.00000000000E+00 -0.00000000000E+00 -0.11981555266E+02  0.11981555266E+02  0.00000000000E+00 0. -1.
         21    1    1    2  502  501 -0.21082047896E+02  0.64782360450E+01 -0.11917238226E+01  0.22087111432E+02  0.00000000000E+00 0. -1.
         21    1    1    2  503  502  0.21082047896E+02 -0.64782360450E+01  0.35508520436E+03  0.35576947964E+03  0.00000000000E+00 0.  1.
</event>
<event>
 4    1  0.5591986E+002  0.2259847E+02  0.7546771E-02  0.1497603E+00
          2   -1    0    0  502    0  0.00000000000E+00  0.00000000000E+00  0.62220716666E+03  0.62220716666E+03  0.00000000000E+00 0. -1.
         -2   -1    0    0    0  501 -0.00000000000E+00 -0.00000000000E+00 -0.89815740774E+00  0.89815740774E+00  0.00000000000E+00 0.  1.
         21    1    1    2  502  503 -0.76226738896E+01  0.21274061604E+02  0.40210412728E+03  0.40273864979E+03  0.00000000000E+00 0. -1.
         21    1    1    2  503  501  0.76226738896E+01 -0.21274061604E+02  0.21920488197E+03  0.22036667428E+03  0.00000000000E+00 0.  1.
</event>
<event>
 4    1  0.5591986E+002  0.2278430E+02  0.7546771E-02  0.1495225E+00
          2   -1    0    0  503    0  0.00000000000E+00  0.00000000000E+00  0.19043274769E+03  0.19043274769E+03  0.00000000000E+00 0. -1.
         -2   -1    0    0    0  501 -0.00000000000E+00 -0.00000000000E+00 -0.28145973259E+01  0.28145973259E+01  0.00000000000E+00 0.  1.
         21    1    1    2  502  501  0.96183598635E+01  0.20654580392E+02  0.76668592129E+02  0.79982482812E+02  0.00000000000E+00 0. -1.
         21    1    1    2  503  502 -0.96183598635E+01 -0.20654580392E+02  0.11094955824E+03  0.11326486221E+03  0.00000000000E+00 0.  1.
</event>
<event>
 4    1  0.5591986E+002  0.2223331E+02  0.7546771E-02  0.1502357E+00
          2   -1    0    0  503    0  0.00000000000E+00  0.00000000000E+00  0.13091857511E+02  0.13091857511E+02  0.00000000000E+00 0. -1.
         -2   -1    0    0    0  501 -0.00000000000E+00 -0.00000000000E+00 -0.52236605418E+02  0.52236605418E+02  0.00000000000E+00 0.  1.
         21    1    1    2  502  501 -0.17296693884E+01 -0.22165923708E+02 -0.36769311592E+02  0.42968618839E+02  0.00000000000E+00 0.  1.
         21    1    1    2  503  502  0.17296693884E+01  0.22165923708E+02 -0.23754363147E+01  0.22359844090E+02  0.00000000000E+00 0. -1.
</event>
<event>
 4    1  0.5591986E+002  0.5434773E+02  0.7546771E-02  0.1280348E+00
          2   -1    0    0  502    0  0.00000000000E+00  0.00000000000E+00  0.31701098345E+03  0.31701098345E+03  0.00000000000E+00 0.  1.
         -2   -1    0    0    0  501 -0.00000000000E+00 -0.00000000000E+00 -0.14658257760E+02  0.14658257760E+02  0.00000000000E+00 0. -1.
         21    1    1    2  502  503 -0.26562329285E+02  0.47414323352E+02  0.25127888314E+03  0.25708899725E+03  0.00000000000E+00 0.  1.
         21    1    1    2  503  501  0.26562329285E+02 -0.47414323352E+02  0.51073842551E+02  0.74580243958E+02  0.00000000000E+00 0. -1.
</event>
<event>
 4    1  0.5591986E+002  0.3108641E+02  0.7546771E-02  0.1410385E+00
          2   -1    0    0  503    0  0.00000000000E+00  0.00000000000E+00  0.10401436105E+04  0.10401436105E+04  0.00000000000E+00 0.  1.
         -2   -1    0    0    0  501 -0.00000000000E+00 -0.00000000000E+00 -0.10079555326E+01  0.10079555326E+01  0.00000000000E+00 0. -1.
         21    1    1    2  502  501  0.31009137608E+02  0.21905474640E+01  0.66520253739E+03  0.66592851032E+03  0.00000000000E+00 0. -1.
         21    1    1    2  503  502 -0.31009137608E+02 -0.21905474640E+01  0.37393311756E+03  0.37522305569E+03  0.00000000000E+00 0.  1.
</event>
<event>
 4    1  0.5591986E+002  0.2476721E+02  0.7546771E-02  0.1471424E+00
          2   -1    0    0  503    0  0.00000000000E+00  0.00000000000E+00  0.14552298977E+03  0.14552298977E+03  0.00000000000E+00 0. -1.
         -2   -1    0    0    0  501 -0.00000000000E+00 -0.00000000000E+00 -0.16630280563E+02  0.16630280563E+02  0.00000000000E+00 0.  1.
         21    1    1    2  502  501  0.63253512915E+01 -0.23945873639E+02 -0.56055466641E+01  0.25393642643E+02  0.00000000000E+00 0.  1.
         21    1    1    2  503  502 -0.63253512915E+01  0.23945873639E+02  0.13449825587E+03  0.13675962769E+03  0.00000000000E+00 0. -1.
</event>
<event>
 4    1  0.5591986E+002  0.2036829E+02  0.7546771E-02  0.1528478E+00
          2   -1    0    0  503    0  0.00000000000E+00  0.00000000000E+00  0.11173648046E+02  0.11173648046E+02  0.00000000000E+00 0. -1.
         -2   -1    0    0    0  501 -0.00000000000E+00 -0.00000000000E+00 -0.12752858420E+03  0.12752858420E+03  0.00000000000E+00 0.  1.
         21    1    1    2  502  501  0.76193826454E+01  0.18889469509E+02 -0.11656669938E+03  0.11833284605E+03  0.00000000000E+00 0.  1.
         21    1    1    2  503  502 -0.76193826454E+01 -0.18889469509E+02  0.21176322816E+00  0.20369386194E+02  0.00000000000E+00 0. -1.
</event>
<event>
 4    1  0.5591986E+002  0.2248455E+02  0.7546771E-02  0.1499074E+00
          2   -1    0    0  503    0  0.00000000000E+00  0.00000000000E+00  0.11552201975E+01  0.11552201975E+01  0.00000000000E+00 0. -1.
         -2   -1    0    0    0  501 -0.00000000000E+00 -0.00000000000E+00 -0.76895897091E+03  0.76895897091E+03  0.00000000000E+00 0.  1.
         21    1    1    2  502  501 -0.53072554907E+01  0.21849206015E+02 -0.63666031404E+03  0.63705722682E+03  0.00000000000E+00 0.  1.
         21    1    1    2  503  502  0.53072554907E+01 -0.21849206015E+02 -0.13114343667E+03  0.13305696429E+03  0.00000000000E+00 0. -1.
</event>
<event>
 4    1  0.5591986E+002  0.3326652E+02  0.7546771E-02  0.1393177E+00
          2   -1    0    0  502    0  0.00000000000E+00  0.00000000000E+00  0.19980694501E+03  0.19980694501E+03  0.00000000000E+00 0.  1.
         -2   -1    0    0    0  501 -0.00000000000E+00 -0.00000000000E+00 -0.56114017091E+01  0.56114017091E+01  0.00000000000E+00 0. -1.
         21    1    1    2  502  503 -0.26804520449E+02  0.19702252496E+02  0.10879250072E+03  0.11376497388E+03  0.00000000000E+00 0.  1.
         21    1    1    2  503  501  0.26804520449E+02 -0.19702252496E+02  0.85403042579E+02  0.91653372833E+02  0.00000000000E+00 0. -1.
</event>
<event>
 4    1  0.5591986E+002  0.2341201E+02  0.7546771E-02  0.1487388E+00
          2   -1    0    0  503    0  0.00000000000E+00  0.00000000000E+00  0.12121559512E+04  0.12121559512E+04  0.00000000000E+00 0. -1.
         -2   -1    0    0    0  501 -0.00000000000E+00 -0.00000000000E+00 -0.10267783898E+01  0.10267783898E+01  0.00000000000E+00 0.  1.
         21    1    1    2  502  501  0.15352268476E+02 -0.17675688931E+02  0.15179318610E+03  0.15358806423E+03  0.00000000000E+00 0.  1.
         21    1    1    2  503  502 -0.15352268476E+02  0.17675688931E+02  0.10593359867E+04  0.10595946653E+04  0.00000000000E+00 0. -1.
</event>
<event>
 4    1  0.5591986E+002  0.2605514E+02  0.7546771E-02  0.1457337E+00
          2   -1    0    0  502    0  0.00000000000E+00  0.00000000000E+00  0.27144604484E+02  0.27144604484E+02  0.00000000000E+00 0.  1.
         -2   -1    0    0    0  501 -0.00000000000E+00 -0.00000000000E+00 -0.35622141731E+02  0.35622141731E+02  0.00000000000E+00 0. -1.
         21    1    1    2  502  503 -0.14099307543E+01  0.26016964258E+02  0.12891073369E+02  0.29069745553E+02  0.00000000000E+00 0.  1.
         21    1    1    2  503  501  0.14099307543E+01 -0.26016964258E+02 -0.21368610617E+02  0.33697000662E+02  0.00000000000E+00 0. -1.
</event>
<event>
 4    1  0.5591986E+002  0.2226519E+02  0.7546771E-02  0.1501937E+00
          2   -1    0    0  502    0  0.00000000000E+00  0.00000000000E+00  0.18938960513E+03  0.18938960513E+03  0.00000000000E+00 0.  1.
         -2   -1    0    0    0  501 -0.00000000000E+00 -0.00000000000E+00 -0.27053094546E+01  0.27053094546E+01  0.00000000000E+00 0. -1.
         21    1    1    2  502  503 -0.98960492144E+01  0.19945097072E+02  0.11064027899E+03  0.11285836266E+03  0.00000000000E+00 0.  1.
         21    1    1    2  503  501  0.98960492144E+01 -0.19945097072E+02  0.76044016685E+02  0.79236551925E+02  0.00000000000E+00 0. -1.
</event>
<event>
 4    1  0.5591986E+002  0.3986105E+02  0.7546771E-02  0.1349302E+00
          2   -1    0    0  502    0  0.00000000000E+00  0.00000000000E+00  0.21410303386E+02  0.21410303386E+02  0.00000000000E+00 0.  1.
         -2   -1    0    0    0  501 -0.00000000000E+00 -0.00000000000E+00 -0.95963340858E+02  0.95963340858E+02  0.00000000000E+00 0. -1.
         21    1    1    2  502  503 -0.37022782323E+02  0.14772168597E+02 -0.65216751876E+02  0.76433815169E+02  0.00000000000E+00 0. -1.
         21    1    1    2  503  501  0.37022782323E+02 -0.14772168597E+02 -0.93362855968E+01  0.40939829075E+02  0.00000000000E+00 0.  1.
</event>
<event>
 4    1  0.5591986E+002  0.2326097E+02  0.7546771E-02  0.1489247E+00
          2   -1    0    0  502    0  0.00000000000E+00  0.00000000000E+00  0.31577879578E+03  0.31577879578E+03  0.00000000000E+00 0. -1.
         -2   -1    0    0    0  501 -0.00000000000E+00 -0.00000000000E+00 -0.17543101034E+01  0.17543101034E+01  0.00000000000E+00 0.  1.
         21    1    1    2  502  503 -0.22415228187E+02 -0.62153422759E+01  0.18124071334E+03  0.18272730804E+03  0.00000000000E+00 0. -1.
         21    1    1    2  503  501  0.22415228187E+02  0.62153422759E+01  0.13278377234E+03  0.13480579784E+03  0.00000000000E+00 0.  1.
</event>
<event>
 4    1  0.5591986E+002  0.2364705E+02  0.7546771E-02  0.1484529E+00
          2   -1    0    0  503    0  0.00000000000E+00  0.00000000000E+00  0.23694490500E+03  0.23694490500E+03  0.00000000000E+00 0.  1.
         -2   -1    0    0    0  501 -0.00000000000E+00 -0.00000000000E+00 -0.53722247613E+01  0.53722247613E+01  0.00000000000E+00 0. -1.
         21    1    1    2  502  501 -0.16296123128E+02 -0.17135323193E+02  0.25062199277E+02  0.34457172874E+02  0.00000000000E+00 0. -1.
         21    1    1    2  503  502  0.16296123128E+02  0.17135323193E+02  0.20651048096E+03  0.20785995689E+03  0.00000000000E+00 0.  1.
</event>
<event>
 4    1  0.5591986E+002  0.2034744E+02  0.7546771E-02  0.1528789E+00
          2   -1    0    0  503    0  0.00000000000E+00  0.00000000000E+00  0.30481428598E+03  0.30481428598E+03  0.00000000000E+00 0. -1.
         -2   -1    0    0    0  501 -0.00000000000E+00 -0.00000000000E+00 -0.26022718731E+01  0.26022718731E+01  0.00000000000E+00 0.  1.
         21    1    1    2  502  501 -0.16933133816E+02 -0.11282164576E+02  0.44830668319E+02  0.49232175254E+02  0.00000000000E+00 0.  1.
         21    1    1    2  503  502  0.16933133816E+02  0.11282164576E+02  0.25738134579E+03  0.25818438260E+03  0.00000000000E+00 0. -1.
</event>
<event>
 4    1  0.5591986E+002  0.1014498E+03  0.7546771E-02  0.1161319E+00
          2   -1    0    0  502    0  0.00000000000E+00  0.00000000000E+00  0.17241521020E+04  0.17241521020E+04  0.00000000000E+00 0.  1.
         -2   -1    0    0    0  501 -0.00000000000E+00 -0.00000000000E+00 -0.12615222294E+02  0.12615222294E+02  0.00000000000E+00 0. -1.
         21    1    1    2  502  503 -0.59758196051E+02  0.81981823681E+02  0.14860582683E+04  0.14895171158E+04  0.00000000000E+00 0.  1.
         21    1    1    2  503  501  0.59758196051E+02 -0.81981823681E+02  0.22547861139E+03  0.24725020850E+03  0.00000000000E+00 0. -1.
</event>
<event>
 4    1  0.5591986E+002  0.2117019E+02  0.7546771E-02  0.1516849E+00
          2   -1    0    0  503    0  0.00000000000E+00  0.00000000000E+00  0.44105928283E+03  0.44105928283E+03  0.00000000000E+00 0.  1.
         -2   -1    0    0    0  501 -0.00000000000E+00 -0.00000000000E+00 -0.61942152679E+01  0.61942152679E+01  0.00000000000E+00 0. -1.
         21    1    1    2  502  501  0.15362695613E+02  0.14565868600E+02  0.12969462056E+02  0.24827079783E+02  0.00000000000E+00 0. -1.
         21    1    1    2  503  502 -0.15362695613E+02 -0.14565868600E+02  0.42189560551E+03  0.42242641832E+03  0.00000000000E+00 0.  1.
</event>
<event>
 4    1  0.5591986E+002  0.2494871E+02  0.7546771E-02  0.1469378E+00
          2   -1    0    0  502    0  0.00000000000E+00  0.00000000000E+00  0.25511514820E+03  0.25511514820E+03  0.00000000000E+00 0. -1.
         -2   -1    0    0    0  501 -0.00000000000E+00 -0.00000000000E+00 -0.54261078729E+01  0.54261078729E+01  0.00000000000E+00 0.  1.
         21    1    1    2  502  503  0.74748926035E+01  0.23802609629E+02  0.22148681130E+03  0.22288751832E+03  0.00000000000E+00 0. -1.
         21    1    1    2  503  501 -0.74748926035E+01 -0.23802609629E+02  0.28202229036E+02  0.37653737758E+02  0.00000000000E+00 0.  1.
</event>
<event>
 4    1  0.5591986E+002  0.2143150E+02  0.7546771E-02  0.1513193E+00
          2   -1    0    0  502    0  0.00000000000E+00  0.00000000000E+00  0.40445428523E+02  0.40445428523E+02  0.00000000000E+00 0.  1.
         -2   -1    0    0    0  501 -0.00000000000E+00 -0.00000000000E+00 -0.17054914066E+02  0.17054914066E+02  0.00000000000E+00 0. -1.
         21    1    1    2  502  503 -0.10619656492E+02  0.18615366809E+02  0.28314133067E+02  0.35510549374E+02  0.00000000000E+00 0.  1.
         21    1    1    2  503  501  0.10619656492E+02 -0.18615366809E+02 -0.49236186105E+01  0.21989793216E+02  0.00000000000E+00 0. -1.
</event>
<event>
 4    1  0.5591986E+002  0.6170393E+02  0.7546771E-02  0.1254151E+00
          2   -1    0    0  502    0  0.00000000000E+00  0.00000000000E+00  0.14212241099E+04  0.14212241099E+04  0.00000000000E+00 0. -1.
         -2   -1    0    0    0  501 -0.00000000000E+00 -0.00000000000E+00 -0.30125896286E+02  0.30125896286E+02  0.00000000000E+00 0.  1.
         21    1    1    2  502  503  0.36004472036E+02  0.50110412649E+02  0.13882077581E+04  0.13895784092E+04  0.00000000000E+00 0. -1.
         21    1    1    2  503  501 -0.36004472036E+02 -0.50110412649E+02  0.28904554481E+01  0.61771596993E+02  0.00000000000E+00 0.  1.
</event>
<event>
 4    1  0.5591986E+002  0.2406074E+02  0.7546771E-02  0.1479591E+00
          2   -1    0    0  502    0  0.00000000000E+00  0.00000000000E+00  0.23296096689E+03  0.23296096689E+03  0.00000000000E+00 0.  1.
         -2   -1    0    0    0  501 -0.00000000000E+00 -0.00000000000E+00 -0.45018906887E+03  0.45018906887E+03  0.00000000000E+00 0. -1.
         21    1    1    2  502  503  0.13994703815E+02 -0.19572110458E+02  0.23201691350E+03  0.23326115706E+03  0.00000000000E+00 0.  1.
         21    1    1    2  503  501 -0.13994703815E+02  0.19572110458E+02 -0.44924501548E+03  0.44988887870E+03  0.00000000000E+00 0. -1.
</event>
<event>
 4    1  0.5591986E+002  0.2601349E+02  0.7546771E-02  0.1457778E+00
          2   -1    0    0  502    0  0.00000000000E+00  0.00000000000E+00  0.13641749225E+01  0.13641749225E+01  0.00000000000E+00 0. -1.
         -2   -1    0    0    0  501 -0.00000000000E+00 -0.00000000000E+00 -0.91311630255E+03  0.91311630255E+03  0.00000000000E+00 0.  1.
         21    1    1    2  502  503 -0.25252454031E+02  0.62462078863E+01 -0.14685864414E+03  0.14914477163E+03  0.00000000000E+00 0. -1.
         21    1    1    2  503  501  0.25252454031E+02 -0.62462078863E+01 -0.76489348349E+03  0.76533570584E+03  0.00000000000E+00 0.  1.
</event>
<event>
 4    1  0.5591986E+002  0.2231840E+02  0.7546771E-02  0.1501239E+00
          2   -1    0    0  502    0  0.00000000000E+00  0.00000000000E+00  0.16931468005E+04  0.16931468005E+04  0.00000000000E+00 0. -1.
         -2   -1    0    0    0  501 -0.00000000000E+00 -0.00000000000E+00 -0.74024363073E+00  0.74024363073E+00  0.00000000000E+00 0.  1.
         21    1    1    2  502  503 -0.22195926346E+02 -0.23349098823E+01  0.15036483490E+04  0.15038139740E+04  0.00000000000E+00 0. -1.
         21    1    1    2  503  501  0.22195926346E+02  0.23349098823E+01  0.18875820788E+03  0.19007307014E+03  0.00000000000E+00 0.  1.
</event>
<event>
 4    1  0.5591986E+002  0.4200123E+02  0.7546771E-02  0.1337141E+00
          2   -1    0    0  502    0  0.00000000000E+00  0.00000000000E+00  0.11755267680E+04  0.11755267680E+04  0.00000000000E+00 0.  1.
         -2   -1    0    0    0  501 -0.00000000000E+00 -0.00000000000E+00 -0.73726804862E+01  0.73726804862E+01  0.00000000000E+00 0. -1.
         21    1    1    2  502  503  0.41810285804E+02  0.40004547640E+01  0.11119114845E+04  0.11127044769E+04  0.00000000000E+00 0.  1.
         21    1    1    2  503  501 -0.41810285804E+02 -0.40004547640E+01  0.56242603035E+02  0.70194971568E+02  0.00000000000E+00 0. -1.
</event>
<event>
 4    1  0.5591986E+002  0.3499651E+02  0.7546771E-02  0.1380588E+00
          2   -1    0    0  503    0  0.00000000000E+00  0.00000000000E+00  0.11484232085E+02  0.11484232085E+02  0.00000000000E+00 0. -1.
         -2   -1    0    0    0  501 -0.00000000000E+00 -0.00000000000E+00 -0.10899665581E+03  0.10899665581E+03  0.00000000000E+00 0.  1.
         21    1    1    2  502  501 -0.31488342053E+02  0.15272203740E+02 -0.57601416748E+02  0.67399399876E+02  0.00000000000E+00 0. -1.
         21    1    1    2  503  502  0.31488342053E+02 -0.15272203740E+02 -0.39911006976E+02  0.53081488018E+02  0.00000000000E+00 0.  1.
</event>
<event>
 4    1  0.5591986E+002  0.3591729E+02  0.7546771E-02  0.1374227E+00
          2   -1    0    0  502    0  0.00000000000E+00  0.00000000000E+00  0.14988297271E+04  0.14988297271E+04  0.00000000000E+00 0. -1.
         -2   -1    0    0    0  501 -0.00000000000E+00 -0.00000000000E+00 -0.11296730495E+01  0.11296730495E+01  0.00000000000E+00 0.  1.
         21    1    1    2  502  503  0.89410460549E+01  0.34786630739E+02  0.11148006852E+04  0.11153791372E+04  0.00000000000E+00 0.  1.
         21    1    1    2  503  501 -0.89410460549E+01 -0.34786630739E+02  0.38289936883E+03  0.38458026293E+03  0.00000000000E+00 0. -1.
</event>
<event>
 4    1  0.5591986E+002  0.2232716E+02  0.7546771E-02  0.1501124E+00
          2   -1    0    0  502    0  0.00000000000E+00  0.00000000000E+00  0.54475214354E+02  0.54475214354E+02  0.00000000000E+00 0.  1.
         -2   -1    0    0    0  501 -0.00000000000E+00 -0.00000000000E+00 -0.10821518944E+02  0.10821518944E+02  0.00000000000E+00 0. -1.
         21    1    1    2  502  503  0.20093090756E+02  0.97349701813E+01  0.89992648178E+01  0.24072571691E+02  0.00000000000E+00 0.  1.
         21    1    1    2  503  501 -0.20093090756E+02 -0.97349701813E+01  0.34654430592E+02  0.41224161607E+02  0.00000000000E+00 0. -1.
</event>
<event>
 4    1  0.5591986E+002  0.2289933E+02  0.7546771E-02  0.1493766E+00
          2   -1    0    0  502    0  0.00000000000E+00  0.00000000000E+00  0.85296494972E+02  0.85296494972E+02  0.00000000000E+00 0.  1.
         -2   -1    0    0    0  501 -0.00000000000E+00 -0.00000000000E+00 -0.73471022689E+01  0.73471022689E+01  0.00000000000E+00 0. -1.
         21    1    1    2  502  503  0.19717634752E+01  0.22814283782E+02  0.57690361916E+02  0.62068971747E+02  0.00000000000E+00 0. -1.
         21    1    1    2  503  501 -0.19717634752E+01 -0.22814283782E+02  0.20259030787E+02  0.30574625494E+02  0.00000000000E+00 0.  1.
</event>
<event>
 4    1  0.5591986E+002  0.2519586E+02  0.7546771E-02  0.1466624E+00
          2   -1    0    0  502    0  0.00000000000E+00  0.00000000000E+00  0.36268101276E+02  0.36268101276E+02  0.00000000000E+00 0. -1.
         -2   -1    0    0    0  501 -0.00000000000E+00 -0.00000000000E+00 -0.26722136330E+02  0.26722136330E+02  0.00000000000E+00 0.  1.
         21    1    1    2  502  503 -0.10020959885E+02 -0.23117345999E+02  0.23271324835E+02  0.34298482220E+02  0.00000000000E+00 0. -1.
         21    1    1    2  503  501  0.10020959885E+02  0.23117345999E+02 -0.13725359889E+02  0.28691755386E+02  0.00000000000E+00 0.  1.
</event>
<event>
 4    1  0.5591986E+002  0.2002064E+02  0.7546771E-02  0.1533720E+00
          2   -1    0    0  502    0  0.00000000000E+00  0.00000000000E+00  0.81029183044E+03  0.81029183044E+03  0.00000000000E+00 0. -1.
         -2   -1    0    0    0  501 -0.00000000000E+00 -0.00000000000E+00 -0.10299894588E+01  0.10299894588E+01  0.00000000000E+00 0.  1.
         21    1    1    2  502  503 -0.19754420168E+02  0.32540818284E+01  0.69708233999E+03  0.69736978347E+03  0.00000000000E+00 0. -1.
         21    1    1    2  503  501  0.19754420168E+02 -0.32540818284E+01  0.11217950100E+03  0.11395203644E+03  0.00000000000E+00 0.  1.
</event>
<event>
 4    1  0.5591986E+002  0.2320206E+02  0.7546771E-02  0.1489976E+00
          2   -1    0    0  503    0  0.00000000000E+00  0.00000000000E+00  0.50727498136E+03  0.50727498136E+03  0.00000000000E+00 0. -1.
         -2   -1    0    0    0  501 -0.00000000000E+00 -0.00000000000E+00 -0.19205710590E+01  0.19205710590E+01  0.00000000000E+00 0.  1.
         21    1    1    2  502  501  0.19390539743E+02 -0.12741362866E+02  0.82374231294E+02  0.85579491354E+02  0.00000000000E+00 0.  1.
         21    1    1    2  503  502 -0.19390539743E+02  0.12741362866E+02  0.42298017901E+03  0.42361606106E+03  0.00000000000E+00 0. -1.
</event>
<event>
 4    1  0.5591986E+002  0.2008243E+02  0.7546771E-02  0.1532779E+00
          2   -1    0    0  502    0  0.00000000000E+00  0.00000000000E+00  0.58040789490E+03  0.58040789490E+03  0.00000000000E+00 0.  1.
         -2   -1    0    0    0  501 -0.00000000000E+00 -0.00000000000E+00 -0.78007522104E+00  0.78007522104E+00  0.00000000000E+00 0. -1.
         21    1    1    2  502  503  0.20065945490E+02 -0.81360622969E+00  0.38585755900E+03  0.38637981309E+03  0.00000000000E+00 0.  1.
         21    1    1    2  503  501 -0.20065945490E+02  0.81360622969E+00  0.19377026068E+03  0.19480815703E+03  0.00000000000E+00 0. -1.
</event>
<event>
 4    1  0.5591986E+002  0.2027140E+02  0.7546771E-02  0.1529927E+00
          2   -1    0    0  503    0  0.00000000000E+00  0.00000000000E+00  0.11682040089E+04  0.11682040089E+04  0.00000000000E+00 0. -1.
         -2   -1    0    0    0  501 -0.00000000000E+00 -0.00000000000E+00 -0.47268549359E+00  0.47268549359E+00  0.00000000000E+00 0.  1.
         21    1    1    2  502  501  0.10970820675E+02 -0.17046137677E+02  0.28831380648E+03  0.28902557105E+03  0.00000000000E+00 0.  1.
         21    1    1    2  503  502 -0.10970820675E+02  0.17046137677E+02  0.87941751696E+03  0.87965112337E+03  0.00000000000E+00 0. -1.
</event>
<event>
 4    1  0.5591986E+002  0.2000070E+02  0.7546771E-02  0.1534025E+00
          2   -1    0    0  502    0  0.00000000000E+00  0.00000000000E+00  0.65903949267E+03  0.65903949267E+03  0.00000000000E+00 0.  1.
         -2   -1    0    0    0  501 -0.00000000000E+00 -0.00000000000E+00 -0.40800704515E+01  0.40800704515E+01  0.00000000000E+00 0. -1.
         21    1    1    2  502  503 -0.19189159275E+02  0.56395279549E+01  0.63338405994E+03  0.63369976764E+03  0.00000000000E+00 0.  1.
         21    1    1    2  503  501  0.19189159275E+02 -0.56395279549E+01  0.21575362277E+02  0.29419795489E+02  0.00000000000E+00 0. -1.
</event>
<event>
 4    1  0.5591986E+002  0.2316991E+02  0.7546771E-02  0.1490375E+00
          2   -1    0    0  502    0  0.00000000000E+00  0.00000000000E+00  0.47978465052E+02  0.47978465052E+02  0.00000000000E+00 0. -1.
         -2   -1    0    0    0  501 -0.00000000000E+00 -0.00000000000E+00 -0.93069943356E+02  0.93069943356E+02  0.00000000000E+00 0.  1.
         21    1    1    2  502  503  0.63265984218E+01 -0.22289437278E+02  0.43603389003E+02  0.49377124200E+02  0.00000000000E+00 0. -1.
         21    1    1    2  503  501 -0.63265984218E+01  0.22289437278E+02 -0.88694867307E+02  0.91671284208E+02  0.00000000000E+00 0.  1.
</event>
<event>
 4    1  0.5591986E+002  0.2653659E+02  0.7546771E-02  0.1452320E+00
          2   -1    0    0  503    0  0.00000000000E+00  0.00000000000E+00  0.37993023283E+02  0.37993023283E+02  0.00000000000E+00 0.  1.
         -2   -1    0    0    0  501 -0.00000000000E+00 -0.00000000000E+00 -0.21530758352E+02  0.21530758352E+02  0.00000000000E+00 0. -1.
         21    1    1    2  502  501  0.88130916947E+01 -0.25030380776E+02 -0.28709280168E+01  0.26691436355E+02  0.00000000000E+00 0. -1.
         21    1    1    2  503  502 -0.88130916947E+01  0.25030380776E+02  0.19333192947E+02  0.32832345280E+02  0.00000000000E+00 0.  1.
</event>
<event>
 4    1  0.5591986E+002  0.8809780E+02  0.7546771E-02  0.1186202E+00
          2   -1    0    0  503    0  0.00000000000E+00  0.00000000000E+00  0.21784440027E+04  0.21784440027E+04  0.00000000000E+00 0.  1.
         -2   -1    0    0    0  501 -0.00000000000E+00 -0.00000000000E+00 -0.14887051326E+02  0.14887051326E+02  0.00000000000E+00 0. -1.
         21    1    1    2  502  501 -0.50187592925E+02 -0.72404612737E+02  0.12529865428E+03  0.15316975940E+03  0.00000000000E+00 0. -1.
         21    1    1    2  503  502  0.50187592925E+02  0.72404612737E+02  0.20382582971E+04  0.20401612947E+04  0.00000000000E+00 0.  1.
</event>
<event>
 4    1  0.5591986E+002  0.2991524E+02  0.7546771E-02  0.1420335E+00
          2   -1    0    0  503    0  0.00000000000E+00  0.00000000000E+00  0.30487485889E+04  0.30487485889E+04  0.00000000000E+00 0. -1.
         -2   -1    0    0    0  501 -0.00000000000E+00 -0.00000000000E+00 -0.30235983575E+00  0.30235983575E+00  0.00000000000E+00 0.  1.
         21    1    1    2  502  501  0.80315025055E+01  0.28816954215E+02  0.12638082998E+04  0.12641623079E+04  0.00000000000E+00 0. -1.
         21    1    1    2  503  502 -0.80315025055E+01 -0.28816954215E+02  0.17846379293E+04  0.17848886409E+04  0.00000000000E+00 0.  1.
</event>
<event>
 4    1  0.5591986E+002  0.2210865E+02  0.7546771E-02  0.1504005E+00
          2   -1    0    0  502    0  0.00000000000E+00  0.00000000000E+00  0.80553303045E+02  0.80553303045E+02  0.00000000000E+00 0. -1.
         -2   -1    0    0    0  501 -0.00000000000E+00 -0.00000000000E+00 -0.11277425195E+02  0.11277425195E+02  0.00000000000E+00 0.  1.
         21    1    1    2  502  503 -0.95839335983E+01 -0.19923373655E+02  0.65844827029E+02  0.69457424712E+02  0.00000000000E+00 0. -1.
         21    1    1    2  503  501  0.95839335983E+01  0.19923373655E+02  0.34310508210E+01  0.22373303528E+02  0.00000000000E+00 0.  1.
</event>
<event>
 4    1  0.5591986E+002  0.3226133E+02  0.7546771E-02  0.1400912E+00
          2   -1    0    0  502    0  0.00000000000E+00  0.00000000000E+00  0.58718186041E+03  0.58718186041E+03  0.00000000000E+00 0.  1.
         -2   -1    0    0    0  501 -0.00000000000E+00 -0.00000000000E+00 -0.84777185410E+01  0.84777185410E+01  0.00000000000E+00 0. -1.
         21    1    1    2  502  503  0.28276668217E+02 -0.15531361507E+02  0.55422304713E+03  0.55516121904E+03  0.00000000000E+00 0.  1.
         21    1    1    2  503  501 -0.28276668217E+02  0.15531361507E+02  0.24481094734E+02  0.40498359906E+02  0.00000000000E+00 0. -1.
</event>
<event>
 4    1  0.5591986E+002  0.2262355E+02  0.7546771E-02  0.1497280E+00
          2   -1    0    0  503    0  0.00000000000E+00  0.00000000000E+00  0.84359048842E+03  0.84359048842E+03  0.00000000000E+00 0.  1.
         -2   -1    0    0    0  501 -0.00000000000E+00 -0.00000000000E+00 -0.14643760255E+01  0.14643760255E+01  0.00000000000E+00 0. -1.
         21    1    1    2  502  501 -0.22410097679E+02 -0.31004212388E+01  0.97704307144E+02  0.10028936496E+03  0.00000000000E+00 0. -1.
         21    1    1    2  503  502  0.22410097679E+02  0.31004212388E+01  0.74442180525E+03  0.74476549948E+03  0.00000000000E+00 0.  1.
</event>
<event>
 4    1  0.5591986E+002  0.2768222E+02  0.7546771E-02  0.1440873E+00
          2   -1    0    0  503    0  0.00000000000E+00  0.00000000000E+00  0.51039541247E+02  0.51039541247E+02  0.00000000000E+00 0. -1.
         -2   -1    0    0    0  501 -0.00000000000E+00 -0.00000000000E+00 -0.23079846213E+02  0.23079846213E+02  0.00000000000E+00 0.  1.
         21    1    1    2  502  501  0.44862702730E+01 -0.27316272051E+02 -0.79285982859E+01  0.28795277573E+02  0.00000000000E+00 0.  1.
         21    1    1    2  503  502 -0.44862702730E+01  0.27316272051E+02  0.35888293319E+02  0.45324109887E+02  0.00000000000E+00 0. -1.
</event>
<event>
 4    1  0.5591986E+002  0.5647948E+02  0.7546771E-02  0.1272287E+00
          2   -1    0    0  502    0  0.00000000000E+00  0.00000000000E+00  0.32164865398E+02  0.32164865398E+02  0.00000000000E+00 0.  1.
         -2   -1    0    0    0  501 -0.00000000000E+00 -0.00000000000E+00 -0.14214597799E+03  0.14214597799E+03  0.00000000000E+00 0. -1.
         21    1    1    2  502  503 -0.43264182298E+01 -0.56313533442E+02 -0.70704625436E+01  0.56920324876E+02  0.00000000000E+00 0.  1.
         21    1    1    2  503  501  0.43264182298E+01  0.56313533442E+02 -0.10291065005E+03  0.11739051852E+03  0.00000000000E+00 0. -1.
</event>
<event>
 4    1  0.5591986E+002  0.2409890E+02  0.7546771E-02  0.1479142E+00
          2   -1    0    0  502    0  0.00000000000E+00  0.00000000000E+00  0.84849368516E+02  0.84849368516E+02  0.00000000000E+00 0.  1.
         -2   -1    0    0    0  501 -0.00000000000E+00 -0.00000000000E+00 -0.72361600514E+01  0.72361600514E+01  0.00000000000E+00 0. -1.
         21    1    1    2  502  503  0.12842378928E+02 -0.20391914942E+02  0.28095685315E+02  0.37015191812E+02  0.00000000000E+00 0.  1.
         21    1    1    2  503  501 -0.12842378928E+02  0.20391914942E+02  0.49517523150E+02  0.55070336756E+02  0.00000000000E+00 0. -1.
</event>
<event>
 4    1  0.5591986E+002  0.2260708E+02  0.7546771E-02  0.1497492E+00
          2   -1    0    0  503    0  0.00000000000E+00  0.00000000000E+00  0.42072525710E+01  0.42072525710E+01  0.00000000000E+00 0. -1.
         -2   -1    0    0    0  501 -0.00000000000E+00 -0.00000000000E+00 -0.24311168680E+03  0.24311168680E+03  0.00000000000E+00 0.  1.
         21    1    1    2  502  501 -0.12575794838E+02 -0.18786418395E+02 -0.20692138636E+03  0.20815268498E+03  0.00000000000E+00 0.  1.
         21    1    1    2  503  502  0.12575794838E+02  0.18786418395E+02 -0.31983047873E+02  0.39166254393E+02  0.00000000000E+00 0. -1.
</event>
<event>
 4    1  0.5591986E+002  0.4706730E+02  0.7546771E-02  0.1311414E+00
          2   -1    0    0  503    0  0.00000000000E+00  0.00000000000E+00  0.23079257673E+04  0.23079257673E+04  0.00000000000E+00 0. -1.
         -2   -1    0    0    0  501 -0.00000000000E+00 -0.00000000000E+00 -0.21681630875E+01  0.21681630875E+01  0.00000000000E+00 0.  1.
         21    1    1    2  502  501 -0.34190033232E+02 -0.32347683833E+02  0.29061912333E+03  0.29440585229E+03  0.00000000000E+00 0.  1.
         21    1    1    2  503  502  0.34190033232E+02  0.32347683833E+02  0.20151384809E+04  0.20156880781E+04  0.00000000000E+00 0. -1.
</event>
<event>
 4    1  0.5591986E+002  0.2685216E+02  0.7546771E-02  0.1449099E+00
          2   -1    0    0  503    0  0.00000000000E+00  0.00000000000E+00  0.38677853030E+02  0.38677853030E+02  0.00000000000E+00 0.  1.
         -2   -1    0    0    0  501 -0.00000000000E+00 -0.00000000000E+00 -0.26797082067E+02  0.26797082067E+02  0.00000000000E+00 0. -1.
         21    1    1    2  502  501  0.22260722880E+02  0.15016606293E+02  0.24000128394E+02  0.36014502781E+02  0.00000000000E+00 0.  1.
         21    1    1    2  503  502 -0.22260722880E+02 -0.15016606293E+02 -0.12119357430E+02  0.29460432315E+02  0.00000000000E+00 0. -1.
</event>
<event>
 4    1  0.5591986E+002  0.3052522E+02  0.7546771E-02  0.1415086E+00
          2   -1    0    0  502    0  0.00000000000E+00  0.00000000000E+00  0.11265746580E+04  0.11265746580E+04  0.00000000000E+00 0.  1.
         -2   -1    0    0    0  501 -0.00000000000E+00 -0.00000000000E+00 -0.10714376850E+01  0.10714376850E+01  0.00000000000E+00 0. -1.
         21    1    1    2  502  503 -0.97461175680E+01 -0.28927538423E+02  0.83200121648E+03  0.83256099687E+03  0.00000000000E+00 0.  1.
         21    1    1    2  503  501  0.97461175680E+01  0.28927538423E+02  0.29350200386E+03  0.29508509883E+03  0.00000000000E+00 0. -1.
</event>
<event>
 4    1  0.5591986E+002  0.2141905E+02  0.7546771E-02  0.1513365E+00
          2   -1    0    0  503    0  0.00000000000E+00  0.00000000000E+00  0.40593055902E+03  0.40593055902E+03  0.00000000000E+00 0. -1.
         -2   -1    0    0    0  501 -0.00000000000E+00 -0.00000000000E+00 -0.32142647520E+01  0.32142647520E+01  0.00000000000E+00 0.  1.
         21    1    1    2  502  501  0.66571704275E+01  0.20358236844E+02  0.36631582416E+02  0.42434049486E+02  0.00000000000E+00 0.  1.
         21    1    1    2  503  502 -0.66571704275E+01 -0.20358236844E+02  0.36608471185E+03  0.36671077429E+03  0.00000000000E+00 0. -1.
</event>
<event>
 4    1  0.5591986E+002  0.3338867E+02  0.7546771E-02  0.1392259E+00
          2   -1    0    0  503    0  0.00000000000E+00  0.00000000000E+00  0.12278605284E+04  0.12278605284E+04  0.00000000000E+00 0. -1.
         -2   -1    0    0    0  501 -0.00000000000E+00 -0.00000000000E+00 -0.12362339697E+01  0.12362339697E+01  0.00000000000E+00 0.  1.
         21    1    1    2  502  501  0.19225203279E+02 -0.27298259247E+02  0.29661210261E+03  0.29848541475E+03  0.00000000000E+00 0. -1.
         21    1    1    2  503  502 -0.19225203279E+02  0.27298259247E+02  0.93001219180E+03  0.93061134761E+03  0.00000000000E+00 0.  1.
</event>
<event>
 4    1  0.5591986E+002  0.2674268E+02  0.7546771E-02  0.1450210E+00
          2   -1    0    0  503    0  0.00000000000E+00  0.00000000000E+00  0.28513976741E+03  0.28513976741E+03  0.00000000000E+00 0. -1.
         -2   -1    0    0    0  501 -0.00000000000E+00 -0.00000000000E+00 -0.59669347013E+01  0.59669347013E+01  0.00000000000E+00 0.  1.
         21    1    1    2  502  501  0.26449228479E+02 -0.39508453244E+01  0.28768783702E+02  0.39278668277E+02  0.00000000000E+00 0.  1.
         21    1    1    2  503  502 -0.26449228479E+02  0.39508453244E+01  0.25040404901E+03  0.25182803384E+03  0.00000000000E+00 0. -1.
</event>
<event>
 4    1  0.5591986E+002  0.2186860E+02  0.7546771E-02  0.1507216E+00
          2   -1    0    0  503    0  0.00000000000E+00  0.00000000000E+00  0.38677558012E+02  0.38677558012E+02  0.00000000000E+00 0. -1.
         -2   -1    0    0    0  501 -0.00000000000E+00 -0.00000000000E+00 -0.12460106707E+02  0.12460106707E+02  0.00000000000E+00 0.  1.
         21    1    1    2  502  501 -0.18351224321E+02  0.11894036887E+02  0.15346363081E+02  0.26716032777E+02  0.00000000000E+00 0.  1.
         21    1    1    2  503  502  0.18351224321E+02 -0.11894036887E+02  0.10871088224E+02  0.24421631942E+02  0.00000000000E+00 0. -1.
</event>
<event>
 4    1  0.5591986E+002  0.2241932E+02  0.7546771E-02  0.1499921E+00
          2   -1    0    0  503    0  0.00000000000E+00  0.00000000000E+00  0.50247803751E+03  0.50247803751E+03  0.00000000000E+00 0. -1.
         -2   -1    0    0    0  501 -0.00000000000E+00 -0.00000000000E+00 -0.14544588732E+01  0.14544588732E+01  0.00000000000E+00 0.  1.
         21    1    1    2  502  501 -0.19689007594E+02 -0.10722351153E+02  0.10971318421E+03  0.11198039393E+03  0.00000000000E+00 0.  1.
         21    1    1    2  503  502  0.19689007594E+02  0.10722351153E+02  0.39131039442E+03  0.39195210245E+03  0.00000000000E+00 0. -1.
</event>
<event>
 4    1  0.5591986E+002  0.4391819E+02  0.7546771E-02  0.1326938E+00
          2   -1    0    0  502    0  0.00000000000E+00  0.00000000000E+00  0.97438371904E+03  0.97438371904E+03  0.00000000000E+00 0. -1.
         -2   -1    0    0    0  501 -0.00000000000E+00 -0.00000000000E+00 -0.21655798116E+01  0.21655798116E+01  0.00000000000E+00 0.  1.
         21    1    1    2  502  503 -0.43791840236E+02  0.33289714742E+01  0.62923194154E+03  0.63076274745E+03  0.00000000000E+00 0.  1.
         21    1    1    2  503  501  0.43791840236E+02 -0.33289714742E+01  0.34298619769E+03  0.34578655140E+03  0.00000000000E+00 0. -1.
</event>
<event>
 4    1  0.5591986E+002  0.2018600E+02  0.7546771E-02  0.1531211E+00
          2   -1    0    0  502    0  0.00000000000E+00  0.00000000000E+00  0.45026885086E+03  0.45026885086E+03  0.00000000000E+00 0. -1.
         -2   -1    0    0    0  501 -0.00000000000E+00 -0.00000000000E+00 -0.35821353169E+01  0.35821353169E+01  0.00000000000E+00 0.  1.
         21    1    1    2  502  503 -0.15295275251E+02 -0.13173039753E+02  0.41952160876E+03  0.42000696975E+03  0.00000000000E+00 0. -1.
         21    1    1    2  503  501  0.15295275251E+02  0.13173039753E+02  0.27165106778E+02  0.33844016422E+02  0.00000000000E+00 0.  1.
</event>
<event>
 4    1  0.5591986E+002  0.4239316E+02  0.7546771E-02  0.1335005E+00
          2   -1    0    0  502    0  0.00000000000E+00  0.00000000000E+00  0.59448913507E+01  0.59448913507E+01  0.00000000000E+00 0. -1.
         -2   -1    0    0    0  501 -0.00000000000E+00 -0.00000000000E+00 -0.88092584946E+03  0.88092584946E+03  0.00000000000E+00 0.  1.
         21    1    1    2  502  503  0.37788197435E+02  0.19215411450E+02 -0.78107840744E+02  0.88870775220E+02  0.00000000000E+00 0. -1.
         21    1    1    2  503  501 -0.37788197435E+02 -0.19215411450E+02 -0.79687311737E+03  0.79799996559E+03  0.00000000000E+00 0.  1.
</event>
<event>
 4    1  0.5591986E+002  0.2332167E+02  0.7546771E-02  0.1488498E+00
          2   -1    0    0  503    0  0.00000000000E+00  0.00000000000E+00  0.60030199009E+03  0.60030199009E+03  0.00000000000E+00 0.  1.
         -2   -1    0    0    0  501 -0.00000000000E+00 -0.00000000000E+00 -0.92563855588E+00  0.92563855588E+00  0.00000000000E+00 0. -1.
         21    1    1    2  502  501 -0.13709451828E+02  0.18866666026E+02  0.25595073749E+03  0.25701105069E+03  0.00000000000E+00 0. -1.
         21    1    1    2  503  502  0.13709451828E+02 -0.18866666026E+02  0.34342561404E+03  0.34421657795E+03  0.00000000000E+00 0.  1.
</event>
<event>
 4    1  0.5591986E+002  0.2591974E+02  0.7546771E-02  0.1458772E+00
          2   -1    0    0  503    0  0.00000000000E+00  0.00000000000E+00  0.35326175057E+02  0.35326175057E+02  0.00000000000E+00 0.  1.
         -2   -1    0    0    0  501 -0.00000000000E+00 -0.00000000000E+00 -0.74529892369E+02  0.74529892369E+02  0.00000000000E+00 0. -1.
         21    1    1    2  502  501  0.14682650722E+02  0.21360067281E+02 -0.67006610359E+02  0.71845101005E+02  0.00000000000E+00 0. -1.
         21    1    1    2  503  502 -0.14682650722E+02 -0.21360067281E+02  0.27802893047E+02  0.38010966421E+02  0.00000000000E+00 0.  1.
</event>
<event>
 4    1  0.5591986E+002  0.2046895E+02  0.7546771E-02  0.1526984E+00
          2   -1    0    0  502    0  0.00000000000E+00  0.00000000000E+00  0.53605654471E+03  0.53605654471E+03  0.00000000000E+00 0.  1.
         -2   -1    0    0    0  501 -0.00000000000E+00 -0.00000000000E+00 -0.10144966625E+01  0.10144966625E+01  0.00000000000E+00 0. -1.
         21    1    1    2  502  503  0.36518462085E+01 -0.20140554151E+02  0.39618733010E+03  0.39671574009E+03  0.00000000000E+00 0.  1.
         21    1    1    2  503  501 -0.36518462085E+01  0.20140554151E+02  0.13885471795E+03  0.14035530128E+03  0.00000000000E+00 0. -1.
</event>
<event>
 4    1  0.5591986E+002  0.2883334E+02  0.7546771E-02  0.1430013E+00
          2   -1    0    0  503    0  0.00000000000E+00  0.00000000000E+00  0.28846770258E+03  0.28846770258E+03  0.00000000000E+00 0. -1.
         -2   -1    0    0    0  501 -0.00000000000E+00 -0.00000000000E+00 -0.28833322673E+01  0.28833322673E+01  0.00000000000E+00 0.  1.
         21    1    1    2  502  501  0.26738796243E+02 -0.10788807149E+02  0.14593305557E+03  0.14875422110E+03  0.00000000000E+00 0. -1.
         21    1    1    2  503  502 -0.26738796243E+02  0.10788807149E+02  0.13965131473E+03  0.14259681375E+03  0.00000000000E+00 0.  1.
</event>
<event>
 4    1  0.5591986E+002  0.2571422E+02  0.7546771E-02  0.1460970E+00
          2   -1    0    0  502    0  0.00000000000E+00  0.00000000000E+00  0.70581389600E+02  0.70581389600E+02  0.00000000000E+00 0.  1.
         -2   -1    0    0    0  501 -0.00000000000E+00 -0.00000000000E+00 -0.51011920539E+02  0.51011920539E+02  0.00000000000E+00 0. -1.
         21    1    1    2  502  503  0.98431032044E+01  0.23755728551E+02  0.64715867317E+02  0.69637380783E+02  0.00000000000E+00 0.  1.
         21    1    1    2  503  501 -0.98431032044E+01 -0.23755728551E+02 -0.45146398257E+02  0.51955929356E+02  0.00000000000E+00 0. -1.
</event>
<event>
 4    1  0.5591986E+002  0.2029007E+02  0.7546771E-02  0.1529647E+00
          2   -1    0    0  502    0  0.00000000000E+00  0.00000000000E+00  0.86058621041E+01  0.86058621041E+01  0.00000000000E+00 0.  1.
         -2   -1    0    0    0  501 -0.00000000000E+00 -0.00000000000E+00 -0.84945819620E+02  0.84945819620E+02  0.00000000000E+00 0. -1.
         21    1    1    2  502  503  0.86394439726E+01  0.18358834121E+02 -0.72539557801E+01  0.21547776148E+02  0.00000000000E+00 0. -1.
         21    1    1    2  503  501 -0.86394439726E+01 -0.18358834121E+02 -0.69086001736E+02  0.72003905577E+02  0.00000000000E+00 0.  1.
</event>
<event>
 4    1  0.5591986E+002  0.4371200E+02  0.7546771E-02  0.1328007E+00
          2   -1    0    0  502    0  0.00000000000E+00  0.00000000000E+00  0.15636355378E+02  0.15636355378E+02  0.00000000000E+00 0.  1.
         -2   -1    0    0    0  501 -0.00000000000E+00 -0.00000000000E+00 -0.13731994820E+03  0.13731994820E+03  0.00000000000E+00 0. -1.
         21    1    1    2  502  503 -0.29511329319E+02 -0.32246251483E+02 -0.35463226188E+02  0.56288362070E+02  0.00000000000E+00 0.  1.
         21    1    1    2  503  501  0.29511329319E+02  0.32246251483E+02 -0.86220366632E+02  0.96667941506E+02  0.00000000000E+00 0. -1.
</event>
<event>
 4    1  0.5591986E+002  0.2086390E+02  0.7546771E-02  0.1521217E+00
          2   -1    0    0  502    0  0.00000000000E+00  0.00000000000E+00  0.80788509747E+03  0.80788509747E+03  0.00000000000E+00 0.  1.
         -2   -1    0    0    0  501 -0.00000000000E+00 -0.00000000000E+00 -0.55027530489E+00  0.55027530489E+00  0.00000000000E+00 0. -1.
         21    1    1    2  502  503 -0.18625023659E+02 -0.94026940690E+01  0.34533808573E+03  0.34596776673E+03  0.00000000000E+00 0. -1.
         21    1    1    2  503  501  0.18625023659E+02  0.94026940690E+01  0.46199673644E+03  0.46246760605E+03  0.00000000000E+00 0.  1.
</event>
<event>
 4    1  0.5591986E+002  0.3349361E+02  0.7546771E-02  0.1391474E+00
          2   -1    0    0  502    0  0.00000000000E+00  0.00000000000E+00  0.48510040686E+03  0.48510040686E+03  0.00000000000E+00 0.  1.
         -2   -1    0    0    0  501 -0.00000000000E+00 -0.00000000000E+00 -0.23314764142E+01  0.23314764142E+01  0.00000000000E+00 0. -1.
         21    1    1    2  502  503  0.16329261449E+02 -0.29243411506E+02  0.26333943333E+03  0.26546088044E+03  0.00000000000E+00 0.  1.
         21    1    1    2  503  501 -0.16329261449E+02  0.29243411506E+02  0.21942949712E+03  0.22197100284E+03  0.00000000000E+00 0. -1.
</event>
<event>
 4    1  0.5591986E+002  0.3684869E+02  0.7546771E-02  0.1368012E+00
          2   -1    0    0  502    0  0.00000000000E+00  0.00000000000E+00  0.13231816145E+02  0.13231816145E+02  0.00000000000E+00 0. -1.
         -2   -1    0    0    0  501 -0.00000000000E+00 -0.00000000000E+00 -0.17659846068E+03  0.17659846068E+03  0.00000000000E+00 0.  1.
         21    1    1    2  502  503  0.31639964679E+02 -0.18887516854E+02 -0.20250587958E+02  0.42046545285E+02  0.00000000000E+00 0. -1.
         21    1    1    2  503  501 -0.31639964679E+02  0.18887516854E+02 -0.14311605658E+03  0.14778373154E+03  0.00000000000E+00 0.  1.
</event>
<event>
 4    1  0.5591986E+002  0.2538238E+02  0.7546771E-02  0.1464571E+00
          2   -1    0    0  503    0  0.00000000000E+00  0.00000000000E+00  0.10520057165E+04  0.10520057165E+04  0.00000000000E+00 0. -1.
         -2   -1    0    0    0  501 -0.00000000000E+00 -0.00000000000E+00 -0.92592485199E+01  0.92592485199E+01  0.00000000000E+00 0.  1.
         21    1    1    2  502  501 -0.25071421516E+02  0.39609356307E+01  0.85892129721E+01  0.26796264056E+02  0.00000000000E+00 0.  1.
         21    1    1    2  503  502  0.25071421516E+02 -0.39609356307E+01  0.10341572551E+04  0.10344687010E+04  0.00000000000E+00 0. -1.
</event>
<event>
 4    1  0.5591986E+002  0.2682593E+02  0.7546771E-02  0.1449365E+00
          2   -1    0    0  502    0  0.00000000000E+00  0.00000000000E+00  0.14084510465E+04  0.14084510465E+04  0.00000000000E+00 0.  1.
         -2   -1    0    0    0  501 -0.00000000000E+00 -0.00000000000E+00 -0.79423335134E+00  0.79423335134E+00  0.00000000000E+00 0. -1.
         21    1    1    2  502  503  0.26207182710E+02  0.57283638942E+01  0.11246544164E+04  0.11249743050E+04  0.00000000000E+00 0.  1.
         21    1    1    2  503  501 -0.26207182710E+02 -0.57283638942E+01  0.28300239680E+03  0.28427097491E+03  0.00000000000E+00 0. -1.
</event>
<event>
 4    1  0.5591986E+002  0.4189357E+02  0.7546771E-02  0.1337733E+00
          2   -1    0    0  502    0  0.00000000000E+00  0.00000000000E+00  0.10245541487E+04  0.10245541487E+04  0.00000000000E+00 0.  1.
         -2   -1    0    0    0  501 -0.00000000000E+00 -0.00000000000E+00 -0.23427936718E+01  0.23427936718E+01  0.00000000000E+00 0. -1.
         21    1    1    2  502  503 -0.38922525078E+02 -0.15495416648E+02  0.24489483100E+03  0.24845230759E+03  0.00000000000E+00 0. -1.
         21    1    1    2  503  501  0.38922525078E+02  0.15495416648E+02  0.77731652405E+03  0.77844463481E+03  0.00000000000E+00 0.  1.
</event>
<event>
 4    1  0.5591986E+002  0.2482264E+02  0.7546771E-02  0.1470797E+00
          2   -1    0    0  502    0  0.00000000000E+00  0.00000000000E+00  0.11237616781E+04  0.11237616781E+04  0.00000000000E+00 0.  1.
         -2   -1    0    0    0  501 -0.00000000000E+00 -0.00000000000E+00 -0.85178111367E+00  0.85178111367E+00  0.00000000000E+00 0. -1.
         21    1    1    2  502  503 -0.99401602071E+01 -0.22745473805E+02  0.22581624591E+03  0.22717645186E+03  0.00000000000E+00 0. -1.
         21    1    1    2  503  501  0.99401602071E+01  0.22745473805E+02  0.89709365112E+03  0.89743700739E+03  0.00000000000E+00 0.  1.
</event>
<event>
 4    1  0.5591986E+002  0.3572109E+02  0.7546771E-02  0.1375563E+00
          2   -1    0    0  503    0  0.00000000000E+00  0.00000000000E+00  0.76372432672E+03  0.76372432672E+03  0.00000000000E+00 0.  1.
         -2   -1    0    0    0  501 -0.00000000000E+00 -0.00000000000E+00 -0.22857985748E+01  0.22857985748E+01  0.00000000000E+00 0. -1.
         21    1    1    2  502  501 -0.31921512135E+02  0.16031642193E+02  0.18204648684E+03  0.18551797719E+03  0.00000000000E+00 0.  1.
         21    1    1    2  503  502  0.31921512135E+02 -0.16031642193E+02  0.57939204130E+03  0.58049214811E+03  0.00000000000E+00 0. -1.
</event>
<event>
 4    1  0.5591986E+002  0.2579034E+02  0.7546771E-02  0.1460153E+00
          2   -1    0    0  503    0  0.00000000000E+00  0.00000000000E+00  0.30771535690E+02  0.30771535690E+02  0.00000000000E+00 0. -1.
         -2   -1    0    0    0  501 -0.00000000000E+00 -0.00000000000E+00 -0.21987637086E+02  0.21987637086E+02  0.00000000000E+00 0.  1.
         21    1    1    2  502  501 -0.15932889374E+02 -0.20280152865E+02  0.95999967646E+00  0.25808199538E+02  0.00000000000E+00 0. -1.
         21    1    1    2  503  502  0.15932889374E+02  0.20280152865E+02  0.78238989276E+01  0.26950973237E+02  0.00000000000E+00 0.  1.
</event>
<event>
 4    1  0.5591986E+002  0.2000062E+02  0.7546771E-02  0.1534026E+00
          2   -1    0    0  502    0  0.00000000000E+00  0.00000000000E+00  0.84142810468E+03  0.84142810468E+03  0.00000000000E+00 0. -1.
         -2   -1    0    0    0  501 -0.00000000000E+00 -0.00000000000E+00 -0.48333240726E+00  0.48333240726E+00  0.00000000000E+00 0.  1.
         21    1    1    2  502  503  0.19994688470E+02 -0.48721977100E+00  0.47436005884E+03  0.47478151857E+03  0.00000000000E+00 0. -1.
         21    1    1    2  503  501 -0.19994688470E+02  0.48721977100E+00  0.36658471344E+03  0.36712991853E+03  0.00000000000E+00 0.  1.
</event>
<event>
 4    1  0.5591986E+002  0.2555594E+02  0.7546771E-02  0.1462679E+00
          2   -1    0    0  502    0  0.00000000000E+00  0.00000000000E+00  0.11266851828E+03  0.11266851828E+03  0.00000000000E+00 0. -1.
         -2   -1    0    0    0  501 -0.00000000000E+00 -0.00000000000E+00 -0.18425449711E+02  0.18425449711E+02  0.00000000000E+00 0.  1.
         21    1    1    2  502  503 -0.25296033535E+02 -0.36354903945E+01  0.10138702896E+03  0.10455828874E+03  0.00000000000E+00 0. -1.
         21    1    1    2  503  501  0.25296033535E+02  0.36354903945E+01 -0.71439603942E+01  0.26535679247E+02  0.00000000000E+00 0.  1.
</event>
<event>
 4    1  0.5591986E+002  0.2177640E+02  0.7546771E-02  0.1508462E+00
          2   -1    0    0  503    0  0.00000000000E+00  0.00000000000E+00  0.31430818049E+01  0.31430818049E+01  0.00000000000E+00 0. -1.
         -2   -1    0    0    0  501 -0.00000000000E+00 -0.00000000000E+00 -0.43142863964E+03  0.43142863964E+03  0.00000000000E+00 0.  1.
         21    1    1    2  502  501  0.10747326125E+02  0.18939545253E+02 -0.38936339340E+03  0.38997187528E+03  0.00000000000E+00 0.  1.
         21    1    1    2  503  502 -0.10747326125E+02 -0.18939545253E+02 -0.38922164438E+02  0.44599846163E+02  0.00000000000E+00 0. -1.
</event>
<event>
 4    1 -0.5591986E+002  0.7803893E+02  0.7546771E-02  0.1208475E+00
          2   -1    0    0  502    0  0.00000000000E+00  0.00000000000E+00  0.65106996358E+01  0.65106996358E+01  0.00000000000E+00 0. -1.
         -2   -1    0    0    0  501 -0.00000000000E+00 -0.00000000000E+00 -0.37257986017E+04  0.37257986017E+04  0.00000000000E+00 0.  1.
         21    1    1    2  502  503 -0.75719215174E+02 -0.18885854792E+02 -0.24464789690E+03  0.25679304608E+03  0.00000000000E+00 0. -1.
         21    1    1    2  503  501  0.75719215174E+02  0.18885854792E+02 -0.34746400051E+04  0.34755162552E+04  0.00000000000E+00 0.  1.
</event>
<event>
 4    1  0.5591986E+002  0.3470214E+02  0.7546771E-02  0.1382669E+00
          2   -1    0    0  503    0  0.00000000000E+00  0.00000000000E+00  0.66643937561E+01  0.66643937561E+01  0.00000000000E+00 0. -1.
         -2   -1    0    0    0  501 -0.00000000000E+00 -0.00000000000E+00 -0.97530384750E+03  0.97530384750E+03  0.00000000000E+00 0.  1.
         21    1    1    2  502  501  0.22755000840E+02 -0.26200163525E+02 -0.92749295775E+03  0.92814192088E+03  0.00000000000E+00 0.  1.
         21    1    1    2  503  502 -0.22755000840E+02  0.26200163525E+02 -0.41146495997E+02  0.53826320372E+02  0.00000000000E+00 0. -1.
</event>
<event>
 4    1  0.5591986E+002  0.2344072E+02  0.7546771E-02  0.1487037E+00
          2   -1    0    0  502    0  0.00000000000E+00  0.00000000000E+00  0.40546617947E+03  0.40546617947E+03  0.00000000000E+00 0.  1.
         -2   -1    0    0    0  501 -0.00000000000E+00 -0.00000000000E+00 -0.37010785549E+01  0.37010785549E+01  0.00000000000E+00 0. -1.
         21    1    1    2  502  503  0.21821539642E+02  0.85608171217E+01  0.36376121068E+03  0.36451568633E+03  0.00000000000E+00 0.  1.
         21    1    1    2  503  501 -0.21821539642E+02 -0.85608171217E+01  0.38003890229E+02  0.44651571693E+02  0.00000000000E+00 0. -1.
</event>
<event>
 4    1  0.5591986E+002  0.3546913E+02  0.7546771E-02  0.1377295E+00
          2   -1    0    0  502    0  0.00000000000E+00  0.00000000000E+00  0.33022479953E+03  0.33022479953E+03  0.00000000000E+00 0. -1.
         -2   -1    0    0    0  501 -0.00000000000E+00 -0.00000000000E+00 -0.78777619036E+01  0.78777619036E+01  0.00000000000E+00 0.  1.
         21    1    1    2  502  503 -0.20420389753E+02 -0.29001148536E+02  0.28265513790E+03  0.28487187632E+03  0.00000000000E+00 0. -1.
         21    1    1    2  503  501  0.20420389753E+02  0.29001148536E+02  0.39691899719E+02  0.53230685111E+02  0.00000000000E+00 0.  1.
</event>
<event>
 4    1  0.5591986E+002  0.3203566E+02  0.7546771E-02  0.1402694E+00
          2   -1    0    0  503    0  0.00000000000E+00  0.00000000000E+00  0.21196851370E+04  0.21196851370E+04  0.00000000000E+00 0.  1.
         -2   -1    0    0    0  501 -0.00000000000E+00 -0.00000000000E+00 -0.67498679548E+00  0.67498679548E+00  0.00000000000E+00 0. -1.
         21    1    1    2  502  501 -0.28396899991E+02 -0.14829003550E+02  0.49581186424E+03  0.49684573863E+03  0.00000000000E+00 0. -1.
         21    1    1    2  503  502  0.28396899991E+02  0.14829003550E+02  0.16231982860E+04  0.16235143852E+04  0.00000000000E+00 0.  1.
</event>
<event>
 4    1  0.5591986E+002  0.3622191E+02  0.7546771E-02  0.1372170E+00
          2   -1    0    0  503    0  0.00000000000E+00  0.00000000000E+00  0.21802713270E+03  0.21802713270E+03  0.00000000000E+00 0.  1.
         -2   -1    0    0    0  501 -0.00000000000E+00 -0.00000000000E+00 -0.87741461853E+01  0.87741461853E+01  0.00000000000E+00 0. -1.
         21    1    1    2  502  501 -0.20443264851E+02  0.29901494396E+02  0.41066158059E+02  0.54758157224E+02  0.00000000000E+00 0. -1.
         21    1    1    2  503  502  0.20443264851E+02 -0.29901494396E+02  0.16818682846E+03  0.17204312166E+03  0.00000000000E+00 0.  1.
</event>
<event>
 4    1  0.5591986E+002  0.2096986E+02  0.7546771E-02  0.1519696E+00
          2   -1    0    0  502    0  0.00000000000E+00  0.00000000000E+00  0.93314093955E+03  0.93314093955E+03  0.00000000000E+00 0.  1.
         -2   -1    0    0    0  501 -0.00000000000E+00 -0.00000000000E+00 -0.54580192657E+01  0.54580192657E+01  0.00000000000E+00 0. -1.
         21    1    1    2  502  503 -0.51218608409E+01 -0.20334734180E+02  0.91242418136E+03  0.91266512018E+03  0.00000000000E+00 0.  1.
         21    1    1    2  503  501  0.51218608409E+01  0.20334734180E+02  0.15258738928E+02  0.25933838634E+02  0.00000000000E+00 0. -1.
</event>
<event>
 4    1  0.5591986E+002  0.2468257E+02  0.7546771E-02  0.1472386E+00
          2   -1    0    0  503    0  0.00000000000E+00  0.00000000000E+00  0.75360016180E+03  0.75360016180E+03  0.00000000000E+00 0.  1.
         -2   -1    0    0    0  501 -0.00000000000E+00 -0.00000000000E+00 -0.11866520240E+01  0.11866520240E+01  0.00000000000E+00 0. -1.
         21    1    1    2  502  501 -0.20817299812E+02 -0.13261576959E+02  0.16314340343E+03  0.16499999841E+03  0.00000000000E+00 0. -1.
         21    1    1    2  503  502  0.20817299812E+02  0.13261576959E+02  0.58927010635E+03  0.58978681541E+03  0.00000000000E+00 0.  1.
</event>
<event>
 4    1  0.5591986E+002  0.2643094E+02  0.7546771E-02  0.1453410E+00
          2   -1    0    0  503    0  0.00000000000E+00  0.00000000000E+00  0.19463156840E+02  0.19463156840E+02  0.00000000000E+00 0.  1.
         -2   -1    0    0    0  501 -0.00000000000E+00 -0.00000000000E+00 -0.35960589654E+02  0.35960589654E+02  0.00000000000E+00 0. -1.
         21    1    1    2  502  501  0.26370087654E+02 -0.17925546479E+01 -0.94484455343E+01  0.28068984628E+02  0.00000000000E+00 0.  1.
         21    1    1    2  503  502 -0.26370087654E+02  0.17925546479E+01 -0.70489872797E+01  0.27354761865E+02  0.00000000000E+00 0. -1.
</event>
<event>
 4    1  0.5591986E+002  0.2081533E+02  0.7546771E-02  0.1521918E+00
          2   -1    0    0  503    0  0.00000000000E+00  0.00000000000E+00  0.30644872841E+02  0.30644872841E+02  0.00000000000E+00 0. -1.
         -2   -1    0    0    0  501 -0.00000000000E+00 -0.00000000000E+00 -0.16048048833E+02  0.16048048833E+02  0.00000000000E+00 0.  1.
         21    1    1    2  502  501 -0.88172296117E+01  0.18855617828E+02 -0.75454817137E+00  0.20828999127E+02  0.00000000000E+00 0.  1.
         21    1    1    2  503  502  0.88172296117E+01 -0.18855617828E+02  0.15351372179E+02  0.25863922546E+02  0.00000000000E+00 0. -1.
</event>
<event>
 4    1  0.5591986E+002  0.2185420E+02  0.7546771E-02  0.1507410E+00
          2   -1    0    0  502    0  0.00000000000E+00  0.00000000000E+00  0.24813473315E+03  0.24813473315E+03  0.00000000000E+00 0.  1.
         -2   -1    0    0    0  501 -0.00000000000E+00 -0.00000000000E+00 -0.77932591866E+01  0.77932591866E+01  0.00000000000E+00 0. -1.
         21    1    1    2  502  503  0.28668252586E+01  0.21665348626E+02  0.23121364649E+03  0.23224417397E+03  0.00000000000E+00 0.  1.
         21    1    1    2  503  501 -0.28668252586E+01 -0.21665348626E+02  0.91278274718E+01  0.23683818369E+02  0.00000000000E+00 0. -1.
</event>
<event>
 4    1  0.5591986E+002  0.2090501E+02  0.7546771E-02  0.1520625E+00
          2   -1    0    0  503    0  0.00000000000E+00  0.00000000000E+00  0.35232520253E+02  0.35232520253E+02  0.00000000000E+00 0. -1.
         -2   -1    0    0    0  501 -0.00000000000E+00 -0.00000000000E+00 -0.18162569480E+02  0.18162569480E+02  0.00000000000E+00 0.  1.
         21    1    1    2  502  501 -0.13194844505E+02  0.16214669062E+02 -0.64980049063E+01  0.21891630411E+02  0.00000000000E+00 0.  1.
         21    1    1    2  503  502  0.13194844505E+02 -0.16214669062E+02  0.23567955679E+02  0.31503459321E+02  0.00000000000E+00 0. -1.
</event>
<event>
 4    1  0.5591986E+002  0.2280252E+02  0.7546771E-02  0.1494993E+00
          2   -1    0    0  502    0  0.00000000000E+00  0.00000000000E+00  0.44957984439E+02  0.44957984439E+02  0.00000000000E+00 0.  1.
         -2   -1    0    0    0  501 -0.00000000000E+00 -0.00000000000E+00 -0.11613517074E+02  0.11613517074E+02  0.00000000000E+00 0. -1.
         21    1    1    2  502  503 -0.72242199301E+01 -0.21627889284E+02  0.14850652164E+02  0.27212071185E+02  0.00000000000E+00 0.  1.
         21    1    1    2  503  501  0.72242199301E+01  0.21627889284E+02  0.18493815201E+02  0.29359430328E+02  0.00000000000E+00 0. -1.
</event>
<event>
 4    1  0.5591986E+002  0.2260173E+02  0.7546771E-02  0.1497561E+00
          2   -1    0    0  503    0  0.00000000000E+00  0.00000000000E+00  0.54591948042E+02  0.54591948042E+02  0.00000000000E+00 0.  1.
         -2   -1    0    0    0  501 -0.00000000000E+00 -0.00000000000E+00 -0.10128510383E+02  0.10128510383E+02  0.00000000000E+00 0. -1.
         21    1    1    2  502  501  0.22567332147E+02  0.12464114325E+01  0.13302765625E+02  0.26225971764E+02  0.00000000000E+00 0.  1.
         21    1    1    2  503  502 -0.22567332147E+02 -0.12464114325E+01  0.31160672033E+02  0.38494486660E+02  0.00000000000E+00 0. -1.
</event>
<event>
 4    1  0.5591986E+002  0.4146128E+02  0.7546771E-02  0.1340129E+00
          2   -1    0    0  502    0  0.00000000000E+00  0.00000000000E+00  0.86239303467E+03  0.86239303467E+03  0.00000000000E+00 0. -1.
         -2   -1    0    0    0  501 -0.00000000000E+00 -0.00000000000E+00 -0.27151306727E+01  0.27151306727E+01  0.00000000000E+00 0.  1.
         21    1    1    2  502  503 -0.21426616734E+01  0.41405878766E+02  0.65286332781E+03  0.65417854030E+03  0.00000000000E+00 0. -1.
         21    1    1    2  503  501  0.21426616734E+01 -0.41405878766E+02  0.20681457619E+03  0.21092962504E+03  0.00000000000E+00 0.  1.
</event>
<event>
 4    1  0.5591986E+002  0.2056326E+02  0.7546771E-02  0.1525593E+00
          2   -1    0    0  503    0  0.00000000000E+00  0.00000000000E+00  0.17382730007E+02  0.17382730007E+02  0.00000000000E+00 0.  1.
         -2   -1    0    0    0  501 -0.00000000000E+00 -0.00000000000E+00 -0.39777178859E+02  0.39777178859E+02  0.00000000000E+00 0. -1.
         21    1    1    2  502  501 -0.20194894615E+02 -0.38747631075E+01 -0.29009900858E+02  0.35558710683E+02  0.00000000000E+00 0. -1.
         21    1    1    2  503  502  0.20194894615E+02  0.38747631075E+01  0.66154520062E+01  0.21601198182E+02  0.00000000000E+00 0.  1.
</event>
<event>
 4    1  0.5591986E+002  0.2369127E+02  0.7546771E-02  0.1483996E+00
          2   -1    0    0  502    0  0.00000000000E+00  0.00000000000E+00  0.16426452469E+02  0.16426452469E+02  0.00000000000E+00 0.  1.
         -2   -1    0    0    0  501 -0.00000000000E+00 -0.00000000000E+00 -0.34668857479E+02  0.34668857479E+02  0.00000000000E+00 0. -1.
         21    1    1    2  502  503  0.20424907549E+02 -0.12004142936E+02 -0.60537198506E+01  0.24452480857E+02  0.00000000000E+00 0. -1.
         21    1    1    2  503  501 -0.20424907549E+02  0.12004142936E+02 -0.12188685159E+02  0.26642829091E+02  0.00000000000E+00 0.  1.
</event>
<event>
 4    1  0.5591986E+002  0.2037895E+02  0.7546771E-02  0.1528319E+00
          2   -1    0    0  503    0  0.00000000000E+00  0.00000000000E+00  0.15790687950E+03  0.15790687950E+03  0.00000000000E+00 0. -1.
         -2   -1    0    0    0  501 -0.00000000000E+00 -0.00000000000E+00 -0.15151931045E+02  0.15151931045E+02  0.00000000000E+00 0.  1.
         21    1    1    2  502  501  0.12346578208E+02  0.16213067326E+02 -0.72844691225E+01  0.21641742905E+02  0.00000000000E+00 0.  1.
         21    1    1    2  503  502 -0.12346578208E+02 -0.16213067326E+02  0.15003941758E+03  0.15141706764E+03  0.00000000000E+00 0. -1.
</event>
<event>
 4    1  0.5591986E+002  0.2881420E+02  0.7546771E-02  0.1430189E+00
          2   -1    0    0  503    0  0.00000000000E+00  0.00000000000E+00  0.21799905070E+02  0.21799905070E+02  0.00000000000E+00 0.  1.
         -2   -1    0    0    0  501 -0.00000000000E+00 -0.00000000000E+00 -0.38124632348E+02  0.38124632348E+02  0.00000000000E+00 0. -1.
         21    1    1    2  502  501 -0.11878574661E+02  0.26251815416E+02 -0.91233828001E+01  0.30224070909E+02  0.00000000000E+00 0.  1.
         21    1    1    2  503  502  0.11878574661E+02 -0.26251815416E+02 -0.72013444782E+01  0.29700466509E+02  0.00000000000E+00 0. -1.
</event>
<event>
 4    1  0.5591986E+002  0.2025698E+02  0.7546771E-02  0.1530143E+00
          2   -1    0    0  503    0  0.00000000000E+00  0.00000000000E+00  0.17936732251E+04  0.17936732251E+04  0.00000000000E+00 0. -1.
         -2   -1    0    0    0  501 -0.00000000000E+00 -0.00000000000E+00 -0.40876641225E+00  0.40876641225E+00  0.00000000000E+00 0.  1.
         21    1    1    2  502  501  0.13662093556E+02  0.14956357802E+02  0.30137863019E+03  0.30205864360E+03  0.00000000000E+00 0.  1.
         21    1    1    2  503  502 -0.13662093556E+02 -0.14956357802E+02  0.14918858285E+04  0.14920233479E+04  0.00000000000E+00 0. -1.
</event>
<event>
 4    1  0.5591986E+002  0.2299313E+02  0.7546771E-02  0.1492584E+00
          2   -1    0    0  503    0  0.00000000000E+00  0.00000000000E+00  0.95986943613E+01  0.95986943613E+01  0.00000000000E+00 0.  1.
         -2   -1    0    0    0  501 -0.00000000000E+00 -0.00000000000E+00 -0.63511707320E+02  0.63511707320E+02  0.00000000000E+00 0. -1.
         21    1    1    2  502  501  0.14638282627E+02  0.17731462053E+02 -0.40276753887E+02  0.46377806853E+02  0.00000000000E+00 0. -1.
         21    1    1    2  503  502 -0.14638282627E+02 -0.17731462053E+02 -0.13636259072E+02  0.26732594829E+02  0.00000000000E+00 0.  1.
</event>
<event>
 4    1  0.5591986E+002  0.2190850E+02  0.7546771E-02  0.1506679E+00
          2   -1    0    0  502    0  0.00000000000E+00  0.00000000000E+00  0.51939157257E+02  0.51939157257E+02  0.00000000000E+00 0. -1.
         -2   -1    0    0    0  501 -0.00000000000E+00 -0.00000000000E+00 -0.99295305007E+01  0.99295305007E+01  0.00000000000E+00 0.  1.
         21    1    1    2  502  503 -0.49023836973E+00 -0.21903011232E+02  0.29149274152E+02  0.36464536447E+02  0.00000000000E+00 0. -1.
         21    1    1    2  503  501  0.49023836973E+00  0.21903011232E+02  0.12860352604E+02  0.25404151310E+02  0.00000000000E+00 0.  1.
</event>
<event>
 4    1  0.5591986E+002  0.2096220E+02  0.7546771E-02  0.1519805E+00
          2   -1    0    0  502    0  0.00000000000E+00  0.00000000000E+00  0.15614290648E+01  0.15614290648E+01  0.00000000000E+00 0. -1.
         -2   -1    0    0    0  501 -0.00000000000E+00 -0.00000000000E+00 -0.35498143780E+03  0.35498143780E+03  0.00000000000E+00 0.  1.
         21    1    1    2  502  503 -0.18287942914E+01 -0.20882273102E+02 -0.95555851565E+02  0.97828086901E+02  0.00000000000E+00 0. -1.
         21    1    1    2  503  501  0.18287942914E+01  0.20882273102E+02 -0.25786415717E+03  0.25871477996E+03  0.00000000000E+00 0.  1.
</event>
<event>
 4    1  0.5591986E+002  0.3947489E+02  0.7546771E-02  0.1351591E+00
          2   -1    0    0  502    0  0.00000000000E+00  0.00000000000E+00  0.37504803813E+03  0.37504803813E+03  0.00000000000E+00 0.  1.
         -2   -1    0    0    0  501 -0.00000000000E+00 -0.00000000000E+00 -0.81059551762E+01  0.81059551762E+01  0.00000000000E+00 0. -1.
         21    1    1    2  502  503 -0.31304577251E+02  0.24047673258E+02  0.31722317922E+03  0.31966984934E+03  0.00000000000E+00 0.  1.
         21    1    1    2  503  501  0.31304577251E+02 -0.24047673258E+02  0.49718903733E+02  0.63484143960E+02  0.00000000000E+00 0. -1.
</event>
<event>
 4    1  0.5591986E+002  0.2472539E+02  0.7546771E-02  0.1471899E+00
          2   -1    0    0  502    0  0.00000000000E+00  0.00000000000E+00  0.36997773276E+03  0.36997773276E+03  0.00000000000E+00 0.  1.
         -2   -1    0    0    0  501 -0.00000000000E+00 -0.00000000000E+00 -0.16531369524E+01  0.16531369524E+01  0.00000000000E+00 0. -1.
         21    1    1    2  502  503  0.56012690390E+01 -0.24082576534E+02  0.18019256149E+03  0.18188101584E+03  0.00000000000E+00 0. -1.
         21    1    1    2  503  501 -0.56012690390E+01  0.24082576534E+02  0.18813203432E+03  0.18974985387E+03  0.00000000000E+00 0.  1.
</event>
<event>
 4    1  0.5591986E+002  0.2877734E+02  0.7546771E-02  0.1430527E+00
          2   -1    0    0  503    0  0.00000000000E+00  0.00000000000E+00  0.68704093622E+03  0.68704093622E+03  0.00000000000E+00 0. -1.
         -2   -1    0    0    0  501 -0.00000000000E+00 -0.00000000000E+00 -0.12753050617E+01  0.12753050617E+01  0.00000000000E+00 0.  1.
         21    1    1    2  502  501  0.22409685697E+02 -0.18053846055E+02  0.26228695171E+03  0.26386091110E+03  0.00000000000E+00 0. -1.
         21    1    1    2  503  502 -0.22409685697E+02  0.18053846055E+02  0.42347867945E+03  0.42445533018E+03  0.00000000000E+00 0.  1.
</event>
<event>
 4    1  0.5591986E+002  0.4027177E+02  0.7546771E-02  0.1346901E+00
          2   -1    0    0  503    0  0.00000000000E+00  0.00000000000E+00  0.64550461842E+03  0.64550461842E+03  0.00000000000E+00 0.  1.
         -2   -1    0    0    0  501 -0.00000000000E+00 -0.00000000000E+00 -0.28563898509E+01  0.28563898509E+01  0.00000000000E+00 0. -1.
         21    1    1    2  502  501  0.39828014643E+02  0.59619685452E+01  0.20883718808E+03  0.21268471254E+03  0.00000000000E+00 0. -1.
         21    1    1    2  503  502 -0.39828014643E+02 -0.59619685452E+01  0.43381104049E+03  0.43567629574E+03  0.00000000000E+00 0.  1.
</event>
<event>
 4    1  0.5591986E+002  0.2243496E+02  0.7546771E-02  0.1499718E+00
          2   -1    0    0  502    0  0.00000000000E+00  0.00000000000E+00  0.12792226112E+02  0.12792226112E+02  0.00000000000E+00 0. -1.
         -2   -1    0    0    0  501 -0.00000000000E+00 -0.00000000000E+00 -0.77281841149E+02  0.77281841149E+02  0.00000000000E+00 0.  1.
         21    1    1    2  502  503  0.12930759808E+02  0.18333657030E+02 -0.69084914532E+00  0.22445596491E+02  0.00000000000E+00 0. -1.
         21    1    1    2  503  501 -0.12930759808E+02 -0.18333657030E+02 -0.63798765892E+02  0.67628470770E+02  0.00000000000E+00 0.  1.
</event>
<event>
 4    1  0.5591986E+002  0.2817444E+02  0.7546771E-02  0.1436154E+00
          2   -1    0    0  502    0  0.00000000000E+00  0.00000000000E+00  0.94483395170E+02  0.94483395170E+02  0.00000000000E+00 0. -1.
         -2   -1    0    0    0  501 -0.00000000000E+00 -0.00000000000E+00 -0.11514927945E+02  0.11514927945E+02  0.00000000000E+00 0.  1.
         21    1    1    2  502  503 -0.27305243013E+02 -0.69442764276E+01  0.69043013830E+02  0.74570349536E+02  0.00000000000E+00 0. -1.
         21    1    1    2  503  501  0.27305243013E+02  0.69442764276E+01  0.13925453394E+02  0.31427973580E+02  0.00000000000E+00 0.  1.
</event>
<event>
 4    1  0.5591986E+002  0.2797615E+02  0.7546771E-02  0.1438041E+00
          2   -1    0    0  503    0  0.00000000000E+00  0.00000000000E+00  0.41030647509E+03  0.41030647509E+03  0.00000000000E+00 0. -1.
         -2   -1    0    0    0  501 -0.00000000000E+00 -0.00000000000E+00 -0.21508713068E+01  0.21508713068E+01  0.00000000000E+00 0.  1.
         21    1    1    2  502  501 -0.27915457534E+02 -0.18418052316E+01  0.13470891163E+03  0.13758326892E+03  0.00000000000E+00 0.  1.
         21    1    1    2  503  502  0.27915457534E+02  0.18418052316E+01  0.27344669216E+03  0.27487407747E+03  0.00000000000E+00 0. -1.
</event>
<event>
 4    1  0.5591986E+002  0.5346335E+02  0.7546771E-02  0.1283817E+00
          2   -1    0    0  502    0  0.00000000000E+00  0.00000000000E+00  0.73449116222E+02  0.73449116222E+02  0.00000000000E+00 0.  1.
         -2   -1    0    0    0  501 -0.00000000000E+00 -0.00000000000E+00 -0.48273872300E+02  0.48273872300E+02  0.00000000000E+00 0. -1.
         21    1    1    2  502  503 -0.42081288779E+02  0.32977183428E+02  0.39384256527E+02  0.66403683290E+02  0.00000000000E+00 0.  1.
         21    1    1    2  503  501  0.42081288779E+02 -0.32977183428E+02 -0.14209012605E+02  0.55319305233E+02  0.00000000000E+00 0. -1.
</event>
<event>
 4    1  0.5591986E+002  0.2040999E+02  0.7546771E-02  0.1527858E+00
          2   -1    0    0  502    0  0.00000000000E+00  0.00000000000E+00  0.91704250435E+03  0.91704250435E+03  0.00000000000E+00 0. -1.
         -2   -1    0    0    0  501 -0.00000000000E+00 -0.00000000000E+00 -0.67126392631E+00  0.67126392631E+00  0.00000000000E+00 0.  1.
         21    1    1    2  502  503  0.18555543373E+02  0.85005591286E+01  0.71908506691E+03  0.71937465979E+03  0.00000000000E+00 0. -1.
         21    1    1    2  503  501 -0.18555543373E+02 -0.85005591286E+01  0.19728617352E+03  0.19833910849E+03  0.00000000000E+00 0.  1.
</event>
<event>
 4    1  0.5591986E+002  0.2872473E+02  0.7546771E-02  0.1431012E+00
          2   -1    0    0  502    0  0.00000000000E+00  0.00000000000E+00  0.27417526387E+01  0.27417526387E+01  0.00000000000E+00 0. -1.
         -2   -1    0    0    0  501 -0.00000000000E+00 -0.00000000000E+00 -0.32985373773E+03  0.32985373773E+03  0.00000000000E+00 0.  1.
         21    1    1    2  502  503 -0.28409425151E+02  0.42443710855E+01 -0.11432275807E+03  0.11787621955E+03  0.00000000000E+00 0. -1.
         21    1    1    2  503  501  0.28409425151E+02 -0.42443710855E+01 -0.21278922702E+03  0.21471927082E+03  0.00000000000E+00 0.  1.
</event>
<event>
 4    1  0.5591986E+002  0.2349868E+02  0.7546771E-02  0.1486329E+00
          2   -1    0    0  502    0  0.00000000000E+00  0.00000000000E+00  0.73673763291E+03  0.73673763291E+03  0.00000000000E+00 0.  1.
         -2   -1    0    0    0  501 -0.00000000000E+00 -0.00000000000E+00 -0.85420392189E+00  0.85420392189E+00  0.00000000000E+00 0. -1.
         21    1    1    2  502  503 -0.22157316698E+02 -0.78256760758E+01  0.23882625034E+03  0.23997951108E+03  0.00000000000E+00 0. -1.
         21    1    1    2  503  501  0.22157316698E+02  0.78256760758E+01  0.49705717865E+03  0.49761232575E+03  0.00000000000E+00 0.  1.
</event>
<event>
 4    1  0.5591986E+002  0.2242585E+02  0.7546771E-02  0.1499836E+00
          2   -1    0    0  502    0  0.00000000000E+00  0.00000000000E+00  0.46741502697E+03  0.46741502697E+03  0.00000000000E+00 0. -1.
         -2   -1    0    0    0  501 -0.00000000000E+00 -0.00000000000E+00 -0.11514476717E+01  0.11514476717E+01  0.00000000000E+00 0.  1.
         21    1    1    2  502  503 -0.11321014110E+02  0.19358548606E+02  0.29311972936E+03  0.29397635025E+03  0.00000000000E+00 0. -1.
         21    1    1    2  503  501  0.11321014110E+02 -0.19358548606E+02  0.17314384994E+03  0.17459012439E+03  0.00000000000E+00 0.  1.
</event>
<event>
 4    1  0.5591986E+002  0.3040290E+02  0.7546771E-02  0.1416127E+00
          2   -1    0    0  502    0  0.00000000000E+00  0.00000000000E+00  0.12313158365E+04  0.12313158365E+04  0.00000000000E+00 0.  1.
         -2   -1    0    0    0  501 -0.00000000000E+00 -0.00000000000E+00 -0.12468668138E+01  0.12468668138E+01  0.00000000000E+00 0. -1.
         21    1    1    2  502  503  0.28758763559E+02  0.98625509655E+01  0.10037995745E+04  0.10042598878E+04  0.00000000000E+00 0.  1.
         21    1    1    2  503  501 -0.28758763559E+02 -0.98625509655E+01  0.22626939521E+03  0.22830281558E+03  0.00000000000E+00 0. -1.
</event>
<event>
 4    1  0.5591986E+002  0.3171514E+02  0.7546771E-02  0.1405255E+00
          2   -1    0    0  503    0  0.00000000000E+00  0.00000000000E+00  0.71093117350E+02  0.71093117350E+02  0.00000000000E+00 0. -1.
         -2   -1    0    0    0  501 -0.00000000000E+00 -0.00000000000E+00 -0.24596591816E+03  0.24596591816E+03  0.00000000000E+00 0.  1.
         21    1    1    2  502  501 -0.24206819677E+02 -0.20490968227E+02 -0.24133896246E+03  0.24341393694E+03  0.00000000000E+00 0.  1.
         21    1    1    2  503  502  0.24206819677E+02  0.20490968227E+02  0.66466161651E+02  0.73645098563E+02  0.00000000000E+00 0. -1.
</event>
<event>
 4    1  0.5591986E+002  0.2470360E+02  0.7546771E-02  0.1472147E+00
          2   -1    0    0  503    0  0.00000000000E+00  0.00000000000E+00  0.64896855333E+03  0.64896855333E+03  0.00000000000E+00 0. -1.
         -2   -1    0    0    0  501 -0.00000000000E+00 -0.00000000000E+00 -0.12323683126E+01  0.12323683126E+01  0.00000000000E+00 0.  1.
         21    1    1    2  502  501  0.50737031930E+01 -0.24176957024E+02  0.16561917323E+03  0.16745142058E+03  0.00000000000E+00 0.  1.
         21    1    1    2  503  502 -0.50737031930E+01  0.24176957024E+02  0.48211701178E+03  0.48274950105E+03  0.00000000000E+00 0. -1.
</event>
<event>
 4    1  0.5591986E+002  0.3510442E+02  0.7546771E-02  0.1379831E+00
          2   -1    0    0  503    0  0.00000000000E+00  0.00000000000E+00  0.17991005066E+04  0.17991005066E+04  0.00000000000E+00 0.  1.
         -2   -1    0    0    0  501 -0.00000000000E+00 -0.00000000000E+00 -0.53407309210E+01  0.53407309210E+01  0.00000000000E+00 0. -1.
         21    1    1    2  502  501  0.34117583250E+02  0.82650553146E+01  0.54500029418E+02  0.64827261494E+02  0.00000000000E+00 0. -1.
         21    1    1    2  503  502 -0.34117583250E+02 -0.82650553146E+01  0.17392597463E+04  0.17396139760E+04  0.00000000000E+00 0.  1.
</event>
<event>
 4    1  0.5591986E+002  0.2025533E+02  0.7546771E-02  0.1530168E+00
          2   -1    0    0  502    0  0.00000000000E+00  0.00000000000E+00  0.14235954473E+04  0.14235954473E+04  0.00000000000E+00 0. -1.
         -2   -1    0    0    0  501 -0.00000000000E+00 -0.00000000000E+00 -0.22091902564E+01  0.22091902564E+01  0.00000000000E+00 0.  1.
         21    1    1    2  502  503 -0.34076059635E+01  0.19966637806E+02  0.13754704450E+04  0.13756195780E+04  0.00000000000E+00 0. -1.
         21    1    1    2  503  501  0.34076059635E+01 -0.19966637806E+02  0.45915812057E+02  0.50185059535E+02  0.00000000000E+00 0.  1.
</event>
<event>
 4    1  0.5591986E+002  0.2540363E+02  0.7546771E-02  0.1464338E+00
          2   -1    0    0  502    0  0.00000000000E+00  0.00000000000E+00  0.83025998254E+01  0.83025998254E+01  0.00000000000E+00 0.  1.
         -2   -1    0    0    0  501 -0.00000000000E+00 -0.00000000000E+00 -0.90973074054E+02  0.90973074054E+02  0.00000000000E+00 0. -1.
         21    1    1    2  502  503  0.10398762379E+02 -0.23177797133E+02 -0.22395083788E+02  0.33865680516E+02  0.00000000000E+00 0.  1.
         21    1    1    2  503  501 -0.10398762379E+02  0.23177797133E+02 -0.60275390441E+02  0.65409993363E+02  0.00000000000E+00 0. -1.
</event>
<event>
 4    1  0.5591986E+002  0.2107040E+02  0.7546771E-02  0.1518262E+00
          2   -1    0    0  502    0  0.00000000000E+00  0.00000000000E+00  0.14456759393E+02  0.14456759393E+02  0.00000000000E+00 0.  1.
         -2   -1    0    0    0  501 -0.00000000000E+00 -0.00000000000E+00 -0.31036211243E+02  0.31036211243E+02  0.00000000000E+00 0. -1.
         21    1    1    2  502  503 -0.97679382213E+01  0.18669474904E+02 -0.10623008662E+02  0.23596826552E+02  0.00000000000E+00 0. -1.
         21    1    1    2  503  501  0.97679382213E+01 -0.18669474904E+02 -0.59564431883E+01  0.21896144084E+02  0.00000000000E+00 0.  1.
</event>
<event>
 4    1  0.5591986E+002  0.3712838E+02  0.7546771E-02  0.1366188E+00
          2   -1    0    0  503    0  0.00000000000E+00  0.00000000000E+00  0.26545215113E+04  0.26545215113E+04  0.00000000000E+00 0. -1.
         -2   -1    0    0    0  501 -0.00000000000E+00 -0.00000000000E+00 -0.14840161106E+01  0.14840161106E+01  0.00000000000E+00 0.  1.
         21    1    1    2  502  501  0.35670122247E+02  0.10303354223E+02  0.25579502162E+03  0.25847554975E+03  0.00000000000E+00 0.  1.
         21    1    1    2  503  502 -0.35670122247E+02 -0.10303354223E+02  0.23972424736E+04  0.23975299777E+04  0.00000000000E+00 0. -1.
</event>
<event>
 4    1  0.5591986E+002  0.1194738E+03  0.7546771E-02  0.1133780E+00
          2   -1    0    0  502    0  0.00000000000E+00  0.00000000000E+00  0.21885646024E+02  0.21885646024E+02  0.00000000000E+00 0. -1.
         -2   -1    0    0    0  501 -0.00000000000E+00 -0.00000000000E+00 -0.93563172026E+03  0.93563172026E+03  0.00000000000E+00 0.  1.
         21    1    1    2  502  503 -0.75423216579E+02  0.92657085800E+02 -0.19337210128E+03  0.22730324833E+03  0.00000000000E+00 0. -1.
         21    1    1    2  503  501  0.75423216579E+02 -0.92657085800E+02 -0.72037397295E+03  0.73021411795E+03  0.00000000000E+00 0.  1.
</event>
<event>
 4    1  0.5591986E+002  0.2453674E+02  0.7546771E-02  0.1474053E+00
          2   -1    0    0  502    0  0.00000000000E+00  0.00000000000E+00  0.83541264424E+03  0.83541264424E+03  0.00000000000E+00 0.  1.
         -2   -1    0    0    0  501 -0.00000000000E+00 -0.00000000000E+00 -0.12065181848E+01  0.12065181848E+01  0.00000000000E+00 0. -1.
         21    1    1    2  502  503 -0.33144712043E+01 -0.24311841946E+02  0.68255389152E+03  0.68299477758E+03  0.00000000000E+00 0.  1.
         21    1    1    2  503  501  0.33144712043E+01  0.24311841946E+02  0.15165223454E+03  0.15362438485E+03  0.00000000000E+00 0. -1.
</event>
<event>
 4    1  0.5591986E+002  0.2673861E+02  0.7546771E-02  0.1450252E+00
          2   -1    0    0  502    0  0.00000000000E+00  0.00000000000E+00  0.13835447171E+03  0.13835447171E+03  0.00000000000E+00 0. -1.
         -2   -1    0    0    0  501 -0.00000000000E+00 -0.00000000000E+00 -0.63688995506E+01  0.63688995506E+01  0.00000000000E+00 0.  1.
         21    1    1    2  502  503 -0.25637374338E+02 -0.75946137497E+01  0.34565139404E+02  0.43700137105E+02  0.00000000000E+00 0.  1.
         21    1    1    2  503  501  0.25637374338E+02  0.75946137497E+01  0.97420432753E+02  0.10102323415E+03  0.00000000000E+00 0. -1.
</event>
<event>
 4    1  0.5591986E+002  0.2403024E+02  0.7546771E-02  0.1479951E+00
          2   -1    0    0  502    0  0.00000000000E+00  0.00000000000E+00  0.91764198345E+02  0.91764198345E+02  0.00000000000E+00 0. -1.
         -2   -1    0    0    0  501 -0.00000000000E+00 -0.00000000000E+00 -0.69700106286E+01  0.69700106286E+01  0.00000000000E+00 0.  1.
         21    1    1    2  502  503  0.16217792412E+02  0.17732335411E+02  0.57785269761E+02  0.62582664622E+02  0.00000000000E+00 0. -1.
         21    1    1    2  503  501 -0.16217792412E+02 -0.17732335411E+02  0.27008917956E+02  0.36151544352E+02  0.00000000000E+00 0.  1.
</event>
<event>
 4    1  0.5591986E+002  0.2522867E+02  0.7546771E-02  0.1466261E+00
          2   -1    0    0  503    0  0.00000000000E+00  0.00000000000E+00  0.40140195943E+03  0.40140195943E+03  0.00000000000E+00 0. -1.
         -2   -1    0    0    0  501 -0.00000000000E+00 -0.00000000000E+00 -0.32740080242E+01  0.32740080242E+01  0.00000000000E+00 0.  1.
         21    1    1    2  502  501 -0.23012096379E+02  0.10340661319E+02  0.53762872528E+02  0.59387981265E+02  0.00000000000E+00 0.  1.
         21    1    1    2  503  502  0.23012096379E+02 -0.10340661319E+02  0.34436507888E+03  0.34528798619E+03  0.00000000000E+00 0. -1.
</event>
<event>
 4    1  0.5591986E+002  0.5402370E+02  0.7546771E-02  0.1281610E+00
          2   -1    0    0  502    0  0.00000000000E+00  0.00000000000E+00  0.16159531596E+04  0.16159531596E+04  0.00000000000E+00 0. -1.
         -2   -1    0    0    0  501 -0.00000000000E+00 -0.00000000000E+00 -0.18073614824E+01  0.18073614824E+01  0.00000000000E+00 0.  1.
         21    1    1    2  502  503  0.80796938511E+01  0.53416092264E+02  0.82850892197E+03  0.83026838682E+03  0.00000000000E+00 0.  1.
         21    1    1    2  503  501 -0.80796938511E+01 -0.53416092264E+02  0.78563687617E+03  0.78749213428E+03  0.00000000000E+00 0. -1.
</event>
<event>
 4    1  0.5591986E+002  0.5836312E+02  0.7546771E-02  0.1265498E+00
          2   -1    0    0  503    0  0.00000000000E+00  0.00000000000E+00  0.60501094331E+02  0.60501094331E+02  0.00000000000E+00 0. -1.
         -2   -1    0    0    0  501 -0.00000000000E+00 -0.00000000000E+00 -0.11749869954E+03  0.11749869954E+03  0.00000000000E+00 0.  1.
         21    1    1    2  502  501 -0.56888671387E+02  0.13035833961E+02 -0.92729345147E+02  0.10956726405E+03  0.00000000000E+00 0.  1.
         21    1    1    2  503  502  0.56888671387E+02 -0.13035833961E+02  0.35731739938E+02  0.68432529825E+02  0.00000000000E+00 0. -1.
</event>
<event>
 4    1  0.5591986E+002  0.2006479E+02  0.7546771E-02  0.1533048E+00
          2   -1    0    0  503    0  0.00000000000E+00  0.00000000000E+00  0.34045220937E+03  0.34045220937E+03  0.00000000000E+00 0. -1.
         -2   -1    0    0    0  501 -0.00000000000E+00 -0.00000000000E+00 -0.11001123392E+02  0.11001123392E+02  0.00000000000E+00 0.  1.
         21    1    1    2  502  501 -0.17948605448E+02 -0.89690172796E+01 -0.12880851262E+01  0.20106090415E+02  0.00000000000E+00 0.  1.
         21    1    1    2  503  502  0.17948605448E+02  0.89690172796E+01  0.33073917110E+03  0.33134724235E+03  0.00000000000E+00 0. -1.
</event>
<event>
 4    1  0.5591986E+002  0.2179519E+02  0.7546771E-02  0.1508208E+00
          2   -1    0    0  502    0  0.00000000000E+00  0.00000000000E+00  0.36056516870E+03  0.36056516870E+03  0.00000000000E+00 0. -1.
         -2   -1    0    0    0  501 -0.00000000000E+00 -0.00000000000E+00 -0.31423053176E+01  0.31423053176E+01  0.00000000000E+00 0.  1.
         21    1    1    2  502  503 -0.17944415566E+02 -0.12370462272E+02  0.31729476487E+03  0.31804244717E+03  0.00000000000E+00 0. -1.
         21    1    1    2  503  501  0.17944415566E+02  0.12370462272E+02  0.40128098503E+02  0.45665026840E+02  0.00000000000E+00 0.  1.
</event>
<event>
 4    1  0.5591986E+002  0.2729854E+02  0.7546771E-02  0.1444632E+00
          2   -1    0    0  503    0  0.00000000000E+00  0.00000000000E+00  0.12617732006E+04  0.12617732006E+04  0.00000000000E+00 0. -1.
         -2   -1    0    0    0  501 -0.00000000000E+00 -0.00000000000E+00 -0.92221972028E+00  0.92221972028E+00  0.00000000000E+00 0.  1.
         21    1    1    2  502  501 -0.10154753654E+02  0.25339520222E+02  0.25183655208E+03  0.25331178273E+03  0.00000000000E+00 0. -1.
         21    1    1    2  503  502  0.10154753654E+02 -0.25339520222E+02  0.10090144288E+04  0.10093836376E+04  0.00000000000E+00 0.  1.
</event>
<event>
 4    1  0.5591986E+002  0.2803426E+02  0.7546771E-02  0.1437487E+00
          2   -1    0    0  503    0  0.00000000000E+00  0.00000000000E+00  0.11391612594E+04  0.11391612594E+04  0.00000000000E+00 0.  1.
         -2   -1    0    0    0  501 -0.00000000000E+00 -0.00000000000E+00 -0.93453744253E+00  0.93453744253E+00  0.00000000000E+00 0. -1.
         21    1    1    2  502  501  0.25490075347E+02 -0.11669429848E+02  0.27746135495E+03  0.27887402716E+03  0.00000000000E+00 0.  1.
         21    1    1    2  503  502 -0.25490075347E+02  0.11669429848E+02  0.86076536697E+03  0.86122176965E+03  0.00000000000E+00 0. -1.
</event>
<event>
 4    1  0.5591986E+002  0.2316672E+02  0.7546771E-02  0.1490415E+00
          2   -1    0    0  503    0  0.00000000000E+00  0.00000000000E+00  0.66164249371E+02  0.66164249371E+02  0.00000000000E+00 0.  1.
         -2   -1    0    0    0  501 -0.00000000000E+00 -0.00000000000E+00 -0.96297807347E+01  0.96297807347E+01  0.00000000000E+00 0. -1.
         21    1    1    2  502  501 -0.21983940665E+02  0.73077658323E+01  0.13219872930E+02  0.26673247438E+02  0.00000000000E+00 0. -1.
         21    1    1    2  503  502  0.21983940665E+02 -0.73077658323E+01  0.43314595706E+02  0.49120782667E+02  0.00000000000E+00 0.  1.
</event>
<event>
 4    1  0.5591986E+002  0.2456467E+02  0.7546771E-02  0.1473733E+00
          2   -1    0    0  503    0  0.00000000000E+00  0.00000000000E+00  0.14566646247E+01  0.14566646247E+01  0.00000000000E+00 0. -1.
         -2   -1    0    0    0  501 -0.00000000000E+00 -0.00000000000E+00 -0.54560502015E+03  0.54560502015E+03  0.00000000000E+00 0.  1.
         21    1    1    2  502  501  0.14626523927E+02  0.19735451347E+02 -0.40628593148E+03  0.40702786312E+03  0.00000000000E+00 0.  1.
         21    1    1    2  503  502 -0.14626523927E+02 -0.19735451347E+02 -0.13786242405E+03  0.14003382165E+03  0.00000000000E+00 0. -1.
</event>
<event>
 4    1  0.5591986E+002  0.2534737E+02  0.7546771E-02  0.1464955E+00
          2   -1    0    0  502    0  0.00000000000E+00  0.00000000000E+00  0.32755523112E+03  0.32755523112E+03  0.00000000000E+00 0. -1.
         -2   -1    0    0    0  501 -0.00000000000E+00 -0.00000000000E+00 -0.30239378180E+01  0.30239378180E+01  0.00000000000E+00 0.  1.
         21    1    1    2  502  503  0.25202755435E+02  0.27037200010E+01  0.26024113478E+03  0.26147263186E+03  0.00000000000E+00 0. -1.
         21    1    1    2  503  501 -0.25202755435E+02 -0.27037200010E+01  0.64290158528E+02  0.69106537078E+02  0.00000000000E+00 0.  1.
</event>
<event>
 4    1  0.5591986E+002  0.2072876E+02  0.7546771E-02  0.1523173E+00
          2   -1    0    0  502    0  0.00000000000E+00  0.00000000000E+00  0.15289819916E+03  0.15289819916E+03  0.00000000000E+00 0.  1.
         -2   -1    0    0    0  501 -0.00000000000E+00 -0.00000000000E+00 -0.42260396122E+01  0.42260396122E+01  0.00000000000E+00 0. -1.
         21    1    1    2  502  503  0.20166143911E+02  0.47966855143E+01  0.11980832349E+03  0.12158830507E+03  0.00000000000E+00 0.  1.
         21    1    1    2  503  501 -0.20166143911E+02 -0.47966855143E+01  0.28863836057E+02  0.35535933702E+02  0.00000000000E+00 0. -1.
</event>
<event>
 4    1  0.5591986E+002  0.2421613E+02  0.7546771E-02  0.1477767E+00
          2   -1    0    0  502    0  0.00000000000E+00  0.00000000000E+00  0.68227170485E+03  0.68227170485E+03  0.00000000000E+00 0. -1.
         -2   -1    0    0    0  501 -0.00000000000E+00 -0.00000000000E+00 -0.26471276441E+01  0.26471276441E+01  0.00000000000E+00 0.  1.
         21    1    1    2  502  503  0.20873041436E+02  0.12277506262E+02  0.62123470649E+03  0.62170650758E+03  0.00000000000E+00 0. -1.
         21    1    1    2  503  501 -0.20873041436E+02 -0.12277506262E+02  0.58389870707E+02  0.63212324906E+02  0.00000000000E+00 0.  1.
</event>
<event>
 4    1  0.5591986E+002  0.2326940E+02  0.7546771E-02  0.1489143E+00
          2   -1    0    0  503    0  0.00000000000E+00  0.00000000000E+00  0.73881983226E+02  0.73881983226E+02  0.00000000000E+00 0. -1.
         -2   -1    0    0    0  501 -0.00000000000E+00 -0.00000000000E+00 -0.91388213307E+01  0.91388213307E+01  0.00000000000E+00 0.  1.
         21    1    1    2  502  501 -0.13306790739E+02  0.19089118358E+02  0.13897809021E+02  0.27103767543E+02  0.00000000000E+00 0. -1.
         21    1    1    2  503  502  0.13306790739E+02 -0.19089118358E+02  0.50845352874E+02  0.55917037013E+02  0.00000000000E+00 0.  1.
</event>
<event>
 4    1  0.5591986E+002  0.2454429E+02  0.7546771E-02  0.1473966E+00
          2   -1    0    0  502    0  0.00000000000E+00  0.00000000000E+00  0.15899194408E+03  0.15899194408E+03  0.00000000000E+00 0.  1.
         -2   -1    0    0    0  501 -0.00000000000E+00 -0.00000000000E+00 -0.41294808504E+01  0.41294808504E+01  0.00000000000E+00 0. -1.
         21    1    1    2  502  503 -0.69121613047E+01 -0.23550888159E+02  0.10085044393E+03  0.10379419227E+03  0.00000000000E+00 0.  1.
         21    1    1    2  503  501  0.69121613047E+01  0.23550888159E+02  0.54012019301E+02  0.59327232668E+02  0.00000000000E+00 0. -1.
</event>
<event>
 4    1  0.5591986E+002  0.2077020E+02  0.7546771E-02  0.1522571E+00
          2   -1    0    0  502    0  0.00000000000E+00  0.00000000000E+00  0.92482268901E+03  0.92482268901E+03  0.00000000000E+00 0.  1.
         -2   -1    0    0    0  501 -0.00000000000E+00 -0.00000000000E+00 -0.90829272221E+00  0.90829272221E+00  0.00000000000E+00 0. -1.
         21    1    1    2  502  503 -0.15216718827E+02  0.14136932002E+02  0.13913286625E+03  0.14067464537E+03  0.00000000000E+00 0. -1.
         21    1    1    2  503  501  0.15216718827E+02 -0.14136932002E+02  0.78478153003E+03  0.78505633636E+03  0.00000000000E+00 0.  1.
</event>
<event>
 4    1  0.5591986E+002  0.2301944E+02  0.7546771E-02  0.1492254E+00
          2   -1    0    0  502    0  0.00000000000E+00  0.00000000000E+00  0.13317844853E+04  0.13317844853E+04  0.00000000000E+00 0. -1.
         -2   -1    0    0    0  501 -0.00000000000E+00 -0.00000000000E+00 -0.14023895928E+01  0.14023895928E+01  0.00000000000E+00 0.  1.
         21    1    1    2  502  503 -0.13220966523E+02 -0.18844118231E+02  0.12293520135E+04  0.12295675125E+04  0.00000000000E+00 0. -1.
         21    1    1    2  503  501  0.13220966523E+02  0.18844118231E+02  0.10103008219E+03  0.10361936236E+03  0.00000000000E+00 0.  1.
</event>
<event>
 4    1  0.5591986E+002  0.3861771E+02  0.7546771E-02  0.1356782E+00
          2   -1    0    0  502    0  0.00000000000E+00  0.00000000000E+00  0.14460891026E+04  0.14460891026E+04  0.00000000000E+00 0. -1.
         -2   -1    0    0    0  501 -0.00000000000E+00 -0.00000000000E+00 -0.35610481105E+01  0.35610481105E+01  0.00000000000E+00 0.  1.
         21    1    1    2  502  503  0.17825986175E+02  0.34257287112E+02  0.13321840576E+04  0.13327436703E+04  0.00000000000E+00 0. -1.
         21    1    1    2  503  501 -0.17825986175E+02 -0.34257287112E+02  0.11034399688E+03  0.11690648037E+03  0.00000000000E+00 0.  1.
</event>
<event>
 4    1  0.5591986E+002  0.3030788E+02  0.7546771E-02  0.1416939E+00
          2   -1    0    0  502    0  0.00000000000E+00  0.00000000000E+00  0.80664974524E+03  0.80664974524E+03  0.00000000000E+00 0. -1.
         -2   -1    0    0    0  501 -0.00000000000E+00 -0.00000000000E+00 -0.13802104349E+01  0.13802104349E+01  0.00000000000E+00 0.  1.
         21    1    1    2  502  503  0.17748433852E+02 -0.24567471106E+02  0.57162173636E+03  0.57242464746E+03  0.00000000000E+00 0. -1.
         21    1    1    2  503  501 -0.17748433852E+02  0.24567471106E+02  0.23364779845E+03  0.23560530822E+03  0.00000000000E+00 0.  1.
</event>
<event>
 4    1  0.5591986E+002  0.2370157E+02  0.7546771E-02  0.1483871E+00
          2   -1    0    0  503    0  0.00000000000E+00  0.00000000000E+00  0.35511334591E+03  0.35511334591E+03  0.00000000000E+00 0.  1.
         -2   -1    0    0    0  501 -0.00000000000E+00 -0.00000000000E+00 -0.16506027124E+01  0.16506027124E+01  0.00000000000E+00 0. -1.
         21    1    1    2  502  501 -0.97544063512E+01  0.21601300622E+02  0.14034655267E+03  0.14233383111E+03  0.00000000000E+00 0.  1.
         21    1    1    2  503  502  0.97544063512E+01 -0.21601300622E+02  0.21311619052E+03  0.21443011751E+03  0.00000000000E+00 0. -1.
</event>
<event>
 4    1  0.5591986E+002  0.3066871E+02  0.7546771E-02  0.1413873E+00
          2   -1    0    0  503    0  0.00000000000E+00  0.00000000000E+00  0.26840631041E+02  0.26840631041E+02  0.00000000000E+00 0. -1.
         -2   -1    0    0    0  501 -0.00000000000E+00 -0.00000000000E+00 -0.63467062775E+03  0.63467062775E+03  0.00000000000E+00 0.  1.
         21    1    1    2  502  501  0.23615064988E+02  0.19567788709E+02 -0.62540979684E+03  0.62616130799E+03  0.00000000000E+00 0.  1.
         21    1    1    2  503  502 -0.23615064988E+02 -0.19567788709E+02  0.17579800123E+02  0.35349950802E+02  0.00000000000E+00 0. -1.
</event>
<event>
 4    1  0.5591986E+002  0.7095560E+02  0.7546771E-02  0.1226561E+00
          2   -1    0    0  502    0  0.00000000000E+00  0.00000000000E+00  0.14684683680E+04  0.14684683680E+04  0.00000000000E+00 0.  1.
         -2   -1    0    0    0  501 -0.00000000000E+00 -0.00000000000E+00 -0.65297804563E+01  0.65297804563E+01  0.00000000000E+00 0. -1.
         21    1    1    2  502  503 -0.47756839094E+02 -0.52478390554E+02  0.12392225465E+04  0.12412522777E+04  0.00000000000E+00 0.  1.
         21    1    1    2  503  501  0.47756839094E+02  0.52478390554E+02  0.22271604107E+03  0.23374587078E+03  0.00000000000E+00 0. -1.
</event>
<event>
 4    1  0.5591986E+002  0.4760601E+02  0.7546771E-02  0.1308899E+00
          2   -1    0    0  503    0  0.00000000000E+00  0.00000000000E+00  0.30425772569E+04  0.30425772569E+04  0.00000000000E+00 0. -1.
         -2   -1    0    0    0  501 -0.00000000000E+00 -0.00000000000E+00 -0.36810518335E+01  0.36810518335E+01  0.00000000000E+00 0.  1.
         21    1    1    2  502  501 -0.23035883153E+02  0.41661501072E+02  0.15912509861E+03  0.16609373736E+03  0.00000000000E+00 0. -1.
         21    1    1    2  503  502  0.23035883153E+02 -0.41661501072E+02  0.28797711064E+04  0.28801645713E+04  0.00000000000E+00 0.  1.
</event>
<event>
 4    1  0.5591986E+002  0.3324190E+02  0.7546771E-02  0.1393363E+00
          2   -1    0    0  502    0  0.00000000000E+00  0.00000000000E+00  0.60389692741E+03  0.60389692741E+03  0.00000000000E+00 0. -1.
         -2   -1    0    0    0  501 -0.00000000000E+00 -0.00000000000E+00 -0.20010091847E+01  0.20010091847E+01  0.00000000000E+00 0.  1.
         21    1    1    2  502  503 -0.21616414375E+02 -0.25253804048E+02  0.38955747001E+03  0.39097320424E+03  0.00000000000E+00 0. -1.
         21    1    1    2  503  501  0.21616414375E+02  0.25253804048E+02  0.21233844822E+03  0.21492473236E+03  0.00000000000E+00 0.  1.
</event>
<event>
 4    1  0.5591986E+002  0.2612774E+02  0.7546771E-02  0.1456572E+00
          2   -1    0    0  502    0  0.00000000000E+00  0.00000000000E+00  0.46493586820E+03  0.46493586820E+03  0.00000000000E+00 0. -1.
         -2   -1    0    0    0  501 -0.00000000000E+00 -0.00000000000E+00 -0.20737520702E+01  0.20737520702E+01  0.00000000000E+00 0.  1.
         21    1    1    2  502  503 -0.17643441066E+02  0.19270906077E+02  0.35760286264E+03  0.35855608516E+03  0.00000000000E+00 0. -1.
         21    1    1    2  503  501  0.17643441066E+02 -0.19270906077E+02  0.10525925349E+03  0.10845353512E+03  0.00000000000E+00 0.  1.
</event>
<event>
 4    1  0.5591986E+002  0.2507415E+02  0.7546771E-02  0.1467976E+00
          2   -1    0    0  503    0  0.00000000000E+00  0.00000000000E+00  0.46203272331E+01  0.46203272331E+01  0.00000000000E+00 0.  1.
         -2   -1    0    0    0  501 -0.00000000000E+00 -0.00000000000E+00 -0.13910555768E+03  0.13910555768E+03  0.00000000000E+00 0. -1.
         21    1    1    2  502  501  0.23252004360E+01 -0.24966101712E+02 -0.56636247465E+02  0.61938496257E+02  0.00000000000E+00 0.  1.
         21    1    1    2  503  502 -0.23252004360E+01  0.24966101712E+02 -0.77848982981E+02  0.81787388654E+02  0.00000000000E+00 0. -1.
</event>
<event>
 4    1  0.5591986E+002  0.2200260E+02  0.7546771E-02  0.1505417E+00
          2   -1    0    0  502    0  0.00000000000E+00  0.00000000000E+00  0.12150757544E+04  0.12150757544E+04  0.00000000000E+00 0. -1.
         -2   -1    0    0    0  501 -0.00000000000E+00 -0.00000000000E+00 -0.11172725828E+01  0.11172725828E+01  0.00000000000E+00 0.  1.
         21    1    1    2  502  503  0.17308871370E+02 -0.13583717197E+02  0.10947456484E+04  0.10949667342E+04  0.00000000000E+00 0. -1.
         21    1    1    2  503  501 -0.17308871370E+02  0.13583717197E+02  0.11921283345E+03  0.12122629277E+03  0.00000000000E+00 0.  1.
</event>
<event>
 4    1  0.5591986E+002  0.4042113E+02  0.7546771E-02  0.1346036E+00
          2   -1    0    0  503    0  0.00000000000E+00  0.00000000000E+00  0.19808704534E+03  0.19808704534E+03  0.00000000000E+00 0.  1.
         -2   -1    0    0    0  501 -0.00000000000E+00 -0.00000000000E+00 -0.10314648738E+02  0.10314648738E+02  0.00000000000E+00 0. -1.
         21    1    1    2  502  501  0.39137547768E+02 -0.10105461814E+02  0.47246800783E+02  0.62178197047E+02  0.00000000000E+00 0.  1.
         21    1    1    2  503  502 -0.39137547768E+02  0.10105461814E+02  0.14052559582E+03  0.14622349703E+03  0.00000000000E+00 0. -1.
</event>
<event>
 4    1  0.5591986E+002  0.2319391E+02  0.7546771E-02  0.1490077E+00
          2   -1    0    0  503    0  0.00000000000E+00  0.00000000000E+00  0.10584951778E+04  0.10584951778E+04  0.00000000000E+00 0. -1.
         -2   -1    0    0    0  501 -0.00000000000E+00 -0.00000000000E+00 -0.53305309829E+01  0.53305309829E+01  0.00000000000E+00 0.  1.
         21    1    1    2  502  501  0.91600800363E+01  0.21308461704E+02  0.20661603916E+02  0.31062187348E+02  0.00000000000E+00 0.  1.
         21    1    1    2  503  502 -0.91600800363E+01 -0.21308461704E+02  0.10325030429E+04  0.10327635214E+04  0.00000000000E+00 0. -1.
</event>
<event>
 4    1  0.5591986E+002  0.2792915E+02  0.7546771E-02  0.1438491E+00
          2   -1    0    0  502    0  0.00000000000E+00  0.00000000000E+00  0.20405014804E+04  0.20405014804E+04  0.00000000000E+00 0.  1.
         -2   -1    0    0    0  501 -0.00000000000E+00 -0.00000000000E+00 -0.38472247851E+00  0.38472247851E+00  0.00000000000E+00 0. -1.
         21    1    1    2  502  503  0.27459864208E+02  0.50983485936E+01  0.93870521091E+03  0.93912060476E+03  0.00000000000E+00 0. -1.
         21    1    1    2  503  501 -0.27459864208E+02 -0.50983485936E+01  0.11014115470E+04  0.11017655981E+04  0.00000000000E+00 0.  1.
</event>
<event>
 4    1  0.5591986E+002  0.2879394E+02  0.7546771E-02  0.1430375E+00
          2   -1    0    0  502    0  0.00000000000E+00  0.00000000000E+00  0.13917801748E+04  0.13917801748E+04  0.00000000000E+00 0. -1.
         -2   -1    0    0    0  501 -0.00000000000E+00 -0.00000000000E+00 -0.75110872689E+00  0.75110872689E+00  0.00000000000E+00 0.  1.
         21    1    1    2  502  503 -0.24225785450E+02 -0.15562844474E+02  0.10122187706E+04  0.10126282291E+04  0.00000000000E+00 0. -1.
         21    1    1    2  503  501  0.24225785450E+02  0.15562844474E+02  0.37881029543E+03  0.37990305439E+03  0.00000000000E+00 0.  1.
</event>
<event>
 4    1  0.5591986E+002  0.2230242E+02  0.7546771E-02  0.1501448E+00
          2   -1    0    0  503    0  0.00000000000E+00  0.00000000000E+00  0.39828033706E+03  0.39828033706E+03  0.00000000000E+00 0. -1.
         -2   -1    0    0    0  501 -0.00000000000E+00 -0.00000000000E+00 -0.44700171129E+01  0.44700171129E+01  0.00000000000E+00 0.  1.
         21    1    1    2  502  501  0.18504568515E+02  0.12449050786E+02  0.25959910667E+02  0.34224477837E+02  0.00000000000E+00 0.  1.
         21    1    1    2  503  502 -0.18504568515E+02 -0.12449050786E+02  0.36785040928E+03  0.36852587634E+03  0.00000000000E+00 0. -1.
</event>
<event>
 4    1  0.5591986E+002  0.2474863E+02  0.7546771E-02  0.1471635E+00
          2   -1    0    0  503    0  0.00000000000E+00  0.00000000000E+00  0.39902972621E+02  0.39902972621E+02  0.00000000000E+00 0.  1.
         -2   -1    0    0    0  501 -0.00000000000E+00 -0.00000000000E+00 -0.17658077065E+02  0.17658077065E+02  0.00000000000E+00 0. -1.
         21    1    1    2  502  501  0.24708965478E+02 -0.14006788817E+01  0.71631656277E+00  0.24758998077E+02  0.00000000000E+00 0. -1.
         21    1    1    2  503  502 -0.24708965478E+02  0.14006788817E+01  0.21528578993E+02  0.32802051610E+02  0.00000000000E+00 0.  1.
</event>
<event>
 4    1  0.5591986E+002  0.2483807E+02  0.7546771E-02  0.1470623E+00
          2   -1    0    0  502    0  0.00000000000E+00  0.00000000000E+00  0.29032115394E+01  0.29032115394E+01  0.00000000000E+00 0. -1.
         -2   -1    0    0    0  501 -0.00000000000E+00 -0.00000000000E+00 -0.36269418354E+03  0.36269418354E+03  0.00000000000E+00 0.  1.
         21    1    1    2  502  503  0.10446460325E+01 -0.24816096171E+02 -0.62262093400E+02  0.67033560170E+02  0.00000000000E+00 0. -1.
         21    1    1    2  503  501 -0.10446460325E+01  0.24816096171E+02 -0.29752887861E+03  0.29856383491E+03  0.00000000000E+00 0.  1.
</event>
<event>
 4    1  0.5591986E+002  0.3773326E+02  0.7546771E-02  0.1362306E+00
          2   -1    0    0  502    0  0.00000000000E+00  0.00000000000E+00  0.72112724978E+03  0.72112724978E+03  0.00000000000E+00 0. -1.
         -2   -1    0    0    0  501 -0.00000000000E+00 -0.00000000000E+00 -0.23902024378E+01  0.23902024378E+01  0.00000000000E+00 0.  1.
         21    1    1    2  502  503 -0.75515173856E+01 -0.36969895532E+02  0.51025197344E+03  0.51164526284E+03  0.00000000000E+00 0.  1.
         21    1    1    2  503  501  0.75515173856E+01  0.36969895532E+02  0.20848507391E+03  0.21187218938E+03  0.00000000000E+00 0. -1.
</event>
<event>
 4    1  0.5591986E+002  0.3223869E+02  0.7546771E-02  0.1401090E+00
          2   -1    0    0  502    0  0.00000000000E+00  0.00000000000E+00  0.17471042613E+04  0.17471042613E+04  0.00000000000E+00 0. -1.
         -2   -1    0    0    0  501 -0.00000000000E+00 -0.00000000000E+00 -0.82386326164E+00  0.82386326164E+00  0.00000000000E+00 0.  1.
         21    1    1    2  502  503 -0.28814002398E+02  0.14459829916E+02  0.13338836516E+04  0.13342731840E+04  0.00000000000E+00 0. -1.
         21    1    1    2  503  501  0.28814002398E+02 -0.14459829916E+02  0.41239674641E+03  0.41365494058E+03  0.00000000000E+00 0.  1.
</event>
<event>
 4    1  0.5591986E+002  0.3952089E+02  0.7546771E-02  0.1351316E+00
          2   -1    0    0  503    0  0.00000000000E+00  0.00000000000E+00  0.57542703480E+02  0.57542703480E+02  0.00000000000E+00 0. -1.
         -2   -1    0    0    0  501 -0.00000000000E+00 -0.00000000000E+00 -0.34816820891E+02  0.34816820891E+02  0.00000000000E+00 0.  1.
         21    1    1    2  502  501 -0.10705254778E+02 -0.38043377570E+02 -0.10316765116E+02  0.40845277563E+02  0.00000000000E+00 0.  1.
         21    1    1    2  503  502  0.10705254778E+02  0.38043377570E+02  0.33042647705E+02  0.51514246807E+02  0.00000000000E+00 0. -1.
</event>
<event>
 4    1  0.5591986E+002  0.2792385E+02  0.7546771E-02  0.1438542E+00
          2   -1    0    0  502    0  0.00000000000E+00  0.00000000000E+00  0.59788790940E+03  0.59788790940E+03  0.00000000000E+00 0.  1.
         -2   -1    0    0    0  501 -0.00000000000E+00 -0.00000000000E+00 -0.25911137438E+01  0.25911137438E+01  0.00000000000E+00 0. -1.
         21    1    1    2  502  503  0.21675376358E+02 -0.17604526070E+02  0.50924375595E+03  0.51000876880E+03  0.00000000000E+00 0.  1.
         21    1    1    2  503  501 -0.21675376358E+02  0.17604526070E+02  0.86053039699E+02  0.90470254337E+02  0.00000000000E+00 0. -1.
</event>
<event>
 4    1  0.5591986E+002  0.4899200E+02  0.7546771E-02  0.1302603E+00
          2   -1    0    0  503    0  0.00000000000E+00  0.00000000000E+00  0.64612213595E+03  0.64612213595E+03  0.00000000000E+00 0. -1.
         -2   -1    0    0    0  501 -0.00000000000E+00 -0.00000000000E+00 -0.86392588165E+01  0.86392588165E+01  0.00000000000E+00 0.  1.
         21    1    1    2  502  501 -0.41079218031E+02  0.26696710941E+02  0.71572470617E+02  0.86734278571E+02  0.00000000000E+00 0.  1.
         21    1    1    2  503  502  0.41079218031E+02 -0.26696710941E+02  0.56591040652E+03  0.56802711620E+03  0.00000000000E+00 0. -1.
</event>
<event>
 4    1  0.5591986E+002  0.2448654E+02  0.7546771E-02  0.1474630E+00
          2   -1    0    0  502    0  0.00000000000E+00  0.00000000000E+00  0.10291577397E+04  0.10291577397E+04  0.00000000000E+00 0. -1.
         -2   -1    0    0    0  501 -0.00000000000E+00 -0.00000000000E+00 -0.21015416878E+01  0.21015416878E+01  0.00000000000E+00 0.  1.
         21    1    1    2  502  503 -0.22170114968E+02 -0.10395992875E+02  0.95189620911E+03  0.95221110243E+03  0.00000000000E+00 0. -1.
         21    1    1    2  503  501  0.22170114968E+02  0.10395992875E+02  0.75159988924E+02  0.79048178983E+02  0.00000000000E+00 0.  1.
</event>
<event>
 4    1  0.5591986E+002  0.2960792E+02  0.7546771E-02  0.1423035E+00
          2   -1    0    0  503    0  0.00000000000E+00  0.00000000000E+00  0.18976127845E+04  0.18976127845E+04  0.00000000000E+00 0.  1.
         -2   -1    0    0    0  501 -0.00000000000E+00 -0.00000000000E+00 -0.46668903943E+00  0.46668903943E+00  0.00000000000E+00 0. -1.
         21    1    1    2  502  501  0.29589378432E+02 -0.10477424575E+01  0.10440649058E+04  0.10444846368E+04  0.00000000000E+00 0.  1.
         21    1    1    2  503  502 -0.29589378432E+02  0.10477424575E+01  0.85308118972E+03  0.85359483675E+03  0.00000000000E+00 0. -1.
</event>
<event>
 4    1  0.5591986E+002  0.5843466E+02  0.7546771E-02  0.1265246E+00
          2   -1    0    0  503    0  0.00000000000E+00  0.00000000000E+00  0.23557103032E+02  0.23557103032E+02  0.00000000000E+00 0. -1.
         -2   -1    0    0    0  501 -0.00000000000E+00 -0.00000000000E+00 -0.22255490959E+03  0.22255490959E+03  0.00000000000E+00 0.  1.
         21    1    1    2  502  501 -0.54878881468E+02 -0.20072817106E+02 -0.17216434711E+03  0.18181081385E+03  0.00000000000E+00 0.  1.
         21    1    1    2  503  502  0.54878881468E+02  0.20072817106E+02 -0.26833459456E+02  0.64301198777E+02  0.00000000000E+00 0. -1.
</event>
<event>
 4    1  0.5591986E+002  0.2411903E+02  0.7546771E-02  0.1478905E+00
          2   -1    0    0  502    0  0.00000000000E+00  0.00000000000E+00  0.79767116234E+03  0.79767116234E+03  0.00000000000E+00 0.  1.
         -2   -1    0    0    0  501 -0.00000000000E+00 -0.00000000000E+00 -0.74037057817E+00  0.74037057817E+00  0.00000000000E+00 0. -1.
         21    1    1    2  502  503 -0.95655194272E+01 -0.22141104614E+02  0.44731926842E+03  0.44796903417E+03  0.00000000000E+00 0.  1.
         21    1    1    2  503  501  0.95655194272E+01  0.22141104614E+02  0.34961152334E+03  0.35044249874E+03  0.00000000000E+00 0. -1.
</event>
<event>
 4    1  0.5591986E+002  0.9766762E+02  0.7546771E-02  0.1167912E+00
          2   -1    0    0  503    0  0.00000000000E+00  0.00000000000E+00  0.11534833505E+03  0.11534833505E+03  0.00000000000E+00 0. -1.
         -2   -1    0    0    0  501 -0.00000000000E+00 -0.00000000000E+00 -0.98671986828E+02  0.98671986828E+02  0.00000000000E+00 0.  1.
         21    1    1    2  502  501  0.97126441763E+02  0.10267344616E+02 -0.34719246159E+02  0.10365514994E+03  0.00000000000E+00 0.  1.
         21    1    1    2  503  502 -0.97126441763E+02 -0.10267344616E+02  0.51395594381E+02  0.11036517194E+03  0.00000000000E+00 0. -1.
</event>
<event>
 4    1  0.5591986E+002  0.2038746E+02  0.7546771E-02  0.1528193E+00
          2   -1    0    0  502    0  0.00000000000E+00  0.00000000000E+00  0.72636251676E+03  0.72636251676E+03  0.00000000000E+00 0.  1.
         -2   -1    0    0    0  501 -0.00000000000E+00 -0.00000000000E+00 -0.68614556517E+01  0.68614556517E+01  0.00000000000E+00 0. -1.
         21    1    1    2  502  503  0.37747356429E+01 -0.20034967931E+02  0.71074236747E+03  0.71103471187E+03  0.00000000000E+00 0.  1.
         21    1    1    2  503  501 -0.37747356429E+01  0.20034967931E+02  0.87586936426E+01  0.22189260545E+02  0.00000000000E+00 0. -1.
</event>
<event>
 4    1  0.5591986E+002  0.2747422E+02  0.7546771E-02  0.1442902E+00
          2   -1    0    0  503    0  0.00000000000E+00  0.00000000000E+00  0.56936507201E+02  0.56936507201E+02  0.00000000000E+00 0. -1.
         -2   -1    0    0    0  501 -0.00000000000E+00 -0.00000000000E+00 -0.17640579350E+02  0.17640579350E+02  0.00000000000E+00 0.  1.
         21    1    1    2  502  501  0.27206571102E+02  0.38256341090E+01  0.10608885296E+01  0.27494698979E+02  0.00000000000E+00 0.  1.
         21    1    1    2  503  502 -0.27206571102E+02 -0.38256341090E+01  0.38235039322E+02  0.47082387571E+02  0.00000000000E+00 0. -1.
</event>
<event>
 4    1  0.5591986E+002  0.4196102E+02  0.7546771E-02  0.1337362E+00
          2   -1    0    0  503    0  0.00000000000E+00  0.00000000000E+00  0.15501404350E+02  0.15501404350E+02  0.00000000000E+00 0.  1.
         -2   -1    0    0    0  501 -0.00000000000E+00 -0.00000000000E+00 -0.12409643993E+03  0.12409643993E+03  0.00000000000E+00 0. -1.
         21    1    1    2  502  501 -0.29826671545E+01 -0.41854874886E+02 -0.33983287486E+02  0.53996209899E+02  0.00000000000E+00 0.  1.
         21    1    1    2  503  502  0.29826671545E+01  0.41854874886E+02 -0.74611748093E+02  0.85601634381E+02  0.00000000000E+00 0. -1.
</event>
<event>
 4    1  0.5591986E+002  0.4267294E+02  0.7546771E-02  0.1333496E+00
          2   -1    0    0  503    0  0.00000000000E+00  0.00000000000E+00  0.23852084712E+03  0.23852084712E+03  0.00000000000E+00 0.  1.
         -2   -1    0    0    0  501 -0.00000000000E+00 -0.00000000000E+00 -0.35231563864E+02  0.35231563864E+02  0.00000000000E+00 0. -1.
         21    1    1    2  502  501 -0.28735591452E+02  0.31547514704E+02 -0.19497063839E+02  0.46916046279E+02  0.00000000000E+00 0. -1.
         21    1    1    2  503  502  0.28735591452E+02 -0.31547514704E+02  0.22278634710E+03  0.22683636471E+03  0.00000000000E+00 0.  1.
</event>
<event>
 4    1  0.5591986E+002  0.2704796E+02  0.7546771E-02  0.1447127E+00
          2   -1    0    0  502    0  0.00000000000E+00  0.00000000000E+00  0.51970654353E+03  0.51970654353E+03  0.00000000000E+00 0.  1.
         -2   -1    0    0    0  501 -0.00000000000E+00 -0.00000000000E+00 -0.24634691146E+01  0.24634691146E+01  0.00000000000E+00 0. -1.
         21    1    1    2  502  503 -0.23755061672E+02 -0.12934041186E+02  0.42954129299E+03  0.43039204774E+03  0.00000000000E+00 0.  1.
         21    1    1    2  503  501  0.23755061672E+02  0.12934041186E+02  0.87701781429E+02  0.91777964906E+02  0.00000000000E+00 0. -1.
</event>
<event>
 4    1  0.5591986E+002  0.2499716E+02  0.7546771E-02  0.1468835E+00
          2   -1    0    0  502    0  0.00000000000E+00  0.00000000000E+00  0.10584244252E+03  0.10584244252E+03  0.00000000000E+00 0. -1.
         -2   -1    0    0    0  501 -0.00000000000E+00 -0.00000000000E+00 -0.59095883765E+01  0.59095883765E+01  0.00000000000E+00 0.  1.
         21    1    1    2  502  503 -0.22015074755E+02 -0.11840378088E+02  0.51735799762E+02  0.57458254819E+02  0.00000000000E+00 0.  1.
         21    1    1    2  503  501  0.22015074755E+02  0.11840378088E+02  0.48197054382E+02  0.54293776078E+02  0.00000000000E+00 0. -1.
</event>
<event>
 4    1  0.5591986E+002  0.2585464E+02  0.7546771E-02  0.1459466E+00
          2   -1    0    0  503    0  0.00000000000E+00  0.00000000000E+00  0.51042461356E+02  0.51042461356E+02  0.00000000000E+00 0.  1.
         -2   -1    0    0    0  501 -0.00000000000E+00 -0.00000000000E+00 -0.14885158707E+02  0.14885158707E+02  0.00000000000E+00 0. -1.
         21    1    1    2  502  501  0.25693657448E+02  0.28806634023E+01  0.66508970898E+01  0.26696379657E+02  0.00000000000E+00 0. -1.
         21    1    1    2  503  502 -0.25693657448E+02 -0.28806634023E+01  0.29506405560E+02  0.39231240406E+02  0.00000000000E+00 0.  1.
</event>
<event>
 4    1  0.5591986E+002  0.2147948E+02  0.7546771E-02  0.1512528E+00
          2   -1    0    0  503    0  0.00000000000E+00  0.00000000000E+00  0.11228078409E+04  0.11228078409E+04  0.00000000000E+00 0. -1.
         -2   -1    0    0    0  501 -0.00000000000E+00 -0.00000000000E+00 -0.45523585380E+00  0.45523585380E+00  0.00000000000E+00 0.  1.
         21    1    1    2  502  501  0.12854382059E+02 -0.17208510856E+02  0.38591599651E+03  0.38651329129E+03  0.00000000000E+00 0.  1.
         21    1    1    2  503  502 -0.12854382059E+02  0.17208510856E+02  0.73643660854E+03  0.73674978547E+03  0.00000000000E+00 0. -1.
</event>
<event>
 4    1  0.5591986E+002  0.2016280E+02  0.7546771E-02  0.1531561E+00
          2   -1    0    0  503    0  0.00000000000E+00  0.00000000000E+00  0.10362778729E+02  0.10362778729E+02  0.00000000000E+00 0. -1.
         -2   -1    0    0    0  501 -0.00000000000E+00 -0.00000000000E+00 -0.79772957701E+02  0.79772957701E+02  0.00000000000E+00 0.  1.
         21    1    1    2  502  501  0.54569732843E+01  0.19410305009E+02 -0.66833809632E+02  0.69809000909E+02  0.00000000000E+00 0.  1.
         21    1    1    2  503  502 -0.54569732843E+01 -0.19410305009E+02 -0.25763693391E+01  0.20326735521E+02  0.00000000000E+00 0. -1.
</event>
<event>
 4    1  0.5591986E+002  0.6780779E+02  0.7546771E-02  0.1235387E+00
          2   -1    0    0  502    0  0.00000000000E+00  0.00000000000E+00  0.93240361923E+03  0.93240361923E+03  0.00000000000E+00 0.  1.
         -2   -1    0    0    0  501 -0.00000000000E+00 -0.00000000000E+00 -0.82314552527E+01  0.82314552527E+01  0.00000000000E+00 0. -1.
         21    1    1    2  502  503 -0.64015682244E+02  0.22358193399E+02  0.75988607001E+03  0.76290545665E+03  0.00000000000E+00 0.  1.
         21    1    1    2  503  501  0.64015682244E+02 -0.22358193399E+02  0.16428609397E+03  0.17772961783E+03  0.00000000000E+00 0. -1.
</event>
<event>
 4    1  0.5591986E+002  0.3117800E+02  0.7546771E-02  0.1409628E+00
          2   -1    0    0  503    0  0.00000000000E+00  0.00000000000E+00  0.26614321997E+02  0.26614321997E+02  0.00000000000E+00 0.  1.
         -2   -1    0    0    0  501 -0.00000000000E+00 -0.00000000000E+00 -0.65153516844E+02  0.65153516844E+02  0.00000000000E+00 0. -1.
         21    1    1    2  502  501 -0.30421010993E+02  0.68286034024E+01 -0.49685226881E+02  0.58657390877E+02  0.00000000000E+00 0. -1.
         21    1    1    2  503  502  0.30421010993E+02 -0.68286034024E+01  0.11146032033E+02  0.33110447964E+02  0.00000000000E+00 0.  1.
</event>
<event>
 4    1  0.5591986E+002  0.2102894E+02  0.7546771E-02  0.1518852E+00
          2   -1    0    0  502    0  0.00000000000E+00  0.00000000000E+00  0.17082479327E+02  0.17082479327E+02  0.00000000000E+00 0. -1.
         -2   -1    0    0    0  501 -0.00000000000E+00 -0.00000000000E+00 -0.31166364152E+02  0.31166364152E+02  0.00000000000E+00 0.  1.
         21    1    1    2  502  503  0.17169785406E+02 -0.12141446862E+02  0.28869212135E+01  0.21226176690E+02  0.00000000000E+00 0. -1.
         21    1    1    2  503  501 -0.17169785406E+02  0.12141446862E+02 -0.16970806039E+02  0.27022666789E+02  0.00000000000E+00 0.  1.
</event>
<event>
 4    1  0.5591986E+002  0.2254502E+02  0.7546771E-02  0.1498292E+00
          2   -1    0    0  502    0  0.00000000000E+00  0.00000000000E+00  0.15219301599E+02  0.15219301599E+02  0.00000000000E+00 0.  1.
         -2   -1    0    0    0  501 -0.00000000000E+00 -0.00000000000E+00 -0.83550590666E+02  0.83550590666E+02  0.00000000000E+00 0. -1.
         21    1    1    2  502  503  0.20311281466E+02  0.97841595078E+01  0.40966619304E+01  0.22914200205E+02  0.00000000000E+00 0.  1.
         21    1    1    2  503  501 -0.20311281466E+02 -0.97841595078E+01 -0.72427950998E+02  0.75855692059E+02  0.00000000000E+00 0. -1.
</event>
<event>
 4    1  0.5591986E+002  0.3122296E+02  0.7546771E-02  0.1409258E+00
          2   -1    0    0  502    0  0.00000000000E+00  0.00000000000E+00  0.13551986307E+04  0.13551986307E+04  0.00000000000E+00 0. -1.
         -2   -1    0    0    0  501 -0.00000000000E+00 -0.00000000000E+00 -0.72137990762E+00  0.72137990762E+00  0.00000000000E+00 0.  1.
         21    1    1    2  502  503  0.31107939785E+02  0.26775024374E+01  0.71313130206E+03  0.71381449055E+03  0.00000000000E+00 0.  1.
         21    1    1    2  503  501 -0.31107939785E+02 -0.26775024374E+01  0.64134594874E+03  0.64210552007E+03  0.00000000000E+00 0. -1.
</event>
<event>
 4    1  0.5591986E+002  0.3087758E+02  0.7546771E-02  0.1412120E+00
          2   -1    0    0  502    0  0.00000000000E+00  0.00000000000E+00  0.55558886396E+03  0.55558886396E+03  0.00000000000E+00 0. -1.
         -2   -1    0    0    0  501 -0.00000000000E+00 -0.00000000000E+00 -0.61113446461E+01  0.61113446461E+01  0.00000000000E+00 0.  1.
         21    1    1    2  502  503  0.27339187876E+02  0.14352491911E+02  0.51291562797E+03  0.51384420463E+03  0.00000000000E+00 0. -1.
         21    1    1    2  503  501 -0.27339187876E+02 -0.14352491911E+02  0.36561891346E+02  0.47856003976E+02  0.00000000000E+00 0.  1.
</event>
<event>
 4    1  0.5591986E+002  0.2506052E+02  0.7546771E-02  0.1468127E+00
          2   -1    0    0  503    0  0.00000000000E+00  0.00000000000E+00  0.80868815886E+03  0.80868815886E+03  0.00000000000E+00 0.  1.
         -2   -1    0    0    0  501 -0.00000000000E+00 -0.00000000000E+00 -0.77660639296E+00  0.77660639296E+00  0.00000000000E+00 0. -1.
         21    1    1    2  502  501 -0.19421337551E+02  0.15837970310E+02  0.40480088783E+03  0.40557587262E+03  0.00000000000E+00 0.  1.
         21    1    1    2  503  502  0.19421337551E+02 -0.15837970310E+02  0.40311066463E+03  0.40388889264E+03  0.00000000000E+00 0. -1.
</event>
<event>
 4    1  0.5591986E+002  0.2674333E+02  0.7546771E-02  0.1450204E+00
          2   -1    0    0  503    0  0.00000000000E+00  0.00000000000E+00  0.69435036709E+02  0.69435036709E+02  0.00000000000E+00 0.  1.
         -2   -1    0    0    0  501 -0.00000000000E+00 -0.00000000000E+00 -0.29948587839E+02  0.29948587839E+02  0.00000000000E+00 0. -1.
         21    1    1    2  502  501  0.18480357975E+02 -0.19330860290E+02 -0.20506078890E+02  0.33700223469E+02  0.00000000000E+00 0. -1.
         21    1    1    2  503  502 -0.18480357975E+02  0.19330860290E+02  0.59992527759E+02  0.65683401079E+02  0.00000000000E+00 0.  1.
</event>
<event>
 4    1  0.5591986E+002  0.3499290E+02  0.7546771E-02  0.1380613E+00
          2   -1    0    0  503    0  0.00000000000E+00  0.00000000000E+00  0.55022848170E+02  0.55022848170E+02  0.00000000000E+00 0. -1.
         -2   -1    0    0    0  501 -0.00000000000E+00 -0.00000000000E+00 -0.42209189760E+02  0.42209189760E+02  0.00000000000E+00 0.  1.
         21    1    1    2  502  501  0.34991026999E+02 -0.36169132626E+00 -0.27020294196E+02  0.44210848097E+02  0.00000000000E+00 0.  1.
         21    1    1    2  503  502 -0.34991026999E+02  0.36169132626E+00  0.39833952606E+02  0.53021189833E+02  0.00000000000E+00 0. -1.
</event>
<event>
 4    1  0.5591986E+002  0.2076918E+02  0.7546771E-02  0.1522586E+00
          2   -1    0    0  502    0  0.00000000000E+00  0.00000000000E+00  0.10661466423E+01  0.10661466423E+01  0.00000000000E+00 0. -1.
         -2   -1    0    0    0  501 -0.00000000000E+00 -0.00000000000E+00 -0.10655073233E+04  0.10655073233E+04  0.00000000000E+00 0.  1.
         21    1    1    2  502  503 -0.73553267637E+01  0.19423129320E+02 -0.11221591598E+03  0.11412173580E+03  0.00000000000E+00 0. -1.
         21    1    1    2  503  501  0.73553267637E+01 -0.19423129320E+02 -0.95222526064E+03  0.95245173409E+03  0.00000000000E+00 0.  1.
</event>
<event>
 4    1  0.5591986E+002  0.2913614E+02  0.7546771E-02  0.1427255E+00
          2   -1    0    0  503    0  0.00000000000E+00  0.00000000000E+00  0.17467548217E+03  0.17467548217E+03  0.00000000000E+00 0. -1.
         -2   -1    0    0    0  501 -0.00000000000E+00 -0.00000000000E+00 -0.65288720836E+01  0.65288720836E+01  0.00000000000E+00 0.  1.
         21    1    1    2  502  501  0.22826645742E+02  0.18106877093E+02  0.38265750800E+02  0.48095555285E+02  0.00000000000E+00 0.  1.
         21    1    1    2  503  502 -0.22826645742E+02 -0.18106877093E+02  0.12988085929E+03  0.13310879897E+03  0.00000000000E+00 0. -1.
</event>
<event>
 4    1  0.5591986E+002  0.2196172E+02  0.7546771E-02  0.1505964E+00
          2   -1    0    0  502    0  0.00000000000E+00  0.00000000000E+00  0.13821605129E+04  0.13821605129E+04  0.00000000000E+00 0.  1.
         -2   -1    0    0    0  501 -0.00000000000E+00 -0.00000000000E+00 -0.12791154731E+01  0.12791154731E+01  0.00000000000E+00 0. -1.
         21    1    1    2  502  503 -0.63839590146E+00 -0.21952441748E+02  0.12803066980E+04  0.12804950442E+04  0.00000000000E+00 0.  1.
         21    1    1    2  503  501  0.63839590146E+00  0.21952441748E+02  0.10057469941E+03  0.10294458417E+03  0.00000000000E+00 0. -1.
</event>
<event>
 4    1  0.5591986E+002  0.3284668E+02  0.7546771E-02  0.1396368E+00
          2   -1    0    0  502    0  0.00000000000E+00  0.00000000000E+00  0.12418553271E+04  0.12418553271E+04  0.00000000000E+00 0.  1.
         -2   -1    0    0    0  501 -0.00000000000E+00 -0.00000000000E+00 -0.39272820688E+01  0.39272820688E+01  0.00000000000E+00 0. -1.
         21    1    1    2  502  503 -0.62125718432E+01  0.32253811797E+02  0.11686571461E+04  0.11691186550E+04  0.00000000000E+00 0.  1.
         21    1    1    2  503  501  0.62125718432E+01 -0.32253811797E+02  0.69270898926E+02  0.76663954126E+02  0.00000000000E+00 0. -1.
</event>
<event>
 4    1  0.5591986E+002  0.2457351E+02  0.7546771E-02  0.1473631E+00
          2   -1    0    0  503    0  0.00000000000E+00  0.00000000000E+00  0.34647643559E+01  0.34647643559E+01  0.00000000000E+00 0. -1.
         -2   -1    0    0    0  501 -0.00000000000E+00 -0.00000000000E+00 -0.26521339572E+03  0.26521339572E+03  0.00000000000E+00 0.  1.
         21    1    1    2  502  501 -0.23620071436E+02 -0.67786082482E+01 -0.20953429380E+03  0.21097032394E+03  0.00000000000E+00 0.  1.
         21    1    1    2  503  502  0.23620071436E+02  0.67786082482E+01 -0.52214337564E+02  0.57707836138E+02  0.00000000000E+00 0. -1.
</event>
<event>
 4    1  0.5591986E+002  0.2461334E+02  0.7546771E-02  0.1473176E+00
          2   -1    0    0  502    0  0.00000000000E+00  0.00000000000E+00  0.12297566922E+04  0.12297566922E+04  0.00000000000E+00 0. -1.
         -2   -1    0    0    0  501 -0.00000000000E+00 -0.00000000000E+00 -0.49374624937E+00  0.49374624937E+00  0.00000000000E+00 0.  1.
         21    1    1    2  502  503  0.24332552707E+02 -0.37072021898E+01  0.58539897619E+03  0.58591618667E+03  0.00000000000E+00 0.  1.
         21    1    1    2  503  501 -0.24332552707E+02  0.37072021898E+01  0.64386396973E+03  0.64433425176E+03  0.00000000000E+00 0. -1.
</event>
<event>
 4    1  0.5591986E+002  0.2557491E+02  0.7546771E-02  0.1462474E+00
          2   -1    0    0  503    0  0.00000000000E+00  0.00000000000E+00  0.60382192011E+03  0.60382192011E+03  0.00000000000E+00 0.  1.
         -2   -1    0    0    0  501 -0.00000000000E+00 -0.00000000000E+00 -0.25331420704E+01  0.25331420704E+01  0.00000000000E+00 0. -1.
         21    1    1    2  502  501 -0.46930700273E+01  0.25140630073E+02  0.71273379980E+02  0.75722987794E+02  0.00000000000E+00 0. -1.
         21    1    1    2  503  502  0.46930700273E+01 -0.25140630073E+02  0.53001539806E+03  0.53063207438E+03  0.00000000000E+00 0.  1.
</event>
<event>
 4    1  0.5591986E+002  0.2026522E+02  0.7546771E-02  0.1530019E+00
          2   -1    0    0  503    0  0.00000000000E+00  0.00000000000E+00  0.37528862500E+03  0.37528862500E+03  0.00000000000E+00 0.  1.
         -2   -1    0    0    0  501 -0.00000000000E+00 -0.00000000000E+00 -0.61309044259E+01  0.61309044259E+01  0.00000000000E+00 0. -1.
         21    1    1    2  502  501  0.97937546289E+01 -0.17741519268E+02  0.11724838945E+02  0.23412624457E+02  0.00000000000E+00 0. -1.
         21    1    1    2  503  502 -0.97937546289E+01  0.17741519268E+02  0.35743288163E+03  0.35800690497E+03  0.00000000000E+00 0.  1.
</event>
<event>
 4    1  0.5591986E+002  0.2012633E+02  0.7546771E-02  0.1532113E+00
          2   -1    0    0  503    0  0.00000000000E+00  0.00000000000E+00  0.14651835596E+04  0.14651835596E+04  0.00000000000E+00 0.  1.
         -2   -1    0    0    0  501 -0.00000000000E+00 -0.00000000000E+00 -0.12776308020E+01  0.12776308020E+01  0.00000000000E+00 0. -1.
         21    1    1    2  502  501 -0.10082186747E+02  0.17418913400E+02  0.82883273257E+02  0.85291887185E+02  0.00000000000E+00 0. -1.
         21    1    1    2  503  502  0.10082186747E+02 -0.17418913400E+02  0.13810226556E+04  0.13811693033E+04  0.00000000000E+00 0.  1.
</event>
<event>
 4    1  0.5591986E+002  0.4124106E+02  0.7546771E-02  0.1341363E+00
          2   -1    0    0  502    0  0.00000000000E+00  0.00000000000E+00  0.10936626512E+03  0.10936626512E+03  0.00000000000E+00 0. -1.
         -2   -1    0    0    0  501 -0.00000000000E+00 -0.00000000000E+00 -0.16281398773E+02  0.16281398773E+02  0.00000000000E+00 0.  1.
         21    1    1    2  502  503 -0.39335857297E+02  0.12390139811E+02  0.59842903616E+02  0.72677357870E+02  0.00000000000E+00 0. -1.
         21    1    1    2  503  501  0.39335857297E+02 -0.12390139811E+02  0.33241962729E+02  0.52970306021E+02  0.00000000000E+00 0.  1.
</event>
<event>
 4    1  0.5591986E+002  0.2084116E+02  0.7546771E-02  0.1521545E+00
          2   -1    0    0  503    0  0.00000000000E+00  0.00000000000E+00  0.20736874479E+04  0.20736874479E+04  0.00000000000E+00 0. -1.
         -2   -1    0    0    0  501 -0.00000000000E+00 -0.00000000000E+00 -0.23451940891E+00  0.23451940891E+00  0.00000000000E+00 0.  1.
         21    1    1    2  502  501 -0.19476369648E+02  0.74178791950E+01  0.69775650062E+03  0.69806768158E+03  0.00000000000E+00 0.  1.
         21    1    1    2  503  502  0.19476369648E+02 -0.74178791950E+01  0.13756964279E+04  0.13758542857E+04  0.00000000000E+00 0. -1.
</event>
<event>
 4    1  0.5591986E+002  0.2396432E+02  0.7546771E-02  0.1480732E+00
          2   -1    0    0  502    0  0.00000000000E+00  0.00000000000E+00  0.14528490331E+04  0.14528490331E+04  0.00000000000E+00 0. -1.
         -2   -1    0    0    0  501 -0.00000000000E+00 -0.00000000000E+00 -0.42158008443E+00  0.42158008443E+00  0.00000000000E+00 0.  1.
         21    1    1    2  502  503  0.16912085079E+02  0.16978513630E+02  0.90768954254E+03  0.90800583378E+03  0.00000000000E+00 0. -1.
         21    1    1    2  503  501 -0.16912085079E+02 -0.16978513630E+02  0.54473791047E+03  0.54526477940E+03  0.00000000000E+00 0.  1.
</event>
<event>
 4    1  0.5591986E+002  0.3308263E+02  0.7546771E-02  0.1394568E+00
          2   -1    0    0  503    0  0.00000000000E+00  0.00000000000E+00  0.12721510298E+03  0.12721510298E+03  0.00000000000E+00 0. -1.
         -2   -1    0    0    0  501 -0.00000000000E+00 -0.00000000000E+00 -0.30260771337E+02  0.30260771337E+02  0.00000000000E+00 0.  1.
         21    1    1    2  502  501 -0.33032655613E+02 -0.18177289129E+01 -0.18134245682E+02  0.37726798721E+02  0.00000000000E+00 0.  1.
         21    1    1    2  503  502  0.33032655613E+02  0.18177289129E+01  0.11508857732E+03  0.11974907559E+03  0.00000000000E+00 0. -1.
</event>
<event>
 4    1  0.5591986E+002  0.2516896E+02  0.7546771E-02  0.1466922E+00
          2   -1    0    0  502    0  0.00000000000E+00  0.00000000000E+00  0.34742783017E+01  0.34742783017E+01  0.00000000000E+00 0. -1.
         -2   -1    0    0    0  501 -0.00000000000E+00 -0.00000000000E+00 -0.22091016569E+03  0.22091016569E+03  0.00000000000E+00 0.  1.
         21    1    1    2  502  503  0.24538398691E+01 -0.25049056624E+02 -0.61834612123E+02  0.66760735648E+02  0.00000000000E+00 0.  1.
         21    1    1    2  503  501 -0.24538398691E+01  0.25049056624E+02 -0.15560127526E+03  0.15762370834E+03  0.00000000000E+00 0. -1.
</event>
<event>
 4    1  0.5591986E+002  0.2837955E+02  0.7546771E-02  0.1434222E+00
          2   -1    0    0  503    0  0.00000000000E+00  0.00000000000E+00  0.62753014897E+03  0.62753014897E+03  0.00000000000E+00 0.  1.
         -2   -1    0    0    0  501 -0.00000000000E+00 -0.00000000000E+00 -0.34595444934E+01  0.34595444934E+01  0.00000000000E+00 0. -1.
         21    1    1    2  502  501  0.87314375954E+01  0.27002976269E+02  0.61815051889E+02  0.68018375238E+02  0.00000000000E+00 0. -1.
         21    1    1    2  503  502 -0.87314375954E+01 -0.27002976269E+02  0.56225555259E+03  0.56297131823E+03  0.00000000000E+00 0.  1.
</event>
<event>
 4    1  0.5591986E+002  0.3535307E+02  0.7546771E-02  0.1378098E+00
          2   -1    0    0  503    0  0.00000000000E+00  0.00000000000E+00  0.21522930806E+02  0.21522930806E+02  0.00000000000E+00 0.  1.
         -2   -1    0    0    0  501 -0.00000000000E+00 -0.00000000000E+00 -0.96777403844E+02  0.96777403844E+02  0.00000000000E+00 0. -1.
         21    1    1    2  502  501 -0.33731842477E+02 -0.10583115176E+02 -0.75035302144E+02  0.82946585774E+02  0.00000000000E+00 0. -1.
         21    1    1    2  503  502  0.33731842477E+02  0.10583115176E+02 -0.21917089422E+00  0.35353748876E+02  0.00000000000E+00 0.  1.
</event>
<event>
 4    1  0.5591986E+002  0.2034700E+02  0.7546771E-02  0.1528796E+00
          2   -1    0    0  503    0  0.00000000000E+00  0.00000000000E+00  0.22963455689E+01  0.22963455689E+01  0.00000000000E+00 0. -1.
         -2   -1    0    0    0  501 -0.00000000000E+00 -0.00000000000E+00 -0.20870809588E+03  0.20870809588E+03  0.00000000000E+00 0.  1.
         21    1    1    2  502  501  0.11387156728E+02 -0.16862181630E+02 -0.14213860399E+03  0.14358754560E+03  0.00000000000E+00 0.  1.
         21    1    1    2  503  502 -0.11387156728E+02  0.16862181630E+02 -0.64273146321E+02  0.67416895847E+02  0.00000000000E+00 0. -1.
</event>
<event>
 4    1  0.5591986E+002  0.5130326E+02  0.7546771E-02  0.1292619E+00
          2   -1    0    0  503    0  0.00000000000E+00  0.00000000000E+00  0.95775586799E+03  0.95775586799E+03  0.00000000000E+00 0. -1.
         -2   -1    0    0    0  501 -0.00000000000E+00 -0.00000000000E+00 -0.90732026579E+01  0.90732026579E+01  0.00000000000E+00 0.  1.
         21    1    1    2  502  501  0.24012473620E+02 -0.45336805850E+02  0.70721389942E+02  0.87370131334E+02  0.00000000000E+00 0.  1.
         21    1    1    2  503  502 -0.24012473620E+02  0.45336805850E+02  0.87796127539E+03  0.87945893932E+03  0.00000000000E+00 0. -1.
</event>
<event>
 4    1  0.5591986E+002  0.2164128E+02  0.7546771E-02  0.1510303E+00
          2   -1    0    0  503    0  0.00000000000E+00  0.00000000000E+00  0.87840434220E+02  0.87840434220E+02  0.00000000000E+00 0.  1.
         -2   -1    0    0    0  501 -0.00000000000E+00 -0.00000000000E+00 -0.16455588165E+02  0.16455588165E+02  0.00000000000E+00 0. -1.
         21    1    1    2  502  501 -0.21638646237E+02 -0.33793794642E+00 -0.71829524751E+01  0.22802193299E+02  0.00000000000E+00 0. -1.
         21    1    1    2  503  502  0.21638646237E+02  0.33793794642E+00  0.78567798530E+02  0.81493829085E+02  0.00000000000E+00 0.  1.
</event>
<event>
 4    1  0.5591986E+002  0.2210330E+02  0.7546771E-02  0.1504076E+00
          2   -1    0    0  502    0  0.00000000000E+00  0.00000000000E+00  0.74069992211E+03  0.74069992211E+03  0.00000000000E+00 0.  1.
         -2   -1    0    0    0  501 -0.00000000000E+00 -0.00000000000E+00 -0.46470500895E+01  0.46470500895E+01  0.00000000000E+00 0. -1.
         21    1    1    2  502  503 -0.18858661383E+02 -0.11528515378E+02  0.71324025830E+03  0.71358266643E+03  0.00000000000E+00 0.  1.
         21    1    1    2  503  501  0.18858661383E+02  0.11528515378E+02  0.22812613722E+02  0.31764305767E+02  0.00000000000E+00 0. -1.
</event>
<event>
 4    1  0.5591986E+002  0.4256200E+02  0.7546771E-02  0.1334093E+00
          2   -1    0    0  503    0  0.00000000000E+00  0.00000000000E+00  0.23909181556E+02  0.23909181556E+02  0.00000000000E+00 0. -1.
         -2   -1    0    0    0  501 -0.00000000000E+00 -0.00000000000E+00 -0.92078466722E+02  0.92078466722E+02  0.00000000000E+00 0.  1.
         21    1    1    2  502  501 -0.41913656320E+02  0.74006027865E+01 -0.58493707177E+02  0.72339735188E+02  0.00000000000E+00 0.  1.
         21    1    1    2  503  502  0.41913656320E+02 -0.74006027865E+01 -0.96755779896E+01  0.43647913090E+02  0.00000000000E+00 0. -1.
</event>
<event>
 4    1  0.5591986E+002  0.2489414E+02  0.7546771E-02  0.1469991E+00
          2   -1    0    0  502    0  0.00000000000E+00  0.00000000000E+00  0.31782257694E+03  0.31782257694E+03  0.00000000000E+00 0. -1.
         -2   -1    0    0    0  501 -0.00000000000E+00 -0.00000000000E+00 -0.39410413881E+01  0.39410413881E+01  0.00000000000E+00 0.  1.
         21    1    1    2  502  503 -0.24794529312E+02 -0.22247549838E+01  0.27129542969E+03  0.27243518199E+03  0.00000000000E+00 0. -1.
         21    1    1    2  503  501  0.24794529312E+02  0.22247549838E+01  0.42586105868E+02  0.49328436338E+02  0.00000000000E+00 0.  1.
</event>
<event>
 4    1  0.5591986E+002  0.2306104E+02  0.7546771E-02  0.1491733E+00
          2   -1    0    0  503    0  0.00000000000E+00  0.00000000000E+00  0.85148141445E+01  0.85148141445E+01  0.00000000000E+00 0. -1.
         -2   -1    0    0    0  501 -0.00000000000E+00 -0.00000000000E+00 -0.63136240381E+02  0.63136240381E+02  0.00000000000E+00 0.  1.
         21    1    1    2  502  501  0.20611939744E+02  0.10342124664E+02 -0.31026025215E+02  0.38657804429E+02  0.00000000000E+00 0. -1.
         21    1    1    2  503  502 -0.20611939744E+02 -0.10342124664E+02 -0.23595401021E+02  0.32993250097E+02  0.00000000000E+00 0.  1.
</event>
<event>
 4    1  0.5591986E+002  0.2088547E+02  0.7546771E-02  0.1520906E+00
          2   -1    0    0  503    0  0.00000000000E+00  0.00000000000E+00  0.85375896647E+03  0.85375896647E+03  0.00000000000E+00 0. -1.
         -2   -1    0    0    0  501 -0.00000000000E+00 -0.00000000000E+00 -0.93547522671E+00  0.93547522671E+00  0.00000000000E+00 0.  1.
         21    1    1    2  502  501 -0.18342806859E+02 -0.99872093082E+01  0.13851841404E+03  0.14008409597E+03  0.00000000000E+00 0.  1.
         21    1    1    2  503  502  0.18342806859E+02  0.99872093082E+01  0.71430507720E+03  0.71461034573E+03  0.00000000000E+00 0. -1.
</event>
<event>
 4    1  0.5591986E+002  0.2002649E+02  0.7546771E-02  0.1533631E+00
          2   -1    0    0  502    0  0.00000000000E+00  0.00000000000E+00  0.14251093888E+04  0.14251093888E+04  0.00000000000E+00 0.  1.
         -2   -1    0    0    0  501 -0.00000000000E+00 -0.00000000000E+00 -0.41248380265E+00  0.41248380265E+00  0.00000000000E+00 0. -1.
         21    1    1    2  502  503  0.51639453226E+01  0.19349258776E+02  0.11141161412E+04  0.11142961169E+04  0.00000000000E+00 0.  1.
         21    1    1    2  503  501 -0.51639453226E+01 -0.19349258776E+02  0.31058076380E+03  0.31122575567E+03  0.00000000000E+00 0. -1.
</event>
<event>
 4    1  0.5591986E+002  0.3444474E+02  0.7546771E-02  0.1384509E+00
          2   -1    0    0  503    0  0.00000000000E+00  0.00000000000E+00  0.21714503373E+03  0.21714503373E+03  0.00000000000E+00 0.  1.
         -2   -1    0    0    0  501 -0.00000000000E+00 -0.00000000000E+00 -0.40367316956E+02  0.40367316956E+02  0.00000000000E+00 0. -1.
         21    1    1    2  502  501  0.24024451183E+02  0.24683304644E+02 -0.31336912325E+02  0.46566531510E+02  0.00000000000E+00 0. -1.
         21    1    1    2  503  502 -0.24024451183E+02 -0.24683304644E+02  0.20811462910E+03  0.21094581918E+03  0.00000000000E+00 0.  1.
</event>
<event>
 4    1  0.5591986E+002  0.3257688E+02  0.7546771E-02  0.1398449E+00
          2   -1    0    0  503    0  0.00000000000E+00  0.00000000000E+00  0.88126422767E+01  0.88126422767E+01  0.00000000000E+00 0. -1.
         -2   -1    0    0    0  501 -0.00000000000E+00 -0.00000000000E+00 -0.15338953402E+03  0.15338953402E+03  0.00000000000E+00 0.  1.
         21    1    1    2  502  501  0.20364618385E+02  0.25427062804E+02 -0.10988596555E+03  0.11461316953E+03  0.00000000000E+00 0.  1.
         21    1    1    2  503  502 -0.20364618385E+02 -0.25427062804E+02 -0.34690926191E+02  0.47589006764E+02  0.00000000000E+00 0. -1.
</event>
<event>
 4    1  0.5591986E+002  0.2584948E+02  0.7546771E-02  0.1459521E+00
          2   -1    0    0  503    0  0.00000000000E+00  0.00000000000E+00  0.10994679615E+01  0.10994679615E+01  0.00000000000E+00 0. -1.
         -2   -1    0    0    0  501 -0.00000000000E+00 -0.00000000000E+00 -0.15357305730E+04  0.15357305730E+04  0.00000000000E+00 0.  1.
         21    1    1    2  502  501  0.12434757751E+02  0.22662141644E+02 -0.13646382324E+04  0.13648830357E+04  0.00000000000E+00 0.  1.
         21    1    1    2  503  502 -0.12434757751E+02 -0.22662141644E+02 -0.16999287266E+03  0.17194700526E+03  0.00000000000E+00 0. -1.
</event>
<event>
 4    1  0.5591986E+002  0.2035155E+02  0.7546771E-02  0.1528728E+00
          2   -1    0    0  502    0  0.00000000000E+00  0.00000000000E+00  0.45355740967E+03  0.45355740967E+03  0.00000000000E+00 0.  1.
         -2   -1    0    0    0  501 -0.00000000000E+00 -0.00000000000E+00 -0.16002663422E+01  0.16002663422E+01  0.00000000000E+00 0. -1.
         21    1    1    2  502  503 -0.12458295997E+02 -0.16092744138E+02  0.37509902620E+03  0.37565072209E+03  0.00000000000E+00 0.  1.
         21    1    1    2  503  501  0.12458295997E+02  0.16092744138E+02  0.76858117128E+02  0.79506953919E+02  0.00000000000E+00 0. -1.
</event>
<event>
 4    1  0.5591986E+002  0.4191784E+02  0.7546771E-02  0.1337600E+00
          2   -1    0    0  503    0  0.00000000000E+00  0.00000000000E+00  0.14441514087E+03  0.14441514087E+03  0.00000000000E+00 0. -1.
         -2   -1    0    0    0  501 -0.00000000000E+00 -0.00000000000E+00 -0.36563869696E+02  0.36563869696E+02  0.00000000000E+00 0.  1.
         21    1    1    2  502  501 -0.41094294625E+02  0.82682795330E+01 -0.19990421404E+02  0.46440525892E+02  0.00000000000E+00 0.  1.
         21    1    1    2  503  502  0.41094294625E+02 -0.82682795330E+01  0.12784169258E+03  0.13453848468E+03  0.00000000000E+00 0. -1.
</event>
<event>
 4    1  0.5591986E+002  0.2132938E+02  0.7546771E-02  0.1514614E+00
          2   -1    0    0  502    0  0.00000000000E+00  0.00000000000E+00  0.11439042650E+02  0.11439042650E+02  0.00000000000E+00 0.  1.
         -2   -1    0    0    0  501 -0.00000000000E+00 -0.00000000000E+00 -0.10183570635E+03  0.10183570635E+03  0.00000000000E+00 0. -1.
         21    1    1    2  502  503  0.10323882746E+02  0.18664405073E+02 -0.98275442629E+00  0.21352011098E+02  0.00000000000E+00 0.  1.
         21    1    1    2  503  501 -0.10323882746E+02 -0.18664405073E+02 -0.89413909275E+02  0.91922737903E+02  0.00000000000E+00 0. -1.
</event>
<event>
 4    1  0.5591986E+002  0.2702039E+02  0.7546771E-02  0.1447403E+00
          2   -1    0    0  502    0  0.00000000000E+00  0.00000000000E+00  0.65772739068E+01  0.65772739068E+01  0.00000000000E+00 0. -1.
         -2   -1    0    0    0  501 -0.00000000000E+00 -0.00000000000E+00 -0.12526982250E+03  0.12526982250E+03  0.00000000000E+00 0.  1.
         21    1    1    2  502  503 -0.25645791704E+02  0.85085162920E+01 -0.37099301964E+02  0.45896183805E+02  0.00000000000E+00 0.  1.
         21    1    1    2  503  501  0.25645791704E+02 -0.85085162920E+01 -0.81593246624E+02  0.85950912597E+02  0.00000000000E+00 0. -1.
</event>
<event>
 4    1  0.5591986E+002  0.2459567E+02  0.7546771E-02  0.1473378E+00
          2   -1    0    0  502    0  0.00000000000E+00  0.00000000000E+00  0.10293989431E+03  0.10293989431E+03  0.00000000000E+00 0.  1.
         -2   -1    0    0    0  501 -0.00000000000E+00 -0.00000000000E+00 -0.10607161917E+02  0.10607161917E+02  0.00000000000E+00 0. -1.
         21    1    1    2  502  503  0.23863264185E+02  0.59574805400E+01  0.84080228310E+02  0.87603834075E+02  0.00000000000E+00 0.  1.
         21    1    1    2  503  501 -0.23863264185E+02 -0.59574805400E+01  0.82525040796E+01  0.25943222150E+02  0.00000000000E+00 0. -1.
</event>
<event>
 4    1  0.5591986E+002  0.3920771E+02  0.7546771E-02  0.1353192E+00
          2   -1    0    0  502    0  0.00000000000E+00  0.00000000000E+00  0.14379708656E+02  0.14379708656E+02  0.00000000000E+00 0. -1.
         -2   -1    0    0    0  501 -0.00000000000E+00 -0.00000000000E+00 -0.11860536095E+03  0.11860536095E+03  0.00000000000E+00 0.  1.
         21    1    1    2  502  503  0.37242233021E+01  0.39030435982E+02 -0.31227389180E+02  0.50123792825E+02  0.00000000000E+00 0.  1.
         21    1    1    2  503  501 -0.37242233021E+01 -0.39030435982E+02 -0.72998263113E+02  0.82861276781E+02  0.00000000000E+00 0. -1.
</event>
<event>
 4    1  0.5591986E+002  0.3206065E+02  0.7546771E-02  0.1402496E+00
          2   -1    0    0  502    0  0.00000000000E+00  0.00000000000E+00  0.15256135685E+04  0.15256135685E+04  0.00000000000E+00 0.  1.
         -2   -1    0    0    0  501 -0.00000000000E+00 -0.00000000000E+00 -0.67471761454E+00  0.67471761454E+00  0.00000000000E+00 0. -1.
         21    1    1    2  502  503  0.20406552445E+02  0.24727668513E+02  0.73359722341E+03  0.73429746776E+03  0.00000000000E+00 0. -1.
         21    1    1    2  503  501 -0.20406552445E+02 -0.24727668513E+02  0.79134162749E+03  0.79199081837E+03  0.00000000000E+00 0.  1.
</event>
<event>
 4    1  0.5591986E+002  0.2548691E+02  0.7546771E-02  0.1463429E+00
          2   -1    0    0  503    0  0.00000000000E+00  0.00000000000E+00  0.30886162637E+03  0.30886162637E+03  0.00000000000E+00 0.  1.
         -2   -1    0    0    0  501 -0.00000000000E+00 -0.00000000000E+00 -0.62416328920E+01  0.62416328920E+01  0.00000000000E+00 0. -1.
         21    1    1    2  502  501  0.24052351641E+02  0.84301182537E+01  0.23019543418E+02  0.34343585899E+02  0.00000000000E+00 0. -1.
         21    1    1    2  503  502 -0.24052351641E+02 -0.84301182537E+01  0.27960045006E+03  0.28075967337E+03  0.00000000000E+00 0.  1.
</event>
<event>
 4    1  0.5591986E+002  0.2577914E+02  0.7546771E-02  0.1460273E+00
          2   -1    0    0  502    0  0.00000000000E+00  0.00000000000E+00  0.34398161976E+02  0.34398161976E+02  0.00000000000E+00 0.  1.
         -2   -1    0    0    0  501 -0.00000000000E+00 -0.00000000000E+00 -0.29507351851E+03  0.29507351851E+03  0.00000000000E+00 0. -1.
         21    1    1    2  502  503 -0.17199848019E+02  0.19202330606E+02  0.28913882400E+02  0.38737280080E+02  0.00000000000E+00 0.  1.
         21    1    1    2  503  501  0.17199848019E+02 -0.19202330606E+02 -0.28958923894E+03  0.29073440041E+03  0.00000000000E+00 0. -1.
</event>
<event>
 4    1  0.5591986E+002  0.2391399E+02  0.7546771E-02  0.1481329E+00
          2   -1    0    0  503    0  0.00000000000E+00  0.00000000000E+00  0.65275631357E+03  0.65275631357E+03  0.00000000000E+00 0.  1.
         -2   -1    0    0    0  501 -0.00000000000E+00 -0.00000000000E+00 -0.34605657948E+01  0.34605657948E+01  0.00000000000E+00 0. -1.
         21    1    1    2  502  501 -0.72919406433E+01  0.22775128593E+02  0.41098064522E+02  0.47549235412E+02  0.00000000000E+00 0. -1.
         21    1    1    2  503  502  0.72919406433E+01 -0.22775128593E+02  0.60819768326E+03  0.60866764396E+03  0.00000000000E+00 0.  1.
</event>
<event>
 4    1  0.5591986E+002  0.2134114E+02  0.7546771E-02  0.1514450E+00
          2   -1    0    0  502    0  0.00000000000E+00  0.00000000000E+00  0.11209223355E+03  0.11209223355E+03  0.00000000000E+00 0.  1.
         -2   -1    0    0    0  501 -0.00000000000E+00 -0.00000000000E+00 -0.53871029821E+01  0.53871029821E+01  0.00000000000E+00 0. -1.
         21    1    1    2  502  503  0.14279591788E+02  0.15859930302E+02  0.82472818525E+02  0.85189259453E+02  0.00000000000E+00 0. -1.
         21    1    1    2  503  501 -0.14279591788E+02 -0.15859930302E+02  0.24232312044E+02  0.32290077080E+02  0.00000000000E+00 0.  1.
</event>
<event>
 4    1  0.5591986E+002  0.2170809E+02  0.7546771E-02  0.1509391E+00
          2   -1    0    0  503    0  0.00000000000E+00  0.00000000000E+00  0.14306987681E+03  0.14306987681E+03  0.00000000000E+00 0.  1.
         -2   -1    0    0    0  501 -0.00000000000E+00 -0.00000000000E+00 -0.33093587781E+01  0.33093587781E+01  0.00000000000E+00 0. -1.
         21    1    1    2  502  501 -0.12913556098E+02 -0.17449391889E+02  0.74901309608E+02  0.77983635395E+02  0.00000000000E+00 0. -1.
         21    1    1    2  503  502  0.12913556098E+02  0.17449391889E+02  0.64859208422E+02  0.68395600192E+02  0.00000000000E+00 0.  1.
</event>
<event>
 4    1  0.5591986E+002  0.3604828E+02  0.7546771E-02  0.1373340E+00
          2   -1    0    0  502    0  0.00000000000E+00  0.00000000000E+00  0.81415503728E+03  0.81415503728E+03  0.00000000000E+00 0. -1.
         -2   -1    0    0    0  501 -0.00000000000E+00 -0.00000000000E+00 -0.63625722877E+01  0.63625722877E+01  0.00000000000E+00 0.  1.
         21    1    1    2  502  503 -0.22307407286E+02  0.28317096218E+02  0.75898732157E+03  0.75984289999E+03  0.00000000000E+00 0. -1.
         21    1    1    2  503  501  0.22307407286E+02 -0.28317096218E+02  0.48805143420E+02  0.60674709577E+02  0.00000000000E+00 0.  1.
</event>
<event>
 4    1  0.5591986E+002  0.3816663E+02  0.7546771E-02  0.1359578E+00
          2   -1    0    0  503    0  0.00000000000E+00  0.00000000000E+00  0.23566138933E+04  0.23566138933E+04  0.00000000000E+00 0. -1.
         -2   -1    0    0    0  501 -0.00000000000E+00 -0.00000000000E+00 -0.63845508319E+00  0.63845508319E+00  0.00000000000E+00 0.  1.
         21    1    1    2  502  501  0.37728634355E+02 -0.57655905224E+01  0.13882858978E+04  0.13888104356E+04  0.00000000000E+00 0. -1.
         21    1    1    2  503  502 -0.37728634355E+02  0.57655905224E+01  0.96768954036E+03  0.96844191277E+03  0.00000000000E+00 0.  1.
</event>
<event>
 4    1  0.5591986E+002  0.2067461E+02  0.7546771E-02  0.1523962E+00
          2   -1    0    0  502    0  0.00000000000E+00  0.00000000000E+00  0.83206254097E+03  0.83206254097E+03  0.00000000000E+00 0.  1.
         -2   -1    0    0    0  501 -0.00000000000E+00 -0.00000000000E+00 -0.42840883217E+01  0.42840883217E+01  0.00000000000E+00 0. -1.
         21    1    1    2  502  503  0.20630126182E+02  0.13555805922E+01  0.80619031460E+03  0.80645536954E+03  0.00000000000E+00 0.  1.
         21    1    1    2  503  501 -0.20630126182E+02 -0.13555805922E+01  0.21588138042E+02  0.29891259745E+02  0.00000000000E+00 0. -1.
</event>
<event>
 4    1  0.5591986E+002  0.2725616E+02  0.7546771E-02  0.1445052E+00
          2   -1    0    0  503    0  0.00000000000E+00  0.00000000000E+00  0.80102728819E+02  0.80102728819E+02  0.00000000000E+00 0. -1.
         -2   -1    0    0    0  501 -0.00000000000E+00 -0.00000000000E+00 -0.12926775143E+02  0.12926775143E+02  0.00000000000E+00 0.  1.
         21    1    1    2  502  501  0.27083393465E+02  0.30639738474E+01  0.88628682132E+01  0.28660924100E+02  0.00000000000E+00 0.  1.
         21    1    1    2  503  502 -0.27083393465E+02 -0.30639738474E+01  0.58313085462E+02  0.64368579862E+02  0.00000000000E+00 0. -1.
</event>
<event>
 4    1  0.5591986E+002  0.3846199E+02  0.7546771E-02  0.1357742E+00
          2   -1    0    0  502    0  0.00000000000E+00  0.00000000000E+00  0.35441374669E+01  0.35441374669E+01  0.00000000000E+00 0.  1.
         -2   -1    0    0    0  501 -0.00000000000E+00 -0.00000000000E+00 -0.44574831493E+03  0.44574831493E+03  0.00000000000E+00 0. -1.
         21    1    1    2  502  503 -0.48892192956E+00 -0.38458886865E+02 -0.16445031954E+03  0.16888822523E+03  0.00000000000E+00 0.  1.
         21    1    1    2  503  501  0.48892192956E+00  0.38458886865E+02 -0.27775385792E+03  0.28040422717E+03  0.00000000000E+00 0. -1.
</event>
<event>
 4    1  0.5591986E+002  0.2273309E+02  0.7546771E-02  0.1495877E+00
          2   -1    0    0  503    0  0.00000000000E+00  0.00000000000E+00  0.11614736522E+04  0.11614736522E+04  0.00000000000E+00 0. -1.
         -2   -1    0    0    0  501 -0.00000000000E+00 -0.00000000000E+00 -0.81324225280E+00  0.81324225280E+00  0.00000000000E+00 0.  1.
         21    1    1    2  502  501 -0.74080754106E+01 -0.21492176912E+02  0.18924451119E+03  0.19060503211E+03  0.00000000000E+00 0.  1.
         21    1    1    2  503  502  0.74080754106E+01  0.21492176912E+02  0.97141589880E+03  0.97168186239E+03  0.00000000000E+00 0. -1.
</event>
<event>
 4    1  0.5591986E+002  0.2339326E+02  0.7546771E-02  0.1487618E+00
          2   -1    0    0  503    0  0.00000000000E+00  0.00000000000E+00  0.64421434874E+01  0.64421434874E+01  0.00000000000E+00 0. -1.
         -2   -1    0    0    0  501 -0.00000000000E+00 -0.00000000000E+00 -0.90846349960E+02  0.90846349960E+02  0.00000000000E+00 0.  1.
         21    1    1    2  502  501  0.12481164483E+02 -0.19785477749E+02 -0.54597428139E+02  0.59398011381E+02  0.00000000000E+00 0.  1.
         21    1    1    2  503  502 -0.12481164483E+02  0.19785477749E+02 -0.29806778333E+02  0.37890482066E+02  0.00000000000E+00 0. -1.
</event>
<event>
 4    1  0.5591986E+002  0.2013745E+02  0.7546771E-02  0.1531945E+00
          2   -1    0    0  503    0  0.00000000000E+00  0.00000000000E+00  0.48957997554E+03  0.48957997554E+03  0.00000000000E+00 0. -1.
         -2   -1    0    0    0  501 -0.00000000000E+00 -0.00000000000E+00 -0.27221110736E+01  0.27221110736E+01  0.00000000000E+00 0.  1.
         21    1    1    2  502  501  0.19653298960E+02 -0.43891544083E+01  0.38115381316E+02  0.43107993798E+02  0.00000000000E+00 0.  1.
         21    1    1    2  503  502 -0.19653298960E+02  0.43891544083E+01  0.44874248315E+03  0.44919409282E+03  0.00000000000E+00 0. -1.
</event>
<event>
 4    1  0.5591986E+002  0.2297375E+02  0.7546771E-02  0.1492828E+00
          2   -1    0    0  502    0  0.00000000000E+00  0.00000000000E+00  0.12882841701E+02  0.12882841701E+02  0.00000000000E+00 0.  1.
         -2   -1    0    0    0  501 -0.00000000000E+00 -0.00000000000E+00 -0.52177717557E+02  0.52177717557E+02  0.00000000000E+00 0. -1.
         21    1    1    2  502  503  0.12056950911E+02 -0.19555645502E+02 -0.45699516129E+01  0.23423872310E+02  0.00000000000E+00 0. -1.
         21    1    1    2  503  501 -0.12056950911E+02  0.19555645502E+02 -0.34724924244E+02  0.41636686948E+02  0.00000000000E+00 0.  1.
</event>
<event>
 4    1  0.5591986E+002  0.2455856E+02  0.7546771E-02  0.1473803E+00
          2   -1    0    0  503    0  0.00000000000E+00  0.00000000000E+00  0.18017964117E+04  0.18017964117E+04  0.00000000000E+00 0. -1.
         -2   -1    0    0    0  501 -0.00000000000E+00 -0.00000000000E+00 -0.41078491086E+00  0.41078491086E+00  0.00000000000E+00 0.  1.
         21    1    1    2  502  501  0.24548520843E+02 -0.70228089742E+00  0.51297226814E+03  0.51355980270E+03  0.00000000000E+00 0.  1.
         21    1    1    2  503  502 -0.24548520843E+02  0.70228089742E+00  0.12884133587E+04  0.12886473940E+04  0.00000000000E+00 0. -1.
</event>
<event>
 4    1  0.5591986E+002  0.2527559E+02  0.7546771E-02  0.1465744E+00
          2   -1    0    0  502    0  0.00000000000E+00  0.00000000000E+00  0.24234954492E+02  0.24234954492E+02  0.00000000000E+00 0. -1.
         -2   -1    0    0    0  501 -0.00000000000E+00 -0.00000000000E+00 -0.29122097725E+02  0.29122097725E+02  0.00000000000E+00 0.  1.
         21    1    1    2  502  503  0.17532653011E+02  0.18206081577E+02  0.57712640852E+01  0.25926103007E+02  0.00000000000E+00 0. -1.
         21    1    1    2  503  501 -0.17532653011E+02 -0.18206081577E+02 -0.10658407319E+02  0.27430949210E+02  0.00000000000E+00 0.  1.
</event>
<event>
 4    1  0.5591986E+002  0.3230505E+02  0.7546771E-02  0.1400569E+00
          2   -1    0    0  503    0  0.00000000000E+00  0.00000000000E+00  0.24640550421E+04  0.24640550421E+04  0.00000000000E+00 0.  1.
         -2   -1    0    0    0  501 -0.00000000000E+00 -0.00000000000E+00 -0.14402864893E+01  0.14402864893E+01  0.00000000000E+00 0. -1.
         21    1    1    2  502  501 -0.12540989209E+02  0.29771456612E+02  0.19555261743E+03  0.19820303283E+03  0.00000000000E+00 0. -1.
         21    1    1    2  503  502  0.12540989209E+02 -0.29771456612E+02  0.22670621382E+04  0.22672922957E+04  0.00000000000E+00 0.  1.
</event>
<event>
 4    1  0.5591986E+002  0.2913394E+02  0.7546771E-02  0.1427275E+00
          2   -1    0    0  503    0  0.00000000000E+00  0.00000000000E+00  0.31328565972E+03  0.31328565972E+03  0.00000000000E+00 0.  1.
         -2   -1    0    0    0  501 -0.00000000000E+00 -0.00000000000E+00 -0.27145443122E+01  0.27145443122E+01  0.00000000000E+00 0. -1.
         21    1    1    2  502  501 -0.12004048957E+02 -0.26545988442E+02  0.14834478616E+03  0.15117857743E+03  0.00000000000E+00 0.  1.
         21    1    1    2  503  502  0.12004048957E+02  0.26545988442E+02  0.16222632925E+03  0.16482162660E+03  0.00000000000E+00 0. -1.
</event>
<event>
 4    1  0.5591986E+002  0.2322361E+02  0.7546771E-02  0.1489709E+00
          2   -1    0    0  503    0  0.00000000000E+00  0.00000000000E+00  0.84904341110E+03  0.84904341110E+03  0.00000000000E+00 0. -1.
         -2   -1    0    0    0  501 -0.00000000000E+00 -0.00000000000E+00 -0.15489256901E+02  0.15489256901E+02  0.00000000000E+00 0.  1.
         21    1    1    2  502  501 -0.13439875410E+02  0.18939532546E+02 -0.65326555355E+01  0.24124919325E+02  0.00000000000E+00 0.  1.
         21    1    1    2  503  502  0.13439875410E+02 -0.18939532546E+02  0.84008680973E+03  0.84040774867E+03  0.00000000000E+00 0. -1.
</event>
<event>
 4    1  0.5591986E+002  0.2261940E+02  0.7546771E-02  0.1497333E+00
          2   -1    0    0  503    0  0.00000000000E+00  0.00000000000E+00  0.17143622519E+01  0.17143622519E+01  0.00000000000E+00 0. -1.
         -2   -1    0    0    0  501 -0.00000000000E+00 -0.00000000000E+00 -0.93561005175E+03  0.93561005175E+03  0.00000000000E+00 0.  1.
         21    1    1    2  502  501 -0.21786377109E+02  0.60820339777E+01 -0.85370606776E+03  0.85400567181E+03  0.00000000000E+00 0.  1.
         21    1    1    2  503  502  0.21786377109E+02 -0.60820339777E+01 -0.80189621740E+02  0.83318742187E+02  0.00000000000E+00 0. -1.
</event>
<event>
 4    1  0.5591986E+002  0.3181065E+02  0.7546771E-02  0.1404488E+00
          2   -1    0    0  503    0  0.00000000000E+00  0.00000000000E+00  0.56532231749E+03  0.56532231749E+03  0.00000000000E+00 0. -1.
         -2   -1    0    0    0  501 -0.00000000000E+00 -0.00000000000E+00 -0.18364404488E+01  0.18364404488E+01  0.00000000000E+00 0.  1.
         21    1    1    2  502  501 -0.97876904010E+01 -0.30267445861E+02  0.23663890810E+03  0.23876743913E+03  0.00000000000E+00 0.  1.
         21    1    1    2  503  502  0.97876904010E+01  0.30267445861E+02  0.32684696894E+03  0.32839131881E+03  0.00000000000E+00 0. -1.
</event>
<event>
 4    1  0.5591986E+002  0.2836408E+02  0.7546771E-02  0.1434367E+00
          2   -1    0    0  503    0  0.00000000000E+00  0.00000000000E+00  0.20154101874E+03  0.20154101874E+03  0.00000000000E+00 0. -1.
         -2   -1    0    0    0  501 -0.00000000000E+00 -0.00000000000E+00 -0.85018850992E+01  0.85018850992E+01  0.00000000000E+00 0.  1.
         21    1    1    2  502  501 -0.22867501769E+02 -0.16780895193E+02  0.20028544172E+02  0.34722667845E+02  0.00000000000E+00 0.  1.
         21    1    1    2  503  502  0.22867501769E+02  0.16780895193E+02  0.17301058947E+03  0.17532023599E+03  0.00000000000E+00 0. -1.
</event>
<event>
 4    1  0.5591986E+002  0.2209969E+02  0.7546771E-02  0.1504124E+00
          2   -1    0    0  503    0  0.00000000000E+00  0.00000000000E+00  0.91064033047E+02  0.91064033047E+02  0.00000000000E+00 0.  1.
         -2   -1    0    0    0  501 -0.00000000000E+00 -0.00000000000E+00 -0.22584906114E+03  0.22584906114E+03  0.00000000000E+00 0. -1.
         21    1    1    2  502  501 -0.28785134872E+01  0.21911419239E+02 -0.22395633058E+03  0.22504407155E+03  0.00000000000E+00 0. -1.
         21    1    1    2  503  502  0.28785134872E+01 -0.21911419239E+02  0.89171302487E+02  0.91869022637E+02  0.00000000000E+00 0.  1.
</event>
<event>
 4    1  0.5591986E+002  0.2093212E+02  0.7546771E-02  0.1520236E+00
          2   -1    0    0  503    0  0.00000000000E+00  0.00000000000E+00  0.70042759737E+02  0.70042759737E+02  0.00000000000E+00 0.  1.
         -2   -1    0    0    0  501 -0.00000000000E+00 -0.00000000000E+00 -0.80192371672E+01  0.80192371672E+01  0.00000000000E+00 0. -1.
         21    1    1    2  502  501  0.19907351701E+02 -0.64692245559E+01  0.12707245405E+02  0.24487294744E+02  0.00000000000E+00 0. -1.
         21    1    1    2  503  502 -0.19907351701E+02  0.64692245559E+01  0.49316277165E+02  0.53574702160E+02  0.00000000000E+00 0.  1.
</event>
<event>
 4    1  0.5591986E+002  0.2213773E+02  0.7546771E-02  0.1503619E+00
          2   -1    0    0  502    0  0.00000000000E+00  0.00000000000E+00  0.40891025698E+03  0.40891025698E+03  0.00000000000E+00 0.  1.
         -2   -1    0    0    0  501 -0.00000000000E+00 -0.00000000000E+00 -0.23452558437E+01  0.23452558437E+01  0.00000000000E+00 0. -1.
         21    1    1    2  502  503 -0.18329010672E+02 -0.12414773368E+02  0.34707027831E+03  0.34777558470E+03  0.00000000000E+00 0.  1.
         21    1    1    2  503  501  0.18329010672E+02  0.12414773368E+02  0.59494722831E+02  0.63479928125E+02  0.00000000000E+00 0. -1.
</event>
<event>
 4    1  0.5591986E+002  0.2298936E+02  0.7546771E-02  0.1492632E+00
          2   -1    0    0  502    0  0.00000000000E+00  0.00000000000E+00  0.15660076017E+03  0.15660076017E+03  0.00000000000E+00 0. -1.
         -2   -1    0    0    0  501 -0.00000000000E+00 -0.00000000000E+00 -0.21584426019E+02  0.21584426019E+02  0.00000000000E+00 0.  1.
         21    1    1    2  502  503  0.76884259702E+01 -0.21665616851E+02  0.14933971168E+03  0.15109884292E+03  0.00000000000E+00 0. -1.
         21    1    1    2  503  501 -0.76884259702E+01  0.21665616851E+02 -0.14323377534E+02  0.27086343264E+02  0.00000000000E+00 0.  1.
</event>
<event>
 4    1  0.5591986E+002  0.2877429E+02  0.7546771E-02  0.1430555E+00
          2   -1    0    0  502    0  0.00000000000E+00  0.00000000000E+00  0.30269708860E+02  0.30269708860E+02  0.00000000000E+00 0. -1.
         -2   -1    0    0    0  501 -0.00000000000E+00 -0.00000000000E+00 -0.69634078664E+02  0.69634078664E+02  0.00000000000E+00 0.  1.
         21    1    1    2  502  503  0.25037230678E+02 -0.14180856271E+02  0.19241628648E+02  0.34615023872E+02  0.00000000000E+00 0. -1.
         21    1    1    2  503  501 -0.25037230678E+02  0.14180856271E+02 -0.58605998452E+02  0.65288763652E+02  0.00000000000E+00 0.  1.
</event>
<event>
 4    1  0.5591986E+002  0.2171347E+02  0.7546771E-02  0.1509317E+00
          2   -1    0    0  503    0  0.00000000000E+00  0.00000000000E+00  0.90355346401E+02  0.90355346401E+02  0.00000000000E+00 0.  1.
         -2   -1    0    0    0  501 -0.00000000000E+00 -0.00000000000E+00 -0.54596469098E+01  0.54596469098E+01  0.00000000000E+00 0. -1.
         21    1    1    2  502  501 -0.18483665515E+02  0.11394240137E+02  0.52526626551E+02  0.56837673211E+02  0.00000000000E+00 0.  1.
         21    1    1    2  503  502  0.18483665515E+02 -0.11394240137E+02  0.32369072940E+02  0.38977320100E+02  0.00000000000E+00 0. -1.
</event>
<event>
 4    1  0.5591986E+002  0.3415630E+02  0.7546771E-02  0.1386594E+00
          2   -1    0    0  503    0  0.00000000000E+00  0.00000000000E+00  0.90110503674E+01  0.90110503674E+01  0.00000000000E+00 0. -1.
         -2   -1    0    0    0  501 -0.00000000000E+00 -0.00000000000E+00 -0.14213954581E+03  0.14213954581E+03  0.00000000000E+00 0.  1.
         21    1    1    2  502  501 -0.11462141742E+02 -0.32175649082E+02 -0.89128315342E+02  0.95448989952E+02  0.00000000000E+00 0.  1.
         21    1    1    2  503  502  0.11462141742E+02  0.32175649082E+02 -0.44000180099E+02  0.55701606224E+02  0.00000000000E+00 0. -1.
</event>
<event>
 4    1  0.5591986E+002  0.2626083E+02  0.7546771E-02  0.1455178E+00
          2   -1    0    0  502    0  0.00000000000E+00  0.00000000000E+00  0.32557637495E+01  0.32557637495E+01  0.00000000000E+00 0. -1.
         -2   -1    0    0    0  501 -0.00000000000E+00 -0.00000000000E+00 -0.22043124954E+03  0.22043124954E+03  0.00000000000E+00 0.  1.
         21    1    1    2  502  503  0.23557499361E+02  0.11604983447E+02 -0.13069535448E+03  0.13330756580E+03  0.00000000000E+00 0.  1.
         21    1    1    2  503  501 -0.23557499361E+02 -0.11604983447E+02 -0.86480131311E+02  0.90379447490E+02  0.00000000000E+00 0. -1.
</event>
<event>
 4    1  0.5591986E+002  0.2710927E+02  0.7546771E-02  0.1446514E+00
          2   -1    0    0  502    0  0.00000000000E+00  0.00000000000E+00  0.58400491436E+02  0.58400491436E+02  0.00000000000E+00 0.  1.
         -2   -1    0    0    0  501 -0.00000000000E+00 -0.00000000000E+00 -0.12758139512E+02  0.12758139512E+02  0.00000000000E+00 0. -1.
         21    1    1    2  502  503  0.13028013115E+02  0.23773583876E+02  0.26977784113E+02  0.38245434390E+02  0.00000000000E+00 0.  1.
         21    1    1    2  503  501 -0.13028013115E+02 -0.23773583876E+02  0.18664567811E+02  0.32913196557E+02  0.00000000000E+00 0. -1.
</event>
<event>
 4    1  0.5591986E+002  0.2249183E+02  0.7546771E-02  0.1498980E+00
          2   -1    0    0  503    0  0.00000000000E+00  0.00000000000E+00  0.18986893687E+01  0.18986893687E+01  0.00000000000E+00 0.  1.
         -2   -1    0    0    0  501 -0.00000000000E+00 -0.00000000000E+00 -0.31335591691E+03  0.31335591691E+03  0.00000000000E+00 0. -1.
         21    1    1    2  502  501  0.12254836220E+02  0.18860049179E+02 -0.94735170186E+02  0.97368552090E+02  0.00000000000E+00 0.  1.
         21    1    1    2  503  502 -0.12254836220E+02 -0.18860049179E+02 -0.21672205735E+03  0.21788605419E+03  0.00000000000E+00 0. -1.
</event>
<event>
 4    1  0.5591986E+002  0.2115333E+02  0.7546771E-02  0.1517087E+00
          2   -1    0    0  502    0  0.00000000000E+00  0.00000000000E+00  0.18224864751E+03  0.18224864751E+03  0.00000000000E+00 0.  1.
         -2   -1    0    0    0  501 -0.00000000000E+00 -0.00000000000E+00 -0.22456193478E+02  0.22456193478E+02  0.00000000000E+00 0. -1.
         21    1    1    2  502  503  0.68267162796E+01  0.20021474913E+02  0.17649140250E+03  0.17775454613E+03  0.00000000000E+00 0.  1.
         21    1    1    2  503  501 -0.68267162796E+01 -0.20021474913E+02 -0.16698948470E+02  0.26950294857E+02  0.00000000000E+00 0. -1.
</event>
<event>
 4    1  0.5591986E+002  0.2369806E+02  0.7546771E-02  0.1483914E+00
          2   -1    0    0  502    0  0.00000000000E+00  0.00000000000E+00  0.29135053833E+03  0.29135053833E+03  0.00000000000E+00 0. -1.
         -2   -1    0    0    0  501 -0.00000000000E+00 -0.00000000000E+00 -0.27652205514E+01  0.27652205514E+01  0.00000000000E+00 0.  1.
         21    1    1    2  502  503 -0.19053880928E+02  0.14090702115E+02  0.22523115133E+03  0.22647443519E+03  0.00000000000E+00 0. -1.
         21    1    1    2  503  501  0.19053880928E+02 -0.14090702115E+02  0.63354166448E+02  0.67641323692E+02  0.00000000000E+00 0.  1.
</event>
<event>
 4    1  0.5591986E+002  0.2838178E+02  0.7546771E-02  0.1434201E+00
          2   -1    0    0  503    0  0.00000000000E+00  0.00000000000E+00  0.25582791505E+04  0.25582791505E+04  0.00000000000E+00 0.  1.
         -2   -1    0    0    0  501 -0.00000000000E+00 -0.00000000000E+00 -0.51280191306E+00  0.51280191306E+00  0.00000000000E+00 0. -1.
         21    1    1    2  502  501  0.72985467675E+01  0.27427299676E+02  0.48402803045E+03  0.48485942273E+03  0.00000000000E+00 0. -1.
         21    1    1    2  503  502 -0.72985467675E+01 -0.27427299676E+02  0.20737383182E+04  0.20739325297E+04  0.00000000000E+00 0.  1.
</event>
<event>
 4    1  0.5591986E+002  0.2531562E+02  0.7546771E-02  0.1465303E+00
          2   -1    0    0  503    0  0.00000000000E+00  0.00000000000E+00  0.20466872723E+03  0.20466872723E+03  0.00000000000E+00 0. -1.
         -2   -1    0    0    0  501 -0.00000000000E+00 -0.00000000000E+00 -0.64587135399E+01  0.64587135399E+01  0.00000000000E+00 0.  1.
         21    1    1    2  502  501  0.25296530259E+02  0.98289843522E+00  0.23335469312E+02  0.34429996521E+02  0.00000000000E+00 0.  1.
         21    1    1    2  503  502 -0.25296530259E+02 -0.98289843522E+00  0.17487454438E+03  0.17669744425E+03  0.00000000000E+00 0. -1.
</event>
<event>
 4    1  0.5591986E+002  0.2386321E+02  0.7546771E-02  0.1481934E+00
          2   -1    0    0  503    0  0.00000000000E+00  0.00000000000E+00  0.92734761104E+00  0.92734761104E+00  0.00000000000E+00 0.  1.
         -2   -1    0    0    0  501 -0.00000000000E+00 -0.00000000000E+00 -0.61559262770E+03  0.61559262770E+03  0.00000000000E+00 0. -1.
         21    1    1    2  502  501 -0.83023736025E+01 -0.22372374860E+02 -0.32268405244E+03  0.32356521794E+03  0.00000000000E+00 0.  1.
         21    1    1    2  503  502  0.83023736025E+01  0.22372374860E+02 -0.29198122765E+03  0.29295475736E+03  0.00000000000E+00 0. -1.
</event>
<event>
 4    1  0.5591986E+002  0.2155131E+02  0.7546771E-02  0.1511537E+00
          2   -1    0    0  502    0  0.00000000000E+00  0.00000000000E+00  0.99892327592E+00  0.99892327592E+00  0.00000000000E+00 0. -1.
         -2   -1    0    0    0  501 -0.00000000000E+00 -0.00000000000E+00 -0.79780027682E+03  0.79780027682E+03  0.00000000000E+00 0.  1.
         21    1    1    2  502  503 -0.16187049952E+02  0.14228077601E+02 -0.14042494348E+03  0.14206908013E+03  0.00000000000E+00 0. -1.
         21    1    1    2  503  501  0.16187049952E+02 -0.14228077601E+02 -0.65637641007E+03  0.65673011997E+03  0.00000000000E+00 0.  1.
</event>
<event>
 4    1  0.5591986E+002  0.2154801E+02  0.7546771E-02  0.1511583E+00
          2   -1    0    0  502    0  0.00000000000E+00  0.00000000000E+00  0.17975274595E+03  0.17975274595E+03  0.00000000000E+00 0.  1.
         -2   -1    0    0    0  501 -0.00000000000E+00 -0.00000000000E+00 -0.57603674430E+01  0.57603674430E+01  0.00000000000E+00 0. -1.
         21    1    1    2  502  503 -0.19460615520E+02  0.92520820649E+01  0.15588480413E+03  0.15736705099E+03  0.00000000000E+00 0.  1.
         21    1    1    2  503  501  0.19460615520E+02 -0.92520820649E+01  0.18107574379E+02  0.28146062404E+02  0.00000000000E+00 0. -1.
</event>
<event>
 4    1  0.5591986E+002  0.2477579E+02  0.7546771E-02  0.1471327E+00
          2   -1    0    0  502    0  0.00000000000E+00  0.00000000000E+00  0.12374900444E+02  0.12374900444E+02  0.00000000000E+00 0.  1.
         -2   -1    0    0    0  501 -0.00000000000E+00 -0.00000000000E+00 -0.15606824934E+03  0.15606824934E+03  0.00000000000E+00 0. -1.
         21    1    1    2  502  503 -0.24414998515E+02 -0.42127791513E+01 -0.22851990632E+01  0.24880952462E+02  0.00000000000E+00 0.  1.
         21    1    1    2  503  501  0.24414998515E+02  0.42127791513E+01 -0.14140814983E+03  0.14356219732E+03  0.00000000000E+00 0. -1.
</event>
<event>
 4    1  0.5591986E+002  0.2251448E+02  0.7546771E-02  0.1498686E+00
          2   -1    0    0  503    0  0.00000000000E+00  0.00000000000E+00  0.47787317940E+02  0.47787317940E+02  0.00000000000E+00 0.  1.
         -2   -1    0    0    0  501 -0.00000000000E+00 -0.00000000000E+00 -0.18933818910E+02  0.18933818910E+02  0.00000000000E+00 0. -1.
         21    1    1    2  502  501  0.15122838257E+02  0.16679379169E+02 -0.76961461374E+01  0.23793540967E+02  0.00000000000E+00 0. -1.
         21    1    1    2  503  502 -0.15122838257E+02 -0.16679379169E+02  0.36549645168E+02  0.42927595883E+02  0.00000000000E+00 0.  1.
</event>
<event>
 4    1  0.5591986E+002  0.2189763E+02  0.7546771E-02  0.1506825E+00
          2   -1    0    0  502    0  0.00000000000E+00  0.00000000000E+00  0.13237362255E+04  0.13237362255E+04  0.00000000000E+00 0.  1.
         -2   -1    0    0    0  501 -0.00000000000E+00 -0.00000000000E+00 -0.48131917283E+00  0.48131917283E+00  0.00000000000E+00 0. -1.
         21    1    1    2  502  503 -0.21511188627E+02  0.40956992148E+01  0.99096138714E+03  0.99120329741E+03  0.00000000000E+00 0.  1.
         21    1    1    2  503  501  0.21511188627E+02 -0.40956992148E+01  0.33229351918E+03  0.33301424726E+03  0.00000000000E+00 0. -1.
</event>
<event>
 4    1  0.5591986E+002  0.2682392E+02  0.7546771E-02  0.1449385E+00
          2   -1    0    0  502    0  0.00000000000E+00  0.00000000000E+00  0.26579363606E+03  0.26579363606E+03  0.00000000000E+00 0. -1.
         -2   -1    0    0    0  501 -0.00000000000E+00 -0.00000000000E+00 -0.14868779958E+02  0.14868779958E+02  0.00000000000E+00 0.  1.
         21    1    1    2  502  503  0.26384548845E+02 -0.48350892228E+01  0.25237769922E+03  0.25379918355E+03  0.00000000000E+00 0. -1.
         21    1    1    2  503  501 -0.26384548845E+02  0.48350892228E+01 -0.14528431202E+01  0.26863232469E+02  0.00000000000E+00 0.  1.
</event>
<event>
 4    1  0.5591986E+002  0.2661349E+02  0.7546771E-02  0.1451530E+00
          2   -1    0    0  502    0  0.00000000000E+00  0.00000000000E+00  0.56805979666E+03  0.56805979666E+03  0.00000000000E+00 0.  1.
         -2   -1    0    0    0  501 -0.00000000000E+00 -0.00000000000E+00 -0.15965038448E+01  0.15965038448E+01  0.00000000000E+00 0. -1.
         21    1    1    2  502  503  0.18357993913E+02  0.19268155395E+02  0.41653018643E+03  0.41737953228E+03  0.00000000000E+00 0.  1.
         21    1    1    2  503  501 -0.18357993913E+02 -0.19268155395E+02  0.14993310638E+03  0.15227676823E+03  0.00000000000E+00 0. -1.
</event>
<event>
 4    1  0.5591986E+002  0.2039646E+02  0.7546771E-02  0.1528059E+00
          2   -1    0    0  502    0  0.00000000000E+00  0.00000000000E+00  0.88164890124E+03  0.88164890124E+03  0.00000000000E+00 0.  1.
         -2   -1    0    0    0  501 -0.00000000000E+00 -0.00000000000E+00 -0.70548509948E+00  0.70548509948E+00  0.00000000000E+00 0. -1.
         21    1    1    2  502  503 -0.20341419157E+02 -0.14973837700E+01  0.69435154141E+03  0.69465104805E+03  0.00000000000E+00 0.  1.
         21    1    1    2  503  501  0.20341419157E+02  0.14973837700E+01  0.18659187473E+03  0.18770333829E+03  0.00000000000E+00 0. -1.
</event>
<event>
 4    1  0.5591986E+002  0.2098692E+02  0.7546771E-02  0.1519452E+00
          2   -1    0    0  502    0  0.00000000000E+00  0.00000000000E+00  0.29399750734E+02  0.29399750734E+02  0.00000000000E+00 0.  1.
         -2   -1    0    0    0  501 -0.00000000000E+00 -0.00000000000E+00 -0.20715779451E+02  0.20715779451E+02  0.00000000000E+00 0. -1.
         21    1    1    2  502  503  0.18075357359E+02  0.10664527853E+02  0.17525562916E+02  0.27342202791E+02  0.00000000000E+00 0.  1.
         21    1    1    2  503  501 -0.18075357359E+02 -0.10664527853E+02 -0.88415916324E+01  0.22773327393E+02  0.00000000000E+00 0. -1.
</event>
<event>
 4    1  0.5591986E+002  0.5135466E+02  0.7546771E-02  0.1292404E+00
          2   -1    0    0  502    0  0.00000000000E+00  0.00000000000E+00  0.64522017682E+03  0.64522017682E+03  0.00000000000E+00 0.  1.
         -2   -1    0    0    0  501 -0.00000000000E+00 -0.00000000000E+00 -0.52520241065E+01  0.52520241065E+01  0.00000000000E+00 0. -1.
         21    1    1    2  502  503  0.35201082381E+02  0.37392308384E+02  0.16683295080E+03  0.17455811182E+03  0.00000000000E+00 0. -1.
         21    1    1    2  503  501 -0.35201082381E+02 -0.37392308384E+02  0.47313520191E+03  0.47591408911E+03  0.00000000000E+00 0.  1.
</event>
<event>
 4    1  0.5591986E+002  0.2147565E+02  0.7546771E-02  0.1512581E+00
          2   -1    0    0  502    0  0.00000000000E+00  0.00000000000E+00  0.43367289923E+03  0.43367289923E+03  0.00000000000E+00 0.  1.
         -2   -1    0    0    0  501 -0.00000000000E+00 -0.00000000000E+00 -0.18511644582E+01  0.18511644582E+01  0.00000000000E+00 0. -1.
         21    1    1    2  502  503 -0.66031172337E+01 -0.20435320003E+02  0.35795887846E+03  0.35860251272E+03  0.00000000000E+00 0.  1.
         21    1    1    2  503  501  0.66031172337E+01  0.20435320003E+02  0.73862856315E+02  0.76921550971E+02  0.00000000000E+00 0. -1.
</event>
<event>
 4    1  0.5591986E+002  0.2065860E+02  0.7546771E-02  0.1524195E+00
          2   -1    0    0  502    0  0.00000000000E+00  0.00000000000E+00  0.16067118823E+02  0.16067118823E+02  0.00000000000E+00 0.  1.
         -2   -1    0    0    0  501 -0.00000000000E+00 -0.00000000000E+00 -0.35928929712E+02  0.35928929712E+02  0.00000000000E+00 0. -1.
         21    1    1    2  502  503  0.26247623615E+01 -0.20491174331E+02  0.33434305414E+01  0.20927401432E+02  0.00000000000E+00 0.  1.
         21    1    1    2  503  501 -0.26247623615E+01  0.20491174331E+02 -0.23205241430E+02  0.31068647102E+02  0.00000000000E+00 0. -1.
</event>
<event>
 4    1  0.5591986E+002  0.2502115E+02  0.7546771E-02  0.1468567E+00
          2   -1    0    0  503    0  0.00000000000E+00  0.00000000000E+00  0.63216834558E+00  0.63216834558E+00  0.00000000000E+00 0. -1.
         -2   -1    0    0    0  501 -0.00000000000E+00 -0.00000000000E+00 -0.10261617266E+04  0.10261617266E+04  0.00000000000E+00 0.  1.
         21    1    1    2  502  501  0.65240291916E+01  0.24155637643E+02 -0.41683461479E+03  0.41758490618E+03  0.00000000000E+00 0.  1.
         21    1    1    2  503  502 -0.65240291916E+01 -0.24155637643E+02 -0.60869494343E+03  0.60920898873E+03  0.00000000000E+00 0. -1.
</event>
<event>
 4    1  0.5591986E+002  0.2271803E+02  0.7546771E-02  0.1496070E+00
          2   -1    0    0  503    0  0.00000000000E+00  0.00000000000E+00  0.53647844280E+03  0.53647844280E+03  0.00000000000E+00 0.  1.
         -2   -1    0    0    0  501 -0.00000000000E+00 -0.00000000000E+00 -0.10623756135E+01  0.10623756135E+01  0.00000000000E+00 0. -1.
         21    1    1    2  502  501  0.21846146663E+02 -0.62333437571E+01  0.35030996884E+03  0.35104584169E+03  0.00000000000E+00 0.  1.
         21    1    1    2  503  502 -0.21846146663E+02  0.62333437571E+01  0.18510609835E+03  0.18649497673E+03  0.00000000000E+00 0. -1.
</event>
<event>
 4    1  0.5591986E+002  0.4549599E+02  0.7546771E-02  0.1318978E+00
          2   -1    0    0  503    0  0.00000000000E+00  0.00000000000E+00  0.37981781550E+02  0.37981781550E+02  0.00000000000E+00 0. -1.
         -2   -1    0    0    0  501 -0.00000000000E+00 -0.00000000000E+00 -0.59014305642E+02  0.59014305642E+02  0.00000000000E+00 0.  1.
         21    1    1    2  502  501 -0.45495981996E+02  0.17954762416E-01 -0.23934515771E+02  0.51407642869E+02  0.00000000000E+00 0. -1.
         21    1    1    2  503  502  0.45495981996E+02 -0.17954762416E-01  0.29019916793E+01  0.45588444324E+02  0.00000000000E+00 0.  1.
</event>
<event>
 4    1  0.5591986E+002  0.3138423E+02  0.7546771E-02  0.1407937E+00
          2   -1    0    0  503    0  0.00000000000E+00  0.00000000000E+00  0.16572935041E+01  0.16572935041E+01  0.00000000000E+00 0. -1.
         -2   -1    0    0    0  501 -0.00000000000E+00 -0.00000000000E+00 -0.81737349399E+03  0.81737349399E+03  0.00000000000E+00 0.  1.
         21    1    1    2  502  501  0.30236655166E+02 -0.84092122542E+01 -0.62178237653E+03  0.62257392648E+03  0.00000000000E+00 0.  1.
         21    1    1    2  503  502 -0.30236655166E+02  0.84092122542E+01 -0.19393382396E+03  0.19645686102E+03  0.00000000000E+00 0. -1.
</event>
<event>
 4    1  0.5591986E+002  0.2436991E+02  0.7546771E-02  0.1475977E+00
          2   -1    0    0  502    0  0.00000000000E+00  0.00000000000E+00  0.51820254499E+02  0.51820254499E+02  0.00000000000E+00 0. -1.
         -2   -1    0    0    0  501 -0.00000000000E+00 -0.00000000000E+00 -0.14674658767E+02  0.14674658767E+02  0.00000000000E+00 0.  1.
         21    1    1    2  502  503  0.20839931583E+02 -0.12632874967E+02  0.34132451842E+02  0.41939439041E+02  0.00000000000E+00 0. -1.
         21    1    1    2  503  501 -0.20839931583E+02  0.12632874967E+02  0.30131438905E+01  0.24555474226E+02  0.00000000000E+00 0.  1.
</event>
<event>
 4    1  0.5591986E+002  0.3348338E+02  0.7546771E-02  0.1391551E+00
          2   -1    0    0  502    0  0.00000000000E+00  0.00000000000E+00  0.87765023630E+03  0.87765023630E+03  0.00000000000E+00 0. -1.
         -2   -1    0    0    0  501 -0.00000000000E+00 -0.00000000000E+00 -0.28987643676E+01  0.28987643676E+01  0.00000000000E+00 0.  1.
         21    1    1    2  502  503 -0.33228087073E+02 -0.41268964086E+01  0.76664661554E+03  0.76737746264E+03  0.00000000000E+00 0. -1.
         21    1    1    2  503  501  0.33228087073E+02  0.41268964086E+01  0.10810485639E+03  0.11317153803E+03  0.00000000000E+00 0.  1.
</event>
<event>
 4    1  0.5591986E+002  0.2294979E+02  0.7546771E-02  0.1493130E+00
          2   -1    0    0  503    0  0.00000000000E+00  0.00000000000E+00  0.63555964210E+02  0.63555964210E+02  0.00000000000E+00 0. -1.
         -2   -1    0    0    0  501 -0.00000000000E+00 -0.00000000000E+00 -0.83103579871E+01  0.83103579871E+01  0.00000000000E+00 0.  1.
         21    1    1    2  502  501  0.15954820153E+02  0.16496558136E+02  0.25720618404E+02  0.34470899721E+02  0.00000000000E+00 0.  1.
         21    1    1    2  503  502 -0.15954820153E+02 -0.16496558136E+02  0.29524987819E+02  0.37395422476E+02  0.00000000000E+00 0. -1.
</event>
<event>
 4    1  0.5591986E+002  0.2852751E+02  0.7546771E-02  0.1432839E+00
          2   -1    0    0  503    0  0.00000000000E+00  0.00000000000E+00  0.64537962113E+03  0.64537962113E+03  0.00000000000E+00 0.  1.
         -2   -1    0    0    0  501 -0.00000000000E+00 -0.00000000000E+00 -0.25660239642E+01  0.25660239642E+01  0.00000000000E+00 0. -1.
         21    1    1    2  502  501 -0.68616023500E+01  0.27690024244E+02  0.90366001741E+02  0.94761982356E+02  0.00000000000E+00 0. -1.
         21    1    1    2  503  502  0.68616023500E+01 -0.27690024244E+02  0.55244759542E+03  0.55318366274E+03  0.00000000000E+00 0.  1.
</event>
<event>
 4    1  0.5591986E+002  0.3374725E+02  0.7546771E-02  0.1389591E+00
          2   -1    0    0  502    0  0.00000000000E+00  0.00000000000E+00  0.15797080339E+02  0.15797080339E+02  0.00000000000E+00 0. -1.
         -2   -1    0    0    0  501 -0.00000000000E+00 -0.00000000000E+00 -0.87370436201E+02  0.87370436201E+02  0.00000000000E+00 0.  1.
         21    1    1    2  502  503  0.24292906578E+02 -0.23425026770E+02 -0.14217205484E+02  0.36619750422E+02  0.00000000000E+00 0. -1.
         21    1    1    2  503  501 -0.24292906578E+02  0.23425026770E+02 -0.57356150378E+02  0.66547766118E+02  0.00000000000E+00 0.  1.
</event>
<event>
 4    1  0.5591986E+002  0.2436271E+02  0.7546771E-02  0.1476061E+00
          2   -1    0    0  503    0  0.00000000000E+00  0.00000000000E+00  0.16047336038E+02  0.16047336038E+02  0.00000000000E+00 0.  1.
         -2   -1    0    0    0  501 -0.00000000000E+00 -0.00000000000E+00 -0.19393174316E+03  0.19393174316E+03  0.00000000000E+00 0. -1.
         21    1    1    2  502  501 -0.42741044061E+01  0.23984864319E+02 -0.18339070361E+03  0.18500186987E+03  0.00000000000E+00 0. -1.
         21    1    1    2  503  502  0.42741044061E+01 -0.23984864319E+02  0.55062964866E+01  0.24977209329E+02  0.00000000000E+00 0.  1.
</event>
<event>
 4    1  0.5591986E+002  0.2652300E+02  0.7546771E-02  0.1452459E+00
          2   -1    0    0  503    0  0.00000000000E+00  0.00000000000E+00  0.10549933054E+04  0.10549933054E+04  0.00000000000E+00 0.  1.
         -2   -1    0    0    0  501 -0.00000000000E+00 -0.00000000000E+00 -0.84008858489E+00  0.84008858489E+00  0.00000000000E+00 0. -1.
         21    1    1    2  502  501 -0.18542353432E+02  0.18964452369E+02  0.76684287733E+03  0.76730141916E+03  0.00000000000E+00 0. -1.
         21    1    1    2  503  502  0.18542353432E+02 -0.18964452369E+02  0.28731033944E+03  0.28853197479E+03  0.00000000000E+00 0.  1.
</event>
<event>
 4    1  0.5591986E+002  0.2417718E+02  0.7546771E-02  0.1478223E+00
          2   -1    0    0  503    0  0.00000000000E+00  0.00000000000E+00  0.84199882293E+03  0.84199882293E+03  0.00000000000E+00 0. -1.
         -2   -1    0    0    0  501 -0.00000000000E+00 -0.00000000000E+00 -0.24960708943E+01  0.24960708943E+01  0.00000000000E+00 0.  1.
         21    1    1    2  502  501  0.18528467195E+02  0.15531641408E+02  0.60996766625E+02  0.65613577254E+02  0.00000000000E+00 0.  1.
         21    1    1    2  503  502 -0.18528467195E+02 -0.15531641408E+02  0.77850598541E+03  0.77888131657E+03  0.00000000000E+00 0. -1.
</event>
<event>
 4    1  0.5591986E+002  0.2250605E+02  0.7546771E-02  0.1498796E+00
          2   -1    0    0  502    0  0.00000000000E+00  0.00000000000E+00  0.31110355213E+02  0.31110355213E+02  0.00000000000E+00 0. -1.
         -2   -1    0    0    0  501 -0.00000000000E+00 -0.00000000000E+00 -0.36308813537E+02  0.36308813537E+02  0.00000000000E+00 0.  1.
         21    1    1    2  502  503 -0.25077908855E+01  0.22365892301E+02  0.22436433960E+02  0.31779171203E+02  0.00000000000E+00 0. -1.
         21    1    1    2  503  501  0.25077908855E+01 -0.22365892301E+02 -0.27634892284E+02  0.35639997546E+02  0.00000000000E+00 0.  1.
</event>
<event>
 4    1  0.5591986E+002  0.2223076E+02  0.7546771E-02  0.1502390E+00
          2   -1    0    0  503    0  0.00000000000E+00  0.00000000000E+00  0.79979849096E+03  0.79979849096E+03  0.00000000000E+00 0.  1.
         -2   -1    0    0    0  501 -0.00000000000E+00 -0.00000000000E+00 -0.15301475903E+01  0.15301475903E+01  0.00000000000E+00 0. -1.
         21    1    1    2  502  501 -0.21163877530E+02 -0.68042038234E+01  0.89772167593E+02  0.92483776827E+02  0.00000000000E+00 0. -1.
         21    1    1    2  503  502  0.21163877530E+02  0.68042038234E+01  0.70849617578E+03  0.70884486172E+03  0.00000000000E+00 0.  1.
</event>
<event>
 4    1  0.5591986E+002  0.4368638E+02  0.7546771E-02  0.1328140E+00
          2   -1    0    0  503    0  0.00000000000E+00  0.00000000000E+00  0.25594903314E+03  0.25594903314E+03  0.00000000000E+00 0.  1.
         -2   -1    0    0    0  501 -0.00000000000E+00 -0.00000000000E+00 -0.12473841173E+02  0.12473841173E+02  0.00000000000E+00 0. -1.
         21    1    1    2  502  501 -0.43564452922E+02  0.32616300977E+01  0.36619174127E+02  0.57004067425E+02  0.00000000000E+00 0. -1.
         21    1    1    2  503  502  0.43564452922E+02 -0.32616300977E+01  0.20685601784E+03  0.21141880689E+03  0.00000000000E+00 0.  1.
</event>
<event>
 4    1  0.5591986E+002  0.2013078E+02  0.7546771E-02  0.1532046E+00
          2   -1    0    0  502    0  0.00000000000E+00  0.00000000000E+00  0.90319419400E+03  0.90319419400E+03  0.00000000000E+00 0. -1.
         -2   -1    0    0    0  501 -0.00000000000E+00 -0.00000000000E+00 -0.45848756938E+00  0.45848756938E+00  0.00000000000E+00 0.  1.
         21    1    1    2  502  503 -0.89305297959E+01  0.18041447481E+02  0.51743939566E+03  0.51783083760E+03  0.00000000000E+00 0. -1.
         21    1    1    2  503  501  0.89305297959E+01 -0.18041447481E+02  0.38529631077E+03  0.38582184397E+03  0.00000000000E+00 0.  1.
</event>
<event>
 4    1  0.5591986E+002  0.2535092E+02  0.7546771E-02  0.1464916E+00
          2   -1    0    0  503    0  0.00000000000E+00  0.00000000000E+00  0.10243767169E+04  0.10243767169E+04  0.00000000000E+00 0.  1.
         -2   -1    0    0    0  501 -0.00000000000E+00 -0.00000000000E+00 -0.19206147782E+01  0.19206147782E+01  0.00000000000E+00 0. -1.
         21    1    1    2  502  501 -0.18382107187E+02 -0.17457588658E+02  0.90150152567E+02  0.93646779305E+02  0.00000000000E+00 0. -1.
         21    1    1    2  503  502  0.18382107187E+02  0.17457588658E+02  0.93230594954E+03  0.93265055235E+03  0.00000000000E+00 0.  1.
</event>
<event>
 4    1  0.5591986E+002  0.2378485E+02  0.7546771E-02  0.1482871E+00
          2   -1    0    0  503    0  0.00000000000E+00  0.00000000000E+00  0.37866314765E+03  0.37866314765E+03  0.00000000000E+00 0.  1.
         -2   -1    0    0    0  501 -0.00000000000E+00 -0.00000000000E+00 -0.14942228490E+01  0.14942228490E+01  0.00000000000E+00 0. -1.
         21    1    1    2  502  501 -0.38382093967E+01  0.23473121859E+02  0.18621630270E+03  0.18772914183E+03  0.00000000000E+00 0. -1.
         21    1    1    2  503  502  0.38382093967E+01 -0.23473121859E+02  0.19095262210E+03  0.19242822866E+03  0.00000000000E+00 0.  1.
</event>
<event>
 4    1  0.5591986E+002  0.2050541E+02  0.7546771E-02  0.1526445E+00
          2   -1    0    0  503    0  0.00000000000E+00  0.00000000000E+00  0.56810864047E+03  0.56810864047E+03  0.00000000000E+00 0. -1.
         -2   -1    0    0    0  501 -0.00000000000E+00 -0.00000000000E+00 -0.77519879041E+00  0.77519879041E+00  0.00000000000E+00 0.  1.
         21    1    1    2  502  501  0.18213285973E+02 -0.94206225720E+01  0.22316428329E+03  0.22410437133E+03  0.00000000000E+00 0. -1.
         21    1    1    2  503  502 -0.18213285973E+02  0.94206225720E+01  0.34416915839E+03  0.34477946793E+03  0.00000000000E+00 0.  1.
</event>
<event>
 4    1  0.5591986E+002  0.2120992E+02  0.7546771E-02  0.1516289E+00
          2   -1    0    0  502    0  0.00000000000E+00  0.00000000000E+00  0.20171605076E+03  0.20171605076E+03  0.00000000000E+00 0. -1.
         -2   -1    0    0    0  501 -0.00000000000E+00 -0.00000000000E+00 -0.11874974377E+02  0.11874974377E+02  0.00000000000E+00 0.  1.
         21    1    1    2  502  503 -0.21161260736E+02 -0.14358120625E+01  0.19116670447E+03  0.19233972395E+03  0.00000000000E+00 0. -1.
         21    1    1    2  503  501  0.21161260736E+02  0.14358120625E+01 -0.13256280877E+01  0.21251301184E+02  0.00000000000E+00 0.  1.
</event>
<event>
 4    1  0.5591986E+002  0.2430481E+02  0.7546771E-02  0.1476733E+00
          2   -1    0    0  502    0  0.00000000000E+00  0.00000000000E+00  0.21373144050E+02  0.21373144050E+02  0.00000000000E+00 0.  1.
         -2   -1    0    0    0  501 -0.00000000000E+00 -0.00000000000E+00 -0.38670022214E+02  0.38670022214E+02  0.00000000000E+00 0. -1.
         21    1    1    2  502  503  0.50062671337E+01  0.23783632735E+02  0.73863046976E+01  0.25402389528E+02  0.00000000000E+00 0.  1.
         21    1    1    2  503  501 -0.50062671337E+01 -0.23783632735E+02 -0.24683182862E+02  0.34640776736E+02  0.00000000000E+00 0. -1.
</event>
<event>
 4    1  0.5591986E+002  0.2204973E+02  0.7546771E-02  0.1504788E+00
          2   -1    0    0  503    0  0.00000000000E+00  0.00000000000E+00  0.14944713219E+04  0.14944713219E+04  0.00000000000E+00 0.  1.
         -2   -1    0    0    0  501 -0.00000000000E+00 -0.00000000000E+00 -0.22792230601E+01  0.22792230601E+01  0.00000000000E+00 0. -1.
         21    1    1    2  502  501 -0.15664474747E+02 -0.15518204702E+02  0.53186018022E+02  0.57575541329E+02  0.00000000000E+00 0. -1.
         21    1    1    2  503  502  0.15664474747E+02  0.15518204702E+02  0.14390060809E+04  0.14391750037E+04  0.00000000000E+00 0.  1.
</event>
<event>
 4    1  0.5591986E+002  0.2687241E+02  0.7546771E-02  0.1448894E+00
          2   -1    0    0  502    0  0.00000000000E+00  0.00000000000E+00  0.15085432282E+03  0.15085432282E+03  0.00000000000E+00 0. -1.
         -2   -1    0    0    0  501 -0.00000000000E+00 -0.00000000000E+00 -0.47874144574E+01  0.47874144574E+01  0.00000000000E+00 0.  1.
         21    1    1    2  502  503  0.13157552611E+02 -0.23430856701E+02  0.73831397938E+02  0.78569724181E+02  0.00000000000E+00 0. -1.
         21    1    1    2  503  501 -0.13157552611E+02  0.23430856701E+02  0.72235510429E+02  0.77072013101E+02  0.00000000000E+00 0.  1.
</event>
<event>
 4    1  0.5591986E+002  0.2249945E+02  0.7546771E-02  0.1498881E+00
          2   -1    0    0  502    0  0.00000000000E+00  0.00000000000E+00  0.19283923546E+04  0.19283923546E+04  0.00000000000E+00 0.  1.
         -2   -1    0    0    0  501 -0.00000000000E+00 -0.00000000000E+00 -0.43308199567E+00  0.43308199567E+00  0.00000000000E+00 0. -1.
         21    1    1    2  502  503  0.54833654524E+01  0.21821043319E+02  0.15692226449E+04  0.15693839347E+04  0.00000000000E+00 0.  1.
         21    1    1    2  503  501 -0.54833654524E+01 -0.21821043319E+02  0.35873662774E+03  0.35944150193E+03  0.00000000000E+00 0. -1.
</event>
<event>
 4    1  0.5591986E+002  0.4222087E+02  0.7546771E-02  0.1335941E+00
          2   -1    0    0  503    0  0.00000000000E+00  0.00000000000E+00  0.22997090066E+03  0.22997090066E+03  0.00000000000E+00 0.  1.
         -2   -1    0    0    0  501 -0.00000000000E+00 -0.00000000000E+00 -0.11237868884E+02  0.11237868884E+02  0.00000000000E+00 0. -1.
         21    1    1    2  502  501  0.41802594328E+02 -0.59282923184E+01  0.42190749176E+02  0.59688029439E+02  0.00000000000E+00 0.  1.
         21    1    1    2  503  502 -0.41802594328E+02  0.59282923184E+01  0.17654228260E+03  0.18152074011E+03  0.00000000000E+00 0. -1.
</event>
<event>
 4    1  0.5591986E+002  0.4861235E+02  0.7546771E-02  0.1304304E+00
          2   -1    0    0  503    0  0.00000000000E+00  0.00000000000E+00  0.32357166836E+03  0.32357166836E+03  0.00000000000E+00 0.  1.
         -2   -1    0    0    0  501 -0.00000000000E+00 -0.00000000000E+00 -0.12195933924E+03  0.12195933924E+03  0.00000000000E+00 0. -1.
         21    1    1    2  502  501 -0.44709451489E+02  0.19084701766E+02 -0.11518637903E+03  0.12502424888E+03  0.00000000000E+00 0. -1.
         21    1    1    2  503  502  0.44709451489E+02 -0.19084701766E+02  0.31679870816E+03  0.32050675872E+03  0.00000000000E+00 0.  1.
</event>
<event>
 4    1  0.5591986E+002  0.2255300E+02  0.7546771E-02  0.1498189E+00
          2   -1    0    0  502    0  0.00000000000E+00  0.00000000000E+00  0.36752434327E+02  0.36752434327E+02  0.00000000000E+00 0.  1.
         -2   -1    0    0    0  501 -0.00000000000E+00 -0.00000000000E+00 -0.15606980064E+02  0.15606980064E+02  0.00000000000E+00 0. -1.
         21    1    1    2  502  503 -0.20388191566E+02 -0.96415402916E+01  0.19382704401E+02  0.29737634143E+02  0.00000000000E+00 0.  1.
         21    1    1    2  503  501  0.20388191566E+02  0.96415402916E+01  0.17627498624E+01  0.22621780248E+02  0.00000000000E+00 0. -1.
</event>
<event>
 4    1  0.5591986E+002  0.2560393E+02  0.7546771E-02  0.1462159E+00
          2   -1    0    0  502    0  0.00000000000E+00  0.00000000000E+00  0.31982367925E+03  0.31982367925E+03  0.00000000000E+00 0.  1.
         -2   -1    0    0    0  501 -0.00000000000E+00 -0.00000000000E+00 -0.30488118834E+01  0.30488118834E+01  0.00000000000E+00 0. -1.
         21    1    1    2  502  503 -0.85111190493E+01  0.24147925657E+02  0.25079977556E+03  0.25210332977E+03  0.00000000000E+00 0.  1.
         21    1    1    2  503  501  0.85111190493E+01 -0.24147925657E+02  0.65975091813E+02  0.70769161368E+02  0.00000000000E+00 0. -1.
</event>
<event>
 4    1  0.5591986E+002  0.2087325E+02  0.7546771E-02  0.1521082E+00
          2   -1    0    0  503    0  0.00000000000E+00  0.00000000000E+00  0.10342074329E+04  0.10342074329E+04  0.00000000000E+00 0. -1.
         -2   -1    0    0    0  501 -0.00000000000E+00 -0.00000000000E+00 -0.42297912893E+00  0.42297912893E+00  0.00000000000E+00 0.  1.
         21    1    1    2  502  501  0.20395191418E+02  0.44416828651E+01  0.54966603631E+03  0.55006221817E+03  0.00000000000E+00 0.  1.
         21    1    1    2  503  502 -0.20395191418E+02 -0.44416828651E+01  0.48411841742E+03  0.48456819382E+03  0.00000000000E+00 0. -1.
</event>
<event>
 4    1  0.5591986E+002  0.2510729E+02  0.7546771E-02  0.1467607E+00
          2   -1    0    0  503    0  0.00000000000E+00  0.00000000000E+00  0.60537034311E+03  0.60537034311E+03  0.00000000000E+00 0.  1.
         -2   -1    0    0    0  501 -0.00000000000E+00 -0.00000000000E+00 -0.88128045051E+01  0.88128045051E+01  0.00000000000E+00 0. -1.
         21    1    1    2  502  501 -0.24686910670E+02  0.45752191915E+01  0.99000580986E+01  0.26988652049E+02  0.00000000000E+00 0. -1.
         21    1    1    2  503  502  0.24686910670E+02 -0.45752191915E+01  0.58665748051E+03  0.58719449557E+03  0.00000000000E+00 0.  1.
</event>
<event>
 4    1  0.5591986E+002  0.2205625E+02  0.7546771E-02  0.1504701E+00
          2   -1    0    0  503    0  0.00000000000E+00  0.00000000000E+00  0.16429640838E+04  0.16429640838E+04  0.00000000000E+00 0.  1.
         -2   -1    0    0    0  501 -0.00000000000E+00 -0.00000000000E+00 -0.79911553874E+00  0.79911553874E+00  0.00000000000E+00 0. -1.
         21    1    1    2  502  501 -0.21171425788E+02  0.61845795489E+01  0.16900972724E+03  0.17044285317E+03  0.00000000000E+00 0. -1.
         21    1    1    2  503  502  0.21171425788E+02 -0.61845795489E+01  0.14731552410E+04  0.14733203461E+04  0.00000000000E+00 0.  1.
</event>
<event>
 4    1  0.5591986E+002  0.2337773E+02  0.7546771E-02  0.1487809E+00
          2   -1    0    0  503    0  0.00000000000E+00  0.00000000000E+00  0.11912477810E+02  0.11912477810E+02  0.00000000000E+00 0. -1.
         -2   -1    0    0    0  501 -0.00000000000E+00 -0.00000000000E+00 -0.76081476061E+02  0.76081476061E+02  0.00000000000E+00 0.  1.
         21    1    1    2  502  501 -0.22085093196E+02  0.76659534847E+01 -0.59805782237E+02  0.64212535951E+02  0.00000000000E+00 0.  1.
         21    1    1    2  503  502  0.22085093196E+02 -0.76659534847E+01 -0.43632160140E+01  0.23781417920E+02  0.00000000000E+00 0. -1.
</event>
<event>
 4    1  0.5591986E+002  0.2133717E+02  0.7546771E-02  0.1514505E+00
          2   -1    0    0  502    0  0.00000000000E+00  0.00000000000E+00  0.16647748853E+04  0.16647748853E+04  0.00000000000E+00 0. -1.
         -2   -1    0    0    0  501 -0.00000000000E+00 -0.00000000000E+00 -0.10079852019E+01  0.10079852019E+01  0.00000000000E+00 0.  1.
         21    1    1    2  502  503  0.17324887759E+02  0.12454841646E+02  0.15428679692E+04  0.15430155039E+04  0.00000000000E+00 0. -1.
         21    1    1    2  503  501 -0.17324887759E+02 -0.12454841646E+02  0.12089893094E+03  0.12276736667E+03  0.00000000000E+00 0.  1.
</event>
<event>
 4    1  0.5591986E+002  0.2612596E+02  0.7546771E-02  0.1456591E+00
          2   -1    0    0  503    0  0.00000000000E+00  0.00000000000E+00  0.74544331524E+03  0.74544331524E+03  0.00000000000E+00 0. -1.
         -2   -1    0    0    0  501 -0.00000000000E+00 -0.00000000000E+00 -0.30774354029E+01  0.30774354029E+01  0.00000000000E+00 0.  1.
         21    1    1    2  502  501 -0.27456134348E+01  0.25981290424E+02  0.57503845709E+02  0.63160574067E+02  0.00000000000E+00 0.  1.
         21    1    1    2  503  502  0.27456134348E+01 -0.25981290424E+02  0.68486203412E+03  0.68536017657E+03  0.00000000000E+00 0. -1.
</event>
<event>
 4    1  0.5591986E+002  0.2359301E+02  0.7546771E-02  0.1485183E+00
          2   -1    0    0  503    0  0.00000000000E+00  0.00000000000E+00  0.11019970191E+04  0.11019970191E+04  0.00000000000E+00 0.  1.
         -2   -1    0    0    0  501 -0.00000000000E+00 -0.00000000000E+00 -0.11954118078E+01  0.11954118078E+01  0.00000000000E+00 0. -1.
         21    1    1    2  502  501  0.21534167579E+02  0.96389735897E+01  0.13123882855E+03  0.13334264249E+03  0.00000000000E+00 0. -1.
         21    1    1    2  503  502 -0.21534167579E+02 -0.96389735897E+01  0.96956277876E+03  0.96984978845E+03  0.00000000000E+00 0.  1.
</event>
<event>
 4    1  0.5591986E+002  0.2049758E+02  0.7546771E-02  0.1526560E+00
          2   -1    0    0  502    0  0.00000000000E+00  0.00000000000E+00  0.13771050062E+03  0.13771050062E+03  0.00000000000E+00 0.  1.
         -2   -1    0    0    0  501 -0.00000000000E+00 -0.00000000000E+00 -0.37856915252E+01  0.37856915252E+01  0.00000000000E+00 0. -1.
         21    1    1    2  502  503  0.86091367888E+01  0.18601972516E+02  0.98130014647E+02  0.10024794458E+03  0.00000000000E+00 0.  1.
         21    1    1    2  503  501 -0.86091367888E+01 -0.18601972516E+02  0.35794794450E+02  0.41248247568E+02  0.00000000000E+00 0. -1.
</event>
<event>
 4    1  0.5591986E+002  0.3013777E+02  0.7546771E-02  0.1418403E+00
          2   -1    0    0  502    0  0.00000000000E+00  0.00000000000E+00  0.52376772243E+03  0.52376772243E+03  0.00000000000E+00 0.  1.
         -2   -1    0    0    0  501 -0.00000000000E+00 -0.00000000000E+00 -0.17361225278E+01  0.17361225278E+01  0.00000000000E+00 0. -1.
         21    1    1    2  502  503  0.18826417109E+02 -0.23534042078E+02  0.25213061682E+03  0.25392544783E+03  0.00000000000E+00 0.  1.
         21    1    1    2  503  501 -0.18826417109E+02  0.23534042078E+02  0.26990098308E+03  0.27157839713E+03  0.00000000000E+00 0. -1.
</event>
<event>
 4    1  0.5591986E+002  0.2521291E+02  0.7546771E-02  0.1466436E+00
          2   -1    0    0  502    0  0.00000000000E+00  0.00000000000E+00  0.39224542422E+03  0.39224542422E+03  0.00000000000E+00 0.  1.
         -2   -1    0    0    0  501 -0.00000000000E+00 -0.00000000000E+00 -0.68575768818E+01  0.68575768818E+01  0.00000000000E+00 0. -1.
         21    1    1    2  502  503 -0.90969651875E+01 -0.23514593879E+02  0.36707850554E+03  0.36794336539E+03  0.00000000000E+00 0.  1.
         21    1    1    2  503  501  0.90969651875E+01  0.23514593879E+02  0.18309341796E+02  0.31159635715E+02  0.00000000000E+00 0. -1.
</event>
<event>
 4    1  0.5591986E+002  0.2766548E+02  0.7546771E-02  0.1441035E+00
          2   -1    0    0  502    0  0.00000000000E+00  0.00000000000E+00  0.67604144462E+02  0.67604144462E+02  0.00000000000E+00 0. -1.
         -2   -1    0    0    0  501 -0.00000000000E+00 -0.00000000000E+00 -0.14040224135E+02  0.14040224135E+02  0.00000000000E+00 0.  1.
         21    1    1    2  502  503  0.35804397888E+00  0.27663159746E+02  0.44745578561E+02  0.52607465282E+02  0.00000000000E+00 0. -1.
         21    1    1    2  503  501 -0.35804397888E+00 -0.27663159746E+02  0.88183417660E+01  0.29036903315E+02  0.00000000000E+00 0.  1.
</event>
<event>
 4    1  0.5591986E+002  0.2052153E+02  0.7546771E-02  0.1526207E+00
          2   -1    0    0  502    0  0.00000000000E+00  0.00000000000E+00  0.18711648114E+02  0.18711648114E+02  0.00000000000E+00 0.  1.
         -2   -1    0    0    0  501 -0.00000000000E+00 -0.00000000000E+00 -0.33179195363E+02  0.33179195363E+02  0.00000000000E+00 0. -1.
         21    1    1    2  502  503  0.10366609500E+02  0.17710637800E+02  0.74813978684E+01  0.21842724141E+02  0.00000000000E+00 0.  1.
         21    1    1    2  503  501 -0.10366609500E+02 -0.17710637800E+02 -0.21948945118E+02  0.30048119336E+02  0.00000000000E+00 0. -1.
</event>
<event>
 4    1  0.5591986E+002  0.5022503E+02  0.7546771E-02  0.1297200E+00
          2   -1    0    0  502    0  0.00000000000E+00  0.00000000000E+00  0.28566853812E+03  0.28566853812E+03  0.00000000000E+00 0.  1.
         -2   -1    0    0    0  501 -0.00000000000E+00 -0.00000000000E+00 -0.29229888608E+02  0.29229888608E+02  0.00000000000E+00 0. -1.
         21    1    1    2  502  503 -0.22883996576E+02 -0.44708796957E+02  0.25975303275E+03  0.26456415450E+03  0.00000000000E+00 0.  1.
         21    1    1    2  503  501  0.22883996576E+02  0.44708796957E+02 -0.33143832347E+01  0.50334272229E+02  0.00000000000E+00 0. -1.
</event>
<event>
 4    1  0.5591986E+002  0.2243554E+02  0.7546771E-02  0.1499710E+00
          2   -1    0    0  502    0  0.00000000000E+00  0.00000000000E+00  0.10112221282E+03  0.10112221282E+03  0.00000000000E+00 0.  1.
         -2   -1    0    0    0  501 -0.00000000000E+00 -0.00000000000E+00 -0.76177870286E+01  0.76177870286E+01  0.00000000000E+00 0. -1.
         21    1    1    2  502  503 -0.20809125248E+02 -0.83865350828E+01  0.78760023743E+02  0.81893192661E+02  0.00000000000E+00 0.  1.
         21    1    1    2  503  501  0.20809125248E+02  0.83865350828E+01  0.14744402045E+02  0.26846807184E+02  0.00000000000E+00 0. -1.
</event>
<event>
 4    1  0.5591986E+002  0.3174233E+02  0.7546771E-02  0.1405036E+00
          2   -1    0    0  502    0  0.00000000000E+00  0.00000000000E+00  0.75762276239E+03  0.75762276239E+03  0.00000000000E+00 0. -1.
         -2   -1    0    0    0  501 -0.00000000000E+00 -0.00000000000E+00 -0.20212426866E+01  0.20212426866E+01  0.00000000000E+00 0.  1.
         21    1    1    2  502  503 -0.18784787359E+02  0.25587247978E+02  0.59993330473E+03  0.60077245744E+03  0.00000000000E+00 0. -1.
         21    1    1    2  503  501  0.18784787359E+02 -0.25587247978E+02  0.15566821498E+03  0.15887154764E+03  0.00000000000E+00 0.  1.
</event>
<event>
 4    1  0.5591986E+002  0.2976299E+02  0.7546771E-02  0.1421667E+00
          2   -1    0    0  502    0  0.00000000000E+00  0.00000000000E+00  0.72831115315E+01  0.72831115315E+01  0.00000000000E+00 0.  1.
         -2   -1    0    0    0  501 -0.00000000000E+00 -0.00000000000E+00 -0.18990776481E+03  0.18990776481E+03  0.00000000000E+00 0. -1.
         21    1    1    2  502  503  0.29404032790E+02  0.46085255349E+01 -0.15043160537E+03  0.15334765582E+03  0.00000000000E+00 0. -1.
         21    1    1    2  503  501 -0.29404032790E+02 -0.46085255349E+01 -0.32193047910E+02  0.43843220521E+02  0.00000000000E+00 0.  1.
</event>
<event>
 4    1  0.5591986E+002  0.3424823E+02  0.7546771E-02  0.1385927E+00
          2   -1    0    0  503    0  0.00000000000E+00  0.00000000000E+00  0.91183944197E+02  0.91183944197E+02  0.00000000000E+00 0. -1.
         -2   -1    0    0    0  501 -0.00000000000E+00 -0.00000000000E+00 -0.27208608677E+02  0.27208608677E+02  0.00000000000E+00 0.  1.
         21    1    1    2  502  501  0.14943053810E+02  0.30816328447E+02 -0.10995038870E+02  0.35969874004E+02  0.00000000000E+00 0.  1.
         21    1    1    2  503  502 -0.14943053810E+02 -0.30816328447E+02  0.74970374390E+02  0.82422678871E+02  0.00000000000E+00 0. -1.
</event>
<event>
 4    1  0.5591986E+002  0.2081569E+02  0.7546771E-02  0.1521913E+00
          2   -1    0    0  502    0  0.00000000000E+00  0.00000000000E+00  0.71343478829E+03  0.71343478829E+03  0.00000000000E+00 0. -1.
         -2   -1    0    0    0  501 -0.00000000000E+00 -0.00000000000E+00 -0.71095282346E+00  0.71095282346E+00  0.00000000000E+00 0.  1.
         21    1    1    2  502  503  0.20315773154E+02 -0.45345672304E+01  0.49268097367E+03  0.49312050733E+03  0.00000000000E+00 0. -1.
         21    1    1    2  503  501 -0.20315773154E+02  0.45345672304E+01  0.22004286181E+03  0.22102523379E+03  0.00000000000E+00 0.  1.
</event>
<event>
 4    1  0.5591986E+002  0.2357632E+02  0.7546771E-02  0.1485385E+00
          2   -1    0    0  502    0  0.00000000000E+00  0.00000000000E+00  0.16037305245E+04  0.16037305245E+04  0.00000000000E+00 0.  1.
         -2   -1    0    0    0  501 -0.00000000000E+00 -0.00000000000E+00 -0.70536336309E+01  0.70536336309E+01  0.00000000000E+00 0. -1.
         21    1    1    2  502  503  0.82587836462E+01 -0.22082470043E+02  0.15836940528E+04  0.15838695325E+04  0.00000000000E+00 0.  1.
         21    1    1    2  503  501 -0.82587836462E+01  0.22082470043E+02  0.12982838070E+02  0.26914625669E+02  0.00000000000E+00 0. -1.
</event>
<event>
 4    1  0.5591986E+002  0.6873135E+02  0.7546771E-02  0.1232742E+00
          2   -1    0    0  502    0  0.00000000000E+00  0.00000000000E+00  0.21307105985E+04  0.21307105985E+04  0.00000000000E+00 0. -1.
         -2   -1    0    0    0  501 -0.00000000000E+00 -0.00000000000E+00 -0.46906104027E+01  0.46906104027E+01  0.00000000000E+00 0.  1.
         21    1    1    2  502  503 -0.56791427271E+02 -0.38713468428E+02  0.18383490520E+04  0.18396334515E+04  0.00000000000E+00 0. -1.
         21    1    1    2  503  501  0.56791427271E+02  0.38713468428E+02  0.28767093604E+03  0.29576775735E+03  0.00000000000E+00 0.  1.
</event>
<event>
 4    1  0.5591986E+002  0.2224742E+02  0.7546771E-02  0.1502171E+00
          2   -1    0    0  502    0  0.00000000000E+00  0.00000000000E+00  0.92392690741E+03  0.92392690741E+03  0.00000000000E+00 0. -1.
         -2   -1    0    0    0  501 -0.00000000000E+00 -0.00000000000E+00 -0.62915086001E+00  0.62915086001E+00  0.00000000000E+00 0.  1.
         21    1    1    2  502  503 -0.19217043894E+02 -0.11209494024E+02  0.63981198972E+03  0.64019866426E+03  0.00000000000E+00 0. -1.
         21    1    1    2  503  501  0.19217043894E+02  0.11209494024E+02  0.28348576683E+03  0.28435739401E+03  0.00000000000E+00 0.  1.
</event>
<event>
 4    1  0.5591986E+002  0.2966629E+02  0.7546771E-02  0.1422519E+00
          2   -1    0    0  503    0  0.00000000000E+00  0.00000000000E+00  0.37481638059E+01  0.37481638059E+01  0.00000000000E+00 0. -1.
         -2   -1    0    0    0  501 -0.00000000000E+00 -0.00000000000E+00 -0.23486260505E+03  0.23486260505E+03  0.00000000000E+00 0.  1.
         21    1    1    2  502  501  0.23188614661E+02  0.18503434617E+02 -0.11741987137E+03  0.12110951711E+03  0.00000000000E+00 0. -1.
         21    1    1    2  503  502 -0.23188614661E+02 -0.18503434617E+02 -0.11369456987E+03  0.11750125174E+03  0.00000000000E+00 0.  1.
</event>
<event>
 4    1  0.5591986E+002  0.3067435E+02  0.7546771E-02  0.1413825E+00
          2   -1    0    0  502    0  0.00000000000E+00  0.00000000000E+00  0.36793935917E+03  0.36793935917E+03  0.00000000000E+00 0. -1.
         -2   -1    0    0    0  501 -0.00000000000E+00 -0.00000000000E+00 -0.30098604823E+01  0.30098604823E+01  0.00000000000E+00 0.  1.
         21    1    1    2  502  503 -0.11285894387E+02  0.28522695405E+02  0.25438813892E+03  0.25623083497E+03  0.00000000000E+00 0. -1.
         21    1    1    2  503  501  0.11285894387E+02 -0.28522695405E+02  0.11054135977E+03  0.11471838468E+03  0.00000000000E+00 0.  1.
</event>
<event>
 4    1  0.5591986E+002  0.2068311E+02  0.7546771E-02  0.1523838E+00
          2   -1    0    0  502    0  0.00000000000E+00  0.00000000000E+00  0.43961538105E+03  0.43961538105E+03  0.00000000000E+00 0.  1.
         -2   -1    0    0    0  501 -0.00000000000E+00 -0.00000000000E+00 -0.13797090661E+01  0.13797090661E+01  0.00000000000E+00 0. -1.
         21    1    1    2  502  503 -0.53066506582E+00  0.20676304949E+02  0.33881855232E+03  0.33944926365E+03  0.00000000000E+00 0.  1.
         21    1    1    2  503  501  0.53066506582E+00 -0.20676304949E+02  0.99417119660E+02  0.10154582647E+03  0.00000000000E+00 0. -1.
</event>
<event>
 4    1  0.5591986E+002  0.3624099E+02  0.7546771E-02  0.1372042E+00
          2   -1    0    0  503    0  0.00000000000E+00  0.00000000000E+00  0.22763990265E+03  0.22763990265E+03  0.00000000000E+00 0. -1.
         -2   -1    0    0    0  501 -0.00000000000E+00 -0.00000000000E+00 -0.72094015691E+01  0.72094015691E+01  0.00000000000E+00 0.  1.
         21    1    1    2  502  501 -0.46005057208E+01  0.35947806773E+02  0.57740681296E+02  0.68171810458E+02  0.00000000000E+00 0.  1.
         21    1    1    2  503  502  0.46005057208E+01 -0.35947806773E+02  0.16268981978E+03  0.16667749376E+03  0.00000000000E+00 0. -1.
</event>
<event>
 4    1  0.5591986E+002  0.2258551E+02  0.7546771E-02  0.1497770E+00
          2   -1    0    0  503    0  0.00000000000E+00  0.00000000000E+00  0.10181797200E+02  0.10181797200E+02  0.00000000000E+00 0.  1.
         -2   -1    0    0    0  501 -0.00000000000E+00 -0.00000000000E+00 -0.18924201906E+03  0.18924201906E+03  0.00000000000E+00 0. -1.
         21    1    1    2  502  501 -0.22045640626E+02  0.49086594067E+01 -0.17503044769E+03  0.17648162178E+03  0.00000000000E+00 0. -1.
         21    1    1    2  503  502  0.22045640626E+02 -0.49086594067E+01 -0.40297741724E+01  0.22942194482E+02  0.00000000000E+00 0.  1.
</event>
<event>
 4    1  0.5591986E+002  0.2167209E+02  0.7546771E-02  0.1509882E+00
          2   -1    0    0  503    0  0.00000000000E+00  0.00000000000E+00  0.13882036060E+02  0.13882036060E+02  0.00000000000E+00 0.  1.
         -2   -1    0    0    0  501 -0.00000000000E+00 -0.00000000000E+00 -0.34134737987E+02  0.34134737987E+02  0.00000000000E+00 0. -1.
         21    1    1    2  502  501 -0.16233315140E+02 -0.14358232481E+02 -0.78713745335E+01  0.23057274285E+02  0.00000000000E+00 0. -1.
         21    1    1    2  503  502  0.16233315140E+02  0.14358232481E+02 -0.12381327393E+02  0.24959499763E+02  0.00000000000E+00 0.  1.
</event>
<event>
 4    1  0.5591986E+002  0.2122937E+02  0.7546771E-02  0.1516015E+00
          2   -1    0    0  502    0  0.00000000000E+00  0.00000000000E+00  0.73382820186E+02  0.73382820186E+02  0.00000000000E+00 0. -1.
         -2   -1    0    0    0  501 -0.00000000000E+00 -0.00000000000E+00 -0.11054654421E+03  0.11054654421E+03  0.00000000000E+00 0.  1.
         21    1    1    2  502  503  0.13830743772E+01 -0.21184271323E+02  0.70791700480E+02  0.73906367135E+02  0.00000000000E+00 0. -1.
         21    1    1    2  503  501 -0.13830743772E+01  0.21184271323E+02 -0.10795542451E+03  0.11002299726E+03  0.00000000000E+00 0.  1.
</event>
<event>
 4    1  0.5591986E+002  0.2003689E+02  0.7546771E-02  0.1533473E+00
          2   -1    0    0  502    0  0.00000000000E+00  0.00000000000E+00  0.16756278884E+04  0.16756278884E+04  0.00000000000E+00 0.  1.
         -2   -1    0    0    0  501 -0.00000000000E+00 -0.00000000000E+00 -0.41566708449E+00  0.41566708449E+00  0.00000000000E+00 0. -1.
         21    1    1    2  502  503  0.45930063935E+01 -0.19503360904E+02  0.13830175700E+04  0.13831627076E+04  0.00000000000E+00 0.  1.
         21    1    1    2  503  501 -0.45930063935E+01  0.19503360904E+02  0.29219465130E+03  0.29288084786E+03  0.00000000000E+00 0. -1.
</event>
<event>
 4    1  0.5591986E+002  0.2829530E+02  0.7546771E-02  0.1435013E+00
          2   -1    0    0  503    0  0.00000000000E+00  0.00000000000E+00  0.74537449740E+02  0.74537449740E+02  0.00000000000E+00 0.  1.
         -2   -1    0    0    0  501 -0.00000000000E+00 -0.00000000000E+00 -0.12265994803E+02  0.12265994803E+02  0.00000000000E+00 0. -1.
         21    1    1    2  502  501 -0.24228842063E+02 -0.14614626169E+02  0.15833430258E+02  0.32424089803E+02  0.00000000000E+00 0. -1.
         21    1    1    2  503  502  0.24228842063E+02  0.14614626169E+02  0.46438024680E+02  0.54379354740E+02  0.00000000000E+00 0.  1.
</event>
<event>
 4    1  0.5591986E+002  0.2543821E+02  0.7546771E-02  0.1463960E+00
          2   -1    0    0  503    0  0.00000000000E+00  0.00000000000E+00  0.19262787848E+04  0.19262787848E+04  0.00000000000E+00 0.  1.
         -2   -1    0    0    0  501 -0.00000000000E+00 -0.00000000000E+00 -0.13634352107E+01  0.13634352107E+01  0.00000000000E+00 0. -1.
         21    1    1    2  502  501  0.62074043072E+01 -0.24669229016E+02  0.12575659088E+03  0.12830363548E+03  0.00000000000E+00 0. -1.
         21    1    1    2  503  502 -0.62074043072E+01  0.24669229016E+02  0.17991587587E+04  0.17993385846E+04  0.00000000000E+00 0.  1.
</event>
<event>
 4    1  0.5591986E+002  0.3610927E+02  0.7546771E-02  0.1372928E+00
          2   -1    0    0  502    0  0.00000000000E+00  0.00000000000E+00  0.26822084014E+03  0.26822084014E+03  0.00000000000E+00 0.  1.
         -2   -1    0    0    0  501 -0.00000000000E+00 -0.00000000000E+00 -0.67224928693E+01  0.67224928693E+01  0.00000000000E+00 0. -1.
         21    1    1    2  502  503 -0.33171170258E+02 -0.14267193373E+02  0.20308501786E+03  0.20627022040E+03  0.00000000000E+00 0.  1.
         21    1    1    2  503  501  0.33171170258E+02  0.14267193373E+02  0.58413329403E+02  0.68673112606E+02  0.00000000000E+00 0. -1.
</event>
<event>
 4    1  0.5591986E+002  0.2485536E+02  0.7546771E-02  0.1470428E+00
          2   -1    0    0  503    0  0.00000000000E+00  0.00000000000E+00  0.17115587712E+02  0.17115587712E+02  0.00000000000E+00 0.  1.
         -2   -1    0    0    0  501 -0.00000000000E+00 -0.00000000000E+00 -0.46762438487E+02  0.46762438487E+02  0.00000000000E+00 0. -1.
         21    1    1    2  502  501  0.24120192584E+02 -0.60004295214E+01  0.43117944529E+00  0.24859098143E+02  0.00000000000E+00 0.  1.
         21    1    1    2  503  502 -0.24120192584E+02  0.60004295214E+01 -0.30078030220E+02  0.39018928057E+02  0.00000000000E+00 0. -1.
</event>
<event>
 4    1  0.5591986E+002  0.2451129E+02  0.7546771E-02  0.1474345E+00
          2   -1    0    0  502    0  0.00000000000E+00  0.00000000000E+00  0.16672753873E+02  0.16672753873E+02  0.00000000000E+00 0. -1.
         -2   -1    0    0    0  501 -0.00000000000E+00 -0.00000000000E+00 -0.11194279677E+03  0.11194279677E+03  0.00000000000E+00 0.  1.
         21    1    1    2  502  503  0.20448393259E+02  0.13515427804E+02  0.53201586799E+01  0.25082018738E+02  0.00000000000E+00 0. -1.
         21    1    1    2  503  501 -0.20448393259E+02 -0.13515427804E+02 -0.10059020158E+03  0.10353353191E+03  0.00000000000E+00 0.  1.
</event>
<event>
 4    1  0.5591986E+002  0.3185223E+02  0.7546771E-02  0.1404155E+00
          2   -1    0    0  503    0  0.00000000000E+00  0.00000000000E+00  0.12756459252E+04  0.12756459252E+04  0.00000000000E+00 0.  1.
         -2   -1    0    0    0  501 -0.00000000000E+00 -0.00000000000E+00 -0.12530511255E+01  0.12530511255E+01  0.00000000000E+00 0. -1.
         21    1    1    2  502  501  0.27507914666E+02  0.16058618260E+02  0.25132669598E+03  0.25333707329E+03  0.00000000000E+00 0. -1.
         21    1    1    2  503  502 -0.27507914666E+02 -0.16058618260E+02  0.10230661780E+04  0.10235619030E+04  0.00000000000E+00 0.  1.
</event>
<event>
 4    1  0.5591986E+002  0.2331094E+02  0.7546771E-02  0.1488630E+00
          2   -1    0    0  502    0  0.00000000000E+00  0.00000000000E+00  0.15222260516E+04  0.15222260516E+04  0.00000000000E+00 0.  1.
         -2   -1    0    0    0  501 -0.00000000000E+00 -0.00000000000E+00 -0.82152643331E+00  0.82152643331E+00  0.00000000000E+00 0. -1.
         21    1    1    2  502  503 -0.23287424013E+02 -0.10468447676E+01  0.13333513531E+04  0.13335551098E+04  0.00000000000E+00 0.  1.
         21    1    1    2  503  501  0.23287424013E+02  0.10468447676E+01  0.18805317204E+03  0.18949246823E+03  0.00000000000E+00 0. -1.
</event>
<event>
 4    1  0.5591986E+002  0.2660877E+02  0.7546771E-02  0.1451578E+00
          2   -1    0    0  503    0  0.00000000000E+00  0.00000000000E+00  0.40564008501E+03  0.40564008501E+03  0.00000000000E+00 0. -1.
         -2   -1    0    0    0  501 -0.00000000000E+00 -0.00000000000E+00 -0.38187508511E+01  0.38187508511E+01  0.00000000000E+00 0.  1.
         21    1    1    2  502  501 -0.11118723718E+02  0.24174382940E+02  0.50058986399E+02  0.56691524295E+02  0.00000000000E+00 0.  1.
         21    1    1    2  503  502  0.11118723718E+02 -0.24174382940E+02  0.35176234776E+03  0.35276731156E+03  0.00000000000E+00 0. -1.
</event>
<event>
 4    1  0.5591986E+002  0.2291477E+02  0.7546771E-02  0.1493571E+00
          2   -1    0    0  502    0  0.00000000000E+00  0.00000000000E+00  0.12577459594E+02  0.12577459594E+02  0.00000000000E+00 0.  1.
         -2   -1    0    0    0  501 -0.00000000000E+00 -0.00000000000E+00 -0.10639175920E+03  0.10639175920E+03  0.00000000000E+00 0. -1.
         21    1    1    2  502  503 -0.18168001094E+02  0.13964610669E+02 -0.53970488271E+00  0.22921123364E+02  0.00000000000E+00 0.  1.
         21    1    1    2  503  501  0.18168001094E+02 -0.13964610669E+02 -0.93274594722E+02  0.96048095429E+02  0.00000000000E+00 0. -1.
</event>
<event>
 4    1  0.5591986E+002  0.2946404E+02  0.7546771E-02  0.1424312E+00
          2   -1    0    0  502    0  0.00000000000E+00  0.00000000000E+00  0.11121157875E+02  0.11121157875E+02  0.00000000000E+00 0. -1.
         -2   -1    0    0    0  501 -0.00000000000E+00 -0.00000000000E+00 -0.78409319568E+02  0.78409319568E+02  0.00000000000E+00 0.  1.
         21    1    1    2  502  503 -0.21476619641E+02  0.20171377090E+02 -0.30660805802E+02  0.42523107334E+02  0.00000000000E+00 0.  1.
         21    1    1    2  503  501  0.21476619641E+02 -0.20171377090E+02 -0.36627355891E+02  0.47007370108E+02  0.00000000000E+00 0. -1.
</event>
<event>
 4    1  0.5591986E+002  0.2098631E+02  0.7546771E-02  0.1519460E+00
          2   -1    0    0  503    0  0.00000000000E+00  0.00000000000E+00  0.93282918081E+03  0.93282918081E+03  0.00000000000E+00 0. -1.
         -2   -1    0    0    0  501 -0.00000000000E+00 -0.00000000000E+00 -0.47231489845E+00  0.47231489845E+00  0.00000000000E+00 0.  1.
         21    1    1    2  502  501  0.18510093184E+02 -0.98894680973E+01  0.45717548093E+03  0.45765690806E+03  0.00000000000E+00 0.  1.
         21    1    1    2  503  502 -0.18510093184E+02  0.98894680973E+01  0.47518138498E+03  0.47564458765E+03  0.00000000000E+00 0. -1.
</event>
<event>
 4    1  0.5591986E+002  0.2294667E+02  0.7546771E-02  0.1493169E+00
          2   -1    0    0  503    0  0.00000000000E+00  0.00000000000E+00  0.33640971386E+02  0.33640971386E+02  0.00000000000E+00 0.  1.
         -2   -1    0    0    0  501 -0.00000000000E+00 -0.00000000000E+00 -0.17982127132E+02  0.17982127132E+02  0.00000000000E+00 0. -1.
         21    1    1    2  502  501  0.97471187628E+01 -0.20773626238E+02 -0.14619425596E+01  0.22993197848E+02  0.00000000000E+00 0. -1.
         21    1    1    2  503  502 -0.97471187628E+01  0.20773626238E+02  0.17120786814E+02  0.28629900670E+02  0.00000000000E+00 0.  1.
</event>
<event>
 4    1  0.5591986E+002  0.2041461E+02  0.7546771E-02  0.1527789E+00
          2   -1    0    0  502    0  0.00000000000E+00  0.00000000000E+00  0.43781020871E+03  0.43781020871E+03  0.00000000000E+00 0. -1.
         -2   -1    0    0    0  501 -0.00000000000E+00 -0.00000000000E+00 -0.10906322061E+02  0.10906322061E+02  0.00000000000E+00 0.  1.
         21    1    1    2  502  503  0.38628487509E+01  0.20045811283E+02  0.42779563680E+03  0.42828245705E+03  0.00000000000E+00 0. -1.
         21    1    1    2  503  501 -0.38628487509E+01 -0.20045811283E+02 -0.89175015303E+00  0.20434073720E+02  0.00000000000E+00 0.  1.
</event>
<event>
 4    1  0.5591986E+002  0.6943508E+02  0.7546771E-02  0.1230758E+00
          2   -1    0    0  502    0  0.00000000000E+00  0.00000000000E+00  0.21258781201E+04  0.21258781201E+04  0.00000000000E+00 0.  1.
         -2   -1    0    0    0  501 -0.00000000000E+00 -0.00000000000E+00 -0.50518849402E+01  0.50518849402E+01  0.00000000000E+00 0. -1.
         21    1    1    2  502  503  0.11337411617E+01  0.69425823709E+02  0.18513606735E+04  0.18526622935E+04  0.00000000000E+00 0.  1.
         21    1    1    2  503  501 -0.11337411617E+01 -0.69425823709E+02  0.26946556168E+03  0.27826771156E+03  0.00000000000E+00 0. -1.
</event>
<event>
 4    1  0.5591986E+002  0.2648455E+02  0.7546771E-02  0.1452856E+00
          2   -1    0    0  502    0  0.00000000000E+00  0.00000000000E+00  0.64683282525E+03  0.64683282525E+03  0.00000000000E+00 0.  1.
         -2   -1    0    0    0  501 -0.00000000000E+00 -0.00000000000E+00 -0.14378048263E+01  0.14378048263E+01  0.00000000000E+00 0. -1.
         21    1    1    2  502  503 -0.24215441908E+02 -0.10725854941E+02  0.16200085066E+03  0.16415147641E+03  0.00000000000E+00 0. -1.
         21    1    1    2  503  501  0.24215441908E+02  0.10725854941E+02  0.48339416976E+03  0.48411915367E+03  0.00000000000E+00 0.  1.
</event>
<event>
 4    1  0.5591986E+002  0.3512829E+02  0.7546771E-02  0.1379664E+00
          2   -1    0    0  502    0  0.00000000000E+00  0.00000000000E+00  0.42573188225E+01  0.42573188225E+01  0.00000000000E+00 0. -1.
         -2   -1    0    0    0  501 -0.00000000000E+00 -0.00000000000E+00 -0.40993795676E+03  0.40993795676E+03  0.00000000000E+00 0.  1.
         21    1    1    2  502  503 -0.43132724185E+01 -0.34862482387E+02 -0.90752033182E+02  0.97313557760E+02  0.00000000000E+00 0. -1.
         21    1    1    2  503  501  0.43132724185E+01  0.34862482387E+02 -0.31492860475E+03  0.31688171782E+03  0.00000000000E+00 0.  1.
</event>
<event>
 4    1  0.5591986E+002  0.2617836E+02  0.7546771E-02  0.1456041E+00
          2   -1    0    0  502    0  0.00000000000E+00  0.00000000000E+00  0.18999469145E+02  0.18999469145E+02  0.00000000000E+00 0. -1.
         -2   -1    0    0    0  501 -0.00000000000E+00 -0.00000000000E+00 -0.40869229711E+02  0.40869229711E+02  0.00000000000E+00 0.  1.
         21    1    1    2  502  503 -0.17033247634E+02  0.19879008832E+02 -0.67676229954E+00  0.26187106070E+02  0.00000000000E+00 0.  1.
         21    1    1    2  503  501  0.17033247634E+02 -0.19879008832E+02 -0.21192998266E+02  0.33681592786E+02  0.00000000000E+00 0. -1.
</event>
<event>
 4    1  0.5591986E+002  0.2030755E+02  0.7546771E-02  0.1529385E+00
          2   -1    0    0  503    0  0.00000000000E+00  0.00000000000E+00  0.50611510194E+01  0.50611510194E+01  0.00000000000E+00 0. -1.
         -2   -1    0    0    0  501 -0.00000000000E+00 -0.00000000000E+00 -0.86073028347E+02  0.86073028347E+02  0.00000000000E+00 0.  1.
         21    1    1    2  502  501 -0.19325639898E+02 -0.62382971417E+01 -0.51028836163E+02  0.54921205639E+02  0.00000000000E+00 0. -1.
         21    1    1    2  503  502  0.19325639898E+02  0.62382971417E+01 -0.29983041165E+02  0.36212973727E+02  0.00000000000E+00 0.  1.
</event>
<event>
 4    1  0.5591986E+002  0.3370536E+02  0.7546771E-02  0.1389901E+00
          2   -1    0    0  502    0  0.00000000000E+00  0.00000000000E+00  0.94547736906E+03  0.94547736906E+03  0.00000000000E+00 0. -1.
         -2   -1    0    0    0  501 -0.00000000000E+00 -0.00000000000E+00 -0.28157489027E+01  0.28157489027E+01  0.00000000000E+00 0.  1.
         21    1    1    2  502  503 -0.28162499413E+02 -0.18518228509E+02  0.83032906715E+03  0.83101288252E+03  0.00000000000E+00 0. -1.
         21    1    1    2  503  501  0.28162499413E+02  0.18518228509E+02  0.11233255300E+03  0.11728023544E+03  0.00000000000E+00 0.  1.
</event>
<event>
 4    1  0.5591986E+002  0.2920166E+02  0.7546771E-02  0.1426663E+00
          2   -1    0    0  503    0  0.00000000000E+00  0.00000000000E+00  0.90019157957E+02  0.90019157957E+02  0.00000000000E+00 0. -1.
         -2   -1    0    0    0  501 -0.00000000000E+00 -0.00000000000E+00 -0.97568027129E+02  0.97568027129E+02  0.00000000000E+00 0.  1.
         21    1    1    2  502  501 -0.28222517715E+02 -0.74984381495E+01 -0.92898604980E+02  0.97380120600E+02  0.00000000000E+00 0.  1.
         21    1    1    2  503  502  0.28222517715E+02  0.74984381495E+01  0.85349735807E+02  0.90207064486E+02  0.00000000000E+00 0. -1.
</event>
<event>
 4    1  0.5591986E+002  0.3145187E+02  0.7546771E-02  0.1407386E+00
          2   -1    0    0  502    0  0.00000000000E+00  0.00000000000E+00  0.14713300866E+04  0.14713300866E+04  0.00000000000E+00 0.  1.
         -2   -1    0    0    0  501 -0.00000000000E+00 -0.00000000000E+00 -0.70219852919E+00  0.70219852919E+00  0.00000000000E+00 0. -1.
         21    1    1    2  502  503 -0.30496161870E+02 -0.76944291065E+01  0.58351788691E+03  0.58436490695E+03  0.00000000000E+00 0.  1.
         21    1    1    2  503  501  0.30496161870E+02  0.76944291065E+01  0.88711000120E+03  0.88766737822E+03  0.00000000000E+00 0. -1.
</event>
<event>
 4    1  0.5591986E+002  0.4107441E+02  0.7546771E-02  0.1342302E+00
          2   -1    0    0  502    0  0.00000000000E+00  0.00000000000E+00  0.13405627022E+02  0.13405627022E+02  0.00000000000E+00 0.  1.
         -2   -1    0    0    0  501 -0.00000000000E+00 -0.00000000000E+00 -0.12768267795E+03  0.12768267795E+03  0.00000000000E+00 0. -1.
         21    1    1    2  502  503 -0.68140646887E+01  0.40505254383E+02 -0.48688481061E+02  0.63699884602E+02  0.00000000000E+00 0. -1.
         21    1    1    2  503  501  0.68140646887E+01 -0.40505254383E+02 -0.65588569865E+02  0.77388420369E+02  0.00000000000E+00 0.  1.
</event>
<event>
 4    1  0.5591986E+002  0.4834093E+02  0.7546771E-02  0.1305530E+00
          2   -1    0    0  503    0  0.00000000000E+00  0.00000000000E+00  0.40827966904E+03  0.40827966904E+03  0.00000000000E+00 0.  1.
         -2   -1    0    0    0  501 -0.00000000000E+00 -0.00000000000E+00 -0.10333104413E+02  0.10333104413E+02  0.00000000000E+00 0. -1.
         21    1    1    2  502  501  0.34926622839E+02  0.33421192921E+02  0.59178040867E+02  0.76412601317E+02  0.00000000000E+00 0. -1.
         21    1    1    2  503  502 -0.34926622839E+02 -0.33421192921E+02  0.33876852376E+03  0.34220017213E+03  0.00000000000E+00 0.  1.
</event>
<event>
 4    1  0.5591986E+002  0.2191490E+02  0.7546771E-02  0.1506593E+00
          2   -1    0    0  502    0  0.00000000000E+00  0.00000000000E+00  0.38281713207E+02  0.38281713207E+02  0.00000000000E+00 0.  1.
         -2   -1    0    0    0  501 -0.00000000000E+00 -0.00000000000E+00 -0.13090304157E+02  0.13090304157E+02  0.00000000000E+00 0. -1.
         21    1    1    2  502  503  0.91208383876E+01  0.19926696604E+02  0.17835871346E+02  0.28255640802E+02  0.00000000000E+00 0.  1.
         21    1    1    2  503  501 -0.91208383876E+01 -0.19926696604E+02  0.73555377032E+01  0.23116376562E+02  0.00000000000E+00 0. -1.
</event>
<event>
 4    1  0.5591986E+002  0.2897946E+02  0.7546771E-02  0.1428677E+00
          2   -1    0    0  502    0  0.00000000000E+00  0.00000000000E+00  0.11516127217E+04  0.11516127217E+04  0.00000000000E+00 0. -1.
         -2   -1    0    0    0  501 -0.00000000000E+00 -0.00000000000E+00 -0.77962061115E+00  0.77962061115E+00  0.00000000000E+00 0.  1.
         21    1    1    2  502  503  0.17283484416E+02  0.23261349207E+02  0.72188149990E+03  0.72246294652E+03  0.00000000000E+00 0. -1.
         21    1    1    2  503  501 -0.17283484416E+02 -0.23261349207E+02  0.42895160120E+03  0.42992939580E+03  0.00000000000E+00 0.  1.
</event>
<event>
 4    1  0.5591986E+002  0.2122524E+02  0.7546771E-02  0.1516073E+00
          2   -1    0    0  502    0  0.00000000000E+00  0.00000000000E+00  0.37183230415E+03  0.37183230415E+03  0.00000000000E+00 0.  1.
         -2   -1    0    0    0  501 -0.00000000000E+00 -0.00000000000E+00 -0.16511268134E+01  0.16511268134E+01  0.00000000000E+00 0. -1.
         21    1    1    2  502  503 -0.20980124552E+02 -0.32164088111E+01  0.28143916198E+03  0.28223839712E+03  0.00000000000E+00 0.  1.
         21    1    1    2  503  501  0.20980124552E+02  0.32164088111E+01  0.88742015357E+02  0.91245033845E+02  0.00000000000E+00 0. -1.
</event>
<event>
 4    1  0.5591986E+002  0.2205599E+02  0.7546771E-02  0.1504705E+00
          2   -1    0    0  502    0  0.00000000000E+00  0.00000000000E+00  0.16303820421E+03  0.16303820421E+03  0.00000000000E+00 0. -1.
         -2   -1    0    0    0  501 -0.00000000000E+00 -0.00000000000E+00 -0.51988706297E+01  0.51988706297E+01  0.00000000000E+00 0.  1.
         21    1    1    2  502  503 -0.20798916217E+02 -0.73397398742E+01  0.13382759074E+03  0.13563292647E+03  0.00000000000E+00 0. -1.
         21    1    1    2  503  501  0.20798916217E+02  0.73397398742E+01  0.24011742840E+02  0.32604148378E+02  0.00000000000E+00 0.  1.
</event>
<event>
 4    1  0.5591986E+002  0.2072165E+02  0.7546771E-02  0.1523276E+00
          2   -1    0    0  503    0  0.00000000000E+00  0.00000000000E+00  0.11732966463E+03  0.11732966463E+03  0.00000000000E+00 0.  1.
         -2   -1    0    0    0  501 -0.00000000000E+00 -0.00000000000E+00 -0.37875031887E+01  0.37875031887E+01  0.00000000000E+00 0. -1.
         21    1    1    2  502  501 -0.20705174101E+02  0.82606042499E+00  0.45645081657E+02  0.50128435941E+02  0.00000000000E+00 0. -1.
         21    1    1    2  503  502  0.20705174101E+02 -0.82606042499E+00  0.67897079781E+02  0.70988731874E+02  0.00000000000E+00 0.  1.
</event>
<event>
 4    1  0.5591986E+002  0.2071383E+02  0.7546771E-02  0.1523390E+00
          2   -1    0    0  502    0  0.00000000000E+00  0.00000000000E+00  0.31390224182E+03  0.31390224182E+03  0.00000000000E+00 0. -1.
         -2   -1    0    0    0  501 -0.00000000000E+00 -0.00000000000E+00 -0.28959126535E+01  0.28959126535E+01  0.00000000000E+00 0.  1.
         21    1    1    2  502  503 -0.20526474737E+02 -0.27796949713E+01  0.27060176150E+03  0.27139339748E+03  0.00000000000E+00 0. -1.
         21    1    1    2  503  501  0.20526474737E+02  0.27796949713E+01  0.40404567665E+02  0.45404756992E+02  0.00000000000E+00 0.  1.
</event>
<event>
 4    1  0.5591986E+002  0.2121180E+02  0.7546771E-02  0.1516262E+00
          2   -1    0    0  502    0  0.00000000000E+00  0.00000000000E+00  0.41407933033E+03  0.41407933033E+03  0.00000000000E+00 0. -1.
         -2   -1    0    0    0  501 -0.00000000000E+00 -0.00000000000E+00 -0.16019739624E+01  0.16019739624E+01  0.00000000000E+00 0.  1.
         21    1    1    2  502  503  0.13217897734E+02 -0.16589985995E+02  0.32412464744E+03  0.32481799139E+03  0.00000000000E+00 0. -1.
         21    1    1    2  503  501 -0.13217897734E+02  0.16589985995E+02  0.88352708928E+02  0.90863312898E+02  0.00000000000E+00 0.  1.
</event>
<event>
 4    1  0.5591986E+002  0.2538649E+02  0.7546771E-02  0.1464526E+00
          2   -1    0    0  502    0  0.00000000000E+00  0.00000000000E+00  0.18249805519E+04  0.18249805519E+04  0.00000000000E+00 0.  1.
         -2   -1    0    0    0  501 -0.00000000000E+00 -0.00000000000E+00 -0.60326970697E+00  0.60326970697E+00  0.00000000000E+00 0. -1.
         21    1    1    2  502  503  0.51960054075E+01  0.24849054025E+02  0.14999465826E+04  0.15001613995E+04  0.00000000000E+00 0.  1.
         21    1    1    2  503  501 -0.51960054075E+01 -0.24849054025E+02  0.32443069959E+03  0.32542242208E+03  0.00000000000E+00 0. -1.
</event>
<event>
 4    1  0.5591986E+002  0.5670048E+02  0.7546771E-02  0.1271475E+00
          2   -1    0    0  502    0  0.00000000000E+00  0.00000000000E+00  0.14852376771E+03  0.14852376771E+03  0.00000000000E+00 0.  1.
         -2   -1    0    0    0  501 -0.00000000000E+00 -0.00000000000E+00 -0.30765666895E+02  0.30765666895E+02  0.00000000000E+00 0. -1.
         21    1    1    2  502  503 -0.54608012302E+02  0.15261379184E+02  0.10768594175E+03  0.12170130136E+03  0.00000000000E+00 0.  1.
         21    1    1    2  503  501  0.54608012302E+02 -0.15261379184E+02  0.10072159062E+02  0.57588133242E+02  0.00000000000E+00 0. -1.
</event>
<event>
 4    1  0.5591986E+002  0.2118600E+02  0.7546771E-02  0.1516626E+00
          2   -1    0    0  503    0  0.00000000000E+00  0.00000000000E+00  0.15524000534E+04  0.15524000534E+04  0.00000000000E+00 0.  1.
         -2   -1    0    0    0  501 -0.00000000000E+00 -0.00000000000E+00 -0.29563437010E+00  0.29563437010E+00  0.00000000000E+00 0. -1.
         21    1    1    2  502  501 -0.16574763005E+02  0.13195593710E+02  0.66090345050E+03  0.66124293368E+03  0.00000000000E+00 0. -1.
         21    1    1    2  503  502  0.16574763005E+02 -0.13195593710E+02  0.89120096853E+03  0.89145275409E+03  0.00000000000E+00 0.  1.
</event>
<event>
 4    1  0.5591986E+002  0.2637621E+02  0.7546771E-02  0.1453977E+00
          2   -1    0    0  503    0  0.00000000000E+00  0.00000000000E+00  0.29485620110E+03  0.29485620110E+03  0.00000000000E+00 0.  1.
         -2   -1    0    0    0  501 -0.00000000000E+00 -0.00000000000E+00 -0.24298223770E+01  0.24298223770E+01  0.00000000000E+00 0. -1.
         21    1    1    2  502  501  0.10248995012E+02 -0.24303546610E+02  0.12092035489E+03  0.12376363159E+03  0.00000000000E+00 0.  1.
         21    1    1    2  503  502 -0.10248995012E+02  0.24303546610E+02  0.17150602383E+03  0.17352239188E+03  0.00000000000E+00 0. -1.
</event>
<event>
 4    1  0.5591986E+002  0.3691074E+02  0.7546771E-02  0.1367606E+00
          2   -1    0    0  503    0  0.00000000000E+00  0.00000000000E+00  0.77385057553E+02  0.77385057553E+02  0.00000000000E+00 0.  1.
         -2   -1    0    0    0  501 -0.00000000000E+00 -0.00000000000E+00 -0.69354770379E+02  0.69354770379E+02  0.00000000000E+00 0. -1.
         21    1    1    2  502  501  0.31173702306E+02  0.19763687161E+02 -0.59361893777E+02  0.69901627152E+02  0.00000000000E+00 0. -1.
         21    1    1    2  503  502 -0.31173702306E+02 -0.19763687161E+02  0.67392180952E+02  0.76838200780E+02  0.00000000000E+00 0.  1.
</event>
<event>
 4    1  0.5591986E+002  0.2238965E+02  0.7546771E-02  0.1500308E+00
          2   -1    0    0  503    0  0.00000000000E+00  0.00000000000E+00  0.64698152435E+01  0.64698152435E+01  0.00000000000E+00 0.  1.
         -2   -1    0    0    0  501 -0.00000000000E+00 -0.00000000000E+00 -0.79964411247E+02  0.79964411247E+02  0.00000000000E+00 0. -1.
         21    1    1    2  502  501  0.21924325300E+02 -0.45409918636E+01 -0.44361273847E+02  0.49691239311E+02  0.00000000000E+00 0. -1.
         21    1    1    2  503  502 -0.21924325300E+02  0.45409918636E+01 -0.29133322157E+02  0.36742987179E+02  0.00000000000E+00 0.  1.
</event>
<event>
 4    1  0.5591986E+002  0.3913463E+02  0.7546771E-02  0.1353633E+00
          2   -1    0    0  503    0  0.00000000000E+00  0.00000000000E+00  0.12226761983E+04  0.12226761983E+04  0.00000000000E+00 0.  1.
         -2   -1    0    0    0  501 -0.00000000000E+00 -0.00000000000E+00 -0.38889209268E+01  0.38889209268E+01  0.00000000000E+00 0. -1.
         21    1    1    2  502  501  0.38204988554E+02  0.84792551690E+01  0.10444692178E+03  0.11153778905E+03  0.00000000000E+00 0. -1.
         21    1    1    2  503  502 -0.38204988554E+02 -0.84792551690E+01  0.11143403556E+04  0.11150273302E+04  0.00000000000E+00 0.  1.
</event>
<event>
 4    1  0.5591986E+002  0.2520496E+02  0.7546771E-02  0.1466523E+00
          2   -1    0    0  502    0  0.00000000000E+00  0.00000000000E+00  0.12568227163E+01  0.12568227163E+01  0.00000000000E+00 0. -1.
         -2   -1    0    0    0  501 -0.00000000000E+00 -0.00000000000E+00 -0.16924694589E+04  0.16924694589E+04  0.00000000000E+00 0.  1.
         21    1    1    2  502  503  0.17526794373E+02  0.18113568620E+02 -0.13639194093E+03  0.13870130295E+03  0.00000000000E+00 0. -1.
         21    1    1    2  503  501 -0.17526794373E+02 -0.18113568620E+02 -0.15548206953E+04  0.15550249787E+04  0.00000000000E+00 0.  1.
</event>
<event>
 4    1  0.5591986E+002  0.2355976E+02  0.7546771E-02  0.1485586E+00
          2   -1    0    0  502    0  0.00000000000E+00  0.00000000000E+00  0.14768186327E+04  0.14768186327E+04  0.00000000000E+00 0. -1.
         -2   -1    0    0    0  501 -0.00000000000E+00 -0.00000000000E+00 -0.82090776850E+00  0.82090776850E+00  0.00000000000E+00 0.  1.
         21    1    1    2  502  503 -0.20947697416E+02  0.10782223457E+02  0.12819996018E+04  0.12822160666E+04  0.00000000000E+00 0. -1.
         21    1    1    2  503  501  0.20947697416E+02 -0.10782223457E+02  0.19399812312E+03  0.19542347388E+03  0.00000000000E+00 0.  1.
</event>
<event>
 4    1  0.5591986E+002  0.2516425E+02  0.7546771E-02  0.1466974E+00
          2   -1    0    0  503    0  0.00000000000E+00  0.00000000000E+00  0.67774891150E+02  0.67774891150E+02  0.00000000000E+00 0.  1.
         -2   -1    0    0    0  501 -0.00000000000E+00 -0.00000000000E+00 -0.14897321734E+02  0.14897321734E+02  0.00000000000E+00 0. -1.
         21    1    1    2  502  501 -0.13000378856E+02 -0.21545994175E+02  0.11993236117E+01  0.25192818273E+02  0.00000000000E+00 0. -1.
         21    1    1    2  503  502  0.13000378856E+02  0.21545994175E+02  0.51678245805E+02  0.57479394611E+02  0.00000000000E+00 0.  1.
</event>
<event>
 4    1  0.5591986E+002  0.4043647E+02  0.7546771E-02  0.1345947E+00
          2   -1    0    0  503    0  0.00000000000E+00  0.00000000000E+00  0.51037001338E+03  0.51037001338E+03  0.00000000000E+00 0.  1.
         -2   -1    0    0    0  501 -0.00000000000E+00 -0.00000000000E+00 -0.25988817091E+02  0.25988817091E+02  0.00000000000E+00 0. -1.
         21    1    1    2  502  501 -0.21458499569E+02 -0.34273034232E+02 -0.89154362730E+01  0.41407645226E+02  0.00000000000E+00 0. -1.
         21    1    1    2  503  502  0.21458499569E+02  0.34273034232E+02  0.49329663256E+03  0.49495118525E+03  0.00000000000E+00 0.  1.
</event>
<event>
 4    1  0.5591986E+002  0.2308755E+02  0.7546771E-02  0.1491402E+00
          2   -1    0    0  502    0  0.00000000000E+00  0.00000000000E+00  0.15136702393E+04  0.15136702393E+04  0.00000000000E+00 0.  1.
         -2   -1    0    0    0  501 -0.00000000000E+00 -0.00000000000E+00 -0.61214736760E+00  0.61214736760E+00  0.00000000000E+00 0. -1.
         21    1    1    2  502  503  0.18105975618E+02  0.14325107634E+02  0.12499703691E+04  0.12501835700E+04  0.00000000000E+00 0.  1.
         21    1    1    2  503  501 -0.18105975618E+02 -0.14325107634E+02  0.26308772283E+03  0.26409881667E+03  0.00000000000E+00 0. -1.
</event>
<event>
 4    1  0.5591986E+002  0.2082733E+02  0.7546771E-02  0.1521744E+00
          2   -1    0    0  502    0  0.00000000000E+00  0.00000000000E+00  0.14437440137E+04  0.14437440137E+04  0.00000000000E+00 0. -1.
         -2   -1    0    0    0  501 -0.00000000000E+00 -0.00000000000E+00 -0.30121559988E+00  0.30121559988E+00  0.00000000000E+00 0.  1.
         21    1    1    2  502  503 -0.20696363914E+02  0.23320088371E+01  0.75804233254E+03  0.75832839566E+03  0.00000000000E+00 0.  1.
         21    1    1    2  503  501  0.20696363914E+02 -0.23320088371E+01  0.68540046558E+03  0.68571683365E+03  0.00000000000E+00 0. -1.
</event>
<event>
 4    1  0.5591986E+002  0.4318092E+02  0.7546771E-02  0.1330790E+00
          2   -1    0    0  502    0  0.00000000000E+00  0.00000000000E+00  0.31842893337E+02  0.31842893337E+02  0.00000000000E+00 0.  1.
         -2   -1    0    0    0  501 -0.00000000000E+00 -0.00000000000E+00 -0.12258253528E+03  0.12258253528E+03  0.00000000000E+00 0. -1.
         21    1    1    2  502  503 -0.39537375169E+02  0.17360532378E+02  0.10432794801E+02  0.44423364653E+02  0.00000000000E+00 0.  1.
         21    1    1    2  503  501  0.39537375169E+02 -0.17360532378E+02 -0.10117243675E+03  0.11000206397E+03  0.00000000000E+00 0. -1.
</event>
<event>
 4    1  0.5591986E+002  0.2606372E+02  0.7546771E-02  0.1457247E+00
          2   -1    0    0  502    0  0.00000000000E+00  0.00000000000E+00  0.34321997588E+03  0.34321997588E+03  0.00000000000E+00 0. -1.
         -2   -1    0    0    0  501 -0.00000000000E+00 -0.00000000000E+00 -0.30211157705E+01  0.30211157705E+01  0.00000000000E+00 0.  1.
         21    1    1    2  502  503 -0.65005226596E+01 -0.25240059923E+02  0.27176437959E+03  0.27301134671E+03  0.00000000000E+00 0.  1.
         21    1    1    2  503  501  0.65005226596E+01  0.25240059923E+02  0.68434480519E+02  0.73229744938E+02  0.00000000000E+00 0. -1.
</event>
<event>
 4    1  0.5591986E+002  0.7821039E+02  0.7546771E-02  0.1208064E+00
          2   -1    0    0  503    0  0.00000000000E+00  0.00000000000E+00  0.26336561793E+04  0.26336561793E+04  0.00000000000E+00 0.  1.
         -2   -1    0    0    0  501 -0.00000000000E+00 -0.00000000000E+00 -0.38195055244E+02  0.38195055244E+02  0.00000000000E+00 0. -1.
         21    1    1    2  502  501 -0.63796544302E+02  0.45242298002E+02  0.30595989403E+01  0.78270209780E+02  0.00000000000E+00 0. -1.
         21    1    1    2  503  502  0.63796544302E+02 -0.45242298002E+02  0.25924015251E+04  0.25935810248E+04  0.00000000000E+00 0.  1.
</event>
<event>
 4    1  0.5591986E+002  0.3183805E+02  0.7546771E-02  0.1404269E+00
          2   -1    0    0  503    0  0.00000000000E+00  0.00000000000E+00  0.90166048974E+01  0.90166048974E+01  0.00000000000E+00 0.  1.
         -2   -1    0    0    0  501 -0.00000000000E+00 -0.00000000000E+00 -0.18361150837E+03  0.18361150837E+03  0.00000000000E+00 0. -1.
         21    1    1    2  502  501 -0.61258295678E+01 -0.31243168068E+02 -0.14726949958E+03  0.15067171880E+03  0.00000000000E+00 0. -1.
         21    1    1    2  503  502  0.61258295678E+01  0.31243168068E+02 -0.27325403887E+02  0.41956394464E+02  0.00000000000E+00 0.  1.
</event>
<event>
 4    1  0.5591986E+002  0.5749332E+02  0.7546771E-02  0.1268596E+00
          2   -1    0    0  502    0  0.00000000000E+00  0.00000000000E+00  0.81037423695E+03  0.81037423695E+03  0.00000000000E+00 0. -1.
         -2   -1    0    0    0  501 -0.00000000000E+00 -0.00000000000E+00 -0.27978462011E+03  0.27978462011E+03  0.00000000000E+00 0.  1.
         21    1    1    2  502  503  0.47577006081E+02  0.32278627671E+02  0.80638631500E+03  0.80843328131E+03  0.00000000000E+00 0. -1.
         21    1    1    2  503  501 -0.47577006081E+02 -0.32278627671E+02 -0.27579669816E+03  0.28172557575E+03  0.00000000000E+00 0.  1.
</event>
<event>
 4    1  0.5591986E+002  0.3814852E+02  0.7546771E-02  0.1359691E+00
          2   -1    0    0  503    0  0.00000000000E+00  0.00000000000E+00  0.15930276687E+04  0.15930276687E+04  0.00000000000E+00 0. -1.
         -2   -1    0    0    0  501 -0.00000000000E+00 -0.00000000000E+00 -0.93107727653E+00  0.93107727653E+00  0.00000000000E+00 0.  1.
         21    1    1    2  502  501 -0.30509542510E+02 -0.22901470797E+02  0.68669842740E+03  0.68775725350E+03  0.00000000000E+00 0. -1.
         21    1    1    2  503  502  0.30509542510E+02  0.22901470797E+02  0.90539816404E+03  0.90620149249E+03  0.00000000000E+00 0.  1.
</event>
<event>
 4    1  0.5591986E+002  0.2306617E+02  0.7546771E-02  0.1491669E+00
          2   -1    0    0  502    0  0.00000000000E+00  0.00000000000E+00  0.27523777114E+03  0.27523777114E+03  0.00000000000E+00 0.  1.
         -2   -1    0    0    0  501 -0.00000000000E+00 -0.00000000000E+00 -0.19434845932E+01  0.19434845932E+01  0.00000000000E+00 0. -1.
         21    1    1    2  502  503 -0.22300668646E+02  0.58930965236E+01  0.12649217873E+03  0.12857806846E+03  0.00000000000E+00 0. -1.
         21    1    1    2  503  501  0.22300668646E+02 -0.58930965236E+01  0.14680210781E+03  0.14860318727E+03  0.00000000000E+00 0.  1.
</event>
<event>
 4    1  0.5591986E+002  0.4967474E+02  0.7546771E-02  0.1299589E+00
          2   -1    0    0  502    0  0.00000000000E+00  0.00000000000E+00  0.27349813122E+02  0.27349813122E+02  0.00000000000E+00 0. -1.
         -2   -1    0    0    0  501 -0.00000000000E+00 -0.00000000000E+00 -0.11554428248E+03  0.11554428248E+03  0.00000000000E+00 0.  1.
         21    1    1    2  502  503  0.48819317899E+02 -0.91790239510E+01 -0.10650516881E+02  0.50803678909E+02  0.00000000000E+00 0.  1.
         21    1    1    2  503  501 -0.48819317899E+02  0.91790239510E+01 -0.77543952475E+02  0.92090416691E+02  0.00000000000E+00 0. -1.
</event>
<event>
 4    1  0.5591986E+002  0.2211730E+02  0.7546771E-02  0.1503890E+00
          2   -1    0    0  502    0  0.00000000000E+00  0.00000000000E+00  0.89839722158E+03  0.89839722158E+03  0.00000000000E+00 0.  1.
         -2   -1    0    0    0  501 -0.00000000000E+00 -0.00000000000E+00 -0.28492605617E+01  0.28492605617E+01  0.00000000000E+00 0. -1.
         21    1    1    2  502  503  0.20905946760E+02 -0.72191691088E+01  0.85305909116E+03  0.85334576112E+03  0.00000000000E+00 0.  1.
         21    1    1    2  503  501 -0.20905946760E+02  0.72191691088E+01  0.42488869867E+02  0.47900721030E+02  0.00000000000E+00 0. -1.
</event>
<event>
 4    1  0.5591986E+002  0.2198876E+02  0.7546771E-02  0.1505602E+00
          2   -1    0    0  502    0  0.00000000000E+00  0.00000000000E+00  0.15083387349E+03  0.15083387349E+03  0.00000000000E+00 0. -1.
         -2   -1    0    0    0  501 -0.00000000000E+00 -0.00000000000E+00 -0.37796935227E+01  0.37796935227E+01  0.00000000000E+00 0.  1.
         21    1    1    2  502  503 -0.45577875071E+01 -0.21511205111E+02  0.43397035020E+02  0.48649851190E+02  0.00000000000E+00 0. -1.
         21    1    1    2  503  501  0.45577875071E+01  0.21511205111E+02  0.10365714495E+03  0.10596371582E+03  0.00000000000E+00 0.  1.
</event>
<event>
 4    1  0.5591986E+002  0.4611015E+02  0.7546771E-02  0.1315980E+00
          2   -1    0    0  503    0  0.00000000000E+00  0.00000000000E+00  0.36109647948E+03  0.36109647948E+03  0.00000000000E+00 0. -1.
         -2   -1    0    0    0  501 -0.00000000000E+00 -0.00000000000E+00 -0.83795312350E+01  0.83795312350E+01  0.00000000000E+00 0.  1.
         21    1    1    2  502  501  0.26926282808E+02 -0.37431548287E+02  0.75624196307E+02  0.88572933677E+02  0.00000000000E+00 0.  1.
         21    1    1    2  503  502 -0.26926282808E+02  0.37431548287E+02  0.27709275194E+03  0.28090307704E+03  0.00000000000E+00 0. -1.
</event>
<event>
 4    1  0.5591986E+002  0.2513462E+02  0.7546771E-02  0.1467303E+00
          2   -1    0    0  502    0  0.00000000000E+00  0.00000000000E+00  0.55209242178E+03  0.55209242178E+03  0.00000000000E+00 0.  1.
         -2   -1    0    0    0  501 -0.00000000000E+00 -0.00000000000E+00 -0.15163285715E+01  0.15163285715E+01  0.00000000000E+00 0. -1.
         21    1    1    2  502  503  0.15647821723E+02  0.19669645660E+02  0.41239992728E+03  0.41316515984E+03  0.00000000000E+00 0.  1.
         21    1    1    2  503  501 -0.15647821723E+02 -0.19669645660E+02  0.13817616593E+03  0.14044359051E+03  0.00000000000E+00 0. -1.
</event>
<event>
 4    1  0.5591986E+002  0.3057450E+02  0.7546771E-02  0.1414669E+00
          2   -1    0    0  502    0  0.00000000000E+00  0.00000000000E+00  0.22682681570E+04  0.22682681570E+04  0.00000000000E+00 0.  1.
         -2   -1    0    0    0  501 -0.00000000000E+00 -0.00000000000E+00 -0.55895438447E+00  0.55895438447E+00  0.00000000000E+00 0. -1.
         21    1    1    2  502  503 -0.28793182743E+02 -0.10283599975E+02  0.17152831764E+04  0.17155556462E+04  0.00000000000E+00 0. -1.
         21    1    1    2  503  501  0.28793182743E+02  0.10283599975E+02  0.55242602622E+03  0.55327146524E+03  0.00000000000E+00 0.  1.
</event>
<event>
 4    1  0.5591986E+002  0.2704889E+02  0.7546771E-02  0.1447118E+00
          2   -1    0    0  502    0  0.00000000000E+00  0.00000000000E+00  0.84246048838E+02  0.84246048838E+02  0.00000000000E+00 0.  1.
         -2   -1    0    0    0  501 -0.00000000000E+00 -0.00000000000E+00 -0.16252850894E+02  0.16252850894E+02  0.00000000000E+00 0. -1.
         21    1    1    2  502  503 -0.21942037096E+02 -0.15817380169E+02  0.68286366786E+02  0.73448419971E+02  0.00000000000E+00 0.  1.
         21    1    1    2  503  501  0.21942037096E+02  0.15817380169E+02 -0.29316884257E+00  0.27050479761E+02  0.00000000000E+00 0. -1.
</event>
<event>
 4    1  0.5591986E+002  0.2370804E+02  0.7546771E-02  0.1483794E+00
          2   -1    0    0  502    0  0.00000000000E+00  0.00000000000E+00  0.24574743492E+03  0.24574743492E+03  0.00000000000E+00 0.  1.
         -2   -1    0    0    0  501 -0.00000000000E+00 -0.00000000000E+00 -0.24227217713E+01  0.24227217713E+01  0.00000000000E+00 0. -1.
         21    1    1    2  502  503  0.23705582213E+02 -0.34119001066E+00  0.15101103748E+03  0.15286073558E+03  0.00000000000E+00 0.  1.
         21    1    1    2  503  501 -0.23705582213E+02  0.34119001066E+00  0.92313675661E+02  0.95309421112E+02  0.00000000000E+00 0. -1.
</event>
<event>
 4    1  0.5591986E+002  0.2073089E+02  0.7546771E-02  0.1523142E+00
          2   -1    0    0  503    0  0.00000000000E+00  0.00000000000E+00  0.13839299464E+02  0.13839299464E+02  0.00000000000E+00 0. -1.
         -2   -1    0    0    0  501 -0.00000000000E+00 -0.00000000000E+00 -0.41491373775E+02  0.41491373775E+02  0.00000000000E+00 0.  1.
         21    1    1    2  502  501 -0.20723806093E+02 -0.54204982519E+00 -0.27701456846E+02  0.34599720641E+02  0.00000000000E+00 0.  1.
         21    1    1    2  503  502  0.20723806093E+02  0.54204982519E+00  0.49382535939E-01  0.20730952598E+02  0.00000000000E+00 0. -1.
</event>
<event>
 4    1  0.5591986E+002  0.2422274E+02  0.7546771E-02  0.1477690E+00
          2   -1    0    0  503    0  0.00000000000E+00  0.00000000000E+00  0.72518566696E+02  0.72518566696E+02  0.00000000000E+00 0.  1.
         -2   -1    0    0    0  501 -0.00000000000E+00 -0.00000000000E+00 -0.16184172712E+02  0.16184172712E+02  0.00000000000E+00 0. -1.
         21    1    1    2  502  501 -0.20819301479E+02  0.12381343581E+02 -0.31962424063E+01  0.24432702439E+02  0.00000000000E+00 0. -1.
         21    1    1    2  503  502  0.20819301479E+02 -0.12381343581E+02  0.59530636390E+02  0.64270036969E+02  0.00000000000E+00 0.  1.
</event>
<event>
 4    1  0.5591986E+002  0.4641009E+02  0.7546771E-02  0.1314535E+00
          2   -1    0    0  503    0  0.00000000000E+00  0.00000000000E+00  0.35471585732E+03  0.35471585732E+03  0.00000000000E+00 0.  1.
         -2   -1    0    0    0  501 -0.00000000000E+00 -0.00000000000E+00 -0.83757038745E+01  0.83757038745E+01  0.00000000000E+00 0. -1.
         21    1    1    2  502  501  0.42325317125E+02  0.19038498285E+02  0.77962327266E+02  0.90730487486E+02  0.00000000000E+00 0. -1.
         21    1    1    2  503  502 -0.42325317125E+02 -0.19038498285E+02  0.26837782618E+03  0.27236107370E+03  0.00000000000E+00 0.  1.
</event>
<event>
 4    1  0.5591986E+002  0.2587647E+02  0.7546771E-02  0.1459233E+00
          2   -1    0    0  502    0  0.00000000000E+00  0.00000000000E+00  0.29987407707E+01  0.29987407707E+01  0.00000000000E+00 0. -1.
         -2   -1    0    0    0  501 -0.00000000000E+00 -0.00000000000E+00 -0.61081134259E+03  0.61081134259E+03  0.00000000000E+00 0.  1.
         21    1    1    2  502  503 -0.14807515690E+02 -0.21220961705E+02 -0.59451964561E+02  0.64839246038E+02  0.00000000000E+00 0. -1.
         21    1    1    2  503  501  0.14807515690E+02  0.21220961705E+02 -0.54836063726E+03  0.54897083732E+03  0.00000000000E+00 0.  1.
</event>
<event>
 4    1  0.5591986E+002  0.2630674E+02  0.7546771E-02  0.1454699E+00
          2   -1    0    0  502    0  0.00000000000E+00  0.00000000000E+00  0.10850199084E+04  0.10850199084E+04  0.00000000000E+00 0. -1.
         -2   -1    0    0    0  501 -0.00000000000E+00 -0.00000000000E+00 -0.13623975116E+01  0.13623975116E+01  0.00000000000E+00 0.  1.
         21    1    1    2  502  503 -0.45750975399E+01  0.25905854060E+02  0.93796439086E+03  0.93833322616E+03  0.00000000000E+00 0. -1.
         21    1    1    2  503  501  0.45750975399E+01 -0.25905854060E+02  0.14569312003E+03  0.14804907976E+03  0.00000000000E+00 0.  1.
</event>
<event>
 4    1  0.5591986E+002  0.2728441E+02  0.7546771E-02  0.1444772E+00
          2   -1    0    0  503    0  0.00000000000E+00  0.00000000000E+00  0.71944623807E+02  0.71944623807E+02  0.00000000000E+00 0. -1.
         -2   -1    0    0    0  501 -0.00000000000E+00 -0.00000000000E+00 -0.21154613192E+02  0.21154613192E+02  0.00000000000E+00 0.  1.
         21    1    1    2  502  501 -0.34545863691E+01 -0.27064828364E+02 -0.78763610397E+01  0.28398523986E+02  0.00000000000E+00 0.  1.
         21    1    1    2  503  502  0.34545863691E+01  0.27064828364E+02  0.58666371654E+02  0.64700713013E+02  0.00000000000E+00 0. -1.
</event>
<event>
 4    1  0.5591986E+002  0.2811457E+02  0.7546771E-02  0.1436722E+00
          2   -1    0    0  502    0  0.00000000000E+00  0.00000000000E+00  0.20903108059E+04  0.20903108059E+04  0.00000000000E+00 0.  1.
         -2   -1    0    0    0  501 -0.00000000000E+00 -0.00000000000E+00 -0.11320971274E+01  0.11320971274E+01  0.00000000000E+00 0. -1.
         21    1    1    2  502  503 -0.26991513431E+00  0.28113276257E+02  0.18979795171E+04  0.18981877348E+04  0.00000000000E+00 0.  1.
         21    1    1    2  503  501  0.26991513431E+00 -0.28113276257E+02  0.19119919163E+03  0.19325516820E+03  0.00000000000E+00 0. -1.
</event>
<event>
 4    1  0.5591986E+002  0.3119913E+02  0.7546771E-02  0.1409454E+00
          2   -1    0    0  502    0  0.00000000000E+00  0.00000000000E+00  0.13495122510E+03  0.13495122510E+03  0.00000000000E+00 0. -1.
         -2   -1    0    0    0  501 -0.00000000000E+00 -0.00000000000E+00 -0.20170768237E+02  0.20170768237E+02  0.00000000000E+00 0.  1.
         21    1    1    2  502  503 -0.26792467503E+02  0.15985916410E+02  0.11955572681E+03  0.12355953080E+03  0.00000000000E+00 0. -1.
         21    1    1    2  503  501  0.26792467503E+02 -0.15985916410E+02 -0.47752699459E+01  0.31562462538E+02  0.00000000000E+00 0.  1.
</event>
<event>
 4    1  0.5591986E+002  0.4715161E+02  0.7546771E-02  0.1311018E+00
          2   -1    0    0  503    0  0.00000000000E+00  0.00000000000E+00  0.13806927055E+04  0.13806927055E+04  0.00000000000E+00 0. -1.
         -2   -1    0    0    0  501 -0.00000000000E+00 -0.00000000000E+00 -0.26658302046E+01  0.26658302046E+01  0.00000000000E+00 0.  1.
         21    1    1    2  502  501  0.43916876450E+02  0.17163397857E+02  0.25377015839E+03  0.25811347805E+03  0.00000000000E+00 0.  1.
         21    1    1    2  503  502 -0.43916876450E+02 -0.17163397857E+02  0.11242567169E+04  0.11252450576E+04  0.00000000000E+00 0. -1.
</event>
<event>
 4    1  0.5591986E+002  0.2066293E+02  0.7546771E-02  0.1524132E+00
          2   -1    0    0  503    0  0.00000000000E+00  0.00000000000E+00  0.34279000294E+01  0.34279000294E+01  0.00000000000E+00 0.  1.
         -2   -1    0    0    0  501 -0.00000000000E+00 -0.00000000000E+00 -0.19633897081E+03  0.19633897081E+03  0.00000000000E+00 0. -1.
         21    1    1    2  502  501  0.30279415546E+01 -0.20439864087E+02 -0.15685163734E+03  0.15820680330E+03  0.00000000000E+00 0. -1.
         21    1    1    2  503  502 -0.30279415546E+01  0.20439864087E+02 -0.36059433445E+02  0.41560067545E+02  0.00000000000E+00 0.  1.
</event>
<event>
 4    1  0.5591986E+002  0.3071774E+02  0.7546771E-02  0.1413460E+00
          2   -1    0    0  502    0  0.00000000000E+00  0.00000000000E+00  0.14862140298E+02  0.14862140298E+02  0.00000000000E+00 0. -1.
         -2   -1    0    0    0  501 -0.00000000000E+00 -0.00000000000E+00 -0.81394162374E+02  0.81394162374E+02  0.00000000000E+00 0.  1.
         21    1    1    2  502  503  0.17316866789E+02  0.25371349373E+02 -0.10692751305E+02  0.32525592613E+02  0.00000000000E+00 0. -1.
         21    1    1    2  503  501 -0.17316866789E+02 -0.25371349373E+02 -0.55839270771E+02  0.63730710059E+02  0.00000000000E+00 0.  1.
</event>
<event>
 4    1  0.5591986E+002  0.2048519E+02  0.7546771E-02  0.1526743E+00
          2   -1    0    0  503    0  0.00000000000E+00  0.00000000000E+00  0.10610764957E+03  0.10610764957E+03  0.00000000000E+00 0. -1.
         -2   -1    0    0    0  501 -0.00000000000E+00 -0.00000000000E+00 -0.41439788666E+01  0.41439788666E+01  0.00000000000E+00 0.  1.
         21    1    1    2  502  501 -0.20453208595E+02  0.11442628494E+01  0.39206044474E+02  0.44235246158E+02  0.00000000000E+00 0.  1.
         21    1    1    2  503  502  0.20453208595E+02 -0.11442628494E+01  0.62757626228E+02  0.66016382278E+02  0.00000000000E+00 0. -1.
</event>
<event>
 4    1  0.5591986E+002  0.2628637E+02  0.7546771E-02  0.1454911E+00
          2   -1    0    0  503    0  0.00000000000E+00  0.00000000000E+00  0.64220769701E+01  0.64220769701E+01  0.00000000000E+00 0. -1.
         -2   -1    0    0    0  501 -0.00000000000E+00 -0.00000000000E+00 -0.14383295685E+03  0.14383295685E+03  0.00000000000E+00 0.  1.
         21    1    1    2  502  501  0.10822055747E+01  0.26264079976E+02 -0.10641585375E+03  0.10961435579E+03  0.00000000000E+00 0.  1.
         21    1    1    2  503  502 -0.10822055747E+01 -0.26264079976E+02 -0.30995026127E+02  0.40640678027E+02  0.00000000000E+00 0. -1.
</event>
<event>
 4    1  0.5591986E+002  0.2593832E+02  0.7546771E-02  0.1458575E+00
          2   -1    0    0  502    0  0.00000000000E+00  0.00000000000E+00  0.22557266208E+02  0.22557266208E+02  0.00000000000E+00 0. -1.
         -2   -1    0    0    0  501 -0.00000000000E+00 -0.00000000000E+00 -0.30238752832E+02  0.30238752832E+02  0.00000000000E+00 0.  1.
         21    1    1    2  502  503  0.20292066375E+02  0.16156374672E+02 -0.69243250579E+01  0.26846651148E+02  0.00000000000E+00 0.  1.
         21    1    1    2  503  501 -0.20292066375E+02 -0.16156374672E+02 -0.75716156626E+00  0.25949367892E+02  0.00000000000E+00 0. -1.
</event>
<event>
 4    1  0.5591986E+002  0.2338305E+02  0.7546771E-02  0.1487743E+00
          2   -1    0    0  503    0  0.00000000000E+00  0.00000000000E+00  0.73617953121E+02  0.73617953121E+02  0.00000000000E+00 0.  1.
         -2   -1    0    0    0  501 -0.00000000000E+00 -0.00000000000E+00 -0.74275194938E+01  0.74275194938E+01  0.00000000000E+00 0. -1.
         21    1    1    2  502  501 -0.22605412439E+02 -0.59801520325E+01  0.32785741451E+02  0.40269985502E+02  0.00000000000E+00 0.  1.
         21    1    1    2  503  502  0.22605412439E+02  0.59801520325E+01  0.33404692176E+02  0.40775487113E+02  0.00000000000E+00 0. -1.
</event>
<event>
 4    1  0.5591986E+002  0.7603109E+02  0.7546771E-02  0.1213374E+00
          2   -1    0    0  502    0  0.00000000000E+00  0.00000000000E+00  0.52677398734E+03  0.52677398734E+03  0.00000000000E+00 0. -1.
         -2   -1    0    0    0  501 -0.00000000000E+00 -0.00000000000E+00 -0.11565193066E+02  0.11565193066E+02  0.00000000000E+00 0.  1.
         21    1    1    2  502  503  0.20524774346E+02 -0.73208329675E+02  0.31847088524E+03  0.32742087692E+03  0.00000000000E+00 0. -1.
         21    1    1    2  503  501 -0.20524774346E+02  0.73208329675E+02  0.19673790903E+03  0.21091830349E+03  0.00000000000E+00 0.  1.
</event>
<event>
 4    1  0.5591986E+002  0.3262234E+02  0.7546771E-02  0.1398096E+00
          2   -1    0    0  503    0  0.00000000000E+00  0.00000000000E+00  0.31468136338E+04  0.31468136338E+04  0.00000000000E+00 0. -1.
         -2   -1    0    0    0  501 -0.00000000000E+00 -0.00000000000E+00 -0.37865629793E+00  0.37865629793E+00  0.00000000000E+00 0.  1.
         21    1    1    2  502  501  0.28974859169E+02  0.14989147680E+02  0.10587901239E+04  0.10592925675E+04  0.00000000000E+00 0.  1.
         21    1    1    2  503  502 -0.28974859169E+02 -0.14989147680E+02  0.20876448537E+04  0.20878997227E+04  0.00000000000E+00 0. -1.
</event>
<event>
 4    1  0.5591986E+002  0.3113628E+02  0.7546771E-02  0.1409973E+00
          2   -1    0    0  503    0  0.00000000000E+00  0.00000000000E+00  0.55429118036E+02  0.55429118036E+02  0.00000000000E+00 0. -1.
         -2   -1    0    0    0  501 -0.00000000000E+00 -0.00000000000E+00 -0.68366413393E+02  0.68366413393E+02  0.00000000000E+00 0.  1.
         21    1    1    2  502  501 -0.13336778893E+02  0.28135350749E+02 -0.59864911060E+02  0.67477960915E+02  0.00000000000E+00 0.  1.
         21    1    1    2  503  502  0.13336778893E+02 -0.28135350749E+02  0.46927615703E+02  0.56317570514E+02  0.00000000000E+00 0. -1.
</event>
<event>
 4    1  0.5591986E+002  0.2516968E+02  0.7546771E-02  0.1466914E+00
          2   -1    0    0  503    0  0.00000000000E+00  0.00000000000E+00  0.29283963737E+02  0.29283963737E+02  0.00000000000E+00 0. -1.
         -2   -1    0    0    0  501 -0.00000000000E+00 -0.00000000000E+00 -0.21740186706E+02  0.21740186706E+02  0.00000000000E+00 0.  1.
         21    1    1    2  502  501 -0.17495332150E+02  0.18094920278E+02  0.19841774161E+01  0.25247767167E+02  0.00000000000E+00 0. -1.
         21    1    1    2  503  502  0.17495332150E+02 -0.18094920278E+02  0.55595996154E+01  0.25776383276E+02  0.00000000000E+00 0.  1.
</event>
<event>
 4    1  0.5591986E+002  0.1007101E+03  0.7546771E-02  0.1162583E+00
          2   -1    0    0  502    0  0.00000000000E+00  0.00000000000E+00  0.18062078102E+03  0.18062078102E+03  0.00000000000E+00 0.  1.
         -2   -1    0    0    0  501 -0.00000000000E+00 -0.00000000000E+00 -0.56186114624E+02  0.56186114624E+02  0.00000000000E+00 0. -1.
         21    1    1    2  502  503 -0.51109557920E+02  0.86777536723E+02  0.59374034960E+02  0.11690938293E+03  0.00000000000E+00 0.  1.
         21    1    1    2  503  501  0.51109557920E+02 -0.86777536723E+02  0.65060631432E+02  0.11989751271E+03  0.00000000000E+00 0. -1.
</event>
<event>
 4    1  0.5591986E+002  0.5275998E+02  0.7546771E-02  0.1286630E+00
          2   -1    0    0  503    0  0.00000000000E+00  0.00000000000E+00  0.93418375441E+03  0.93418375441E+03  0.00000000000E+00 0.  1.
         -2   -1    0    0    0  501 -0.00000000000E+00 -0.00000000000E+00 -0.96135358299E+01  0.96135358299E+01  0.00000000000E+00 0. -1.
         21    1    1    2  502  501 -0.36992112765E+02 -0.37619128223E+02  0.70282878353E+02  0.87882297447E+02  0.00000000000E+00 0. -1.
         21    1    1    2  503  502  0.36992112765E+02  0.37619128223E+02  0.85428734022E+03  0.85591499279E+03  0.00000000000E+00 0.  1.
</event>
<event>
 4    1  0.5591986E+002  0.2019742E+02  0.7546771E-02  0.1531039E+00
          2   -1    0    0  503    0  0.00000000000E+00  0.00000000000E+00  0.81527860340E+03  0.81527860340E+03  0.00000000000E+00 0.  1.
         -2   -1    0    0    0  501 -0.00000000000E+00 -0.00000000000E+00 -0.67270386880E+00  0.67270386880E+00  0.00000000000E+00 0. -1.
         21    1    1    2  502  501 -0.46096443337E+01  0.19664359486E+02  0.20080512316E+03  0.20181831766E+03  0.00000000000E+00 0. -1.
         21    1    1    2  503  502  0.46096443337E+01 -0.19664359486E+02  0.61380077637E+03  0.61413298961E+03  0.00000000000E+00 0.  1.
</event>
<event>
 4    1  0.5591986E+002  0.2104389E+02  0.7546771E-02  0.1518639E+00
          2   -1    0    0  503    0  0.00000000000E+00  0.00000000000E+00  0.35477801288E+03  0.35477801288E+03  0.00000000000E+00 0.  1.
         -2   -1    0    0    0  501 -0.00000000000E+00 -0.00000000000E+00 -0.25091222470E+01  0.25091222470E+01  0.00000000000E+00 0. -1.
         21    1    1    2  502  501 -0.10392431198E+01  0.21018212649E+02  0.49496135580E+02  0.53783944877E+02  0.00000000000E+00 0. -1.
         21    1    1    2  503  502  0.10392431198E+01 -0.21018212649E+02  0.30277275505E+03  0.30350319025E+03  0.00000000000E+00 0.  1.
</event>
<event>
 4    1  0.5591986E+002  0.2008903E+02  0.7546771E-02  0.1532679E+00
          2   -1    0    0  502    0  0.00000000000E+00  0.00000000000E+00  0.64628305317E+03  0.64628305317E+03  0.00000000000E+00 0.  1.
         -2   -1    0    0    0  501 -0.00000000000E+00 -0.00000000000E+00 -0.36594277364E+01  0.36594277364E+01  0.00000000000E+00 0. -1.
         21    1    1    2  502  503 -0.20063998855E+02  0.10024451193E+01  0.61726046916E+03  0.61758728592E+03  0.00000000000E+00 0.  1.
         21    1    1    2  503  501  0.20063998855E+02 -0.10024451193E+01  0.25363156276E+02  0.32355194986E+02  0.00000000000E+00 0. -1.
</event>
<event>
 4    1  0.5591986E+002  0.4897709E+02  0.7546771E-02  0.1302669E+00
          2   -1    0    0  503    0  0.00000000000E+00  0.00000000000E+00  0.12808195489E+03  0.12808195489E+03  0.00000000000E+00 0. -1.
         -2   -1    0    0    0  501 -0.00000000000E+00 -0.00000000000E+00 -0.58504068673E+02  0.58504068673E+02  0.00000000000E+00 0.  1.
         21    1    1    2  502  501 -0.47817110062E+02  0.10596199886E+02 -0.42135692249E+02  0.64607832559E+02  0.00000000000E+00 0.  1.
         21    1    1    2  503  502  0.47817110062E+02 -0.10596199886E+02  0.11171357847E+03  0.12197819100E+03  0.00000000000E+00 0. -1.
</event>
<event>
 4    1  0.5591986E+002  0.2638290E+02  0.7546771E-02  0.1453907E+00
          2   -1    0    0  502    0  0.00000000000E+00  0.00000000000E+00  0.12791817573E+04  0.12791817573E+04  0.00000000000E+00 0.  1.
         -2   -1    0    0    0  501 -0.00000000000E+00 -0.00000000000E+00 -0.16741579228E+01  0.16741579228E+01  0.00000000000E+00 0. -1.
         21    1    1    2  502  503  0.26184776169E+02 -0.32272063338E+01  0.11649094349E+04  0.11652081569E+04  0.00000000000E+00 0.  1.
         21    1    1    2  503  501 -0.26184776169E+02  0.32272063338E+01  0.11259816447E+03  0.11564775833E+03  0.00000000000E+00 0. -1.
</event>
<event>
 4    1  0.5591986E+002  0.3560108E+02  0.7546771E-02  0.1376386E+00
          2   -1    0    0  502    0  0.00000000000E+00  0.00000000000E+00  0.10830528553E+04  0.10830528553E+04  0.00000000000E+00 0.  1.
         -2   -1    0    0    0  501 -0.00000000000E+00 -0.00000000000E+00 -0.36703754563E+01  0.36703754563E+01  0.00000000000E+00 0. -1.
         21    1    1    2  502  503  0.32275762714E+02  0.15023718163E+02  0.98814230777E+03  0.98878342289E+03  0.00000000000E+00 0.  1.
         21    1    1    2  503  501 -0.32275762714E+02 -0.15023718163E+02  0.91240172094E+02  0.97939807892E+02  0.00000000000E+00 0. -1.
</event>
<event>
 4    1  0.5591986E+002  0.5274931E+02  0.7546771E-02  0.1286673E+00
          2   -1    0    0  503    0  0.00000000000E+00  0.00000000000E+00  0.89883609050E+03  0.89883609050E+03  0.00000000000E+00 0.  1.
         -2   -1    0    0    0  501 -0.00000000000E+00 -0.00000000000E+00 -0.48955019839E+01  0.48955019839E+01  0.00000000000E+00 0. -1.
         21    1    1    2  502  501  0.52028494283E+02  0.86905640478E+01  0.17298443347E+03  0.18084829096E+03  0.00000000000E+00 0. -1.
         21    1    1    2  503  502 -0.52028494283E+02 -0.86905640478E+01  0.72095615504E+03  0.72288330152E+03  0.00000000000E+00 0.  1.
</event>
<event>
 4    1  0.5591986E+002  0.5332617E+02  0.7546771E-02  0.1284361E+00
          2   -1    0    0  503    0  0.00000000000E+00  0.00000000000E+00  0.57461728965E+01  0.57461728965E+01  0.00000000000E+00 0.  1.
         -2   -1    0    0    0  501 -0.00000000000E+00 -0.00000000000E+00 -0.50919753558E+03  0.50919753558E+03  0.00000000000E+00 0. -1.
         21    1    1    2  502  501  0.52188035577E+02 -0.10958545782E+02 -0.20855570195E+03  0.21526532838E+03  0.00000000000E+00 0.  1.
         21    1    1    2  503  502 -0.52188035577E+02  0.10958545782E+02 -0.29489566073E+03  0.29967838010E+03  0.00000000000E+00 0. -1.
</event>
<event>
 4    1  0.5591986E+002  0.2049358E+02  0.7546771E-02  0.1526620E+00
          2   -1    0    0  503    0  0.00000000000E+00  0.00000000000E+00  0.49812008948E+02  0.49812008948E+02  0.00000000000E+00 0. -1.
         -2   -1    0    0    0  501 -0.00000000000E+00 -0.00000000000E+00 -0.11773004229E+02  0.11773004229E+02  0.00000000000E+00 0.  1.
         21    1    1    2  502  501  0.50100035661E+01  0.19871753757E+02  0.26144884944E+01  0.20659677713E+02  0.00000000000E+00 0.  1.
         21    1    1    2  503  502 -0.50100035661E+01 -0.19871753757E+02  0.35424516225E+02  0.40925335464E+02  0.00000000000E+00 0. -1.
</event>
<event>
 4    1  0.5591986E+002  0.2228477E+02  0.7546771E-02  0.1501680E+00
          2   -1    0    0  502    0  0.00000000000E+00  0.00000000000E+00  0.77584733552E+01  0.77584733552E+01  0.00000000000E+00 0. -1.
         -2   -1    0    0    0  501 -0.00000000000E+00 -0.00000000000E+00 -0.79821239221E+02  0.79821239221E+02  0.00000000000E+00 0.  1.
         21    1    1    2  502  503 -0.11276838607E+02 -0.19220919688E+02 -0.55521445701E+02  0.59826764707E+02  0.00000000000E+00 0. -1.
         21    1    1    2  503  501  0.11276838607E+02  0.19220919688E+02 -0.16541320165E+02  0.27752947869E+02  0.00000000000E+00 0.  1.
</event>
<event>
 4    1  0.5591986E+002  0.2723752E+02  0.7546771E-02  0.1445237E+00
          2   -1    0    0  502    0  0.00000000000E+00  0.00000000000E+00  0.40315977742E+03  0.40315977742E+03  0.00000000000E+00 0.  1.
         -2   -1    0    0    0  501 -0.00000000000E+00 -0.00000000000E+00 -0.19770105647E+01  0.19770105647E+01  0.00000000000E+00 0. -1.
         21    1    1    2  502  503 -0.22708231887E+02  0.15040560870E+02  0.25388505555E+03  0.25534193486E+03  0.00000000000E+00 0.  1.
         21    1    1    2  503  501  0.22708231887E+02 -0.15040560870E+02  0.14729771130E+03  0.14979485312E+03  0.00000000000E+00 0. -1.
</event>
<event>
 4    1  0.5591986E+002  0.3200608E+02  0.7546771E-02  0.1402929E+00
          2   -1    0    0  502    0  0.00000000000E+00  0.00000000000E+00  0.76550426767E+02  0.76550426767E+02  0.00000000000E+00 0. -1.
         -2   -1    0    0    0  501 -0.00000000000E+00 -0.00000000000E+00 -0.97550524895E+02  0.97550524895E+02  0.00000000000E+00 0.  1.
         21    1    1    2  502  503 -0.30447350213E+02 -0.98664965844E+01  0.70359534947E+02  0.77297173608E+02  0.00000000000E+00 0. -1.
         21    1    1    2  503  501  0.30447350213E+02  0.98664965844E+01 -0.91359633075E+02  0.96803778053E+02  0.00000000000E+00 0.  1.
</event>
<event>
 4    1  0.5591986E+002  0.2505756E+02  0.7546771E-02  0.1468160E+00
          2   -1    0    0  502    0  0.00000000000E+00  0.00000000000E+00  0.21089569974E+03  0.21089569974E+03  0.00000000000E+00 0. -1.
         -2   -1    0    0    0  501 -0.00000000000E+00 -0.00000000000E+00 -0.57073430475E+01  0.57073430475E+01  0.00000000000E+00 0.  1.
         21    1    1    2  502  503  0.23488850686E+01 -0.24947229736E+02  0.17749889982E+03  0.17925886580E+03  0.00000000000E+00 0. -1.
         21    1    1    2  503  501 -0.23488850686E+01  0.24947229736E+02  0.27689456874E+02  0.37344176983E+02  0.00000000000E+00 0.  1.
</event>
<event>
 4    1  0.5591986E+002  0.3286720E+02  0.7546771E-02  0.1396211E+00
          2   -1    0    0  502    0  0.00000000000E+00  0.00000000000E+00  0.16911778621E+04  0.16911778621E+04  0.00000000000E+00 0.  1.
         -2   -1    0    0    0  501 -0.00000000000E+00 -0.00000000000E+00 -0.42355175159E+01  0.42355175159E+01  0.00000000000E+00 0. -1.
         21    1    1    2  502  503  0.32674608253E+02 -0.35528702103E+01  0.16246457245E+04  0.16249781485E+04  0.00000000000E+00 0.  1.
         21    1    1    2  503  501 -0.32674608253E+02  0.35528702103E+01  0.62296620108E+02  0.70435231157E+02  0.00000000000E+00 0. -1.
</event>
<event>
 4    1  0.5591986E+002  0.2355068E+02  0.7546771E-02  0.1485697E+00
          2   -1    0    0  503    0  0.00000000000E+00  0.00000000000E+00  0.20719952058E+01  0.20719952058E+01  0.00000000000E+00 0. -1.
         -2   -1    0    0    0  501 -0.00000000000E+00 -0.00000000000E+00 -0.26777730490E+03  0.26777730490E+03  0.00000000000E+00 0.  1.
         21    1    1    2  502  501  0.11257620661E+02 -0.20685759576E+02 -0.13540548141E+03  0.13743827366E+03  0.00000000000E+00 0.  1.
         21    1    1    2  503  502 -0.11257620661E+02  0.20685759576E+02 -0.13029982829E+03  0.13241102645E+03  0.00000000000E+00 0. -1.
</event>
<event>
 4    1  0.5591986E+002  0.2289674E+02  0.7546771E-02  0.1493799E+00
          2   -1    0    0  502    0  0.00000000000E+00  0.00000000000E+00  0.17430594993E+03  0.17430594993E+03  0.00000000000E+00 0. -1.
         -2   -1    0    0    0  501 -0.00000000000E+00 -0.00000000000E+00 -0.36919838108E+01  0.36919838108E+01  0.00000000000E+00 0.  1.
         21    1    1    2  502  503  0.21897794183E+02  0.66893528596E+01  0.46991729860E+02  0.52273162397E+02  0.00000000000E+00 0.  1.
         21    1    1    2  503  501 -0.21897794183E+02 -0.66893528596E+01  0.12362223626E+03  0.12572477135E+03  0.00000000000E+00 0. -1.
</event>
<event>
 4    1  0.5591986E+002  0.2580316E+02  0.7546771E-02  0.1460016E+00
          2   -1    0    0  503    0  0.00000000000E+00  0.00000000000E+00  0.86098880987E+01  0.86098880987E+01  0.00000000000E+00 0.  1.
         -2   -1    0    0    0  501 -0.00000000000E+00 -0.00000000000E+00 -0.28951990967E+03  0.28951990967E+03  0.00000000000E+00 0. -1.
         21    1    1    2  502  501 -0.10383213463E+02  0.23621847680E+02 -0.26806906823E+03  0.26930805437E+03  0.00000000000E+00 0. -1.
         21    1    1    2  503  502  0.10383213463E+02 -0.23621847680E+02 -0.12840953345E+02  0.28821743397E+02  0.00000000000E+00 0.  1.
</event>
<event>
 4    1  0.5591986E+002  0.7813421E+02  0.7546771E-02  0.1208247E+00
          2   -1    0    0  503    0  0.00000000000E+00  0.00000000000E+00  0.10177253873E+04  0.10177253873E+04  0.00000000000E+00 0. -1.
         -2   -1    0    0    0  501 -0.00000000000E+00 -0.00000000000E+00 -0.60022838463E+01  0.60022838463E+01  0.00000000000E+00 0.  1.
         21    1    1    2  502  501  0.71453477425E+02  0.31612571494E+02  0.49322581633E+03  0.49937627097E+03  0.00000000000E+00 0. -1.
         21    1    1    2  503  502 -0.71453477425E+02 -0.31612571494E+02  0.51849728709E+03  0.52435140014E+03  0.00000000000E+00 0.  1.
</event>
<event>
 4    1  0.5591986E+002  0.3096657E+02  0.7546771E-02  0.1411379E+00
          2   -1    0    0  502    0  0.00000000000E+00  0.00000000000E+00  0.77241710270E+02  0.77241710270E+02  0.00000000000E+00 0. -1.
         -2   -1    0    0    0  501 -0.00000000000E+00 -0.00000000000E+00 -0.12841971611E+02  0.12841971611E+02  0.00000000000E+00 0.  1.
         21    1    1    2  502  503  0.25513946164E+02  0.17548989202E+02  0.23983501700E+02  0.39168058730E+02  0.00000000000E+00 0.  1.
         21    1    1    2  503  501 -0.25513946164E+02 -0.17548989202E+02  0.40416236959E+02  0.50915623151E+02  0.00000000000E+00 0. -1.
</event>
<event>
 4    1  0.5591986E+002  0.4051760E+02  0.7546771E-02  0.1345479E+00
          2   -1    0    0  502    0  0.00000000000E+00  0.00000000000E+00  0.17686689716E+03  0.17686689716E+03  0.00000000000E+00 0.  1.
         -2   -1    0    0    0  501 -0.00000000000E+00 -0.00000000000E+00 -0.35083912593E+02  0.35083912593E+02  0.00000000000E+00 0. -1.
         21    1    1    2  502  503  0.40151348589E+02 -0.54355446884E+01  0.16177333994E+03  0.16677016956E+03  0.00000000000E+00 0.  1.
         21    1    1    2  503  501 -0.40151348589E+02  0.54355446884E+01 -0.19990355379E+02  0.45180640187E+02  0.00000000000E+00 0. -1.
</event>
<event>
 4    1  0.5591986E+002  0.2078354E+02  0.7546771E-02  0.1522378E+00
          2   -1    0    0  503    0  0.00000000000E+00  0.00000000000E+00  0.14536298664E+04  0.14536298664E+04  0.00000000000E+00 0. -1.
         -2   -1    0    0    0  501 -0.00000000000E+00 -0.00000000000E+00 -0.30665711022E+00  0.30665711022E+00  0.00000000000E+00 0.  1.
         21    1    1    2  502  501 -0.18846379878E+02 -0.87618117006E+01  0.59870356320E+03  0.59906419686E+03  0.00000000000E+00 0. -1.
         21    1    1    2  503  502  0.18846379878E+02  0.87618117006E+01  0.85461964609E+03  0.85487232664E+03  0.00000000000E+00 0.  1.
</event>
<event>
 4    1  0.5591986E+002  0.3415296E+02  0.7546771E-02  0.1386618E+00
          2   -1    0    0  502    0  0.00000000000E+00  0.00000000000E+00  0.55172709527E+03  0.55172709527E+03  0.00000000000E+00 0. -1.
         -2   -1    0    0    0  501 -0.00000000000E+00 -0.00000000000E+00 -0.98207825135E+01  0.98207825135E+01  0.00000000000E+00 0.  1.
         21    1    1    2  502  503 -0.11375719204E+02  0.32202759423E+02  0.51967649561E+03  0.52079754683E+03  0.00000000000E+00 0. -1.
         21    1    1    2  503  501  0.11375719204E+02 -0.32202759423E+02  0.22229817146E+02  0.40750330946E+02  0.00000000000E+00 0.  1.
</event>
<event>
 4    1  0.5591986E+002  0.2227770E+02  0.7546771E-02  0.1501773E+00
          2   -1    0    0  502    0  0.00000000000E+00  0.00000000000E+00  0.66760476230E+01  0.66760476230E+01  0.00000000000E+00 0.  1.
         -2   -1    0    0    0  501 -0.00000000000E+00 -0.00000000000E+00 -0.10098766540E+03  0.10098766540E+03  0.00000000000E+00 0. -1.
         21    1    1    2  502  503 -0.16862677714E+02 -0.14558362522E+02 -0.19503163752E+02  0.29608600361E+02  0.00000000000E+00 0.  1.
         21    1    1    2  503  501  0.16862677714E+02  0.14558362522E+02 -0.74808454030E+02  0.78055112666E+02  0.00000000000E+00 0. -1.
</event>
<event>
 4    1  0.5591986E+002  0.2557960E+02  0.7546771E-02  0.1462423E+00
          2   -1    0    0  503    0  0.00000000000E+00  0.00000000000E+00  0.56536227917E+01  0.56536227917E+01  0.00000000000E+00 0.  1.
         -2   -1    0    0    0  501 -0.00000000000E+00 -0.00000000000E+00 -0.13335243895E+03  0.13335243895E+03  0.00000000000E+00 0. -1.
         21    1    1    2  502  501 -0.14969889742E+02  0.20741709564E+02 -0.89112561185E+02  0.92711189592E+02  0.00000000000E+00 0.  1.
         21    1    1    2  503  502  0.14969889742E+02 -0.20741709564E+02 -0.38586254974E+02  0.46294872151E+02  0.00000000000E+00 0. -1.
</event>
<event>
 4    1  0.5591986E+002  0.2739706E+02  0.7546771E-02  0.1443660E+00
          2   -1    0    0  503    0  0.00000000000E+00  0.00000000000E+00  0.65257707134E+03  0.65257707134E+03  0.00000000000E+00 0.  1.
         -2   -1    0    0    0  501 -0.00000000000E+00 -0.00000000000E+00 -0.25283018119E+01  0.25283018119E+01  0.00000000000E+00 0. -1.
         21    1    1    2  502  501  0.25542084459E+02 -0.99096306249E+01  0.83196586156E+02  0.87591499619E+02  0.00000000000E+00 0. -1.
         21    1    1    2  503  502 -0.25542084459E+02  0.99096306249E+01  0.56685218337E+03  0.56751387353E+03  0.00000000000E+00 0.  1.
</event>
<event>
 4    1  0.5591986E+002  0.2296043E+02  0.7546771E-02  0.1492996E+00
          2   -1    0    0  503    0  0.00000000000E+00  0.00000000000E+00  0.10708725941E+03  0.10708725941E+03  0.00000000000E+00 0.  1.
         -2   -1    0    0    0  501 -0.00000000000E+00 -0.00000000000E+00 -0.54121341482E+01  0.54121341482E+01  0.00000000000E+00 0. -1.
         21    1    1    2  502  501  0.64141925770E-01  0.22960343728E+02  0.33925851997E+02  0.40965167301E+02  0.00000000000E+00 0. -1.
         21    1    1    2  503  502 -0.64141925770E-01 -0.22960343728E+02  0.67749273265E+02  0.71534226257E+02  0.00000000000E+00 0.  1.
</event>
<event>
 4    1  0.5591986E+002  0.2033196E+02  0.7546771E-02  0.1529020E+00
          2   -1    0    0  502    0  0.00000000000E+00  0.00000000000E+00  0.15004106145E+03  0.15004106145E+03  0.00000000000E+00 0. -1.
         -2   -1    0    0    0  501 -0.00000000000E+00 -0.00000000000E+00 -0.95282958914E+01  0.95282958914E+01  0.00000000000E+00 0.  1.
         21    1    1    2  502  503  0.14533425681E+02  0.14218590437E+02  0.13752405908E+03  0.13901890376E+03  0.00000000000E+00 0. -1.
         21    1    1    2  503  501 -0.14533425681E+02 -0.14218590437E+02  0.29887064778E+01  0.20550453583E+02  0.00000000000E+00 0.  1.
</event>
<event>
 4    1  0.5591986E+002  0.3232532E+02  0.7546771E-02  0.1400410E+00
          2   -1    0    0  502    0  0.00000000000E+00  0.00000000000E+00  0.12837152739E+04  0.12837152739E+04  0.00000000000E+00 0. -1.
         -2   -1    0    0    0  501 -0.00000000000E+00 -0.00000000000E+00 -0.81778010255E+00  0.81778010255E+00  0.00000000000E+00 0.  1.
         21    1    1    2  502  503 -0.25900776428E+02 -0.19341049864E+02  0.68519532042E+03  0.68595739922E+03  0.00000000000E+00 0. -1.
         21    1    1    2  503  501  0.25900776428E+02  0.19341049864E+02  0.59770217341E+03  0.59857565481E+03  0.00000000000E+00 0.  1.
</event>
<event>
 4    1  0.5591986E+002  0.5042622E+02  0.7546771E-02  0.1296335E+00
          2   -1    0    0  503    0  0.00000000000E+00  0.00000000000E+00  0.60903816591E+03  0.60903816591E+03  0.00000000000E+00 0.  1.
         -2   -1    0    0    0  501 -0.00000000000E+00 -0.00000000000E+00 -0.43932961922E+01  0.43932961922E+01  0.00000000000E+00 0. -1.
         21    1    1    2  502  501 -0.31590344326E+02  0.39304629810E+02  0.37067431254E+03  0.37408855871E+03  0.00000000000E+00 0. -1.
         21    1    1    2  503  502  0.31590344326E+02 -0.39304629810E+02  0.23397055717E+03  0.23934290339E+03  0.00000000000E+00 0.  1.
</event>
<event>
 4    1  0.5591986E+002  0.4160734E+02  0.7546771E-02  0.1339316E+00
          2   -1    0    0  503    0  0.00000000000E+00  0.00000000000E+00  0.87505774825E+01  0.87505774825E+01  0.00000000000E+00 0. -1.
         -2   -1    0    0    0  501 -0.00000000000E+00 -0.00000000000E+00 -0.19891308394E+03  0.19891308394E+03  0.00000000000E+00 0.  1.
         21    1    1    2  502  501  0.40980667433E+02 -0.71941201487E+01 -0.10272534293E+03  0.11083170372E+03  0.00000000000E+00 0. -1.
         21    1    1    2  503  502 -0.40980667433E+02  0.71941201487E+01 -0.87437163522E+02  0.96831957704E+02  0.00000000000E+00 0.  1.
</event>
<event>
 4    1  0.5591986E+002  0.2977981E+02  0.7546771E-02  0.1421520E+00
          2   -1    0    0  502    0  0.00000000000E+00  0.00000000000E+00  0.34927500468E+03  0.34927500468E+03  0.00000000000E+00 0.  1.
         -2   -1    0    0    0  501 -0.00000000000E+00 -0.00000000000E+00 -0.46782940354E+01  0.46782940354E+01  0.00000000000E+00 0. -1.
         21    1    1    2  502  503  0.28392546747E+02 -0.89833377508E+01  0.29197223301E+03  0.29348700468E+03  0.00000000000E+00 0.  1.
         21    1    1    2  503  501 -0.28392546747E+02  0.89833377508E+01  0.52624477634E+02  0.60466294033E+02  0.00000000000E+00 0. -1.
</event>
<event>
 4    1  0.5591986E+002  0.2430596E+02  0.7546771E-02  0.1476719E+00
          2   -1    0    0  503    0  0.00000000000E+00  0.00000000000E+00  0.11196611333E+03  0.11196611333E+03  0.00000000000E+00 0.  1.
         -2   -1    0    0    0  501 -0.00000000000E+00 -0.00000000000E+00 -0.13637404334E+02  0.13637404334E+02  0.00000000000E+00 0. -1.
         21    1    1    2  502  501 -0.69349948371E+01  0.23295616829E+02 -0.95539145014E-02  0.24305966513E+02  0.00000000000E+00 0.  1.
         21    1    1    2  503  502  0.69349948371E+01 -0.23295616829E+02  0.98338262907E+02  0.10129755115E+03  0.00000000000E+00 0. -1.
</event>
<event>
 4    1  0.5591986E+002  0.3300590E+02  0.7546771E-02  0.1395152E+00
          2   -1    0    0  502    0  0.00000000000E+00  0.00000000000E+00  0.22732538222E+02  0.22732538222E+02  0.00000000000E+00 0.  1.
         -2   -1    0    0    0  501 -0.00000000000E+00 -0.00000000000E+00 -0.50256558146E+02  0.50256558146E+02  0.00000000000E+00 0. -1.
         21    1    1    2  502  503  0.29543493838E+02  0.14716373271E+02 -0.58964438908E+01  0.33528461357E+02  0.00000000000E+00 0. -1.
         21    1    1    2  503  501 -0.29543493838E+02 -0.14716373271E+02 -0.21627576033E+02  0.39460635011E+02  0.00000000000E+00 0.  1.
</event>
<event>
 4    1  0.5591986E+002  0.2496681E+02  0.7546771E-02  0.1469175E+00
          2   -1    0    0  502    0  0.00000000000E+00  0.00000000000E+00  0.52683375645E+03  0.52683375645E+03  0.00000000000E+00 0. -1.
         -2   -1    0    0    0  501 -0.00000000000E+00 -0.00000000000E+00 -0.56578487803E+01  0.56578487803E+01  0.00000000000E+00 0.  1.
         21    1    1    2  502  503 -0.17989577472E+02  0.17312330203E+02  0.49736375656E+03  0.49799000794E+03  0.00000000000E+00 0. -1.
         21    1    1    2  503  501  0.17989577472E+02 -0.17312330203E+02  0.23812151109E+02  0.34501597284E+02  0.00000000000E+00 0.  1.
</event>
<event>
 4    1  0.5591986E+002  0.2200516E+02  0.7546771E-02  0.1505383E+00
          2   -1    0    0  503    0  0.00000000000E+00  0.00000000000E+00  0.64478270658E+03  0.64478270658E+03  0.00000000000E+00 0. -1.
         -2   -1    0    0    0  501 -0.00000000000E+00 -0.00000000000E+00 -0.19125009543E+02  0.19125009543E+02  0.00000000000E+00 0.  1.
         21    1    1    2  502  501  0.12062367879E+02 -0.18404524544E+02 -0.12542226943E+02  0.25328535276E+02  0.00000000000E+00 0.  1.
         21    1    1    2  503  502 -0.12062367879E+02  0.18404524544E+02  0.63819992398E+03  0.63857918085E+03  0.00000000000E+00 0. -1.
</event>
<event>
 4    1  0.5591986E+002  0.4756240E+02  0.7546771E-02  0.1309102E+00
          2   -1    0    0  503    0  0.00000000000E+00  0.00000000000E+00  0.11793659549E+04  0.11793659549E+04  0.00000000000E+00 0. -1.
         -2   -1    0    0    0  501 -0.00000000000E+00 -0.00000000000E+00 -0.19258488415E+01  0.19258488415E+01  0.00000000000E+00 0.  1.
         21    1    1    2  502  501  0.23011794555E+02 -0.41624985525E+02  0.62610316863E+03  0.62790712679E+03  0.00000000000E+00 0. -1.
         21    1    1    2  503  502 -0.23011794555E+02  0.41624985525E+02  0.55133693741E+03  0.55338467693E+03  0.00000000000E+00 0.  1.
</event>
<event>
 4    1  0.5591986E+002  0.2492707E+02  0.7546771E-02  0.1469621E+00
          2   -1    0    0  502    0  0.00000000000E+00  0.00000000000E+00  0.16800239795E+03  0.16800239795E+03  0.00000000000E+00 0. -1.
         -2   -1    0    0    0  501 -0.00000000000E+00 -0.00000000000E+00 -0.95578854541E+02  0.95578854541E+02  0.00000000000E+00 0.  1.
         21    1    1    2  502  503 -0.24583100940E+02  0.41267216941E+01  0.16542736221E+03  0.16729486200E+03  0.00000000000E+00 0. -1.
         21    1    1    2  503  501  0.24583100940E+02 -0.41267216941E+01 -0.93003818797E+02  0.96286390495E+02  0.00000000000E+00 0.  1.
</event>
<event>
 4    1  0.5591986E+002  0.2221921E+02  0.7546771E-02  0.1502542E+00
          2   -1    0    0  503    0  0.00000000000E+00  0.00000000000E+00  0.28208113997E+03  0.28208113997E+03  0.00000000000E+00 0. -1.
         -2   -1    0    0    0  501 -0.00000000000E+00 -0.00000000000E+00 -0.47877349312E+01  0.47877349312E+01  0.00000000000E+00 0.  1.
         21    1    1    2  502  501 -0.22206747126E+02 -0.74414196422E+00  0.24398255688E+02  0.32999518872E+02  0.00000000000E+00 0.  1.
         21    1    1    2  503  502  0.22206747126E+02  0.74414196422E+00  0.25289514935E+03  0.25386935603E+03  0.00000000000E+00 0. -1.
</event>
<event>
 4    1  0.5591986E+002  0.2536903E+02  0.7546771E-02  0.1464717E+00
          2   -1    0    0  503    0  0.00000000000E+00  0.00000000000E+00  0.93340693089E+02  0.93340693089E+02  0.00000000000E+00 0. -1.
         -2   -1    0    0    0  501 -0.00000000000E+00 -0.00000000000E+00 -0.86251632048E+01  0.86251632048E+01  0.00000000000E+00 0.  1.
         21    1    1    2  502  501  0.11371519958E+02 -0.22677662747E+02  0.19523892311E+02  0.32012032501E+02  0.00000000000E+00 0.  1.
         21    1    1    2  503  502 -0.11371519958E+02  0.22677662747E+02  0.65191637573E+02  0.69953823793E+02  0.00000000000E+00 0. -1.
</event>
<event>
 4    1  0.5591986E+002  0.2503315E+02  0.7546771E-02  0.1468433E+00
          2   -1    0    0  502    0  0.00000000000E+00  0.00000000000E+00  0.17101752299E+01  0.17101752299E+01  0.00000000000E+00 0.  1.
         -2   -1    0    0    0  501 -0.00000000000E+00 -0.00000000000E+00 -0.50862458440E+03  0.50862458440E+03  0.00000000000E+00 0. -1.
         21    1    1    2  502  503 -0.13251613785E+02 -0.21238015959E+02 -0.11853953549E+03  0.12115395191E+03  0.00000000000E+00 0.  1.
         21    1    1    2  503  501  0.13251613785E+02  0.21238015959E+02 -0.38837487367E+03  0.38918080771E+03  0.00000000000E+00 0. -1.
</event>
<event>
 4    1  0.5591986E+002  0.2848689E+02  0.7546771E-02  0.1433218E+00
          2   -1    0    0  502    0  0.00000000000E+00  0.00000000000E+00  0.29353798802E+03  0.29353798802E+03  0.00000000000E+00 0. -1.
         -2   -1    0    0    0  501 -0.00000000000E+00 -0.00000000000E+00 -0.66882789591E+01  0.66882789591E+01  0.00000000000E+00 0.  1.
         21    1    1    2  502  503  0.27489658222E+02 -0.74713761410E+01  0.25840174596E+03  0.25996723848E+03  0.00000000000E+00 0. -1.
         21    1    1    2  503  501 -0.27489658222E+02  0.74713761410E+01  0.28447963099E+02  0.40259028492E+02  0.00000000000E+00 0.  1.
</event>
<event>
 4    1  0.5591986E+002  0.7057311E+02  0.7546771E-02  0.1227605E+00
          2   -1    0    0  502    0  0.00000000000E+00  0.00000000000E+00  0.70788287685E+03  0.70788287685E+03  0.00000000000E+00 0.  1.
         -2   -1    0    0    0  501 -0.00000000000E+00 -0.00000000000E+00 -0.10753675274E+02  0.10753675274E+02  0.00000000000E+00 0. -1.
         21    1    1    2  502  503  0.35492901740E+02  0.60998510197E+02  0.55983798697E+03  0.56426867358E+03  0.00000000000E+00 0.  1.
         21    1    1    2  503  501 -0.35492901740E+02 -0.60998510197E+02  0.13729121460E+03  0.15436787854E+03  0.00000000000E+00 0. -1.
</event>
<event>
 4    1  0.5591986E+002  0.2889328E+02  0.7546771E-02  0.1429464E+00
          2   -1    0    0  502    0  0.00000000000E+00  0.00000000000E+00  0.15456430103E+03  0.15456430103E+03  0.00000000000E+00 0. -1.
         -2   -1    0    0    0  501 -0.00000000000E+00 -0.00000000000E+00 -0.78848270407E+01  0.78848270407E+01  0.00000000000E+00 0.  1.
         21    1    1    2  502  503 -0.43698368622E+01 -0.28560920293E+02  0.11892670936E+03  0.12238620772E+03  0.00000000000E+00 0. -1.
         21    1    1    2  503  501  0.43698368622E+01  0.28560920293E+02  0.27752764636E+02  0.40062920352E+02  0.00000000000E+00 0.  1.
</event>
<event>
 4    1  0.5591986E+002  0.3580931E+02  0.7546771E-02  0.1374961E+00
          2   -1    0    0  503    0  0.00000000000E+00  0.00000000000E+00  0.79519945909E+03  0.79519945909E+03  0.00000000000E+00 0. -1.
         -2   -1    0    0    0  501 -0.00000000000E+00 -0.00000000000E+00 -0.79231000342E+02  0.79231000342E+02  0.00000000000E+00 0.  1.
         21    1    1    2  502  501  0.58706810021E+01  0.35324804249E+02 -0.74758887048E+02  0.82892688962E+02  0.00000000000E+00 0.  1.
         21    1    1    2  503  502 -0.58706810021E+01 -0.35324804249E+02  0.79072734579E+03  0.79153777047E+03  0.00000000000E+00 0. -1.
</event>
<event>
 4    1  0.5591986E+002  0.2547513E+02  0.7546771E-02  0.1463558E+00
          2   -1    0    0  502    0  0.00000000000E+00  0.00000000000E+00  0.31135294539E+02  0.31135294539E+02  0.00000000000E+00 0.  1.
         -2   -1    0    0    0  501 -0.00000000000E+00 -0.00000000000E+00 -0.21751447426E+02  0.21751447426E+02  0.00000000000E+00 0. -1.
         21    1    1    2  502  503 -0.23875962158E+02 -0.88837392382E+01  0.10093200466E+02  0.27401735118E+02  0.00000000000E+00 0.  1.
         21    1    1    2  503  501  0.23875962158E+02  0.88837392382E+01 -0.70935335277E+00  0.25485006847E+02  0.00000000000E+00 0. -1.
</event>
<event>
 4    1  0.5591986E+002  0.3056263E+02  0.7546771E-02  0.1414769E+00
          2   -1    0    0  502    0  0.00000000000E+00  0.00000000000E+00  0.25873598123E+02  0.25873598123E+02  0.00000000000E+00 0.  1.
         -2   -1    0    0    0  501 -0.00000000000E+00 -0.00000000000E+00 -0.13688384226E+03  0.13688384226E+03  0.00000000000E+00 0. -1.
         21    1    1    2  502  503  0.28981302864E+02 -0.97035346838E+01  0.14322473173E+02  0.33752151618E+02  0.00000000000E+00 0.  1.
         21    1    1    2  503  501 -0.28981302864E+02  0.97035346838E+01 -0.12533271731E+03  0.12900528876E+03  0.00000000000E+00 0. -1.
</event>
<event>
 4    1  0.5591986E+002  0.2077414E+02  0.7546771E-02  0.1522514E+00
          2   -1    0    0  502    0  0.00000000000E+00  0.00000000000E+00  0.18854179232E+01  0.18854179232E+01  0.00000000000E+00 0. -1.
         -2   -1    0    0    0  501 -0.00000000000E+00 -0.00000000000E+00 -0.23633576642E+03  0.23633576642E+03  0.00000000000E+00 0.  1.
         21    1    1    2  502  503 -0.15243253274E+02 -0.14114106525E+02 -0.96092086873E+02  0.98312023339E+02  0.00000000000E+00 0.  1.
         21    1    1    2  503  501  0.15243253274E+02  0.14114106525E+02 -0.13835826163E+03  0.13990916101E+03  0.00000000000E+00 0. -1.
</event>
<event>
 4    1  0.5591986E+002  0.2124204E+02  0.7546771E-02  0.1515837E+00
          2   -1    0    0  502    0  0.00000000000E+00  0.00000000000E+00  0.58037281976E+03  0.58037281976E+03  0.00000000000E+00 0. -1.
         -2   -1    0    0    0  501 -0.00000000000E+00 -0.00000000000E+00 -0.20957449468E+01  0.20957449468E+01  0.00000000000E+00 0.  1.
         21    1    1    2  502  503  0.21115207547E+02  0.23177771856E+01  0.52011930515E+03  0.52055289421E+03  0.00000000000E+00 0. -1.
         21    1    1    2  503  501 -0.21115207547E+02 -0.23177771856E+01  0.58157769661E+02  0.61915670495E+02  0.00000000000E+00 0.  1.
</event>
<event>
 4    1  0.5591986E+002  0.5106565E+02  0.7546771E-02  0.1293617E+00
          2   -1    0    0  502    0  0.00000000000E+00  0.00000000000E+00  0.12001769266E+04  0.12001769266E+04  0.00000000000E+00 0.  1.
         -2   -1    0    0    0  501 -0.00000000000E+00 -0.00000000000E+00 -0.34821356018E+01  0.34821356018E+01  0.00000000000E+00 0. -1.
         21    1    1    2  502  503  0.32103495806E+02 -0.39712289560E+02  0.96739486230E+03  0.96874171996E+03  0.00000000000E+00 0.  1.
         21    1    1    2  503  501 -0.32103495806E+02  0.39712289560E+02  0.22929992867E+03  0.23491734222E+03  0.00000000000E+00 0. -1.
</event>
<event>
 4    1  0.5591986E+002  0.3095312E+02  0.7546771E-02  0.1411491E+00
          2   -1    0    0  502    0  0.00000000000E+00  0.00000000000E+00  0.12205000045E+04  0.12205000045E+04  0.00000000000E+00 0. -1.
         -2   -1    0    0    0  501 -0.00000000000E+00 -0.00000000000E+00 -0.88337516491E+00  0.88337516491E+00  0.00000000000E+00 0.  1.
         21    1    1    2  502  503  0.17624080437E-01  0.30953111126E+02  0.81360021431E+03  0.81418880128E+03  0.00000000000E+00 0. -1.
         21    1    1    2  503  501 -0.17624080437E-01 -0.30953111126E+02  0.40601641504E+03  0.40719457840E+03  0.00000000000E+00 0.  1.
</event>
<event>
 4    1  0.5591986E+002  0.2147280E+02  0.7546771E-02  0.1512620E+00
          2   -1    0    0  502    0  0.00000000000E+00  0.00000000000E+00  0.11910456168E+04  0.11910456168E+04  0.00000000000E+00 0. -1.
         -2   -1    0    0    0  501 -0.00000000000E+00 -0.00000000000E+00 -0.72634940583E+00  0.72634940583E+00  0.00000000000E+00 0.  1.
         21    1    1    2  502  503  0.29254048979E+00  0.21470803180E+02  0.10023854484E+04  0.10026154139E+04  0.00000000000E+00 0. -1.
         21    1    1    2  503  501 -0.29254048979E+00 -0.21470803180E+02  0.18793381897E+03  0.18915655231E+03  0.00000000000E+00 0.  1.
</event>
<event>
 4    1  0.5591986E+002  0.3534466E+02  0.7546771E-02  0.1378156E+00
          2   -1    0    0  502    0  0.00000000000E+00  0.00000000000E+00  0.72413833708E+02  0.72413833708E+02  0.00000000000E+00 0. -1.
         -2   -1    0    0    0  501 -0.00000000000E+00 -0.00000000000E+00 -0.32784995243E+02  0.32784995243E+02  0.00000000000E+00 0.  1.
         21    1    1    2  502  503 -0.28937284249E+02  0.20294793938E+02  0.56020236969E+02  0.66238297312E+02  0.00000000000E+00 0. -1.
         21    1    1    2  503  501  0.28937284249E+02 -0.20294793938E+02 -0.16391398504E+02  0.38960531639E+02  0.00000000000E+00 0.  1.
</event>
<event>
 4    1  0.5591986E+002  0.3593071E+02  0.7546771E-02  0.1374136E+00
          2   -1    0    0  503    0  0.00000000000E+00  0.00000000000E+00  0.94403888650E+02  0.94403888650E+02  0.00000000000E+00 0.  1.
         -2   -1    0    0    0  501 -0.00000000000E+00 -0.00000000000E+00 -0.28148370176E+02  0.28148370176E+02  0.00000000000E+00 0. -1.
         21    1    1    2  502  501  0.31290278550E+02 -0.17661664927E+02 -0.10810488845E+02  0.37521761803E+02  0.00000000000E+00 0. -1.
         21    1    1    2  503  502 -0.31290278550E+02  0.17661664927E+02  0.77066007319E+02  0.85030497022E+02  0.00000000000E+00 0.  1.
</event>
<event>
 4    1  0.5591986E+002  0.2194346E+02  0.7546771E-02  0.1506209E+00
          2   -1    0    0  502    0  0.00000000000E+00  0.00000000000E+00  0.10311186781E+02  0.10311186781E+02  0.00000000000E+00 0. -1.
         -2   -1    0    0    0  501 -0.00000000000E+00 -0.00000000000E+00 -0.65756837172E+02  0.65756837172E+02  0.00000000000E+00 0.  1.
         21    1    1    2  502  503  0.40651090101E+01 -0.21563638410E+02 -0.72467993948E+01  0.23109126210E+02  0.00000000000E+00 0. -1.
         21    1    1    2  503  501 -0.40651090101E+01  0.21563638410E+02 -0.48198850997E+02  0.52958897743E+02  0.00000000000E+00 0.  1.
</event>
<event>
 4    1  0.5591986E+002  0.2818717E+02  0.7546771E-02  0.1436034E+00
          2   -1    0    0  503    0  0.00000000000E+00  0.00000000000E+00  0.71356057162E+03  0.71356057162E+03  0.00000000000E+00 0.  1.
         -2   -1    0    0    0  501 -0.00000000000E+00 -0.00000000000E+00 -0.24050192452E+01  0.24050192452E+01  0.00000000000E+00 0. -1.
         21    1    1    2  502  501  0.24633641194E+02  0.13700381760E+02  0.93239848458E+02  0.97407320460E+02  0.00000000000E+00 0. -1.
         21    1    1    2  503  502 -0.24633641194E+02 -0.13700381760E+02  0.61791570391E+03  0.61855827040E+03  0.00000000000E+00 0.  1.
</event>
<event>
 4    1  0.5591986E+002  0.4314013E+02  0.7546771E-02  0.1331006E+00
          2   -1    0    0  503    0  0.00000000000E+00  0.00000000000E+00  0.24711894113E+02  0.24711894113E+02  0.00000000000E+00 0. -1.
         -2   -1    0    0    0  501 -0.00000000000E+00 -0.00000000000E+00 -0.15205060433E+03  0.15205060433E+03  0.00000000000E+00 0.  1.
         21    1    1    2  502  501 -0.39432797352E+01 -0.42959536302E+02 -0.12645734117E+03  0.13361336142E+03  0.00000000000E+00 0.  1.
         21    1    1    2  503  502  0.39432797352E+01  0.42959536302E+02 -0.88136904697E+00  0.43149137022E+02  0.00000000000E+00 0. -1.
</event>
<event>
 4    1  0.5591986E+002  0.2094638E+02  0.7546771E-02  0.1520032E+00
          2   -1    0    0  502    0  0.00000000000E+00  0.00000000000E+00  0.13193967584E+04  0.13193967584E+04  0.00000000000E+00 0.  1.
         -2   -1    0    0    0  501 -0.00000000000E+00 -0.00000000000E+00 -0.36781316247E+00  0.36781316247E+00  0.00000000000E+00 0. -1.
         21    1    1    2  502  503  0.51735005755E+01  0.20297435569E+02  0.86386729073E+03  0.86412119925E+03  0.00000000000E+00 0.  1.
         21    1    1    2  503  501 -0.51735005755E+01 -0.20297435569E+02  0.45516165451E+03  0.45564337231E+03  0.00000000000E+00 0. -1.
</event>
<event>
 4    1  0.5591986E+002  0.2393392E+02  0.7546771E-02  0.1481092E+00
          2   -1    0    0  502    0  0.00000000000E+00  0.00000000000E+00  0.95474472621E+02  0.95474472621E+02  0.00000000000E+00 0.  1.
         -2   -1    0    0    0  501 -0.00000000000E+00 -0.00000000000E+00 -0.13589874696E+02  0.13589874696E+02  0.00000000000E+00 0. -1.
         21    1    1    2  502  503  0.21703151161E+02  0.10089886230E+02  0.81695962858E+02  0.85129682966E+02  0.00000000000E+00 0.  1.
         21    1    1    2  503  501 -0.21703151161E+02 -0.10089886230E+02  0.18863506609E+00  0.23934664352E+02  0.00000000000E+00 0. -1.
</event>
<event>
 4    1  0.5591986E+002  0.6820053E+02  0.7546771E-02  0.1234257E+00
          2   -1    0    0  503    0  0.00000000000E+00  0.00000000000E+00  0.27073041160E+04  0.27073041160E+04  0.00000000000E+00 0.  1.
         -2   -1    0    0    0  501 -0.00000000000E+00 -0.00000000000E+00 -0.19458911122E+01  0.19458911122E+01  0.00000000000E+00 0. -1.
         21    1    1    2  502  501 -0.47892003862E+01  0.68032171496E+02  0.88916210891E+03  0.89177383272E+03  0.00000000000E+00 0. -1.
         21    1    1    2  503  502  0.47892003862E+01 -0.68032171496E+02  0.18161961160E+04  0.18174761744E+04  0.00000000000E+00 0.  1.
</event>
<event>
 4    1  0.5591986E+002  0.2201133E+02  0.7546771E-02  0.1505301E+00
          2   -1    0    0  503    0  0.00000000000E+00  0.00000000000E+00  0.23923476093E+03  0.23923476093E+03  0.00000000000E+00 0. -1.
         -2   -1    0    0    0  501 -0.00000000000E+00 -0.00000000000E+00 -0.26878746222E+01  0.26878746222E+01  0.00000000000E+00 0.  1.
         21    1    1    2  502  501 -0.93427751370E+01  0.19930160187E+02  0.58212589824E+02  0.62235073282E+02  0.00000000000E+00 0.  1.
         21    1    1    2  503  502  0.93427751370E+01 -0.19930160187E+02  0.17833429648E+03  0.17968756227E+03  0.00000000000E+00 0. -1.
</event>
<event>
 4    1  0.5591986E+002  0.2006136E+02  0.7546771E-02  0.1533100E+00
          2   -1    0    0  503    0  0.00000000000E+00  0.00000000000E+00  0.40123289795E+02  0.40123289795E+02  0.00000000000E+00 0. -1.
         -2   -1    0    0    0  501 -0.00000000000E+00 -0.00000000000E+00 -0.10574344490E+02  0.10574344490E+02  0.00000000000E+00 0.  1.
         21    1    1    2  502  501  0.32413741447E+01  0.19797770981E+02  0.20522946707E+02  0.28699295874E+02  0.00000000000E+00 0. -1.
         21    1    1    2  503  502 -0.32413741447E+01 -0.19797770981E+02  0.90259985983E+01  0.21998338411E+02  0.00000000000E+00 0.  1.
</event>
<event>
 4    1  0.5591986E+002  0.2899135E+02  0.7546771E-02  0.1428569E+00
          2   -1    0    0  503    0  0.00000000000E+00  0.00000000000E+00  0.67209035143E+00  0.67209035143E+00  0.00000000000E+00 0. -1.
         -2   -1    0    0    0  501 -0.00000000000E+00 -0.00000000000E+00 -0.16957371801E+04  0.16957371801E+04  0.00000000000E+00 0.  1.
         21    1    1    2  502  501 -0.23808979987E+02  0.16541784121E+02 -0.12821242186E+04  0.12824519523E+04  0.00000000000E+00 0.  1.
         21    1    1    2  503  502  0.23808979987E+02 -0.16541784121E+02 -0.41294087118E+03  0.41395731814E+03  0.00000000000E+00 0. -1.
</event>
<event>
 4    1  0.5591986E+002  0.2319008E+02  0.7546771E-02  0.1490125E+00
          2   -1    0    0  502    0  0.00000000000E+00  0.00000000000E+00  0.10960439177E+04  0.10960439177E+04  0.00000000000E+00 0.  1.
         -2   -1    0    0    0  501 -0.00000000000E+00 -0.00000000000E+00 -0.13336853205E+01  0.13336853205E+01  0.00000000000E+00 0. -1.
         21    1    1    2  502  503  0.14675051139E+02 -0.17956129086E+02  0.98359055634E+03  0.98386389415E+03  0.00000000000E+00 0.  1.
         21    1    1    2  503  501 -0.14675051139E+02  0.17956129086E+02  0.11111967606E+03  0.11351370888E+03  0.00000000000E+00 0. -1.
</event>
<event>
 4    1  0.5591986E+002  0.2523144E+02  0.7546771E-02  0.1466231E+00
          2   -1    0    0  503    0  0.00000000000E+00  0.00000000000E+00  0.45121530768E+03  0.45121530768E+03  0.00000000000E+00 0.  1.
         -2   -1    0    0    0  501 -0.00000000000E+00 -0.00000000000E+00 -0.15009547108E+01  0.15009547108E+01  0.00000000000E+00 0. -1.
         21    1    1    2  502  501 -0.24313850272E+02 -0.67425579323E+01  0.16941568212E+03  0.17128426300E+03  0.00000000000E+00 0. -1.
         21    1    1    2  503  502  0.24313850272E+02  0.67425579323E+01  0.28029867085E+03  0.28143199940E+03  0.00000000000E+00 0.  1.
</event>
<event>
 4    1  0.5591986E+002  0.3991359E+02  0.7546771E-02  0.1348993E+00
          2   -1    0    0  502    0  0.00000000000E+00  0.00000000000E+00  0.48372055077E+03  0.48372055077E+03  0.00000000000E+00 0. -1.
         -2   -1    0    0    0  501 -0.00000000000E+00 -0.00000000000E+00 -0.95611369783E+01  0.95611369783E+01  0.00000000000E+00 0.  1.
         21    1    1    2  502  503 -0.11557787751E+01 -0.39896852531E+02  0.43677366981E+03  0.43859358558E+03  0.00000000000E+00 0. -1.
         21    1    1    2  503  501  0.11557787751E+01  0.39896852531E+02  0.37385743982E+02  0.54688102175E+02  0.00000000000E+00 0.  1.
</event>
<event>
 4    1  0.5591986E+002  0.4785996E+02  0.7546771E-02  0.1307727E+00
          2   -1    0    0  502    0  0.00000000000E+00  0.00000000000E+00  0.14778314036E+04  0.14778314036E+04  0.00000000000E+00 0.  1.
         -2   -1    0    0    0  501 -0.00000000000E+00 -0.00000000000E+00 -0.24509531605E+01  0.24509531605E+01  0.00000000000E+00 0. -1.
         21    1    1    2  502  503 -0.10085657923E+02 -0.46785200127E+02  0.11864443771E+04  0.11874092956E+04  0.00000000000E+00 0.  1.
         21    1    1    2  503  501  0.10085657923E+02  0.46785200127E+02  0.28893607333E+03  0.29287306110E+03  0.00000000000E+00 0. -1.
</event>
<event>
 4    1  0.5591986E+002  0.4611143E+02  0.7546771E-02  0.1315974E+00
          2   -1    0    0  502    0  0.00000000000E+00  0.00000000000E+00  0.48764197295E+02  0.48764197295E+02  0.00000000000E+00 0.  1.
         -2   -1    0    0    0  501 -0.00000000000E+00 -0.00000000000E+00 -0.11784907850E+03  0.11784907850E+03  0.00000000000E+00 0. -1.
         21    1    1    2  502  503 -0.38453547341E+02 -0.25447755058E+02  0.31580685466E+02  0.55889204997E+02  0.00000000000E+00 0.  1.
         21    1    1    2  503  501  0.38453547341E+02  0.25447755058E+02 -0.10066556667E+03  0.11072407079E+03  0.00000000000E+00 0. -1.
</event>
<event>
 4    1  0.5591986E+002  0.3904363E+02  0.7546771E-02  0.1354183E+00
          2   -1    0    0  502    0  0.00000000000E+00  0.00000000000E+00  0.11040511372E+04  0.11040511372E+04  0.00000000000E+00 0. -1.
         -2   -1    0    0    0  501 -0.00000000000E+00 -0.00000000000E+00 -0.23569169436E+01  0.23569169436E+01  0.00000000000E+00 0.  1.
         21    1    1    2  502  503  0.39043564486E+02  0.72530963503E-01  0.90687002026E+03  0.90771010726E+03  0.00000000000E+00 0. -1.
         21    1    1    2  503  501 -0.39043564486E+02 -0.72530963503E-01  0.19482419998E+03  0.19869794686E+03  0.00000000000E+00 0.  1.
</event>
<event>
 4    1  0.5591986E+002  0.2262158E+02  0.7546771E-02  0.1497305E+00
          2   -1    0    0  502    0  0.00000000000E+00  0.00000000000E+00  0.27513499871E+02  0.27513499871E+02  0.00000000000E+00 0. -1.
         -2   -1    0    0    0  501 -0.00000000000E+00 -0.00000000000E+00 -0.19312223571E+02  0.19312223571E+02  0.00000000000E+00 0.  1.
         21    1    1    2  502  503  0.82990192956E+01  0.21044293231E+02  0.85985794263E+01  0.24200652202E+02  0.00000000000E+00 0.  1.
         21    1    1    2  503  501 -0.82990192956E+01 -0.21044293231E+02 -0.39730312584E+00  0.22625071240E+02  0.00000000000E+00 0. -1.
</event>
<event>
 4    1  0.5591986E+002  0.2290562E+02  0.7546771E-02  0.1493687E+00
          2   -1    0    0  503    0  0.00000000000E+00  0.00000000000E+00  0.10464128609E+02  0.10464128609E+02  0.00000000000E+00 0.  1.
         -2   -1    0    0    0  501 -0.00000000000E+00 -0.00000000000E+00 -0.64023237350E+02  0.64023237350E+02  0.00000000000E+00 0. -1.
         21    1    1    2  502  501  0.94383812231E+01  0.20870655700E+02 -0.44122996956E+02  0.49714245140E+02  0.00000000000E+00 0. -1.
         21    1    1    2  503  502 -0.94383812231E+01 -0.20870655700E+02 -0.94361117852E+01  0.24773120819E+02  0.00000000000E+00 0.  1.
</event>
<event>
 4    1  0.5591986E+002  0.2153138E+02  0.7546771E-02  0.1511812E+00
          2   -1    0    0  503    0  0.00000000000E+00  0.00000000000E+00  0.74942963250E+03  0.74942963250E+03  0.00000000000E+00 0. -1.
         -2   -1    0    0    0  501 -0.00000000000E+00 -0.00000000000E+00 -0.64506928887E+00  0.64506928887E+00  0.00000000000E+00 0.  1.
         21    1    1    2  502  501 -0.21514054067E+02  0.86365878187E+00  0.45035610342E+03  0.45087051391E+03  0.00000000000E+00 0.  1.
         21    1    1    2  503  502  0.21514054067E+02 -0.86365878187E+00  0.29842845979E+03  0.29920418788E+03  0.00000000000E+00 0. -1.
</event>
<event>
 4    1  0.5591986E+002  0.3005812E+02  0.7546771E-02  0.1419092E+00
          2   -1    0    0  502    0  0.00000000000E+00  0.00000000000E+00  0.16134092475E+03  0.16134092475E+03  0.00000000000E+00 0. -1.
         -2   -1    0    0    0  501 -0.00000000000E+00 -0.00000000000E+00 -0.59520565082E+01  0.59520565082E+01  0.00000000000E+00 0.  1.
         21    1    1    2  502  503 -0.29427298898E+02  0.61257331604E+01  0.57347841849E+02  0.64747706461E+02  0.00000000000E+00 0. -1.
         21    1    1    2  503  501  0.29427298898E+02 -0.61257331604E+01  0.98041026394E+02  0.10254527480E+03  0.00000000000E+00 0.  1.
</event>
<event>
 4    1  0.5591986E+002  0.2138990E+02  0.7546771E-02  0.1513770E+00
          2   -1    0    0  502    0  0.00000000000E+00  0.00000000000E+00  0.30135892961E+03  0.30135892961E+03  0.00000000000E+00 0.  1.
         -2   -1    0    0    0  501 -0.00000000000E+00 -0.00000000000E+00 -0.33770327420E+01  0.33770327420E+01  0.00000000000E+00 0. -1.
         21    1    1    2  502  503  0.85279437364E+01 -0.19616368765E+02  0.26203414851E+03  0.26290572975E+03  0.00000000000E+00 0.  1.
         21    1    1    2  503  501 -0.85279437364E+01  0.19616368765E+02  0.35947748359E+02  0.41830232607E+02  0.00000000000E+00 0. -1.
</event>
<event>
 4    1  0.5591986E+002  0.2153607E+02  0.7546771E-02  0.1511747E+00
          2   -1    0    0  503    0  0.00000000000E+00  0.00000000000E+00  0.10548620994E+04  0.10548620994E+04  0.00000000000E+00 0. -1.
         -2   -1    0    0    0  501 -0.00000000000E+00 -0.00000000000E+00 -0.94422672594E+00  0.94422672594E+00  0.00000000000E+00 0.  1.
         21    1    1    2  502  501 -0.10448892223E+02  0.18831435927E+02  0.14106621457E+03  0.14270066300E+03  0.00000000000E+00 0.  1.
         21    1    1    2  503  502  0.10448892223E+02 -0.18831435927E+02  0.91285165813E+03  0.91310566315E+03  0.00000000000E+00 0. -1.
</event>
<event>
 4    1  0.5591986E+002  0.3372458E+02  0.7546771E-02  0.1389758E+00
          2   -1    0    0  503    0  0.00000000000E+00  0.00000000000E+00  0.16083791672E+03  0.16083791672E+03  0.00000000000E+00 0. -1.
         -2   -1    0    0    0  501 -0.00000000000E+00 -0.00000000000E+00 -0.14403501895E+02  0.14403501895E+02  0.00000000000E+00 0.  1.
         21    1    1    2  502  501  0.22910576390E+02  0.24747779422E+02  0.10701757824E+02  0.35381841634E+02  0.00000000000E+00 0.  1.
         21    1    1    2  503  502 -0.22910576390E+02 -0.24747779422E+02  0.13573265700E+03  0.13985957698E+03  0.00000000000E+00 0. -1.
</event>
<event>
 4    1  0.5591986E+002  0.2110787E+02  0.7546771E-02  0.1517730E+00
          2   -1    0    0  503    0  0.00000000000E+00  0.00000000000E+00  0.81727309908E+03  0.81727309908E+03  0.00000000000E+00 0. -1.
         -2   -1    0    0    0  501 -0.00000000000E+00 -0.00000000000E+00 -0.88939252813E+00  0.88939252813E+00  0.00000000000E+00 0.  1.
         21    1    1    2  502  501 -0.20281149601E+02  0.58495346717E+01  0.15369012960E+03  0.15513283992E+03  0.00000000000E+00 0.  1.
         21    1    1    2  503  502  0.20281149601E+02 -0.58495346717E+01  0.66269357696E+03  0.66302965169E+03  0.00000000000E+00 0. -1.
</event>
<event>
 4    1  0.5591986E+002  0.3291468E+02  0.7546771E-02  0.1395848E+00
          2   -1    0    0  503    0  0.00000000000E+00  0.00000000000E+00  0.21559067301E+04  0.21559067301E+04  0.00000000000E+00 0.  1.
         -2   -1    0    0    0  501 -0.00000000000E+00 -0.00000000000E+00 -0.67007702774E+00  0.67007702774E+00  0.00000000000E+00 0. -1.
         21    1    1    2  502  501  0.19585799073E+02 -0.26453220797E+02  0.53840600792E+03  0.53941116579E+03  0.00000000000E+00 0. -1.
         21    1    1    2  503  502 -0.19585799073E+02  0.26453220797E+02  0.16168306451E+04  0.16171656413E+04  0.00000000000E+00 0.  1.
</event>
<event>
 4    1  0.5591986E+002  0.2361340E+02  0.7546771E-02  0.1484936E+00
          2   -1    0    0  502    0  0.00000000000E+00  0.00000000000E+00  0.28653871359E+03  0.28653871359E+03  0.00000000000E+00 0. -1.
         -2   -1    0    0    0  501 -0.00000000000E+00 -0.00000000000E+00 -0.22054085312E+01  0.22054085312E+01  0.00000000000E+00 0.  1.
         21    1    1    2  502  503  0.22464698197E+02  0.72752881842E+01  0.92648391575E+02  0.95610234518E+02  0.00000000000E+00 0.  1.
         21    1    1    2  503  501 -0.22464698197E+02 -0.72752881842E+01  0.19168491348E+03  0.19313388760E+03  0.00000000000E+00 0. -1.
</event>
<event>
 4    1  0.5591986E+002  0.2329644E+02  0.7546771E-02  0.1488809E+00
          2   -1    0    0  503    0  0.00000000000E+00  0.00000000000E+00  0.17586537443E+03  0.17586537443E+03  0.00000000000E+00 0. -1.
         -2   -1    0    0    0  501 -0.00000000000E+00 -0.00000000000E+00 -0.82816278963E+01  0.82816278963E+01  0.00000000000E+00 0.  1.
         21    1    1    2  502  501  0.21213460221E+02  0.96287825673E+01  0.15671997636E+03  0.15844202517E+03  0.00000000000E+00 0. -1.
         21    1    1    2  503  502 -0.21213460221E+02 -0.96287825673E+01  0.10863770168E+02  0.25704977155E+02  0.00000000000E+00 0.  1.
</event>
<event>
 4    1  0.5591986E+002  0.4322376E+02  0.7546771E-02  0.1330564E+00
          2   -1    0    0  502    0  0.00000000000E+00  0.00000000000E+00  0.10915461994E+04  0.10915461994E+04  0.00000000000E+00 0. -1.
         -2   -1    0    0    0  501 -0.00000000000E+00 -0.00000000000E+00 -0.63222904145E+01  0.63222904145E+01  0.00000000000E+00 0.  1.
         21    1    1    2  502  503 -0.42314069105E+02  0.88211666415E+01  0.10113885904E+04  0.10123117969E+04  0.00000000000E+00 0. -1.
         21    1    1    2  503  501  0.42314069105E+02 -0.88211666415E+01  0.73835318566E+02  0.85556692858E+02  0.00000000000E+00 0.  1.
</event>
<event>
 4    1  0.5591986E+002  0.2286726E+02  0.7546771E-02  0.1494172E+00
          2   -1    0    0  502    0  0.00000000000E+00  0.00000000000E+00  0.14949382426E+02  0.14949382426E+02  0.00000000000E+00 0.  1.
         -2   -1    0    0    0  501 -0.00000000000E+00 -0.00000000000E+00 -0.48516320432E+02  0.48516320432E+02  0.00000000000E+00 0. -1.
         21    1    1    2  502  503  0.36394116399E+00 -0.22864364410E+02 -0.21132043213E-01  0.22867270489E+02  0.00000000000E+00 0.  1.
         21    1    1    2  503  501 -0.36394116399E+00  0.22864364410E+02 -0.33545805963E+02  0.40598432368E+02  0.00000000000E+00 0. -1.
</event>
<event>
 4    1  0.5591986E+002  0.2211918E+02  0.7546771E-02  0.1503865E+00
          2   -1    0    0  503    0  0.00000000000E+00  0.00000000000E+00  0.20689479423E+02  0.20689479423E+02  0.00000000000E+00 0.  1.
         -2   -1    0    0    0  501 -0.00000000000E+00 -0.00000000000E+00 -0.33307847767E+02  0.33307847767E+02  0.00000000000E+00 0. -1.
         21    1    1    2  502  501 -0.18139542521E+02  0.12657605640E+02 -0.20849088188E+02  0.30396421856E+02  0.00000000000E+00 0.  1.
         21    1    1    2  503  502  0.18139542521E+02 -0.12657605640E+02  0.82307198435E+01  0.23600905333E+02  0.00000000000E+00 0. -1.
</event>
<event>
 4    1  0.5591986E+002  0.2013350E+02  0.7546771E-02  0.1532005E+00
          2   -1    0    0  503    0  0.00000000000E+00  0.00000000000E+00  0.17842525067E+01  0.17842525067E+01  0.00000000000E+00 0.  1.
         -2   -1    0    0    0  501 -0.00000000000E+00 -0.00000000000E+00 -0.35286804747E+03  0.35286804747E+03  0.00000000000E+00 0. -1.
         21    1    1    2  502  501 -0.74363932583E+01  0.18709833118E+02 -0.28137039995E+03  0.28208980799E+03  0.00000000000E+00 0. -1.
         21    1    1    2  503  502  0.74363932583E+01 -0.18709833118E+02 -0.69713395006E+02  0.72562491986E+02  0.00000000000E+00 0.  1.
</event>
<event>
 4    1  0.5591986E+002  0.2876439E+02  0.7546771E-02  0.1430647E+00
          2   -1    0    0  502    0  0.00000000000E+00  0.00000000000E+00  0.19071804663E+04  0.19071804663E+04  0.00000000000E+00 0. -1.
         -2   -1    0    0    0  501 -0.00000000000E+00 -0.00000000000E+00 -0.43442841470E+00  0.43442841470E+00  0.00000000000E+00 0.  1.
         21    1    1    2  502  503 -0.28574417283E+02  0.33004056041E+01  0.91794048611E+03  0.91839105290E+03  0.00000000000E+00 0. -1.
         21    1    1    2  503  501  0.28574417283E+02 -0.33004056041E+01  0.98880555180E+03  0.98922384185E+03  0.00000000000E+00 0.  1.
</event>
<event>
 4    1  0.5591986E+002  0.2059151E+02  0.7546771E-02  0.1525178E+00
          2   -1    0    0  503    0  0.00000000000E+00  0.00000000000E+00  0.23107160907E+03  0.23107160907E+03  0.00000000000E+00 0. -1.
         -2   -1    0    0    0  501 -0.00000000000E+00 -0.00000000000E+00 -0.26635444115E+01  0.26635444115E+01  0.00000000000E+00 0.  1.
         21    1    1    2  502  501 -0.20582102345E+02  0.62248314187E+00  0.49021872498E+02  0.53170992142E+02  0.00000000000E+00 0.  1.
         21    1    1    2  503  502  0.20582102345E+02 -0.62248314187E+00  0.17938619216E+03  0.18056416134E+03  0.00000000000E+00 0. -1.
</event>
<event>
 4    1  0.5591986E+002  0.2048030E+02  0.7546771E-02  0.1526816E+00
          2   -1    0    0  503    0  0.00000000000E+00  0.00000000000E+00  0.21866230753E+03  0.21866230753E+03  0.00000000000E+00 0. -1.
         -2   -1    0    0    0  501 -0.00000000000E+00 -0.00000000000E+00 -0.28475113517E+01  0.28475113517E+01  0.00000000000E+00 0.  1.
         21    1    1    2  502  501 -0.11494737239E+02  0.16950336231E+02  0.44636252380E+02  0.49110466391E+02  0.00000000000E+00 0.  1.
         21    1    1    2  503  502  0.11494737239E+02 -0.16950336231E+02  0.17117854379E+03  0.17239935249E+03  0.00000000000E+00 0. -1.
</event>
<event>
 4    1  0.5591986E+002  0.3178724E+02  0.7546771E-02  0.1404676E+00
          2   -1    0    0  502    0  0.00000000000E+00  0.00000000000E+00  0.42760344098E+03  0.42760344098E+03  0.00000000000E+00 0.  1.
         -2   -1    0    0    0  501 -0.00000000000E+00 -0.00000000000E+00 -0.52433166208E+01  0.52433166208E+01  0.00000000000E+00 0. -1.
         21    1    1    2  502  503 -0.65165332433E+01  0.31112114577E+02  0.37158617073E+03  0.37294330823E+03  0.00000000000E+00 0.  1.
         21    1    1    2  503  501  0.65165332433E+01 -0.31112114577E+02  0.50773953633E+02  0.59903449371E+02  0.00000000000E+00 0. -1.
</event>
<event>
 4    1  0.5591986E+002  0.2051980E+02  0.7546771E-02  0.1526233E+00
          2   -1    0    0  502    0  0.00000000000E+00  0.00000000000E+00  0.43852894020E+03  0.43852894020E+03  0.00000000000E+00 0.  1.
         -2   -1    0    0    0  501 -0.00000000000E+00 -0.00000000000E+00 -0.11007623136E+01  0.11007623136E+01  0.00000000000E+00 0. -1.
         21    1    1    2  502  503 -0.29287342529E+01  0.20309720060E+02  0.29727227811E+03  0.29797964620E+03  0.00000000000E+00 0.  1.
         21    1    1    2  503  501  0.29287342529E+01 -0.20309720060E+02  0.14015589978E+03  0.14165005632E+03  0.00000000000E+00 0. -1.
</event>
<event>
 4    1  0.5591986E+002  0.2087605E+02  0.7546771E-02  0.1521042E+00
          2   -1    0    0  502    0  0.00000000000E+00  0.00000000000E+00  0.60228400537E+01  0.60228400537E+01  0.00000000000E+00 0.  1.
         -2   -1    0    0    0  501 -0.00000000000E+00 -0.00000000000E+00 -0.10371306157E+03  0.10371306157E+03  0.00000000000E+00 0. -1.
         21    1    1    2  502  503  0.14884305365E+02 -0.14637860263E+02 -0.18677169153E+02  0.28011535961E+02  0.00000000000E+00 0.  1.
         21    1    1    2  503  501 -0.14884305365E+02  0.14637860263E+02 -0.79013052368E+02  0.81724365668E+02  0.00000000000E+00 0. -1.
</event>
<event>
 4    1  0.5591986E+002  0.3001319E+02  0.7546771E-02  0.1419482E+00
          2   -1    0    0  503    0  0.00000000000E+00  0.00000000000E+00  0.72201518258E+03  0.72201518258E+03  0.00000000000E+00 0.  1.
         -2   -1    0    0    0  501 -0.00000000000E+00 -0.00000000000E+00 -0.12767461111E+01  0.12767461111E+01  0.00000000000E+00 0. -1.
         21    1    1    2  502  501  0.24302396364E+02  0.17612081083E+02  0.30573527437E+03  0.30720489883E+03  0.00000000000E+00 0. -1.
         21    1    1    2  503  502 -0.24302396364E+02 -0.17612081083E+02  0.41500316210E+03  0.41608702986E+03  0.00000000000E+00 0.  1.
</event>
<event>
 4    1  0.5591986E+002  0.3004044E+02  0.7546771E-02  0.1419245E+00
          2   -1    0    0  502    0  0.00000000000E+00  0.00000000000E+00  0.12558790519E+04  0.12558790519E+04  0.00000000000E+00 0.  1.
         -2   -1    0    0    0  501 -0.00000000000E+00 -0.00000000000E+00 -0.80548505821E+00  0.80548505821E+00  0.00000000000E+00 0. -1.
         21    1    1    2  502  503  0.13369573650E+01  0.30010675825E+02  0.83394773321E+03  0.83448861577E+03  0.00000000000E+00 0. -1.
         21    1    1    2  503  501 -0.13369573650E+01 -0.30010675825E+02  0.42112583360E+03  0.42219592116E+03  0.00000000000E+00 0.  1.
</event>
<event>
 4    1  0.5591986E+002  0.2393378E+02  0.7546771E-02  0.1481094E+00
          2   -1    0    0  502    0  0.00000000000E+00  0.00000000000E+00  0.10193705809E+02  0.10193705809E+02  0.00000000000E+00 0. -1.
         -2   -1    0    0    0  501 -0.00000000000E+00 -0.00000000000E+00 -0.63728384069E+02  0.63728384069E+02  0.00000000000E+00 0.  1.
         21    1    1    2  502  503  0.23242199924E+02  0.57119208715E+01 -0.14058689036E+02  0.27757388832E+02  0.00000000000E+00 0. -1.
         21    1    1    2  503  501 -0.23242199924E+02 -0.57119208715E+01 -0.39475989224E+02  0.46164701045E+02  0.00000000000E+00 0.  1.
</event>
<event>
 4    1  0.5591986E+002  0.2049245E+02  0.7546771E-02  0.1526636E+00
          2   -1    0    0  503    0  0.00000000000E+00  0.00000000000E+00  0.32043307436E+01  0.32043307436E+01  0.00000000000E+00 0.  1.
         -2   -1    0    0    0  501 -0.00000000000E+00 -0.00000000000E+00 -0.18507295135E+03  0.18507295135E+03  0.00000000000E+00 0. -1.
         21    1    1    2  502  501  0.24362915744E+01  0.20347110627E+02 -0.14179350050E+03  0.14326666469E+03  0.00000000000E+00 0. -1.
         21    1    1    2  503  502 -0.24362915744E+01 -0.20347110627E+02 -0.40075120110E+02  0.45010617407E+02  0.00000000000E+00 0.  1.
</event>
<event>
 4    1  0.5591986E+002  0.3578199E+02  0.7546771E-02  0.1375147E+00
          2   -1    0    0  502    0  0.00000000000E+00  0.00000000000E+00  0.26305054583E+02  0.26305054583E+02  0.00000000000E+00 0. -1.
         -2   -1    0    0    0  501 -0.00000000000E+00 -0.00000000000E+00 -0.11688572236E+03  0.11688572236E+03  0.00000000000E+00 0.  1.
         21    1    1    2  502  503  0.18940366264E+02 -0.30358088760E+02  0.94032510703E+01  0.36996920927E+02  0.00000000000E+00 0. -1.
         21    1    1    2  503  501 -0.18940366264E+02  0.30358088760E+02 -0.99983918845E+02  0.10619385601E+03  0.00000000000E+00 0.  1.
</event>
<event>
 4    1  0.5591986E+002  0.2332802E+02  0.7546771E-02  0.1488420E+00
          2   -1    0    0  503    0  0.00000000000E+00  0.00000000000E+00  0.10691105471E+02  0.10691105471E+02  0.00000000000E+00 0.  1.
         -2   -1    0    0    0  501 -0.00000000000E+00 -0.00000000000E+00 -0.71886818205E+02  0.71886818205E+02  0.00000000000E+00 0. -1.
         21    1    1    2  502  501 -0.18644941258E+02  0.14020085870E+02 -0.52906023105E+02  0.57820791443E+02  0.00000000000E+00 0. -1.
         21    1    1    2  503  502  0.18644941258E+02 -0.14020085870E+02 -0.82896896289E+01  0.24757132234E+02  0.00000000000E+00 0.  1.
</event>
<event>
 4    1  0.5591986E+002  0.4034177E+02  0.7546771E-02  0.1346495E+00
          2   -1    0    0  503    0  0.00000000000E+00  0.00000000000E+00  0.20880423220E+02  0.20880423220E+02  0.00000000000E+00 0.  1.
         -2   -1    0    0    0  501 -0.00000000000E+00 -0.00000000000E+00 -0.16832183357E+03  0.16832183357E+03  0.00000000000E+00 0. -1.
         21    1    1    2  502  501 -0.24929640716E+02 -0.31717046258E+02 -0.14304130494E+03  0.14862123983E+03  0.00000000000E+00 0. -1.
         21    1    1    2  503  502  0.24929640716E+02  0.31717046258E+02 -0.44001054034E+01  0.40581016955E+02  0.00000000000E+00 0.  1.
</event>
<event>
 4    1  0.5591986E+002  0.2033322E+02  0.7546771E-02  0.1529001E+00
          2   -1    0    0  503    0  0.00000000000E+00  0.00000000000E+00  0.11758857504E+04  0.11758857504E+04  0.00000000000E+00 0.  1.
         -2   -1    0    0    0  501 -0.00000000000E+00 -0.00000000000E+00 -0.96246012714E+00  0.96246012714E+00  0.00000000000E+00 0. -1.
         21    1    1    2  502  501  0.15744547254E+02 -0.12866590768E+02  0.11868018651E+03  0.12040941241E+03  0.00000000000E+00 0. -1.
         21    1    1    2  503  502 -0.15744547254E+02  0.12866590768E+02  0.10562431038E+04  0.10564387981E+04  0.00000000000E+00 0.  1.
</event>
<event>
 4    1  0.5591986E+002  0.2317495E+02  0.7546771E-02  0.1490313E+00
          2   -1    0    0  502    0  0.00000000000E+00  0.00000000000E+00  0.33876613137E+03  0.33876613137E+03  0.00000000000E+00 0.  1.
         -2   -1    0    0    0  501 -0.00000000000E+00 -0.00000000000E+00 -0.18498805818E+01  0.18498805818E+01  0.00000000000E+00 0. -1.
         21    1    1    2  502  503 -0.52430361086E+01 -0.22574079359E+02  0.23285478737E+03  0.23400519330E+03  0.00000000000E+00 0. -1.
         21    1    1    2  503  501  0.52430361086E+01  0.22574079359E+02  0.10406146342E+03  0.10661081866E+03  0.00000000000E+00 0.  1.
</event>
<event>
 4    1  0.5591986E+002  0.2361897E+02  0.7546771E-02  0.1484869E+00
          2   -1    0    0  502    0  0.00000000000E+00  0.00000000000E+00  0.83562345585E+02  0.83562345585E+02  0.00000000000E+00 0. -1.
         -2   -1    0    0    0  501 -0.00000000000E+00 -0.00000000000E+00 -0.93092291043E+01  0.93092291043E+01  0.00000000000E+00 0.  1.
         21    1    1    2  502  503 -0.41325876836E+01  0.23254622344E+02  0.61823698615E+02  0.66181760718E+02  0.00000000000E+00 0. -1.
         21    1    1    2  503  501  0.41325876836E+01 -0.23254622344E+02  0.12429417865E+02  0.26689813971E+02  0.00000000000E+00 0.  1.
</event>
<event>
 4    1  0.5591986E+002  0.4028506E+02  0.7546771E-02  0.1346823E+00
          2   -1    0    0  503    0  0.00000000000E+00  0.00000000000E+00  0.20363688720E+04  0.20363688720E+04  0.00000000000E+00 0.  1.
         -2   -1    0    0    0  501 -0.00000000000E+00 -0.00000000000E+00 -0.35404868573E+01  0.35404868573E+01  0.00000000000E+00 0. -1.
         21    1    1    2  502  501 -0.18311764474E+02 -0.35882655376E+02  0.11856225831E+03  0.12521938656E+03  0.00000000000E+00 0. -1.
         21    1    1    2  503  502  0.18311764474E+02  0.35882655376E+02  0.19142661268E+04  0.19146899723E+04  0.00000000000E+00 0.  1.
</event>
<event>
 4    1  0.5591986E+002  0.3555470E+02  0.7546771E-02  0.1376705E+00
          2   -1    0    0  502    0  0.00000000000E+00  0.00000000000E+00  0.87469357214E+02  0.87469357214E+02  0.00000000000E+00 0.  1.
         -2   -1    0    0    0  501 -0.00000000000E+00 -0.00000000000E+00 -0.15547400052E+02  0.15547400052E+02  0.00000000000E+00 0. -1.
         21    1    1    2  502  503  0.35009782691E+02 -0.62009556900E+01  0.22290984990E+02  0.41964565378E+02  0.00000000000E+00 0.  1.
         21    1    1    2  503  501 -0.35009782691E+02  0.62009556900E+01  0.49630972172E+02  0.61052191888E+02  0.00000000000E+00 0. -1.
</event>
<event>
 4    1  0.5591986E+002  0.3914071E+02  0.7546771E-02  0.1353596E+00
          2   -1    0    0  503    0  0.00000000000E+00  0.00000000000E+00  0.78762816755E+01  0.78762816755E+01  0.00000000000E+00 0. -1.
         -2   -1    0    0    0  501 -0.00000000000E+00 -0.00000000000E+00 -0.19611835324E+03  0.19611835324E+03  0.00000000000E+00 0.  1.
         21    1    1    2  502  501  0.32050001240E+02 -0.22467598251E+02 -0.10336509840E+03  0.11052754913E+03  0.00000000000E+00 0. -1.
         21    1    1    2  503  502 -0.32050001240E+02  0.22467598251E+02 -0.84876973163E+02  0.93467085778E+02  0.00000000000E+00 0.  1.
</event>
<event>
 4    1  0.5591986E+002  0.2912502E+02  0.7546771E-02  0.1427355E+00
          2   -1    0    0  503    0  0.00000000000E+00  0.00000000000E+00  0.90816575691E+03  0.90816575691E+03  0.00000000000E+00 0. -1.
         -2   -1    0    0    0  501 -0.00000000000E+00 -0.00000000000E+00 -0.32069383083E+01  0.32069383083E+01  0.00000000000E+00 0.  1.
         21    1    1    2  502  501 -0.21486673864E+02  0.19661888995E+02  0.68851400073E+02  0.74758158917E+02  0.00000000000E+00 0.  1.
         21    1    1    2  503  502  0.21486673864E+02 -0.19661888995E+02  0.83610741852E+03  0.83661453630E+03  0.00000000000E+00 0. -1.
</event>
<event>
 4    1  0.5591986E+002  0.2561636E+02  0.7546771E-02  0.1462025E+00
          2   -1    0    0  503    0  0.00000000000E+00  0.00000000000E+00  0.18229070517E+03  0.18229070517E+03  0.00000000000E+00 0. -1.
         -2   -1    0    0    0  501 -0.00000000000E+00 -0.00000000000E+00 -0.60871528446E+01  0.60871528446E+01  0.00000000000E+00 0.  1.
         21    1    1    2  502  501 -0.18765575397E+02 -0.17437067600E+02  0.27891978342E+02  0.37870312942E+02  0.00000000000E+00 0.  1.
         21    1    1    2  503  502  0.18765575397E+02  0.17437067600E+02  0.14831157399E+03  0.15050754508E+03  0.00000000000E+00 0. -1.
</event>
<event>
 4    1  0.5591986E+002  0.2126595E+02  0.7546771E-02  0.1515501E+00
          2   -1    0    0  503    0  0.00000000000E+00  0.00000000000E+00  0.12503240726E+03  0.12503240726E+03  0.00000000000E+00 0.  1.
         -2   -1    0    0    0  501 -0.00000000000E+00 -0.00000000000E+00 -0.46677020480E+01  0.46677020480E+01  0.00000000000E+00 0. -1.
         21    1    1    2  502  501  0.13748641394E+02 -0.16223920811E+02  0.29414229593E+02  0.36296523927E+02  0.00000000000E+00 0. -1.
         21    1    1    2  503  502 -0.13748641394E+02  0.16223920811E+02  0.90950475621E+02  0.93403585383E+02  0.00000000000E+00 0.  1.
</event>
<event>
 4    1  0.5591986E+002  0.3356540E+02  0.7546771E-02  0.1390939E+00
          2   -1    0    0  503    0  0.00000000000E+00  0.00000000000E+00  0.14375570878E+03  0.14375570878E+03  0.00000000000E+00 0. -1.
         -2   -1    0    0    0  501 -0.00000000000E+00 -0.00000000000E+00 -0.17573237547E+02  0.17573237547E+02  0.00000000000E+00 0.  1.
         21    1    1    2  502  501 -0.13694587646E+02 -0.30644644635E+02  0.30501544643E+01  0.33703700358E+02  0.00000000000E+00 0.  1.
         21    1    1    2  503  502  0.13694587646E+02  0.30644644635E+02  0.12313231676E+03  0.12762524596E+03  0.00000000000E+00 0. -1.
</event>
<event>
 4    1  0.5591986E+002  0.2315000E+02  0.7546771E-02  0.1490623E+00
          2   -1    0    0  502    0  0.00000000000E+00  0.00000000000E+00  0.78909854806E+03  0.78909854806E+03  0.00000000000E+00 0. -1.
         -2   -1    0    0    0  501 -0.00000000000E+00 -0.00000000000E+00 -0.88481341580E+00  0.88481341580E+00  0.00000000000E+00 0.  1.
         21    1    1    2  502  503 -0.67261194693E+01 -0.22151335034E+02  0.58453562272E+03  0.58499386027E+03  0.00000000000E+00 0. -1.
         21    1    1    2  503  501  0.67261194693E+01  0.22151335034E+02  0.20367811193E+03  0.20498950121E+03  0.00000000000E+00 0.  1.
</event>
<event>
 4    1  0.5591986E+002  0.2366367E+02  0.7546771E-02  0.1484328E+00
          2   -1    0    0  502    0  0.00000000000E+00  0.00000000000E+00  0.91543675982E+02  0.91543675982E+02  0.00000000000E+00 0. -1.
         -2   -1    0    0    0  501 -0.00000000000E+00 -0.00000000000E+00 -0.62303160804E+01  0.62303160804E+01  0.00000000000E+00 0.  1.
         21    1    1    2  502  503 -0.21201456142E+02  0.10510359188E+02  0.49250735339E+02  0.54640683783E+02  0.00000000000E+00 0. -1.
         21    1    1    2  503  501  0.21201456142E+02 -0.10510359188E+02  0.36062624562E+02  0.43133308279E+02  0.00000000000E+00 0.  1.
</event>
<event>
 4    1  0.5591986E+002  0.2711181E+02  0.7546771E-02  0.1446488E+00
          2   -1    0    0  503    0  0.00000000000E+00  0.00000000000E+00  0.98365205104E+03  0.98365205104E+03  0.00000000000E+00 0.  1.
         -2   -1    0    0    0  501 -0.00000000000E+00 -0.00000000000E+00 -0.75120075055E+00  0.75120075055E+00  0.00000000000E+00 0. -1.
         21    1    1    2  502  501  0.25643149349E+01 -0.26990266542E+02  0.45583012935E+03  0.45663569399E+03  0.00000000000E+00 0. -1.
         21    1    1    2  503  502 -0.25643149349E+01  0.26990266542E+02  0.52707072094E+03  0.52776755780E+03  0.00000000000E+00 0.  1.
</event>
<event>
 4    1  0.5591986E+002  0.3702752E+02  0.7546771E-02  0.1366844E+00
          2   -1    0    0  503    0  0.00000000000E+00  0.00000000000E+00  0.11154892898E+04  0.11154892898E+04  0.00000000000E+00 0.  1.
         -2   -1    0    0    0  501 -0.00000000000E+00 -0.00000000000E+00 -0.63726559674E+01  0.63726559674E+01  0.00000000000E+00 0. -1.
         21    1    1    2  502  501  0.12599816946E+01  0.37006076552E+02  0.50615427657E+02  0.62713306184E+02  0.00000000000E+00 0. -1.
         21    1    1    2  503  502 -0.12599816946E+01 -0.37006076552E+02  0.10585012062E+04  0.10591486396E+04  0.00000000000E+00 0.  1.
</event>
<event>
 4    1  0.5591986E+002  0.4002364E+02  0.7546771E-02  0.1348347E+00
          2   -1    0    0  502    0  0.00000000000E+00  0.00000000000E+00  0.36150897171E+04  0.36150897171E+04  0.00000000000E+00 0.  1.
         -2   -1    0    0    0  501 -0.00000000000E+00 -0.00000000000E+00 -0.54951929362E+00  0.54951929362E+00  0.00000000000E+00 0. -1.
         21    1    1    2  502  503 -0.20758909229E+02 -0.34219287359E+02  0.26027844522E+04  0.26030921606E+04  0.00000000000E+00 0.  1.
         21    1    1    2  503  501  0.20758909229E+02  0.34219287359E+02  0.10117557456E+04  0.10125470758E+04  0.00000000000E+00 0. -1.
</event>
<event>
 4    1  0.5591986E+002  0.3217846E+02  0.7546771E-02  0.1401564E+00
          2   -1    0    0  503    0  0.00000000000E+00  0.00000000000E+00  0.18645606349E+01  0.18645606349E+01  0.00000000000E+00 0. -1.
         -2   -1    0    0    0  501 -0.00000000000E+00 -0.00000000000E+00 -0.77465189114E+03  0.77465189114E+03  0.00000000000E+00 0.  1.
         21    1    1    2  502  501  0.97625362233E+01  0.30661806016E+02 -0.59298145285E+03  0.59385390197E+03  0.00000000000E+00 0.  1.
         21    1    1    2  503  502 -0.97625362233E+01 -0.30661806016E+02 -0.17980587765E+03  0.18266254980E+03  0.00000000000E+00 0. -1.
</event>
<event>
 4    1  0.5591986E+002  0.3003080E+02  0.7546771E-02  0.1419329E+00
          2   -1    0    0  502    0  0.00000000000E+00  0.00000000000E+00  0.48477064427E+01  0.48477064427E+01  0.00000000000E+00 0. -1.
         -2   -1    0    0    0  501 -0.00000000000E+00 -0.00000000000E+00 -0.22821714080E+03  0.22821714080E+03  0.00000000000E+00 0.  1.
         21    1    1    2  502  503  0.96572712221E+01  0.28435643359E+02 -0.61585495842E+02  0.68517311672E+02  0.00000000000E+00 0.  1.
         21    1    1    2  503  501 -0.96572712221E+01 -0.28435643359E+02 -0.16178393851E+03  0.16454753557E+03  0.00000000000E+00 0. -1.
</event>
<event>
 4    1  0.5591986E+002  0.2195553E+02  0.7546771E-02  0.1506047E+00
          2   -1    0    0  503    0  0.00000000000E+00  0.00000000000E+00  0.17630059530E+01  0.17630059530E+01  0.00000000000E+00 0. -1.
         -2   -1    0    0    0  501 -0.00000000000E+00 -0.00000000000E+00 -0.35938966729E+03  0.35938966729E+03  0.00000000000E+00 0.  1.
         21    1    1    2  502  501 -0.21014032339E+02 -0.63604779148E+01 -0.26713041575E+03  0.26803116284E+03  0.00000000000E+00 0.  1.
         21    1    1    2  503  502  0.21014032339E+02  0.63604779148E+01 -0.90496245592E+02  0.93121510409E+02  0.00000000000E+00 0. -1.
</event>
<event>
 4    1  0.5591986E+002  0.3609304E+02  0.7546771E-02  0.1373037E+00
          2   -1    0    0  502    0  0.00000000000E+00  0.00000000000E+00  0.53935354482E+02  0.53935354482E+02  0.00000000000E+00 0. -1.
         -2   -1    0    0    0  501 -0.00000000000E+00 -0.00000000000E+00 -0.33194853890E+02  0.33194853890E+02  0.00000000000E+00 0.  1.
         21    1    1    2  502  503 -0.49301800452E+01  0.35754732083E+02  0.33107034259E+02  0.48977374971E+02  0.00000000000E+00 0. -1.
         21    1    1    2  503  501  0.49301800452E+01 -0.35754732083E+02 -0.12366533666E+02  0.38152833401E+02  0.00000000000E+00 0.  1.
</event>
<event>
 4    1  0.5591986E+002  0.3258360E+02  0.7546771E-02  0.1398396E+00
          2   -1    0    0  503    0  0.00000000000E+00  0.00000000000E+00  0.62747513078E+03  0.62747513078E+03  0.00000000000E+00 0. -1.
         -2   -1    0    0    0  501 -0.00000000000E+00 -0.00000000000E+00 -0.26138561039E+01  0.26138561039E+01  0.00000000000E+00 0.  1.
         21    1    1    2  502  501  0.18310206954E+02 -0.26952317057E+02  0.49952531790E+03  0.50058688985E+03  0.00000000000E+00 0. -1.
         21    1    1    2  503  502 -0.18310206954E+02  0.26952317057E+02  0.12533595678E+03  0.12950209703E+03  0.00000000000E+00 0.  1.
</event>
<event>
 4    1  0.5591986E+002  0.2701395E+02  0.7546771E-02  0.1447468E+00
          2   -1    0    0  503    0  0.00000000000E+00  0.00000000000E+00  0.13017109363E+02  0.13017109363E+02  0.00000000000E+00 0.  1.
         -2   -1    0    0    0  501 -0.00000000000E+00 -0.00000000000E+00 -0.14897916765E+03  0.14897916765E+03  0.00000000000E+00 0. -1.
         21    1    1    2  502  501 -0.84211339359E+01  0.25667840895E+02 -0.13194896487E+03  0.13468586743E+03  0.00000000000E+00 0. -1.
         21    1    1    2  503  502  0.84211339359E+01 -0.25667840895E+02 -0.40130934114E+01  0.27310409585E+02  0.00000000000E+00 0.  1.
</event>
<event>
 4    1  0.5591986E+002  0.3396416E+02  0.7546771E-02  0.1387995E+00
          2   -1    0    0  502    0  0.00000000000E+00  0.00000000000E+00  0.21763420064E+03  0.21763420064E+03  0.00000000000E+00 0.  1.
         -2   -1    0    0    0  501 -0.00000000000E+00 -0.00000000000E+00 -0.83805985564E+01  0.83805985564E+01  0.00000000000E+00 0. -1.
         21    1    1    2  502  503 -0.32397440096E+02  0.10196569189E+02  0.17313674164E+03  0.17643666131E+03  0.00000000000E+00 0.  1.
         21    1    1    2  503  501  0.32397440096E+02 -0.10196569189E+02  0.36116860440E+02  0.49578137884E+02  0.00000000000E+00 0. -1.
</event>
<event>
 4    1  0.5591986E+002  0.2326212E+02  0.7546771E-02  0.1489233E+00
          2   -1    0    0  503    0  0.00000000000E+00  0.00000000000E+00  0.10159963927E+04  0.10159963927E+04  0.00000000000E+00 0.  1.
         -2   -1    0    0    0  501 -0.00000000000E+00 -0.00000000000E+00 -0.41090674352E+02  0.41090674352E+02  0.00000000000E+00 0. -1.
         21    1    1    2  502  501 -0.20910793010E+02 -0.10191425006E+02 -0.37654080132E+02  0.44260096684E+02  0.00000000000E+00 0. -1.
         21    1    1    2  503  502  0.20910793010E+02  0.10191425006E+02  0.10125597985E+04  0.10128269704E+04  0.00000000000E+00 0.  1.
</event>
<event>
 4    1  0.5591986E+002  0.3509332E+02  0.7546771E-02  0.1379908E+00
          2   -1    0    0  502    0  0.00000000000E+00  0.00000000000E+00  0.57201782681E+02  0.57201782681E+02  0.00000000000E+00 0. -1.
         -2   -1    0    0    0  501 -0.00000000000E+00 -0.00000000000E+00 -0.22457638008E+02  0.22457638008E+02  0.00000000000E+00 0.  1.
         21    1    1    2  502  503  0.29957764747E+02  0.18277681270E+02  0.25468023820E+02  0.43360829541E+02  0.00000000000E+00 0. -1.
         21    1    1    2  503  501 -0.29957764747E+02 -0.18277681270E+02  0.92761208530E+01  0.36298591148E+02  0.00000000000E+00 0.  1.
</event>
<event>
 4    1  0.5591986E+002  0.5203856E+02  0.7546771E-02  0.1289568E+00
          2   -1    0    0  503    0  0.00000000000E+00  0.00000000000E+00  0.14485099103E+03  0.14485099103E+03  0.00000000000E+00 0. -1.
         -2   -1    0    0    0  501 -0.00000000000E+00 -0.00000000000E+00 -0.20871158048E+02  0.20871158048E+02  0.00000000000E+00 0.  1.
         21    1    1    2  502  501  0.51350299185E+02  0.84355399257E+01  0.35234781064E+02  0.62845058333E+02  0.00000000000E+00 0. -1.
         21    1    1    2  503  502 -0.51350299185E+02 -0.84355399257E+01  0.88745051915E+02  0.10287709074E+03  0.00000000000E+00 0.  1.
</event>
<event>
 4    1  0.5591986E+002  0.2860811E+02  0.7546771E-02  0.1432090E+00
          2   -1    0    0  502    0  0.00000000000E+00  0.00000000000E+00  0.69703062955E+02  0.69703062955E+02  0.00000000000E+00 0. -1.
         -2   -1    0    0    0  501 -0.00000000000E+00 -0.00000000000E+00 -0.12100021661E+02  0.12100021661E+02  0.00000000000E+00 0.  1.
         21    1    1    2  502  503  0.97002670224E+01 -0.26913356076E+02  0.35841272758E+02  0.45858704174E+02  0.00000000000E+00 0. -1.
         21    1    1    2  503  501 -0.97002670224E+01  0.26913356076E+02  0.21761768536E+02  0.35944380442E+02  0.00000000000E+00 0.  1.
</event>
<event>
 4    1  0.5591986E+002  0.2053817E+02  0.7546771E-02  0.1525962E+00
          2   -1    0    0  503    0  0.00000000000E+00  0.00000000000E+00  0.50515810511E+01  0.50515810511E+01  0.00000000000E+00 0.  1.
         -2   -1    0    0    0  501 -0.00000000000E+00 -0.00000000000E+00 -0.23324527491E+03  0.23324527491E+03  0.00000000000E+00 0. -1.
         21    1    1    2  502  501  0.15805236118E+02  0.13115295030E+02 -0.20956438979E+03  0.21056839725E+03  0.00000000000E+00 0. -1.
         21    1    1    2  503  502 -0.15805236118E+02 -0.13115295030E+02 -0.18629304072E+02  0.27728458714E+02  0.00000000000E+00 0.  1.
</event>
<event>
 4    1  0.5591986E+002  0.2082411E+02  0.7546771E-02  0.1521791E+00
          2   -1    0    0  503    0  0.00000000000E+00  0.00000000000E+00  0.79168159218E+03  0.79168159218E+03  0.00000000000E+00 0. -1.
         -2   -1    0    0    0  501 -0.00000000000E+00 -0.00000000000E+00 -0.65823363069E+00  0.65823363069E+00  0.00000000000E+00 0.  1.
         21    1    1    2  502  501 -0.42505250831E+01  0.20385692998E+02  0.23320335410E+03  0.23413126191E+03  0.00000000000E+00 0.  1.
         21    1    1    2  503  502  0.42505250831E+01 -0.20385692998E+02  0.55782000445E+03  0.55820856389E+03  0.00000000000E+00 0. -1.
</event>
<event>
 4    1  0.5591986E+002  0.3571319E+02  0.7546771E-02  0.1375617E+00
          2   -1    0    0  503    0  0.00000000000E+00  0.00000000000E+00  0.12644727759E+02  0.12644727759E+02  0.00000000000E+00 0. -1.
         -2   -1    0    0    0  501 -0.00000000000E+00 -0.00000000000E+00 -0.47458617571E+03  0.47458617571E+03  0.00000000000E+00 0.  1.
         21    1    1    2  502  501  0.12247849425E+02 -0.33547307271E+02 -0.44715304196E+03  0.44857694387E+03  0.00000000000E+00 0.  1.
         21    1    1    2  503  502 -0.12247849425E+02  0.33547307271E+02 -0.14788405990E+02  0.38653959596E+02  0.00000000000E+00 0. -1.
</event>
<event>
 4    1  0.5591986E+002  0.2035637E+02  0.7546771E-02  0.1528656E+00
          2   -1    0    0  502    0  0.00000000000E+00  0.00000000000E+00  0.53050404652E+01  0.53050404652E+01  0.00000000000E+00 0. -1.
         -2   -1    0    0    0  501 -0.00000000000E+00 -0.00000000000E+00 -0.13390065957E+03  0.13390065957E+03  0.00000000000E+00 0.  1.
         21    1    1    2  502  503  0.10871921386E+02  0.17209973066E+02 -0.19370269096E+02  0.28099629400E+02  0.00000000000E+00 0. -1.
         21    1    1    2  503  501 -0.10871921386E+02 -0.17209973066E+02 -0.10922535001E+03  0.11110607064E+03  0.00000000000E+00 0.  1.
</event>
<event>
 4    1  0.5591986E+002  0.2650741E+02  0.7546771E-02  0.1452620E+00
          2   -1    0    0  503    0  0.00000000000E+00  0.00000000000E+00  0.60367869249E+02  0.60367869249E+02  0.00000000000E+00 0. -1.
         -2   -1    0    0    0  501 -0.00000000000E+00 -0.00000000000E+00 -0.28310724723E+02  0.28310724723E+02  0.00000000000E+00 0.  1.
         21    1    1    2  502  501 -0.26468047561E+02  0.14439814411E+01 -0.17996499136E+02  0.32039297827E+02  0.00000000000E+00 0.  1.
         21    1    1    2  503  502  0.26468047561E+02 -0.14439814411E+01  0.50053643662E+02  0.56639296146E+02  0.00000000000E+00 0. -1.
</event>
<event>
 4    1  0.5591986E+002  0.3065551E+02  0.7546771E-02  0.1413984E+00
          2   -1    0    0  503    0  0.00000000000E+00  0.00000000000E+00  0.60359675859E+02  0.60359675859E+02  0.00000000000E+00 0.  1.
         -2   -1    0    0    0  501 -0.00000000000E+00 -0.00000000000E+00 -0.15884564769E+02  0.15884564769E+02  0.00000000000E+00 0. -1.
         21    1    1    2  502  501 -0.27883046440E+02 -0.12739540568E+02  0.27607888200E+02  0.41254765344E+02  0.00000000000E+00 0. -1.
         21    1    1    2  503  502  0.27883046440E+02  0.12739540568E+02  0.16867222890E+02  0.34989475285E+02  0.00000000000E+00 0.  1.
</event>
<event>
 4    1  0.5591986E+002  0.2720958E+02  0.7546771E-02  0.1445514E+00
          2   -1    0    0  502    0  0.00000000000E+00  0.00000000000E+00  0.58412348202E+03  0.58412348202E+03  0.00000000000E+00 0.  1.
         -2   -1    0    0    0  501 -0.00000000000E+00 -0.00000000000E+00 -0.23870855599E+01  0.23870855599E+01  0.00000000000E+00 0. -1.
         21    1    1    2  502  503  0.14174221276E+02 -0.23226116487E+02  0.49170608193E+03  0.49245835565E+03  0.00000000000E+00 0.  1.
         21    1    1    2  503  501 -0.14174221276E+02  0.23226116487E+02  0.90030314533E+02  0.94052211939E+02  0.00000000000E+00 0. -1.
</event>
<event>
 4    1  0.5591986E+002  0.3714684E+02  0.7546771E-02  0.1366068E+00
          2   -1    0    0  502    0  0.00000000000E+00  0.00000000000E+00  0.20959845132E+03  0.20959845132E+03  0.00000000000E+00 0. -1.
         -2   -1    0    0    0  501 -0.00000000000E+00 -0.00000000000E+00 -0.83888212076E+01  0.83888212076E+01  0.00000000000E+00 0.  1.
         21    1    1    2  502  503 -0.56387735138E+01  0.36716376658E+02  0.15116746437E+03  0.15566467282E+03  0.00000000000E+00 0. -1.
         21    1    1    2  503  501  0.56387735138E+01 -0.36716376658E+02  0.50042165747E+02  0.62322599707E+02  0.00000000000E+00 0.  1.
</event>
<event>
 4    1  0.5591986E+002  0.2452217E+02  0.7546771E-02  0.1474220E+00
          2   -1    0    0  503    0  0.00000000000E+00  0.00000000000E+00  0.46188168630E+02  0.46188168630E+02  0.00000000000E+00 0.  1.
         -2   -1    0    0    0  501 -0.00000000000E+00 -0.00000000000E+00 -0.14268221882E+02  0.14268221882E+02  0.00000000000E+00 0. -1.
         21    1    1    2  502  501  0.15238696134E+02  0.19212471131E+02  0.70166768987E+01  0.25506286706E+02  0.00000000000E+00 0. -1.
         21    1    1    2  503  502 -0.15238696134E+02 -0.19212471131E+02  0.24903269850E+02  0.34950103806E+02  0.00000000000E+00 0.  1.
</event>
<event>
 4    1  0.5591986E+002  0.5496501E+02  0.7546771E-02  0.1277971E+00
          2   -1    0    0  502    0  0.00000000000E+00  0.00000000000E+00  0.64153803899E+02  0.64153803899E+02  0.00000000000E+00 0.  1.
         -2   -1    0    0    0  501 -0.00000000000E+00 -0.00000000000E+00 -0.75585601981E+02  0.75585601981E+02  0.00000000000E+00 0. -1.
         21    1    1    2  502  503 -0.54851875527E+02 -0.35247601941E+01  0.37182443338E+02  0.66360276340E+02  0.00000000000E+00 0. -1.
         21    1    1    2  503  501  0.54851875527E+02  0.35247601941E+01 -0.48614241420E+02  0.73379129541E+02  0.00000000000E+00 0.  1.
</event>
<event>
 4    1  0.5591986E+002  0.5358242E+02  0.7546771E-02  0.1283345E+00
          2   -1    0    0  502    0  0.00000000000E+00  0.00000000000E+00  0.25084121569E+03  0.25084121569E+03  0.00000000000E+00 0. -1.
         -2   -1    0    0    0  501 -0.00000000000E+00 -0.00000000000E+00 -0.12037549299E+02  0.12037549299E+02  0.00000000000E+00 0.  1.
         21    1    1    2  502  503  0.49303000070E+02 -0.20983085183E+02  0.90259165335E+02  0.10496567347E+03  0.00000000000E+00 0. -1.
         21    1    1    2  503  501 -0.49303000070E+02  0.20983085183E+02  0.14854450106E+03  0.15791309152E+03  0.00000000000E+00 0.  1.
</event>
<event>
 4    1  0.5591986E+002  0.2070163E+02  0.7546771E-02  0.1523568E+00
          2   -1    0    0  503    0  0.00000000000E+00  0.00000000000E+00  0.12572502498E+02  0.12572502498E+02  0.00000000000E+00 0.  1.
         -2   -1    0    0    0  501 -0.00000000000E+00 -0.00000000000E+00 -0.50350912781E+02  0.50350912781E+02  0.00000000000E+00 0. -1.
         21    1    1    2  502  501  0.19041946911E+02 -0.81216752721E+01 -0.36770245034E+02  0.42197254309E+02  0.00000000000E+00 0. -1.
         21    1    1    2  503  502 -0.19041946911E+02  0.81216752721E+01 -0.10081652495E+01  0.20726160970E+02  0.00000000000E+00 0.  1.
</event>
<event>
 4    1  0.5591986E+002  0.3023201E+02  0.7546771E-02  0.1417591E+00
          2   -1    0    0  503    0  0.00000000000E+00  0.00000000000E+00  0.21982817020E+03  0.21982817020E+03  0.00000000000E+00 0.  1.
         -2   -1    0    0    0  501 -0.00000000000E+00 -0.00000000000E+00 -0.41931660324E+01  0.41931660324E+01  0.00000000000E+00 0. -1.
         21    1    1    2  502  501 -0.30065426135E+02 -0.31693258172E+01  0.97512765485E+02  0.10209169363E+03  0.00000000000E+00 0. -1.
         21    1    1    2  503  502  0.30065426135E+02  0.31693258172E+01  0.11812223869E+03  0.12192964261E+03  0.00000000000E+00 0.  1.
</event>
<event>
 4    1  0.5591986E+002  0.2148666E+02  0.7546771E-02  0.1512429E+00
          2   -1    0    0  503    0  0.00000000000E+00  0.00000000000E+00  0.79838846678E+03  0.79838846678E+03  0.00000000000E+00 0. -1.
         -2   -1    0    0    0  501 -0.00000000000E+00 -0.00000000000E+00 -0.59718340620E+00  0.59718340620E+00  0.00000000000E+00 0.  1.
         21    1    1    2  502  501  0.94664987326E+01  0.19288905707E+02  0.32778255959E+03  0.32848604666E+03  0.00000000000E+00 0.  1.
         21    1    1    2  503  502 -0.94664987326E+01 -0.19288905707E+02  0.47000872379E+03  0.47049960353E+03  0.00000000000E+00 0. -1.
</event>
<event>
 4    1  0.5591986E+002  0.4707633E+02  0.7546771E-02  0.1311372E+00
          2   -1    0    0  503    0  0.00000000000E+00  0.00000000000E+00  0.13117246880E+04  0.13117246880E+04  0.00000000000E+00 0.  1.
         -2   -1    0    0    0  501 -0.00000000000E+00 -0.00000000000E+00 -0.19094192660E+01  0.19094192660E+01  0.00000000000E+00 0. -1.
         21    1    1    2  502  501 -0.22114994975E+02 -0.41558483376E+02  0.43200813834E+03  0.43456554412E+03  0.00000000000E+00 0. -1.
         21    1    1    2  503  502  0.22114994975E+02  0.41558483376E+02  0.87780713044E+03  0.87906856319E+03  0.00000000000E+00 0.  1.
</event>
<event>
 4    1  0.5591986E+002  0.3544061E+02  0.7546771E-02  0.1377492E+00
          2   -1    0    0  502    0  0.00000000000E+00  0.00000000000E+00  0.36443999358E+02  0.36443999358E+02  0.00000000000E+00 0. -1.
         -2   -1    0    0    0  501 -0.00000000000E+00 -0.00000000000E+00 -0.69080698084E+02  0.69080698084E+02  0.00000000000E+00 0.  1.
         21    1    1    2  502  503 -0.33093105541E+01 -0.35285767863E+02  0.21031018254E+02  0.41210929119E+02  0.00000000000E+00 0. -1.
         21    1    1    2  503  501  0.33093105541E+01  0.35285767863E+02 -0.53667716980E+02  0.64313768323E+02  0.00000000000E+00 0.  1.
</event>
<event>
 4    1  0.5591986E+002  0.3669197E+02  0.7546771E-02  0.1369043E+00
          2   -1    0    0  502    0  0.00000000000E+00  0.00000000000E+00  0.16498804356E+03  0.16498804356E+03  0.00000000000E+00 0. -1.
         -2   -1    0    0    0  501 -0.00000000000E+00 -0.00000000000E+00 -0.81748803762E+01  0.81748803762E+01  0.00000000000E+00 0.  1.
         21    1    1    2  502  503 -0.33193028583E+02 -0.15637256262E+02  0.74711497814E+02  0.83235261972E+02  0.00000000000E+00 0.  1.
         21    1    1    2  503  501  0.33193028583E+02  0.15637256262E+02  0.82101665373E+02  0.89927661968E+02  0.00000000000E+00 0. -1.
</event>
<event>
 4    1  0.5591986E+002  0.3884377E+02  0.7546771E-02  0.1355398E+00
          2   -1    0    0  503    0  0.00000000000E+00  0.00000000000E+00  0.14489726769E+04  0.14489726769E+04  0.00000000000E+00 0.  1.
         -2   -1    0    0    0  501 -0.00000000000E+00 -0.00000000000E+00 -0.14639012712E+01  0.14639012712E+01  0.00000000000E+00 0. -1.
         21    1    1    2  502  501  0.11901098109E+02 -0.36975694605E+02  0.11134003139E+04  0.11140776890E+04  0.00000000000E+00 0.  1.
         21    1    1    2  503  502 -0.11901098109E+02  0.36975694605E+02  0.33410846167E+03  0.33635888912E+03  0.00000000000E+00 0. -1.
</event>
<event>
 4    1  0.5591986E+002  0.2790650E+02  0.7546771E-02  0.1438709E+00
          2   -1    0    0  503    0  0.00000000000E+00  0.00000000000E+00  0.12192310224E+03  0.12192310224E+03  0.00000000000E+00 0. -1.
         -2   -1    0    0    0  501 -0.00000000000E+00 -0.00000000000E+00 -0.19138449679E+02  0.19138449679E+02  0.00000000000E+00 0.  1.
         21    1    1    2  502  501  0.18247852157E+02  0.21113711007E+02 -0.61779183659E+01  0.28582154855E+02  0.00000000000E+00 0.  1.
         21    1    1    2  503  502 -0.18247852157E+02 -0.21113711007E+02  0.10896257093E+03  0.11247939706E+03  0.00000000000E+00 0. -1.
</event>
<event>
 4    1  0.5591986E+002  0.2095398E+02  0.7546771E-02  0.1519923E+00
          2   -1    0    0  503    0  0.00000000000E+00  0.00000000000E+00  0.98881915905E+01  0.98881915905E+01  0.00000000000E+00 0. -1.
         -2   -1    0    0    0  501 -0.00000000000E+00 -0.00000000000E+00 -0.58524760866E+03  0.58524760866E+03  0.00000000000E+00 0.  1.
         21    1    1    2  502  501  0.38882240052E+00 -0.20950374140E+02 -0.57373655516E+03  0.57411906786E+03  0.00000000000E+00 0.  1.
         21    1    1    2  503  502 -0.38882240052E+00  0.20950374140E+02 -0.16228619116E+01  0.21016732388E+02  0.00000000000E+00 0. -1.
</event>
<event>
 4    1  0.5591986E+002  0.3013680E+02  0.7546771E-02  0.1418411E+00
          2   -1    0    0  503    0  0.00000000000E+00  0.00000000000E+00  0.31757544501E+03  0.31757544501E+03  0.00000000000E+00 0. -1.
         -2   -1    0    0    0  501 -0.00000000000E+00 -0.00000000000E+00 -0.10576549552E+02  0.10576549552E+02  0.00000000000E+00 0.  1.
         21    1    1    2  502  501 -0.30021134379E+02 -0.26378755184E+01  0.13351072289E+02  0.32961766152E+02  0.00000000000E+00 0.  1.
         21    1    1    2  503  502  0.30021134379E+02  0.26378755184E+01  0.29364782317E+03  0.29519022841E+03  0.00000000000E+00 0. -1.
</event>
<event>
 4    1  0.5591986E+002  0.2278622E+02  0.7546771E-02  0.1495200E+00
          2   -1    0    0  503    0  0.00000000000E+00  0.00000000000E+00  0.12857579662E+04  0.12857579662E+04  0.00000000000E+00 0.  1.
         -2   -1    0    0    0  501 -0.00000000000E+00 -0.00000000000E+00 -0.42230887049E+00  0.42230887049E+00  0.00000000000E+00 0. -1.
         21    1    1    2  502  501  0.61674322339E+00 -0.22777875086E+02  0.50810111046E+03  0.50861178753E+03  0.00000000000E+00 0.  1.
         21    1    1    2  503  502 -0.61674322339E+00  0.22777875086E+02  0.77723454683E+03  0.77756848750E+03  0.00000000000E+00 0. -1.
</event>
<event>
 4    1  0.5591986E+002  0.2086130E+02  0.7546771E-02  0.1521254E+00
          2   -1    0    0  503    0  0.00000000000E+00  0.00000000000E+00  0.82416705994E+02  0.82416705994E+02  0.00000000000E+00 0. -1.
         -2   -1    0    0    0  501 -0.00000000000E+00 -0.00000000000E+00 -0.55789242141E+01  0.55789242141E+01  0.00000000000E+00 0.  1.
         21    1    1    2  502  501 -0.10132936395E+02  0.18235062850E+02  0.28241437895E+02  0.35110863440E+02  0.00000000000E+00 0.  1.
         21    1    1    2  503  502  0.10132936395E+02 -0.18235062850E+02  0.48596343884E+02  0.52884766768E+02  0.00000000000E+00 0. -1.
</event>
<event>
 4    1  0.5591986E+002  0.2880882E+02  0.7546771E-02  0.1430238E+00
          2   -1    0    0  502    0  0.00000000000E+00  0.00000000000E+00  0.53311432142E+02  0.53311432142E+02  0.00000000000E+00 0. -1.
         -2   -1    0    0    0  501 -0.00000000000E+00 -0.00000000000E+00 -0.45826689159E+02  0.45826689159E+02  0.00000000000E+00 0.  1.
         21    1    1    2  502  503  0.13978032379E+02  0.25190525314E+02  0.44021224789E+02  0.52610038839E+02  0.00000000000E+00 0. -1.
         21    1    1    2  503  501 -0.13978032379E+02 -0.25190525314E+02 -0.36536481806E+02  0.46528082462E+02  0.00000000000E+00 0.  1.
</event>
<event>
 4    1  0.5591986E+002  0.3937314E+02  0.7546771E-02  0.1352199E+00
          2   -1    0    0  502    0  0.00000000000E+00  0.00000000000E+00  0.29586757219E+04  0.29586757219E+04  0.00000000000E+00 0.  1.
         -2   -1    0    0    0  501 -0.00000000000E+00 -0.00000000000E+00 -0.54839522436E+00  0.54839522436E+00  0.00000000000E+00 0. -1.
         21    1    1    2  502  503 -0.15878747586E+02 -0.36029281900E+02  0.17913557568E+04  0.17917884058E+04  0.00000000000E+00 0.  1.
         21    1    1    2  503  501  0.15878747586E+02  0.36029281900E+02  0.11667715699E+04  0.11674357113E+04  0.00000000000E+00 0. -1.
</event>
<event>
 4    1  0.5591986E+002  0.2090936E+02  0.7546771E-02  0.1520563E+00
          2   -1    0    0  502    0  0.00000000000E+00  0.00000000000E+00  0.56052166349E+02  0.56052166349E+02  0.00000000000E+00 0. -1.
         -2   -1    0    0    0  501 -0.00000000000E+00 -0.00000000000E+00 -0.13127069052E+02  0.13127069052E+02  0.00000000000E+00 0.  1.
         21    1    1    2  502  503 -0.14877118687E+02 -0.14692602490E+02  0.43497401929E+02  0.48262047231E+02  0.00000000000E+00 0. -1.
         21    1    1    2  503  501  0.14877118687E+02  0.14692602490E+02 -0.57230463145E+00  0.20917188170E+02  0.00000000000E+00 0.  1.
</event>
<event>
 4    1  0.5591986E+002  0.2476976E+02  0.7546771E-02  0.1471396E+00
          2   -1    0    0  502    0  0.00000000000E+00  0.00000000000E+00  0.12689521113E+04  0.12689521113E+04  0.00000000000E+00 0.  1.
         -2   -1    0    0    0  501 -0.00000000000E+00 -0.00000000000E+00 -0.91816194541E+00  0.91816194541E+00  0.00000000000E+00 0. -1.
         21    1    1    2  502  503  0.22613768243E+02  0.10107358894E+02  0.10708791014E+04  0.10711655292E+04  0.00000000000E+00 0.  1.
         21    1    1    2  503  501 -0.22613768243E+02 -0.10107358894E+02  0.19715484793E+03  0.19870474398E+03  0.00000000000E+00 0. -1.
</event>
<event>
 4    1  0.5591986E+002  0.2143668E+02  0.7546771E-02  0.1513121E+00
          2   -1    0    0  503    0  0.00000000000E+00  0.00000000000E+00  0.12295644409E+04  0.12295644409E+04  0.00000000000E+00 0.  1.
         -2   -1    0    0    0  501 -0.00000000000E+00 -0.00000000000E+00 -0.14140589532E+01  0.14140589532E+01  0.00000000000E+00 0. -1.
         21    1    1    2  502  501  0.15933503196E+02  0.14340670578E+02  0.86151687178E+02  0.88778626710E+02  0.00000000000E+00 0. -1.
         21    1    1    2  503  502 -0.15933503196E+02 -0.14340670578E+02  0.11419986948E+04  0.11421998732E+04  0.00000000000E+00 0.  1.
</event>
<event>
 4    1  0.5591986E+002  0.4303457E+02  0.7546771E-02  0.1331566E+00
          2   -1    0    0  503    0  0.00000000000E+00  0.00000000000E+00  0.44269445309E+02  0.44269445309E+02  0.00000000000E+00 0.  1.
         -2   -1    0    0    0  501 -0.00000000000E+00 -0.00000000000E+00 -0.76602365795E+02  0.76602365795E+02  0.00000000000E+00 0. -1.
         21    1    1    2  502  501 -0.41610394914E+02  0.10979510836E+02 -0.56882463805E+02  0.71327339160E+02  0.00000000000E+00 0. -1.
         21    1    1    2  503  502  0.41610394914E+02 -0.10979510836E+02  0.24549543319E+02  0.49544471944E+02  0.00000000000E+00 0.  1.
</event>
<event>
 4    1  0.5591986E+002  0.2119474E+02  0.7546771E-02  0.1516503E+00
          2   -1    0    0  503    0  0.00000000000E+00  0.00000000000E+00  0.17594841538E+04  0.17594841538E+04  0.00000000000E+00 0.  1.
         -2   -1    0    0    0  501 -0.00000000000E+00 -0.00000000000E+00 -0.25724928112E+00  0.25724928112E+00  0.00000000000E+00 0. -1.
         21    1    1    2  502  501 -0.13511198286E+02  0.16329864517E+02  0.95597375696E+03  0.95620868065E+03  0.00000000000E+00 0. -1.
         21    1    1    2  503  502  0.13511198286E+02 -0.16329864517E+02  0.80325314754E+03  0.80353272241E+03  0.00000000000E+00 0.  1.
</event>
<event>
 4    1  0.5591986E+002  0.2130674E+02  0.7546771E-02  0.1514930E+00
          2   -1    0    0  503    0  0.00000000000E+00  0.00000000000E+00  0.16773244229E+03  0.16773244229E+03  0.00000000000E+00 0.  1.
         -2   -1    0    0    0  501 -0.00000000000E+00 -0.00000000000E+00 -0.84047048791E+01  0.84047048791E+01  0.00000000000E+00 0. -1.
         21    1    1    2  502  501 -0.59568120256E+01 -0.20457113379E+02  0.71490678793E+01  0.22474124429E+02  0.00000000000E+00 0. -1.
         21    1    1    2  503  502  0.59568120256E+01  0.20457113379E+02  0.15217866953E+03  0.15366302274E+03  0.00000000000E+00 0.  1.
</event>
<event>
 4    1  0.5591986E+002  0.2975266E+02  0.7546771E-02  0.1421758E+00
          2   -1    0    0  503    0  0.00000000000E+00  0.00000000000E+00  0.28763847023E+02  0.28763847023E+02  0.00000000000E+00 0.  1.
         -2   -1    0    0    0  501 -0.00000000000E+00 -0.00000000000E+00 -0.43261844927E+02  0.43261844927E+02  0.00000000000E+00 0. -1.
         21    1    1    2  502  501  0.31382021562E+01 -0.29586696766E+02 -0.26596420517E+02  0.39907274056E+02  0.00000000000E+00 0.  1.
         21    1    1    2  503  502 -0.31382021562E+01  0.29586696766E+02  0.12098422614E+02  0.32118417894E+02  0.00000000000E+00 0. -1.
</event>
<event>
 4    1  0.5591986E+002  0.2082637E+02  0.7546771E-02  0.1521758E+00
          2   -1    0    0  503    0  0.00000000000E+00  0.00000000000E+00  0.79735772321E+03  0.79735772321E+03  0.00000000000E+00 0. -1.
         -2   -1    0    0    0  501 -0.00000000000E+00 -0.00000000000E+00 -0.67166530325E+01  0.67166530325E+01  0.00000000000E+00 0.  1.
         21    1    1    2  502  501 -0.84371363455E+01  0.19040810838E+02  0.99071447480E+01  0.23062724560E+02  0.00000000000E+00 0.  1.
         21    1    1    2  503  502  0.84371363455E+01 -0.19040810838E+02  0.78073392543E+03  0.78101165169E+03  0.00000000000E+00 0. -1.
</event>
<event>
 4    1  0.5591986E+002  0.5578540E+02  0.7546771E-02  0.1274866E+00
          2   -1    0    0  502    0  0.00000000000E+00  0.00000000000E+00  0.55922592341E+03  0.55922592341E+03  0.00000000000E+00 0. -1.
         -2   -1    0    0    0  501 -0.00000000000E+00 -0.00000000000E+00 -0.80793023183E+01  0.80793023183E+01  0.00000000000E+00 0.  1.
         21    1    1    2  502  503  0.21139729713E+02  0.51624825002E+02  0.43381510468E+03  0.43738719206E+03  0.00000000000E+00 0. -1.
         21    1    1    2  503  501 -0.21139729713E+02 -0.51624825002E+02  0.11733151641E+03  0.12991803366E+03  0.00000000000E+00 0.  1.
</event>
<event>
 4    1  0.5591986E+002  0.2676684E+02  0.7546771E-02  0.1449964E+00
          2   -1    0    0  502    0  0.00000000000E+00  0.00000000000E+00  0.13455769195E+03  0.13455769195E+03  0.00000000000E+00 0.  1.
         -2   -1    0    0    0  501 -0.00000000000E+00 -0.00000000000E+00 -0.73307440418E+01  0.73307440418E+01  0.00000000000E+00 0. -1.
         21    1    1    2  502  503 -0.13518954883E+02  0.23101981847E+02  0.26500497352E+02  0.37666166069E+02  0.00000000000E+00 0. -1.
         21    1    1    2  503  501  0.13518954883E+02 -0.23101981847E+02  0.10072645056E+03  0.10422226993E+03  0.00000000000E+00 0.  1.
</event>
<event>
 4    1  0.5591986E+002  0.2313876E+02  0.7546771E-02  0.1490763E+00
          2   -1    0    0  503    0  0.00000000000E+00  0.00000000000E+00  0.10178284655E+03  0.10178284655E+03  0.00000000000E+00 0.  1.
         -2   -1    0    0    0  501 -0.00000000000E+00 -0.00000000000E+00 -0.65885211588E+01  0.65885211588E+01  0.00000000000E+00 0. -1.
         21    1    1    2  502  501  0.21408838927E+02  0.87786062536E+01  0.23267537763E+02  0.32814335671E+02  0.00000000000E+00 0.  1.
         21    1    1    2  503  502 -0.21408838927E+02 -0.87786062536E+01  0.71926787631E+02  0.75557032042E+02  0.00000000000E+00 0. -1.
</event>
<event>
 4    1  0.5591986E+002  0.3457165E+02  0.7546771E-02  0.1383600E+00
          2   -1    0    0  502    0  0.00000000000E+00  0.00000000000E+00  0.14472446665E+03  0.14472446665E+03  0.00000000000E+00 0.  1.
         -2   -1    0    0    0  501 -0.00000000000E+00 -0.00000000000E+00 -0.10907676849E+02  0.10907676849E+02  0.00000000000E+00 0. -1.
         21    1    1    2  502  503 -0.34565165412E+02 -0.66974519810E+00  0.10525819097E+03  0.11079027929E+03  0.00000000000E+00 0.  1.
         21    1    1    2  503  501  0.34565165412E+02  0.66974519810E+00  0.28558598832E+02  0.44841864210E+02  0.00000000000E+00 0. -1.
</event>
<event>
 4    1  0.5591986E+002  0.2537104E+02  0.7546771E-02  0.1464695E+00
          2   -1    0    0  502    0  0.00000000000E+00  0.00000000000E+00  0.70654893897E+03  0.70654893897E+03  0.00000000000E+00 0.  1.
         -2   -1    0    0    0  501 -0.00000000000E+00 -0.00000000000E+00 -0.18345999073E+01  0.18345999073E+01  0.00000000000E+00 0. -1.
         21    1    1    2  502  503  0.10289560338E+02  0.23190827344E+02  0.60366262771E+03  0.60419554585E+03  0.00000000000E+00 0.  1.
         21    1    1    2  503  501 -0.10289560338E+02 -0.23190827344E+02  0.10105171135E+03  0.10418799303E+03  0.00000000000E+00 0. -1.
</event>
<event>
 4    1  0.5591986E+002  0.2265437E+02  0.7546771E-02  0.1496884E+00
          2   -1    0    0  503    0  0.00000000000E+00  0.00000000000E+00  0.30826769919E+02  0.30826769919E+02  0.00000000000E+00 0.  1.
         -2   -1    0    0    0  501 -0.00000000000E+00 -0.00000000000E+00 -0.20948830034E+02  0.20948830034E+02  0.00000000000E+00 0. -1.
         21    1    1    2  502  501 -0.22646347797E+02 -0.60270088740E+00 -0.67901324851E+01  0.23650078564E+02  0.00000000000E+00 0. -1.
         21    1    1    2  503  502  0.22646347797E+02  0.60270088740E+00  0.16668072370E+02  0.28125521389E+02  0.00000000000E+00 0.  1.
</event>
<event>
 4    1  0.5591986E+002  0.3185041E+02  0.7546771E-02  0.1404170E+00
          2   -1    0    0  503    0  0.00000000000E+00  0.00000000000E+00  0.16189231590E+04  0.16189231590E+04  0.00000000000E+00 0. -1.
         -2   -1    0    0    0  501 -0.00000000000E+00 -0.00000000000E+00 -0.65588556327E+00  0.65588556327E+00  0.00000000000E+00 0.  1.
         21    1    1    2  502  501 -0.65547020988E+01  0.31168648899E+02  0.98019045617E+03  0.98070779499E+03  0.00000000000E+00 0. -1.
         21    1    1    2  503  502  0.65547020988E+01 -0.31168648899E+02  0.63807681722E+03  0.63887124953E+03  0.00000000000E+00 0.  1.
</event>
<event>
 4    1  0.5591986E+002  0.2027144E+02  0.7546771E-02  0.1529926E+00
          2   -1    0    0  502    0  0.00000000000E+00  0.00000000000E+00  0.89557782104E+03  0.89557782104E+03  0.00000000000E+00 0.  1.
         -2   -1    0    0    0  501 -0.00000000000E+00 -0.00000000000E+00 -0.10955851113E+01  0.10955851113E+01  0.00000000000E+00 0. -1.
         21    1    1    2  502  503  0.42293446388E+01  0.19825331112E+02  0.78903355604E+03  0.78929391463E+03  0.00000000000E+00 0.  1.
         21    1    1    2  503  501 -0.42293446388E+01 -0.19825331112E+02  0.10544867989E+03  0.10737949152E+03  0.00000000000E+00 0. -1.
</event>
<event>
 4    1  0.5591986E+002  0.2240709E+02  0.7546771E-02  0.1500081E+00
          2   -1    0    0  503    0  0.00000000000E+00  0.00000000000E+00  0.72726186836E+01  0.72726186836E+01  0.00000000000E+00 0.  1.
         -2   -1    0    0    0  501 -0.00000000000E+00 -0.00000000000E+00 -0.32157164471E+03  0.32157164471E+03  0.00000000000E+00 0. -1.
         21    1    1    2  502  501  0.55145806119E+01 -0.21717899809E+02 -0.30285708497E+03  0.30368485588E+03  0.00000000000E+00 0. -1.
         21    1    1    2  503  502 -0.55145806119E+01  0.21717899809E+02 -0.11441941053E+02  0.25159407515E+02  0.00000000000E+00 0.  1.
</event>
<event>
 4    1  0.5591986E+002  0.2481855E+02  0.7546771E-02  0.1470844E+00
          2   -1    0    0  502    0  0.00000000000E+00  0.00000000000E+00  0.17650498905E+04  0.17650498905E+04  0.00000000000E+00 0. -1.
         -2   -1    0    0    0  501 -0.00000000000E+00 -0.00000000000E+00 -0.60675541770E+00  0.60675541770E+00  0.00000000000E+00 0.  1.
         21    1    1    2  502  503  0.17466913594E+02  0.17631426918E+02  0.14576528041E+04  0.14578640738E+04  0.00000000000E+00 0.  1.
         21    1    1    2  503  501 -0.17466913594E+02 -0.17631426918E+02  0.30679033096E+03  0.30779257212E+03  0.00000000000E+00 0. -1.
</event>
<event>
 4    1  0.5591986E+002  0.2250526E+02  0.7546771E-02  0.1498806E+00
          2   -1    0    0  502    0  0.00000000000E+00  0.00000000000E+00  0.34349363332E+01  0.34349363332E+01  0.00000000000E+00 0. -1.
         -2   -1    0    0    0  501 -0.00000000000E+00 -0.00000000000E+00 -0.22663447498E+03  0.22663447498E+03  0.00000000000E+00 0.  1.
         21    1    1    2  502  503  0.22416279991E+02 -0.19993277395E+01 -0.43604064141E+02  0.49069352245E+02  0.00000000000E+00 0. -1.
         21    1    1    2  503  501 -0.22416279991E+02  0.19993277395E+01 -0.17959547450E+03  0.18100005907E+03  0.00000000000E+00 0.  1.
</event>
<event>
 4    1  0.5591986E+002  0.2034595E+02  0.7546771E-02  0.1528811E+00
          2   -1    0    0  502    0  0.00000000000E+00  0.00000000000E+00  0.22650176417E+03  0.22650176417E+03  0.00000000000E+00 0.  1.
         -2   -1    0    0    0  501 -0.00000000000E+00 -0.00000000000E+00 -0.19265629047E+01  0.19265629047E+01  0.00000000000E+00 0. -1.
         21    1    1    2  502  503 -0.42743378428E+01  0.19891904912E+02  0.86403482129E+02  0.88766657981E+02  0.00000000000E+00 0. -1.
         21    1    1    2  503  501  0.42743378428E+01 -0.19891904912E+02  0.13817171913E+03  0.13966166909E+03  0.00000000000E+00 0.  1.
</event>
<event>
 4    1  0.5591986E+002  0.2271593E+02  0.7546771E-02  0.1496096E+00
          2   -1    0    0  503    0  0.00000000000E+00  0.00000000000E+00  0.12936690450E+03  0.12936690450E+03  0.00000000000E+00 0. -1.
         -2   -1    0    0    0  501 -0.00000000000E+00 -0.00000000000E+00 -0.48686567936E+01  0.48686567936E+01  0.00000000000E+00 0.  1.
         21    1    1    2  502  501  0.22578752844E+02  0.24926237607E+01  0.33715994174E+02  0.40654415705E+02  0.00000000000E+00 0.  1.
         21    1    1    2  503  502 -0.22578752844E+02 -0.24926237607E+01  0.90782253532E+02  0.93581145588E+02  0.00000000000E+00 0. -1.
</event>
<event>
 4    1  0.5591986E+002  0.3427563E+02  0.7546771E-02  0.1385728E+00
          2   -1    0    0  503    0  0.00000000000E+00  0.00000000000E+00  0.11572573156E+02  0.11572573156E+02  0.00000000000E+00 0. -1.
         -2   -1    0    0    0  501 -0.00000000000E+00 -0.00000000000E+00 -0.26562264785E+03  0.26562264785E+03  0.00000000000E+00 0.  1.
         21    1    1    2  502  501 -0.29144457954E+02 -0.18039377766E+02 -0.23596426894E+03  0.23844067354E+03  0.00000000000E+00 0.  1.
         21    1    1    2  503  502  0.29144457954E+02  0.18039377766E+02 -0.18085805747E+02  0.38754547464E+02  0.00000000000E+00 0. -1.
</event>
<event>
 4    1  0.5591986E+002  0.2326746E+02  0.7546771E-02  0.1489167E+00
          2   -1    0    0  503    0  0.00000000000E+00  0.00000000000E+00  0.11016321507E+02  0.11016321507E+02  0.00000000000E+00 0. -1.
         -2   -1    0    0    0  501 -0.00000000000E+00 -0.00000000000E+00 -0.96761277731E+02  0.96761277731E+02  0.00000000000E+00 0.  1.
         21    1    1    2  502  501  0.20239995232E+02 -0.11476822546E+02 -0.80676207655E+02  0.83964429042E+02  0.00000000000E+00 0. -1.
         21    1    1    2  503  502 -0.20239995232E+02  0.11476822546E+02 -0.50687485689E+01  0.23813170196E+02  0.00000000000E+00 0.  1.
</event>
<event>
 4    1  0.5591986E+002  0.2503121E+02  0.7546771E-02  0.1468455E+00
          2   -1    0    0  502    0  0.00000000000E+00  0.00000000000E+00  0.47005584908E+03  0.47005584908E+03  0.00000000000E+00 0.  1.
         -2   -1    0    0    0  501 -0.00000000000E+00 -0.00000000000E+00 -0.27400142858E+01  0.27400142858E+01  0.00000000000E+00 0. -1.
         21    1    1    2  502  503 -0.21019220698E+02  0.13592412586E+02  0.40306209100E+03  0.40383859464E+03  0.00000000000E+00 0.  1.
         21    1    1    2  503  501  0.21019220698E+02 -0.13592412586E+02  0.64253743790E+02  0.68957268723E+02  0.00000000000E+00 0. -1.
</event>
<event>
 4    1  0.5591986E+002  0.4351268E+02  0.7546771E-02  0.1329046E+00
          2   -1    0    0  502    0  0.00000000000E+00  0.00000000000E+00  0.43721697906E+03  0.43721697906E+03  0.00000000000E+00 0.  1.
         -2   -1    0    0    0  501 -0.00000000000E+00 -0.00000000000E+00 -0.70394320576E+01  0.70394320576E+01  0.00000000000E+00 0. -1.
         21    1    1    2  502  503  0.42041310609E+02 -0.11219698204E+02  0.35288478568E+03  0.35555734473E+03  0.00000000000E+00 0.  1.
         21    1    1    2  503  501 -0.42041310609E+02  0.11219698204E+02  0.77292761318E+02  0.88699066386E+02  0.00000000000E+00 0. -1.
</event>
<event>
 4    1  0.5591986E+002  0.2249368E+02  0.7546771E-02  0.1498956E+00
          2   -1    0    0  502    0  0.00000000000E+00  0.00000000000E+00  0.11923960865E+04  0.11923960865E+04  0.00000000000E+00 0.  1.
         -2   -1    0    0    0  501 -0.00000000000E+00 -0.00000000000E+00 -0.68125537357E+00  0.68125537357E+00  0.00000000000E+00 0. -1.
         21    1    1    2  502  503 -0.21579562410E+02  0.63472998579E+01  0.96220198176E+03  0.96246486660E+03  0.00000000000E+00 0.  1.
         21    1    1    2  503  501  0.21579562410E+02 -0.63472998579E+01  0.22951284940E+03  0.23061247531E+03  0.00000000000E+00 0. -1.
</event>
<event>
 4    1  0.5591986E+002  0.2548245E+02  0.7546771E-02  0.1463478E+00
          2   -1    0    0  502    0  0.00000000000E+00  0.00000000000E+00  0.42084605025E+02  0.42084605025E+02  0.00000000000E+00 0.  1.
         -2   -1    0    0    0  501 -0.00000000000E+00 -0.00000000000E+00 -0.21689754114E+02  0.21689754114E+02  0.00000000000E+00 0. -1.
         21    1    1    2  502  503 -0.12638465542E+02  0.22127454713E+02  0.27328160425E+02  0.37365537807E+02  0.00000000000E+00 0.  1.
         21    1    1    2  503  501  0.12638465542E+02 -0.22127454713E+02 -0.69333095145E+01  0.26408821333E+02  0.00000000000E+00 0. -1.
</event>
<event>
 4    1  0.5591986E+002  0.4565523E+02  0.7546771E-02  0.1318195E+00
          2   -1    0    0  503    0  0.00000000000E+00  0.00000000000E+00  0.18321277145E+03  0.18321277145E+03  0.00000000000E+00 0. -1.
         -2   -1    0    0    0  501 -0.00000000000E+00 -0.00000000000E+00 -0.92062147954E+02  0.92062147954E+02  0.00000000000E+00 0.  1.
         21    1    1    2  502  501 -0.33565947574E+02  0.30947172829E+02 -0.83277251835E+02  0.94971053568E+02  0.00000000000E+00 0.  1.
         21    1    1    2  503  502  0.33565947574E+02 -0.30947172829E+02  0.17442787533E+03  0.18030386583E+03  0.00000000000E+00 0. -1.
</event>
<event>
 4    1  0.5591986E+002  0.4340289E+02  0.7546771E-02  0.1329621E+00
          2   -1    0    0  503    0  0.00000000000E+00  0.00000000000E+00  0.78206265351E+03  0.78206265351E+03  0.00000000000E+00 0. -1.
         -2   -1    0    0    0  501 -0.00000000000E+00 -0.00000000000E+00 -0.51513116088E+01  0.51513116088E+01  0.00000000000E+00 0.  1.
         21    1    1    2  502  501  0.56818945818E+01 -0.43029374727E+02  0.10125840726E+03  0.11016839863E+03  0.00000000000E+00 0.  1.
         21    1    1    2  503  502 -0.56818945818E+01  0.43029374727E+02  0.67565293464E+03  0.67704556649E+03  0.00000000000E+00 0. -1.
</event>
<event>
 4    1  0.5591986E+002  0.3018900E+02  0.7546771E-02  0.1417961E+00
          2   -1    0    0  502    0  0.00000000000E+00  0.00000000000E+00  0.11811576552E+04  0.11811576552E+04  0.00000000000E+00 0. -1.
         -2   -1    0    0    0  501 -0.00000000000E+00 -0.00000000000E+00 -0.11522119951E+01  0.11522119951E+01  0.00000000000E+00 0.  1.
         21    1    1    2  502  503  0.13366305164E+02 -0.27068752874E+02  0.92976811008E+03  0.93025809001E+03  0.00000000000E+00 0. -1.
         21    1    1    2  503  501 -0.13366305164E+02  0.27068752874E+02  0.25023733315E+03  0.25205177722E+03  0.00000000000E+00 0.  1.
</event>
<event>
 4    1  0.5591986E+002  0.2545207E+02  0.7546771E-02  0.1463809E+00
          2   -1    0    0  502    0  0.00000000000E+00  0.00000000000E+00  0.14883382984E+02  0.14883382984E+02  0.00000000000E+00 0. -1.
         -2   -1    0    0    0  501 -0.00000000000E+00 -0.00000000000E+00 -0.59485420694E+02  0.59485420694E+02  0.00000000000E+00 0.  1.
         21    1    1    2  502  503  0.20875349069E+02 -0.14561173634E+02 -0.30404231158E+01  0.25633028480E+02  0.00000000000E+00 0. -1.
         21    1    1    2  503  501 -0.20875349069E+02  0.14561173634E+02 -0.41561614594E+02  0.48735775197E+02  0.00000000000E+00 0.  1.
</event>
<event>
 4    1  0.5591986E+002  0.2626419E+02  0.7546771E-02  0.1455143E+00
          2   -1    0    0  502    0  0.00000000000E+00  0.00000000000E+00  0.14586845259E+03  0.14586845259E+03  0.00000000000E+00 0.  1.
         -2   -1    0    0    0  501 -0.00000000000E+00 -0.00000000000E+00 -0.57097933846E+01  0.57097933846E+01  0.00000000000E+00 0. -1.
         21    1    1    2  502  503  0.22971558351E+02  0.12732450589E+02  0.10149104862E+03  0.10483434905E+03  0.00000000000E+00 0.  1.
         21    1    1    2  503  501 -0.22971558351E+02 -0.12732450589E+02  0.38667610580E+02  0.46743896918E+02  0.00000000000E+00 0. -1.
</event>
<event>
 4    1  0.5591986E+002  0.2134752E+02  0.7546771E-02  0.1514361E+00
          2   -1    0    0  503    0  0.00000000000E+00  0.00000000000E+00  0.20794900198E+03  0.20794900198E+03  0.00000000000E+00 0. -1.
         -2   -1    0    0    0  501 -0.00000000000E+00 -0.00000000000E+00 -0.44510551315E+01  0.44510551315E+01  0.00000000000E+00 0.  1.
         21    1    1    2  502  501  0.20229593222E+02 -0.68176393541E+01  0.26082015051E+02  0.33704423411E+02  0.00000000000E+00 0.  1.
         21    1    1    2  503  502 -0.20229593222E+02  0.68176393541E+01  0.17741593180E+03  0.17869563371E+03  0.00000000000E+00 0. -1.
</event>
<event>
 4    1  0.5591986E+002  0.2026734E+02  0.7546771E-02  0.1529987E+00
          2   -1    0    0  502    0  0.00000000000E+00  0.00000000000E+00  0.10853395897E+03  0.10853395897E+03  0.00000000000E+00 0. -1.
         -2   -1    0    0    0  501 -0.00000000000E+00 -0.00000000000E+00 -0.49956544990E+01  0.49956544990E+01  0.00000000000E+00 0.  1.
         21    1    1    2  502  503 -0.12415537216E+02  0.16019350335E+02  0.79717257624E+02  0.82253305785E+02  0.00000000000E+00 0. -1.
         21    1    1    2  503  501  0.12415537216E+02 -0.16019350335E+02  0.23821046852E+02  0.31276307688E+02  0.00000000000E+00 0.  1.
</event>
<event>
 4    1  0.5591986E+002  0.6347395E+02  0.7546771E-02  0.1248465E+00
          2   -1    0    0  502    0  0.00000000000E+00  0.00000000000E+00  0.17327556652E+04  0.17327556652E+04  0.00000000000E+00 0.  1.
         -2   -1    0    0    0  501 -0.00000000000E+00 -0.00000000000E+00 -0.24599666476E+01  0.24599666476E+01  0.00000000000E+00 0. -1.
         21    1    1    2  502  503 -0.19035331855E+02  0.60552449061E+02  0.66204952736E+03  0.66508534762E+03  0.00000000000E+00 0.  1.
         21    1    1    2  503  501  0.19035331855E+02 -0.60552449061E+02  0.10682461712E+04  0.10701302842E+04  0.00000000000E+00 0. -1.
</event>
<event>
 4    1  0.5591986E+002  0.2192239E+02  0.7546771E-02  0.1506492E+00
          2   -1    0    0  502    0  0.00000000000E+00  0.00000000000E+00  0.73627000279E+03  0.73627000279E+03  0.00000000000E+00 0. -1.
         -2   -1    0    0    0  501 -0.00000000000E+00 -0.00000000000E+00 -0.46186134636E+01  0.46186134636E+01  0.00000000000E+00 0.  1.
         21    1    1    2  502  503 -0.28295308692E+01 -0.21739022326E+02  0.70909633424E+03  0.70943512922E+03  0.00000000000E+00 0. -1.
         21    1    1    2  503  501  0.28295308692E+01  0.21739022326E+02  0.22555055081E+02  0.31453487029E+02  0.00000000000E+00 0.  1.
</event>
<event>
 4    1  0.5591986E+002  0.3068783E+02  0.7546771E-02  0.1413712E+00
          2   -1    0    0  503    0  0.00000000000E+00  0.00000000000E+00  0.20143526432E+02  0.20143526432E+02  0.00000000000E+00 0.  1.
         -2   -1    0    0    0  501 -0.00000000000E+00 -0.00000000000E+00 -0.47351413643E+02  0.47351413643E+02  0.00000000000E+00 0. -1.
         21    1    1    2  502  501  0.26396892678E+02  0.15650778524E+02 -0.98058124696E+01  0.32216405287E+02  0.00000000000E+00 0. -1.
         21    1    1    2  503  502 -0.26396892678E+02 -0.15650778524E+02 -0.17402074742E+02  0.35278534788E+02  0.00000000000E+00 0.  1.
</event>
<event>
 4    1  0.5591986E+002  0.2873270E+02  0.7546771E-02  0.1430938E+00
          2   -1    0    0  503    0  0.00000000000E+00  0.00000000000E+00  0.38369281832E+03  0.38369281832E+03  0.00000000000E+00 0. -1.
         -2   -1    0    0    0  501 -0.00000000000E+00 -0.00000000000E+00 -0.21589047494E+01  0.21589047494E+01  0.00000000000E+00 0.  1.
         21    1    1    2  502  501  0.24251969640E+02 -0.15408124336E+02  0.17957458598E+03  0.18185873709E+03  0.00000000000E+00 0.  1.
         21    1    1    2  503  502 -0.24251969640E+02  0.15408124336E+02  0.20195932759E+03  0.20399298598E+03  0.00000000000E+00 0. -1.
</event>
<event>
 4    1  0.5591986E+002  0.2107273E+02  0.7546771E-02  0.1518229E+00
          2   -1    0    0  502    0  0.00000000000E+00  0.00000000000E+00  0.31800947736E+02  0.31800947736E+02  0.00000000000E+00 0.  1.
         -2   -1    0    0    0  501 -0.00000000000E+00 -0.00000000000E+00 -0.31924749720E+02  0.31924749720E+02  0.00000000000E+00 0. -1.
         21    1    1    2  502  503 -0.19940095997E+02 -0.68155984914E+01  0.23837463893E+02  0.31816418655E+02  0.00000000000E+00 0.  1.
         21    1    1    2  503  501  0.19940095997E+02  0.68155984914E+01 -0.23961265877E+02  0.31909278801E+02  0.00000000000E+00 0. -1.
</event>
<event>
 4    1  0.5591986E+002  0.3212156E+02  0.7546771E-02  0.1402014E+00
          2   -1    0    0  502    0  0.00000000000E+00  0.00000000000E+00  0.78796848263E+03  0.78796848263E+03  0.00000000000E+00 0. -1.
         -2   -1    0    0    0  501 -0.00000000000E+00 -0.00000000000E+00 -0.48022669751E+01  0.48022669751E+01  0.00000000000E+00 0.  1.
         21    1    1    2  502  503 -0.30671477145E+02 -0.95422782662E+01  0.72963489346E+03  0.73034161346E+03  0.00000000000E+00 0. -1.
         21    1    1    2  503  501  0.30671477145E+02  0.95422782662E+01  0.53531322187E+02  0.62429136146E+02  0.00000000000E+00 0.  1.
</event>
<event>
 4    1  0.5591986E+002  0.2046047E+02  0.7546771E-02  0.1527109E+00
          2   -1    0    0  502    0  0.00000000000E+00  0.00000000000E+00  0.12907823628E+02  0.12907823628E+02  0.00000000000E+00 0.  1.
         -2   -1    0    0    0  501 -0.00000000000E+00 -0.00000000000E+00 -0.84920963504E+02  0.84920963504E+02  0.00000000000E+00 0. -1.
         21    1    1    2  502  503  0.11828983869E+02 -0.16694491265E+02  0.24492271388E+01  0.20606542930E+02  0.00000000000E+00 0.  1.
         21    1    1    2  503  501 -0.11828983869E+02  0.16694491265E+02 -0.74462367015E+02  0.77222244201E+02  0.00000000000E+00 0. -1.
</event>
<event>
 4    1  0.5591986E+002  0.3622896E+02  0.7546771E-02  0.1372123E+00
          2   -1    0    0  502    0  0.00000000000E+00  0.00000000000E+00  0.25407658345E+04  0.25407658345E+04  0.00000000000E+00 0.  1.
         -2   -1    0    0    0  501 -0.00000000000E+00 -0.00000000000E+00 -0.10596206021E+01  0.10596206021E+01  0.00000000000E+00 0. -1.
         21    1    1    2  502  503 -0.33804733829E+02  0.13029858815E+02  0.21796662534E+04  0.21799673194E+04  0.00000000000E+00 0.  1.
         21    1    1    2  503  501  0.33804733829E+02 -0.13029858815E+02  0.36003996043E+03  0.36185813568E+03  0.00000000000E+00 0. -1.
</event>
<event>
 4    1  0.5591986E+002  0.2035962E+02  0.7546771E-02  0.1528607E+00
          2   -1    0    0  502    0  0.00000000000E+00  0.00000000000E+00  0.13173331360E+03  0.13173331360E+03  0.00000000000E+00 0. -1.
         -2   -1    0    0    0  501 -0.00000000000E+00 -0.00000000000E+00 -0.56597996307E+01  0.56597996307E+01  0.00000000000E+00 0.  1.
         21    1    1    2  502  503  0.19892105831E+02  0.43379880882E+01  0.10881368468E+03  0.11070199631E+03  0.00000000000E+00 0. -1.
         21    1    1    2  503  501 -0.19892105831E+02 -0.43379880882E+01  0.17259829294E+02  0.26691116918E+02  0.00000000000E+00 0.  1.
</event>
<event>
 4    1  0.5591986E+002  0.2118347E+02  0.7546771E-02  0.1516661E+00
          2   -1    0    0  502    0  0.00000000000E+00  0.00000000000E+00  0.31708326946E+03  0.31708326946E+03  0.00000000000E+00 0.  1.
         -2   -1    0    0    0  501 -0.00000000000E+00 -0.00000000000E+00 -0.87847701639E+01  0.87847701639E+01  0.00000000000E+00 0. -1.
         21    1    1    2  502  503  0.19160498146E+02  0.90340796149E+01  0.30338310780E+03  0.30412176736E+03  0.00000000000E+00 0.  1.
         21    1    1    2  503  501 -0.19160498146E+02 -0.90340796149E+01  0.49153914926E+01  0.21746272261E+02  0.00000000000E+00 0. -1.
</event>
<event>
 4    1  0.5591986E+002  0.3150916E+02  0.7546771E-02  0.1406920E+00
          2   -1    0    0  502    0  0.00000000000E+00  0.00000000000E+00  0.12750314504E+04  0.12750314504E+04  0.00000000000E+00 0. -1.
         -2   -1    0    0    0  501 -0.00000000000E+00 -0.00000000000E+00 -0.13585208508E+01  0.13585208508E+01  0.00000000000E+00 0.  1.
         21    1    1    2  502  503 -0.16186770831E+02 -0.27033603945E+02  0.10537815009E+04  0.10542524740E+04  0.00000000000E+00 0. -1.
         21    1    1    2  503  501  0.16186770831E+02  0.27033603945E+02  0.21989142863E+03  0.22213749723E+03  0.00000000000E+00 0.  1.
</event>
<event>
 4    1  0.5591986E+002  0.2196580E+02  0.7546771E-02  0.1505910E+00
          2   -1    0    0  502    0  0.00000000000E+00  0.00000000000E+00  0.18473127800E+02  0.18473127800E+02  0.00000000000E+00 0. -1.
         -2   -1    0    0    0  501 -0.00000000000E+00 -0.00000000000E+00 -0.26320268996E+02  0.26320268996E+02  0.00000000000E+00 0.  1.
         21    1    1    2  502  503 -0.21362102740E+02  0.51143772369E+01 -0.19641751982E+01  0.22053441278E+02  0.00000000000E+00 0. -1.
         21    1    1    2  503  501  0.21362102740E+02 -0.51143772369E+01 -0.58829659985E+01  0.22739955518E+02  0.00000000000E+00 0.  1.
</event>
<event>
 4    1  0.5591986E+002  0.2148091E+02  0.7546771E-02  0.1512508E+00
          2   -1    0    0  502    0  0.00000000000E+00  0.00000000000E+00  0.29791691006E+03  0.29791691006E+03  0.00000000000E+00 0. -1.
         -2   -1    0    0    0  501 -0.00000000000E+00 -0.00000000000E+00 -0.75949272528E+01  0.75949272528E+01  0.00000000000E+00 0.  1.
         21    1    1    2  502  503 -0.54758713478E+01 -0.20771238914E+02  0.28145380949E+03  0.28227234440E+03  0.00000000000E+00 0. -1.
         21    1    1    2  503  501  0.54758713478E+01  0.20771238914E+02  0.88681733140E+01  0.23239492916E+02  0.00000000000E+00 0.  1.
</event>
<event>
 4    1  0.5591986E+002  0.3533883E+02  0.7546771E-02  0.1378197E+00
          2   -1    0    0  503    0  0.00000000000E+00  0.00000000000E+00  0.21401219853E+03  0.21401219853E+03  0.00000000000E+00 0. -1.
         -2   -1    0    0    0  501 -0.00000000000E+00 -0.00000000000E+00 -0.23436622499E+02  0.23436622499E+02  0.00000000000E+00 0.  1.
         21    1    1    2  502  501 -0.79547275202E+01  0.34431890243E+02 -0.76002142178E+01  0.36146867247E+02  0.00000000000E+00 0.  1.
         21    1    1    2  503  502  0.79547275202E+01 -0.34431890243E+02  0.19817579025E+03  0.20130195378E+03  0.00000000000E+00 0. -1.
</event>
<event>
 4    1  0.5591986E+002  0.2325517E+02  0.7546771E-02  0.1489319E+00
          2   -1    0    0  502    0  0.00000000000E+00  0.00000000000E+00  0.47975589264E+03  0.47975589264E+03  0.00000000000E+00 0. -1.
         -2   -1    0    0    0  501 -0.00000000000E+00 -0.00000000000E+00 -0.79272957611E+01  0.79272957611E+01  0.00000000000E+00 0.  1.
         21    1    1    2  502  503  0.49189594691E+01  0.22728986943E+02  0.46175452302E+03  0.46233974795E+03  0.00000000000E+00 0. -1.
         21    1    1    2  503  501 -0.49189594691E+01 -0.22728986943E+02  0.10074073865E+02  0.25343440452E+02  0.00000000000E+00 0.  1.
</event>
<event>
 4    1  0.5591986E+002  0.4626497E+02  0.7546771E-02  0.1315233E+00
          2   -1    0    0  502    0  0.00000000000E+00  0.00000000000E+00  0.51463308807E+03  0.51463308807E+03  0.00000000000E+00 0.  1.
         -2   -1    0    0    0  501 -0.00000000000E+00 -0.00000000000E+00 -0.41670641269E+01  0.41670641269E+01  0.00000000000E+00 0. -1.
         21    1    1    2  502  503  0.14519330068E+02 -0.43927624890E+02  0.26652241755E+03  0.27050812600E+03  0.00000000000E+00 0.  1.
         21    1    1    2  503  501 -0.14519330068E+02  0.43927624890E+02  0.24394360640E+03  0.24829202620E+03  0.00000000000E+00 0. -1.
</event>
<event>
 4    1  0.5591986E+002  0.2932018E+02  0.7546771E-02  0.1425598E+00
          2   -1    0    0  502    0  0.00000000000E+00  0.00000000000E+00  0.24716278860E+02  0.24716278860E+02  0.00000000000E+00 0. -1.
         -2   -1    0    0    0  501 -0.00000000000E+00 -0.00000000000E+00 -0.20565988067E+03  0.20565988067E+03  0.00000000000E+00 0.  1.
         21    1    1    2  502  503  0.99452759957E+01  0.27581954096E+02  0.14525015496E+02  0.32720769880E+02  0.00000000000E+00 0. -1.
         21    1    1    2  503  501 -0.99452759957E+01 -0.27581954096E+02 -0.19546861730E+03  0.19765538965E+03  0.00000000000E+00 0.  1.
</event>
<event>
 4    1  0.5591986E+002  0.2302758E+02  0.7546771E-02  0.1492152E+00
          2   -1    0    0  502    0  0.00000000000E+00  0.00000000000E+00  0.11396939381E+04  0.11396939381E+04  0.00000000000E+00 0.  1.
         -2   -1    0    0    0  501 -0.00000000000E+00 -0.00000000000E+00 -0.60135832123E+00  0.60135832123E+00  0.00000000000E+00 0. -1.
         21    1    1    2  502  503 -0.21455282266E+02 -0.83630260733E+01  0.84076870679E+03  0.84108399560E+03  0.00000000000E+00 0.  1.
         21    1    1    2  503  501  0.21455282266E+02  0.83630260733E+01  0.29832387296E+03  0.29921130079E+03  0.00000000000E+00 0. -1.
</event>
<event>
 4    1  0.5591986E+002  0.2169078E+02  0.7546771E-02  0.1509627E+00
          2   -1    0    0  503    0  0.00000000000E+00  0.00000000000E+00  0.40612034363E+03  0.40612034363E+03  0.00000000000E+00 0.  1.
         -2   -1    0    0    0  501 -0.00000000000E+00 -0.00000000000E+00 -0.12301404445E+01  0.12301404445E+01  0.00000000000E+00 0. -1.
         21    1    1    2  502  501  0.13615822467E+02  0.16884878193E+02  0.15329265488E+03  0.15481966210E+03  0.00000000000E+00 0. -1.
         21    1    1    2  503  502 -0.13615822467E+02 -0.16884878193E+02  0.25159754831E+03  0.25253082198E+03  0.00000000000E+00 0.  1.
</event>
<event>
 4    1  0.5591986E+002  0.2242707E+02  0.7546771E-02  0.1499821E+00
          2   -1    0    0  502    0  0.00000000000E+00  0.00000000000E+00  0.16644497508E+04  0.16644497508E+04  0.00000000000E+00 0. -1.
         -2   -1    0    0    0  501 -0.00000000000E+00 -0.00000000000E+00 -0.53351484279E+00  0.53351484279E+00  0.00000000000E+00 0.  1.
         21    1    1    2  502  503  0.21598114688E+02 -0.60410920174E+01  0.13801360541E+04  0.13803182608E+04  0.00000000000E+00 0. -1.
         21    1    1    2  503  501 -0.21598114688E+02  0.60410920174E+01  0.28378018186E+03  0.28466500482E+03  0.00000000000E+00 0.  1.
</event>
<event>
 4    1  0.5591986E+002  0.2621935E+02  0.7546771E-02  0.1455611E+00
          2   -1    0    0  503    0  0.00000000000E+00  0.00000000000E+00  0.86031320633E+03  0.86031320633E+03  0.00000000000E+00 0.  1.
         -2   -1    0    0    0  501 -0.00000000000E+00 -0.00000000000E+00 -0.17110109309E+01  0.17110109309E+01  0.00000000000E+00 0. -1.
         21    1    1    2  502  501 -0.12654644963E+01 -0.26188795654E+02  0.11463834197E+03  0.11759848582E+03  0.00000000000E+00 0. -1.
         21    1    1    2  503  502  0.12654644963E+01  0.26188795654E+02  0.74396385343E+03  0.74442573144E+03  0.00000000000E+00 0.  1.
</event>
<event>
 4    1  0.5591986E+002  0.2073392E+02  0.7546771E-02  0.1523098E+00
          2   -1    0    0  502    0  0.00000000000E+00  0.00000000000E+00  0.15490711960E+04  0.15490711960E+04  0.00000000000E+00 0.  1.
         -2   -1    0    0    0  501 -0.00000000000E+00 -0.00000000000E+00 -0.86978913296E+00  0.86978913296E+00  0.00000000000E+00 0. -1.
         21    1    1    2  502  503  0.70449264553E+01  0.19500371089E+02  0.14135975173E+04  0.14137495663E+04  0.00000000000E+00 0.  1.
         21    1    1    2  503  501 -0.70449264553E+01 -0.19500371089E+02  0.13460388959E+03  0.13619141879E+03  0.00000000000E+00 0. -1.
</event>
<event>
 4    1  0.5591986E+002  0.2599962E+02  0.7546771E-02  0.1457924E+00
          2   -1    0    0  502    0  0.00000000000E+00  0.00000000000E+00  0.63657086740E+03  0.63657086740E+03  0.00000000000E+00 0.  1.
         -2   -1    0    0    0  501 -0.00000000000E+00 -0.00000000000E+00 -0.14798295229E+03  0.14798295229E+03  0.00000000000E+00 0. -1.
         21    1    1    2  502  503  0.14257425069E+02 -0.21741807989E+02  0.63516086577E+03  0.63569277626E+03  0.00000000000E+00 0.  1.
         21    1    1    2  503  501 -0.14257425069E+02  0.21741807989E+02 -0.14657295067E+03  0.14886104343E+03  0.00000000000E+00 0. -1.
</event>
<event>
 4    1  0.5591986E+002  0.2089898E+02  0.7546771E-02  0.1520712E+00
          2   -1    0    0  502    0  0.00000000000E+00  0.00000000000E+00  0.29345825397E+01  0.29345825397E+01  0.00000000000E+00 0.  1.
         -2   -1    0    0    0  501 -0.00000000000E+00 -0.00000000000E+00 -0.18274391335E+03  0.18274391335E+03  0.00000000000E+00 0. -1.
         21    1    1    2  502  503  0.16727182948E+02  0.12528719519E+02 -0.49912993961E+02  0.54111684766E+02  0.00000000000E+00 0.  1.
         21    1    1    2  503  501 -0.16727182948E+02 -0.12528719519E+02 -0.12989633685E+03  0.13156681112E+03  0.00000000000E+00 0. -1.
</event>
<event>
 4    1  0.5591986E+002  0.2916318E+02  0.7546771E-02  0.1427010E+00
          2   -1    0    0  503    0  0.00000000000E+00  0.00000000000E+00  0.19769443041E+03  0.19769443041E+03  0.00000000000E+00 0. -1.
         -2   -1    0    0    0  501 -0.00000000000E+00 -0.00000000000E+00 -0.48333318758E+01  0.48333318758E+01  0.00000000000E+00 0.  1.
         21    1    1    2  502  501 -0.94697522052E+01  0.27582867833E+02  0.62857187141E+02  0.69292977855E+02  0.00000000000E+00 0.  1.
         21    1    1    2  503  502  0.94697522052E+01 -0.27582867833E+02  0.13000391139E+03  0.13323478443E+03  0.00000000000E+00 0. -1.
</event>
<event>
 4    1  0.5591986E+002  0.3331454E+02  0.7546771E-02  0.1392816E+00
          2   -1    0    0  502    0  0.00000000000E+00  0.00000000000E+00  0.19054210577E+04  0.19054210577E+04  0.00000000000E+00 0. -1.
         -2   -1    0    0    0  501 -0.00000000000E+00 -0.00000000000E+00 -0.91886191015E+00  0.91886191015E+00  0.00000000000E+00 0.  1.
         21    1    1    2  502  503  0.28023058411E+02  0.18015735729E+02  0.15289714877E+04  0.15293343874E+04  0.00000000000E+00 0. -1.
         21    1    1    2  503  501 -0.28023058411E+02 -0.18015735729E+02  0.37553070812E+03  0.37700553216E+03  0.00000000000E+00 0.  1.
</event>
<event>
 4    1  0.5591986E+002  0.2222715E+02  0.7546771E-02  0.1502438E+00
          2   -1    0    0  502    0  0.00000000000E+00  0.00000000000E+00  0.48031630088E+03  0.48031630088E+03  0.00000000000E+00 0.  1.
         -2   -1    0    0    0  501 -0.00000000000E+00 -0.00000000000E+00 -0.12784934778E+01  0.12784934778E+01  0.00000000000E+00 0. -1.
         21    1    1    2  502  503  0.20462551356E+02  0.86793023073E+01  0.34598044405E+03  0.34669368895E+03  0.00000000000E+00 0. -1.
         21    1    1    2  503  501 -0.20462551356E+02 -0.86793023073E+01  0.13305736336E+03  0.13490110541E+03  0.00000000000E+00 0.  1.
</event>
<event>
 4    1  0.5591986E+002  0.2613398E+02  0.7546771E-02  0.1456507E+00
          2   -1    0    0  503    0  0.00000000000E+00  0.00000000000E+00  0.47594837331E+03  0.47594837331E+03  0.00000000000E+00 0. -1.
         -2   -1    0    0    0  501 -0.00000000000E+00 -0.00000000000E+00 -0.15239921437E+01  0.15239921437E+01  0.00000000000E+00 0.  1.
         21    1    1    2  502  501  0.18239459038E+02  0.18716496221E+02  0.17952134375E+03  0.18141361018E+03  0.00000000000E+00 0.  1.
         21    1    1    2  503  502 -0.18239459038E+02 -0.18716496221E+02  0.29490303741E+03  0.29605875527E+03  0.00000000000E+00 0. -1.
</event>
<event>
 4    1  0.5591986E+002  0.2309036E+02  0.7546771E-02  0.1491367E+00
          2   -1    0    0  503    0  0.00000000000E+00  0.00000000000E+00  0.23272955392E+04  0.23272955392E+04  0.00000000000E+00 0. -1.
         -2   -1    0    0    0  501 -0.00000000000E+00 -0.00000000000E+00 -0.23870174745E+00  0.23870174745E+00  0.00000000000E+00 0.  1.
         21    1    1    2  502  501 -0.21179414518E+02 -0.91976693978E+01  0.93002409261E+03  0.93031068872E+03  0.00000000000E+00 0.  1.
         21    1    1    2  503  502  0.21179414518E+02  0.91976693978E+01  0.13970327448E+04  0.13972235522E+04  0.00000000000E+00 0. -1.
</event>
<event>
 4    1  0.5591986E+002  0.2035931E+02  0.7546771E-02  0.1528612E+00
          2   -1    0    0  502    0  0.00000000000E+00  0.00000000000E+00  0.70985666708E+03  0.70985666708E+03  0.00000000000E+00 0.  1.
         -2   -1    0    0    0  501 -0.00000000000E+00 -0.00000000000E+00 -0.11924167396E+01  0.11924167396E+01  0.00000000000E+00 0. -1.
         21    1    1    2  502  503  0.14801601529E+02 -0.13979063512E+02  0.10036142532E+03  0.10240565081E+03  0.00000000000E+00 0. -1.
         21    1    1    2  503  501 -0.14801601529E+02  0.13979063512E+02  0.60830282502E+03  0.60864343301E+03  0.00000000000E+00 0.  1.
</event>
<event>
 4    1  0.5591986E+002  0.2060123E+02  0.7546771E-02  0.1525035E+00
          2   -1    0    0  502    0  0.00000000000E+00  0.00000000000E+00  0.81901417546E+03  0.81901417546E+03  0.00000000000E+00 0.  1.
         -2   -1    0    0    0  501 -0.00000000000E+00 -0.00000000000E+00 -0.12147210457E+01  0.12147210457E+01  0.00000000000E+00 0. -1.
         21    1    1    2  502  503 -0.63552282389E+01  0.19596473465E+02  0.71945209512E+03  0.71974698879E+03  0.00000000000E+00 0. -1.
         21    1    1    2  503  501  0.63552282389E+01 -0.19596473465E+02  0.98347359294E+02  0.10048190772E+03  0.00000000000E+00 0.  1.
</event>
<event>
 4    1  0.5591986E+002  0.2543841E+02  0.7546771E-02  0.1463958E+00
          2   -1    0    0  503    0  0.00000000000E+00  0.00000000000E+00  0.97977337113E+03  0.97977337113E+03  0.00000000000E+00 0. -1.
         -2   -1    0    0    0  501 -0.00000000000E+00 -0.00000000000E+00 -0.10182026141E+01  0.10182026141E+01  0.00000000000E+00 0.  1.
         21    1    1    2  502  501 -0.15181371561E+02  0.20411731617E+02  0.19870256478E+03  0.20032429229E+03  0.00000000000E+00 0.  1.
         21    1    1    2  503  502  0.15181371561E+02 -0.20411731617E+02  0.78005260373E+03  0.78046728145E+03  0.00000000000E+00 0. -1.
</event>
<event>
 4    1  0.5591986E+002  0.2863102E+02  0.7546771E-02  0.1431878E+00
          2   -1    0    0  502    0  0.00000000000E+00  0.00000000000E+00  0.35684085788E+03  0.35684085788E+03  0.00000000000E+00 0. -1.
         -2   -1    0    0    0  501 -0.00000000000E+00 -0.00000000000E+00 -0.18981185325E+02  0.18981185325E+02  0.00000000000E+00 0.  1.
         21    1    1    2  502  503 -0.28552834678E+02  0.21144597548E+01  0.34510329092E+03  0.34628892086E+03  0.00000000000E+00 0. -1.
         21    1    1    2  503  501  0.28552834678E+02 -0.21144597548E+01 -0.72436183651E+01  0.29533122342E+02  0.00000000000E+00 0.  1.
</event>
<event>
 4    1  0.5591986E+002  0.2804051E+02  0.7546771E-02  0.1437427E+00
          2   -1    0    0  503    0  0.00000000000E+00  0.00000000000E+00  0.11232814007E+03  0.11232814007E+03  0.00000000000E+00 0. -1.
         -2   -1    0    0    0  501 -0.00000000000E+00 -0.00000000000E+00 -0.91344864728E+01  0.91344864728E+01  0.00000000000E+00 0.  1.
         21    1    1    2  502  501  0.43447234982E+01  0.27701868773E+02  0.22237803703E+02  0.35788127491E+02  0.00000000000E+00 0.  1.
         21    1    1    2  503  502 -0.43447234982E+01 -0.27701868773E+02  0.80955849898E+02  0.85674499055E+02  0.00000000000E+00 0. -1.
</event>
<event>
 4    1  0.5591986E+002  0.2023916E+02  0.7546771E-02  0.1530411E+00
          2   -1    0    0  502    0  0.00000000000E+00  0.00000000000E+00  0.65389510429E+02  0.65389510429E+02  0.00000000000E+00 0.  1.
         -2   -1    0    0    0  501 -0.00000000000E+00 -0.00000000000E+00 -0.63218834166E+01  0.63218834166E+01  0.00000000000E+00 0. -1.
         21    1    1    2  502  503  0.19931149095E+02 -0.35175245182E+01  0.26113681547E+02  0.33038584215E+02  0.00000000000E+00 0. -1.
         21    1    1    2  503  501 -0.19931149095E+02  0.35175245182E+01  0.32953945466E+02  0.38672809631E+02  0.00000000000E+00 0.  1.
</event>
<event>
 4    1  0.5591986E+002  0.4562664E+02  0.7546771E-02  0.1318335E+00
          2   -1    0    0  503    0  0.00000000000E+00  0.00000000000E+00  0.13484165915E+02  0.13484165915E+02  0.00000000000E+00 0. -1.
         -2   -1    0    0    0  501 -0.00000000000E+00 -0.00000000000E+00 -0.35063582239E+03  0.35063582239E+03  0.00000000000E+00 0.  1.
         21    1    1    2  502  501  0.33225658473E+02 -0.31270527618E+02 -0.30477957757E+03  0.30817589326E+03  0.00000000000E+00 0.  1.
         21    1    1    2  503  502 -0.33225658473E+02  0.31270527618E+02 -0.32372078903E+02  0.55944095050E+02  0.00000000000E+00 0. -1.
</event>
<event>
 4    1  0.5591986E+002  0.2336549E+02  0.7546771E-02  0.1487959E+00
          2   -1    0    0  503    0  0.00000000000E+00  0.00000000000E+00  0.13625402734E+02  0.13625402734E+02  0.00000000000E+00 0. -1.
         -2   -1    0    0    0  501 -0.00000000000E+00 -0.00000000000E+00 -0.40568295038E+02  0.40568295038E+02  0.00000000000E+00 0.  1.
         21    1    1    2  502  501 -0.18408913978E+02  0.14389504364E+02 -0.16479827929E+02  0.28592493390E+02  0.00000000000E+00 0. -1.
         21    1    1    2  503  502  0.18408913978E+02 -0.14389504364E+02 -0.10463064376E+02  0.25601204382E+02  0.00000000000E+00 0.  1.
</event>
<event>
 4    1  0.5591986E+002  0.2016560E+02  0.7546771E-02  0.1531519E+00
          2   -1    0    0  503    0  0.00000000000E+00  0.00000000000E+00  0.65509867526E+03  0.65509867526E+03  0.00000000000E+00 0. -1.
         -2   -1    0    0    0  501 -0.00000000000E+00 -0.00000000000E+00 -0.10528472578E+01  0.10528472578E+01  0.00000000000E+00 0.  1.
         21    1    1    2  502  501 -0.16112827196E+02 -0.12125518366E+02  0.11684694219E+03  0.11857427754E+03  0.00000000000E+00 0.  1.
         21    1    1    2  503  502  0.16112827196E+02  0.12125518366E+02  0.53719888582E+03  0.53757724498E+03  0.00000000000E+00 0. -1.
</event>
<event>
 4    1  0.5591986E+002  0.2282072E+02  0.7546771E-02  0.1494762E+00
          2   -1    0    0  503    0  0.00000000000E+00  0.00000000000E+00  0.14811878172E+02  0.14811878172E+02  0.00000000000E+00 0.  1.
         -2   -1    0    0    0  501 -0.00000000000E+00 -0.00000000000E+00 -0.35598559718E+02  0.35598559718E+02  0.00000000000E+00 0. -1.
         21    1    1    2  502  501  0.15527101273E+02  0.16724062854E+02 -0.13191064439E+02  0.26358856829E+02  0.00000000000E+00 0. -1.
         21    1    1    2  503  502 -0.15527101273E+02 -0.16724062854E+02 -0.75956171079E+01  0.24051581061E+02  0.00000000000E+00 0.  1.
</event>
<event>
 4    1  0.5591986E+002  0.2560656E+02  0.7546771E-02  0.1462131E+00
          2   -1    0    0  502    0  0.00000000000E+00  0.00000000000E+00  0.59893089990E+01  0.59893089990E+01  0.00000000000E+00 0.  1.
         -2   -1    0    0    0  501 -0.00000000000E+00 -0.00000000000E+00 -0.10947997114E+03  0.10947997114E+03  0.00000000000E+00 0. -1.
         21    1    1    2  502  503 -0.62767143426E+01  0.24825360558E+02 -0.52009295437E+02  0.57971221150E+02  0.00000000000E+00 0. -1.
         21    1    1    2  503  501  0.62767143426E+01 -0.24825360558E+02 -0.51481366704E+02  0.57498058989E+02  0.00000000000E+00 0.  1.
</event>
<event>
 4    1  0.5591986E+002  0.2006656E+02  0.7546771E-02  0.1533021E+00
          2   -1    0    0  502    0  0.00000000000E+00  0.00000000000E+00  0.75771742253E+02  0.75771742253E+02  0.00000000000E+00 0. -1.
         -2   -1    0    0    0  501 -0.00000000000E+00 -0.00000000000E+00 -0.27172662304E+02  0.27172662304E+02  0.00000000000E+00 0.  1.
         21    1    1    2  502  503 -0.18946092181E+02  0.66115439076E+01  0.70464914419E+02  0.73266439014E+02  0.00000000000E+00 0. -1.
         21    1    1    2  503  501  0.18946092181E+02 -0.66115439076E+01 -0.21865834469E+02  0.29677965543E+02  0.00000000000E+00 0.  1.
</event>
<event>
 4    1  0.5591986E+002  0.2449966E+02  0.7546771E-02  0.1474479E+00
          2   -1    0    0  503    0  0.00000000000E+00  0.00000000000E+00  0.11016907111E+02  0.11016907111E+02  0.00000000000E+00 0. -1.
         -2   -1    0    0    0  501 -0.00000000000E+00 -0.00000000000E+00 -0.54489071249E+02  0.54489071249E+02  0.00000000000E+00 0.  1.
         21    1    1    2  502  501  0.21157779961E+01  0.24408127371E+02 -0.21387902187E+02  0.32521924270E+02  0.00000000000E+00 0.  1.
         21    1    1    2  503  502 -0.21157779961E+01 -0.24408127371E+02 -0.22084261951E+02  0.32984054090E+02  0.00000000000E+00 0. -1.
</event>
<event>
 4    1  0.5591986E+002  0.4407746E+02  0.7546771E-02  0.1326117E+00
          2   -1    0    0  503    0  0.00000000000E+00  0.00000000000E+00  0.15932718007E+04  0.15932718007E+04  0.00000000000E+00 0. -1.
         -2   -1    0    0    0  501 -0.00000000000E+00 -0.00000000000E+00 -0.31434038274E+01  0.31434038274E+01  0.00000000000E+00 0.  1.
         21    1    1    2  502  501  0.36928896080E+02 -0.24064056313E+02  0.17058253560E+03  0.17618519694E+03  0.00000000000E+00 0.  1.
         21    1    1    2  503  502 -0.36928896080E+02  0.24064056313E+02  0.14195458613E+04  0.14202300076E+04  0.00000000000E+00 0. -1.
</event>
<event>
 4    1  0.5591986E+002  0.2170286E+02  0.7546771E-02  0.1509462E+00
          2   -1    0    0  502    0  0.00000000000E+00  0.00000000000E+00  0.14453746053E+01  0.14453746053E+01  0.00000000000E+00 0.  1.
         -2   -1    0    0    0  501 -0.00000000000E+00 -0.00000000000E+00 -0.34477737002E+03  0.34477737002E+03  0.00000000000E+00 0. -1.
         21    1    1    2  502  503  0.87335720490E+00 -0.21685284671E+02 -0.21219738835E+03  0.21330435051E+03  0.00000000000E+00 0. -1.
         21    1    1    2  503  501 -0.87335720490E+00  0.21685284671E+02 -0.13113460706E+03  0.13291839411E+03  0.00000000000E+00 0.  1.
</event>
<event>
 4    1  0.5591986E+002  0.2408657E+02  0.7546771E-02  0.1479287E+00
          2   -1    0    0  503    0  0.00000000000E+00  0.00000000000E+00  0.94517057582E+00  0.94517057582E+00  0.00000000000E+00 0. -1.
         -2   -1    0    0    0  501 -0.00000000000E+00 -0.00000000000E+00 -0.11961618409E+04  0.11961618409E+04  0.00000000000E+00 0.  1.
         21    1    1    2  502  501 -0.69262925917E-01  0.24086470589E+02 -0.10152441076E+04  0.10155297932E+04  0.00000000000E+00 0.  1.
         21    1    1    2  503  502  0.69262925917E-01 -0.24086470589E+02 -0.17997256270E+03  0.18157721826E+03  0.00000000000E+00 0. -1.
</event>
<event>
 4    1  0.5591986E+002  0.2075455E+02  0.7546771E-02  0.1522798E+00
          2   -1    0    0  502    0  0.00000000000E+00  0.00000000000E+00  0.19039228535E+01  0.19039228535E+01  0.00000000000E+00 0. -1.
         -2   -1    0    0    0  501 -0.00000000000E+00 -0.00000000000E+00 -0.24927861458E+03  0.24927861458E+03  0.00000000000E+00 0.  1.
         21    1    1    2  502  503 -0.15399744080E+02  0.13913988304E+02 -0.85509881195E+02  0.87992562017E+02  0.00000000000E+00 0. -1.
         21    1    1    2  503  501  0.15399744080E+02 -0.13913988304E+02 -0.16186481054E+03  0.16318997542E+03  0.00000000000E+00 0.  1.
</event>
<event>
 4    1  0.5591986E+002  0.2274725E+02  0.7546771E-02  0.1495697E+00
          2   -1    0    0  503    0  0.00000000000E+00  0.00000000000E+00  0.84493333263E+03  0.84493333263E+03  0.00000000000E+00 0. -1.
         -2   -1    0    0    0  501 -0.00000000000E+00 -0.00000000000E+00 -0.78753391344E+00  0.78753391344E+00  0.00000000000E+00 0.  1.
         21    1    1    2  502  501  0.22411634798E+01 -0.22636572006E+02  0.22266264120E+03  0.22382155614E+03  0.00000000000E+00 0.  1.
         21    1    1    2  503  502 -0.22411634798E+01  0.22636572006E+02  0.62148315751E+03  0.62189931040E+03  0.00000000000E+00 0. -1.
</event>
<event>
 4    1  0.5591986E+002  0.2230238E+02  0.7546771E-02  0.1501449E+00
          2   -1    0    0  503    0  0.00000000000E+00  0.00000000000E+00  0.73729689374E+03  0.73729689374E+03  0.00000000000E+00 0.  1.
         -2   -1    0    0    0  501 -0.00000000000E+00 -0.00000000000E+00 -0.20655756108E+01  0.20655756108E+01  0.00000000000E+00 0. -1.
         21    1    1    2  502  501  0.13931614727E+02 -0.17415692456E+02  0.64252190964E+02  0.68012794946E+02  0.00000000000E+00 0. -1.
         21    1    1    2  503  502 -0.13931614727E+02  0.17415692456E+02  0.67097912716E+03  0.67134967440E+03  0.00000000000E+00 0.  1.
</event>
<event>
 4    1  0.5591986E+002  0.2168188E+02  0.7546771E-02  0.1509748E+00
          2   -1    0    0  502    0  0.00000000000E+00  0.00000000000E+00  0.18706244983E+04  0.18706244983E+04  0.00000000000E+00 0. -1.
         -2   -1    0    0    0  501 -0.00000000000E+00 -0.00000000000E+00 -0.28797216531E+00  0.28797216531E+00  0.00000000000E+00 0.  1.
         21    1    1    2  502  503  0.20554788584E+02 -0.68995963562E+01  0.12689529353E+04  0.12691381547E+04  0.00000000000E+00 0. -1.
         21    1    1    2  503  501 -0.20554788584E+02  0.68995963562E+01  0.60138359084E+03  0.60177431575E+03  0.00000000000E+00 0.  1.
</event>
<event>
 4    1  0.5591986E+002  0.2707856E+02  0.7546771E-02  0.1446821E+00
          2   -1    0    0  502    0  0.00000000000E+00  0.00000000000E+00  0.30897127413E+03  0.30897127413E+03  0.00000000000E+00 0.  1.
         -2   -1    0    0    0  501 -0.00000000000E+00 -0.00000000000E+00 -0.24110748464E+01  0.24110748464E+01  0.00000000000E+00 0. -1.
         21    1    1    2  502  503 -0.13686833101E+02  0.23364912826E+02  0.17279528176E+03  0.17490413932E+03  0.00000000000E+00 0. -1.
         21    1    1    2  503  501  0.13686833101E+02 -0.23364912826E+02  0.13376491752E+03  0.13647820965E+03  0.00000000000E+00 0.  1.
</event>
<event>
 4    1  0.5591986E+002  0.2210381E+02  0.7546771E-02  0.1504069E+00
          2   -1    0    0  502    0  0.00000000000E+00  0.00000000000E+00  0.60542278677E+01  0.60542278677E+01  0.00000000000E+00 0.  1.
         -2   -1    0    0    0  501 -0.00000000000E+00 -0.00000000000E+00 -0.10597637319E+03  0.10597637319E+03  0.00000000000E+00 0. -1.
         21    1    1    2  502  503 -0.17598200131E+02 -0.13374673256E+02 -0.22604845725E+02  0.31615780598E+02  0.00000000000E+00 0.  1.
         21    1    1    2  503  501  0.17598200131E+02  0.13374673256E+02 -0.77317299602E+02  0.80414820464E+02  0.00000000000E+00 0. -1.
</event>
<event>
 4    1  0.5591986E+002  0.3560312E+02  0.7546771E-02  0.1376372E+00
          2   -1    0    0  502    0  0.00000000000E+00  0.00000000000E+00  0.53585163047E+03  0.53585163047E+03  0.00000000000E+00 0. -1.
         -2   -1    0    0    0  501 -0.00000000000E+00 -0.00000000000E+00 -0.75487644811E+01  0.75487644811E+01  0.00000000000E+00 0.  1.
         21    1    1    2  502  503  0.91241059277E+01 -0.34414141567E+02  0.48929094162E+03  0.49058455745E+03  0.00000000000E+00 0. -1.
         21    1    1    2  503  501 -0.91241059277E+01  0.34414141567E+02  0.39011924365E+02  0.52815837506E+02  0.00000000000E+00 0.  1.
</event>
<event>
 4    1  0.5591986E+002  0.3019273E+02  0.7546771E-02  0.1417929E+00
          2   -1    0    0  503    0  0.00000000000E+00  0.00000000000E+00  0.68200074230E+03  0.68200074230E+03  0.00000000000E+00 0. -1.
         -2   -1    0    0    0  501 -0.00000000000E+00 -0.00000000000E+00 -0.79302576782E+01  0.79302576782E+01  0.00000000000E+00 0.  1.
         21    1    1    2  502  501  0.29263488805E+00 -0.30191306918E+02  0.22482587486E+02  0.37643955540E+02  0.00000000000E+00 0.  1.
         21    1    1    2  503  502 -0.29263488805E+00  0.30191306918E+02  0.65158789714E+03  0.65228704444E+03  0.00000000000E+00 0. -1.
</event>
<event>
 4    1  0.5591986E+002  0.3734756E+02  0.7546771E-02  0.1364771E+00
          2   -1    0    0  502    0  0.00000000000E+00  0.00000000000E+00  0.23718129753E+03  0.23718129753E+03  0.00000000000E+00 0.  1.
         -2   -1    0    0    0  501 -0.00000000000E+00 -0.00000000000E+00 -0.80371465006E+01  0.80371465006E+01  0.00000000000E+00 0. -1.
         21    1    1    2  502  503  0.18882348283E+01 -0.37299797344E+02  0.17807899544E+03  0.18195320533E+03  0.00000000000E+00 0.  1.
         21    1    1    2  503  501 -0.18882348283E+01  0.37299797344E+02  0.51065155593E+02  0.63265238705E+02  0.00000000000E+00 0. -1.
</event>
<event>
 4    1  0.5591986E+002  0.2004923E+02  0.7546771E-02  0.1533284E+00
          2   -1    0    0  502    0  0.00000000000E+00  0.00000000000E+00  0.36954322060E+03  0.36954322060E+03  0.00000000000E+00 0.  1.
         -2   -1    0    0    0  501 -0.00000000000E+00 -0.00000000000E+00 -0.18869456022E+01  0.18869456022E+01  0.00000000000E+00 0. -1.
         21    1    1    2  502  503 -0.14419686073E+02  0.13929975883E+02  0.30469112949E+03  0.30535005479E+03  0.00000000000E+00 0.  1.
         21    1    1    2  503  501  0.14419686073E+02 -0.13929975883E+02  0.62965145513E+02  0.66080111411E+02  0.00000000000E+00 0. -1.
</event>
<event>
 4    1  0.5591986E+002  0.3236310E+02  0.7546771E-02  0.1400114E+00
          2   -1    0    0  503    0  0.00000000000E+00  0.00000000000E+00  0.48868431326E+03  0.48868431326E+03  0.00000000000E+00 0.  1.
         -2   -1    0    0    0  501 -0.00000000000E+00 -0.00000000000E+00 -0.21715902851E+01  0.21715902851E+01  0.00000000000E+00 0. -1.
         21    1    1    2  502  501  0.69394876329E+01  0.31610337414E+02  0.27129649343E+03  0.27321997963E+03  0.00000000000E+00 0.  1.
         21    1    1    2  503  502 -0.69394876329E+01 -0.31610337414E+02  0.21521622954E+03  0.21763592392E+03  0.00000000000E+00 0. -1.
</event>
