<event>
 4    1  0.2239940E+005  0.3506608E+02  0.7546771E-02  0.1380099E+00
          2   -1    0    0  503    0  0.00000000000E+00  0.00000000000E+00  0.42308305070E+03  0.42308305070E+03  0.00000000000E+00 0. -1.
         21   -1    0    0  501  502 -0.00000000000E+00 -0.00000000000E+00 -0.30260836738E+01  0.30260836738E+01  0.00000000000E+00 0.  1.
          2    1    1    2  501    0 -0.95333283495E+01 -0.33745308063E+02  0.16764986598E+03  0.17127786702E+03  0.00000000000E+00 0. -1.
         21    1    1    2  503  502  0.95333283495E+01  0.33745308063E+02  0.25240710104E+03  0.25483126736E+03  0.00000000000E+00 0.  1.
</event>
<event>
 4    1  0.2239940E+005  0.3307520E+02  0.7546771E-02  0.1394625E+00
          2   -1    0    0  502    0  0.00000000000E+00  0.00000000000E+00  0.14723115854E+04  0.14723115854E+04  0.00000000000E+00 0. -1.
         21   -1    0    0  503  502 -0.00000000000E+00 -0.00000000000E+00 -0.95610699283E+02  0.95610699283E+02  0.00000000000E+00 0.  1.
          2    1    1    2  501    0  0.29835205766E+02  0.14276876099E+02  0.14692594103E+04  0.14696316489E+04  0.00000000000E+00 0. -1.
         21    1    1    2  503  501 -0.29835205766E+02 -0.14276876099E+02 -0.92558524155E+02  0.98290635810E+02  0.00000000000E+00 0.  1.
</event>
<event>
 4    1  0.2239940E+005  0.2978709E+02  0.7546771E-02  0.1421456E+00
          2   -1    0    0  503    0  0.00000000000E+00  0.00000000000E+00  0.55666912727E+02  0.55666912727E+02  0.00000000000E+00 0. -1.
         21   -1    0    0  501  502 -0.00000000000E+00 -0.00000000000E+00 -0.16765584494E+03  0.16765584494E+03  0.00000000000E+00 0.  1.
          2    1    1    2  501    0  0.11870732607E+02  0.27319521219E+02  0.50226598832E+02  0.58395049126E+02  0.00000000000E+00 0. -1.
         21    1    1    2  503  502 -0.11870732607E+02 -0.27319521219E+02 -0.16221553104E+03  0.16492770854E+03  0.00000000000E+00 0.  1.
</event>
<event>
 4    1  0.2239940E+005  0.2374485E+02  0.7546771E-02  0.1483351E+00
          2   -1    0    0  503    0  0.00000000000E+00  0.00000000000E+00  0.27301652005E+03  0.27301652005E+03  0.00000000000E+00 0.  1.
         21   -1    0    0  501  502 -0.00000000000E+00 -0.00000000000E+00 -0.13122154337E+02  0.13122154337E+02  0.00000000000E+00 0. -1.
          2    1    1    2  501    0 -0.12751831504E+02 -0.20030190098E+02  0.26127686800E+03  0.26235361532E+03  0.00000000000E+00 0.  1.
         21    1    1    2  503  502  0.12751831504E+02  0.20030190098E+02 -0.13825022864E+01  0.23785059063E+02  0.00000000000E+00 0. -1.
</event>
<event>
 4    1  0.2239940E+005  0.2403510E+02  0.7546771E-02  0.1479894E+00
          2   -1    0    0  502    0  0.00000000000E+00  0.00000000000E+00  0.24472014419E+04  0.24472014419E+04  0.00000000000E+00 0.  1.
         21   -1    0    0  503  502 -0.00000000000E+00 -0.00000000000E+00 -0.26887789510E+00  0.26887789510E+00  0.00000000000E+00 0. -1.
          2    1    1    2  501    0 -0.18598661152E+02 -0.15224183772E+02  0.16509960337E+04  0.16511709751E+04  0.00000000000E+00 0.  1.
         21    1    1    2  503  501  0.18598661152E+02  0.15224183772E+02  0.79593653035E+03  0.79629934466E+03  0.00000000000E+00 0. -1.
</event>
<event>
 4    1  0.2239940E+005  0.2026705E+02  0.7546771E-02  0.1529992E+00
          2   -1    0    0  503    0  0.00000000000E+00  0.00000000000E+00  0.34435554332E+03  0.34435554332E+03  0.00000000000E+00 0.  1.
         21   -1    0    0  501  502 -0.00000000000E+00 -0.00000000000E+00 -0.32710152963E+02  0.32710152963E+02  0.00000000000E+00 0. -1.
          2    1    1    2  501    0 -0.20265198296E+02  0.27372074486E+00  0.34088607553E+03  0.34148802274E+03  0.00000000000E+00 0.  1.
         21    1    1    2  503  502  0.20265198296E+02 -0.27372074486E+00 -0.29240685175E+02  0.35577673540E+02  0.00000000000E+00 0. -1.
</event>
<event>
 4    1  0.2239940E+005  0.2160057E+02  0.7546771E-02  0.1510860E+00
          2   -1    0    0  503    0  0.00000000000E+00  0.00000000000E+00  0.56745581814E+03  0.56745581814E+03  0.00000000000E+00 0.  1.
         21   -1    0    0  501  502 -0.00000000000E+00 -0.00000000000E+00 -0.70086811157E+01  0.70086811157E+01  0.00000000000E+00 0. -1.
          2    1    1    2  501    0  0.19627550413E+02  0.90190871797E+01  0.55008169671E+03  0.55050563823E+03  0.00000000000E+00 0.  1.
         21    1    1    2  503  502 -0.19627550413E+02 -0.90190871797E+01  0.10365440317E+02  0.23958861028E+02  0.00000000000E+00 0. -1.
</event>
<event>
 4    1  0.2239940E+005  0.3589806E+02  0.7546771E-02  0.1374357E+00
          2   -1    0    0  502    0  0.00000000000E+00  0.00000000000E+00  0.35197141495E+03  0.35197141495E+03  0.00000000000E+00 0. -1.
         21   -1    0    0  503  502 -0.00000000000E+00 -0.00000000000E+00 -0.88761160650E+02  0.88761160650E+02  0.00000000000E+00 0.  1.
          2    1    1    2  501    0  0.15685512029E+01  0.35863777747E+02  0.34737862842E+03  0.34922855323E+03  0.00000000000E+00 0. -1.
         21    1    1    2  503  501 -0.15685512029E+01 -0.35863777747E+02 -0.84168374123E+02  0.91504022369E+02  0.00000000000E+00 0.  1.
</event>
<event>
 4    1  0.2239940E+005  0.2483498E+02  0.7546771E-02  0.1470658E+00
          2   -1    0    0  502    0  0.00000000000E+00  0.00000000000E+00  0.18564485060E+04  0.18564485060E+04  0.00000000000E+00 0.  1.
         21   -1    0    0  503  502 -0.00000000000E+00 -0.00000000000E+00 -0.41139646160E+00  0.41139646160E+00  0.00000000000E+00 0.  1.
          2    1    1    2  501    0 -0.16703207339E+02 -0.18378765418E+02  0.13352837239E+04  0.13355146572E+04  0.00000000000E+00 0.  1.
         21    1    1    2  503  501  0.16703207339E+02  0.18378765418E+02  0.52075338555E+03  0.52134524522E+03  0.00000000000E+00 0.  1.
</event>
<event>
 4    1  0.2239940E+005  0.4061249E+02  0.7546771E-02  0.1344934E+00
          2   -1    0    0  503    0  0.00000000000E+00  0.00000000000E+00  0.13058604535E+04  0.13058604535E+04  0.00000000000E+00 0. -1.
         21   -1    0    0  501  502 -0.00000000000E+00 -0.00000000000E+00 -0.10767646831E+02  0.10767646831E+02  0.00000000000E+00 0.  1.
          2    1    1    2  501    0 -0.23209388513E+01 -0.40546116246E+02  0.12660460356E+04  0.12666972560E+04  0.00000000000E+00 0. -1.
         21    1    1    2  503  502  0.23209388513E+01  0.40546116246E+02  0.29046771110E+02  0.49930844292E+02  0.00000000000E+00 0.  1.
</event>
<event>
 4    1  0.2239940E+005  0.7870861E+02  0.7546771E-02  0.1206878E+00
          2   -1    0    0  503    0  0.00000000000E+00  0.00000000000E+00  0.11627074662E+04  0.11627074662E+04  0.00000000000E+00 0.  1.
         21   -1    0    0  501  502 -0.00000000000E+00 -0.00000000000E+00 -0.12220245461E+02  0.12220245461E+02  0.00000000000E+00 0. -1.
          2    1    1    2  501    0 -0.26720731654E+02  0.74034100655E+02  0.10164255810E+04  0.10194684926E+04  0.00000000000E+00 0.  1.
         21    1    1    2  503  502  0.26720731654E+02 -0.74034100655E+02  0.13406163970E+03  0.15545921908E+03  0.00000000000E+00 0. -1.
</event>
<event>
 4    1  0.2239940E+005  0.2416276E+02  0.7546771E-02  0.1478392E+00
          2   -1    0    0  503    0  0.00000000000E+00  0.00000000000E+00  0.17575712176E+02  0.17575712176E+02  0.00000000000E+00 0.  1.
         21   -1    0    0  501  502 -0.00000000000E+00 -0.00000000000E+00 -0.70264214110E+02  0.70264214110E+02  0.00000000000E+00 0. -1.
          2    1    1    2  501    0 -0.48801686736E+00 -0.24157835475E+02  0.55464253062E+01  0.24791167964E+02  0.00000000000E+00 0.  1.
         21    1    1    2  503  502  0.48801686736E+00  0.24157835475E+02 -0.58234927240E+02  0.63048758322E+02  0.00000000000E+00 0. -1.
</event>
<event>
 4    1  0.2239940E+005  0.2097763E+02  0.7546771E-02  0.1519584E+00
          2   -1    0    0  502    0  0.00000000000E+00  0.00000000000E+00  0.10075898085E+04  0.10075898085E+04  0.00000000000E+00 0.  1.
         21   -1    0    0  503  502 -0.00000000000E+00 -0.00000000000E+00 -0.57915864838E+00  0.57915864838E+00  0.00000000000E+00 0. -1.
          2    1    1    2  501    0  0.52164360411E+01 -0.20318709230E+02  0.75346982624E+03  0.75376179274E+03  0.00000000000E+00 0.  1.
         21    1    1    2  503  501 -0.52164360411E+01  0.20318709230E+02  0.25354082366E+03  0.25440717445E+03  0.00000000000E+00 0. -1.
</event>
<event>
 4    1  0.2239940E+005  0.3761896E+02  0.7546771E-02  0.1363033E+00
          2   -1    0    0  503    0  0.00000000000E+00  0.00000000000E+00  0.46007825035E+02  0.46007825035E+02  0.00000000000E+00 0.  1.
         21   -1    0    0  501  502 -0.00000000000E+00 -0.00000000000E+00 -0.24591879801E+03  0.24591879801E+03  0.00000000000E+00 0.  1.
          2    1    1    2  501    0  0.16302490144E+02 -0.33903020227E+02  0.36574397744E+02  0.52467823814E+02  0.00000000000E+00 0.  1.
         21    1    1    2  503  502 -0.16302490144E+02  0.33903020227E+02 -0.23648537072E+03  0.23945879923E+03  0.00000000000E+00 0.  1.
</event>
<event>
 4    1  0.2239940E+005  0.2815055E+02  0.7546771E-02  0.1436381E+00
          2   -1    0    0  503    0  0.00000000000E+00  0.00000000000E+00  0.19060749127E+01  0.19060749127E+01  0.00000000000E+00 0. -1.
         21   -1    0    0  501  502 -0.00000000000E+00 -0.00000000000E+00 -0.81195607046E+03  0.81195607046E+03  0.00000000000E+00 0.  1.
          2    1    1    2  501    0 -0.27853831274E+02 -0.40764301444E+01 -0.12076587279E+03  0.12400342426E+03  0.00000000000E+00 0. -1.
         21    1    1    2  503  502  0.27853831274E+02  0.40764301444E+01 -0.68928412276E+03  0.68985872111E+03  0.00000000000E+00 0.  1.
</event>
<event>
 4    1  0.2239940E+005  0.3101197E+02  0.7546771E-02  0.1411001E+00
          2   -1    0    0  503    0  0.00000000000E+00  0.00000000000E+00  0.65580222841E+03  0.65580222841E+03  0.00000000000E+00 0. -1.
         21   -1    0    0  501  502 -0.00000000000E+00 -0.00000000000E+00 -0.44909833578E+01  0.44909833578E+01  0.00000000000E+00 0.  1.
          2    1    1    2  501    0 -0.29940422874E+02 -0.80816627027E+01  0.59658794070E+03  0.59739343249E+03  0.00000000000E+00 0. -1.
         21    1    1    2  503  502  0.29940422874E+02  0.80816627027E+01  0.54723304352E+02  0.62899779278E+02  0.00000000000E+00 0.  1.
</event>
<event>
 4    1  0.2239940E+005  0.3867177E+02  0.7546771E-02  0.1356450E+00
          2   -1    0    0  503    0  0.00000000000E+00  0.00000000000E+00  0.16128879840E+04  0.16128879840E+04  0.00000000000E+00 0. -1.
         21   -1    0    0  501  502 -0.00000000000E+00 -0.00000000000E+00 -0.22797910648E+02  0.22797910648E+02  0.00000000000E+00 0. -1.
          2    1    1    2  501    0 -0.30677886114E+02  0.23545127348E+02  0.15960839523E+04  0.15965523758E+04  0.00000000000E+00 0. -1.
         21    1    1    2  503  502  0.30677886114E+02 -0.23545127348E+02 -0.59938789297E+01  0.39133518918E+02  0.00000000000E+00 0. -1.
</event>
<event>
 4    1  0.2239940E+005  0.3400849E+02  0.7546771E-02  0.1387671E+00
          2   -1    0    0  503    0  0.00000000000E+00  0.00000000000E+00  0.72585171763E+03  0.72585171763E+03  0.00000000000E+00 0. -1.
         21   -1    0    0  501  502 -0.00000000000E+00 -0.00000000000E+00 -0.16048512370E+01  0.16048512370E+01  0.00000000000E+00 0. -1.
          2    1    1    2  501    0 -0.30535654759E+02  0.14971677362E+02  0.33140848467E+03  0.33314885719E+03  0.00000000000E+00 0. -1.
         21    1    1    2  503  502  0.30535654759E+02 -0.14971677362E+02  0.39283838172E+03  0.39430771168E+03  0.00000000000E+00 0. -1.
</event>
<event>
 4    1  0.2239940E+005  0.2306086E+02  0.7546771E-02  0.1491735E+00
          2   -1    0    0  503    0  0.00000000000E+00  0.00000000000E+00  0.10978726062E+04  0.10978726062E+04  0.00000000000E+00 0. -1.
         21   -1    0    0  501  502 -0.00000000000E+00 -0.00000000000E+00 -0.11197738757E+01  0.11197738757E+01  0.00000000000E+00 0.  1.
          2    1    1    2  501    0 -0.61521796549E+01  0.22225072606E+02  0.96229618187E+03  0.96257246211E+03  0.00000000000E+00 0. -1.
         21    1    1    2  503  502  0.61521796549E+01 -0.22225072606E+02  0.13445665043E+03  0.13641991794E+03  0.00000000000E+00 0.  1.
</event>
<event>
 4    1  0.2239940E+005  0.2958539E+02  0.7546771E-02  0.1423234E+00
          2   -1    0    0  503    0  0.00000000000E+00  0.00000000000E+00  0.62589820867E+03  0.62589820867E+03  0.00000000000E+00 0. -1.
         21   -1    0    0  501  502 -0.00000000000E+00 -0.00000000000E+00 -0.17562080359E+01  0.17562080359E+01  0.00000000000E+00 0.  1.
          2    1    1    2  501    0  0.76151972119E+01  0.28588530365E+02  0.45371220291E+03  0.45467577279E+03  0.00000000000E+00 0. -1.
         21    1    1    2  503  502 -0.76151972119E+01 -0.28588530365E+02  0.17042979772E+03  0.17297864391E+03  0.00000000000E+00 0.  1.
</event>
<event>
 4    1  0.2239940E+005  0.2606559E+02  0.7546771E-02  0.1457227E+00
          2   -1    0    0  502    0  0.00000000000E+00  0.00000000000E+00  0.35615926290E+03  0.35615926290E+03  0.00000000000E+00 0. -1.
         21   -1    0    0  503  502 -0.00000000000E+00 -0.00000000000E+00 -0.14617214887E+02  0.14617214887E+02  0.00000000000E+00 0. -1.
          2    1    1    2  501    0 -0.24467687055E+02 -0.89859369148E+01  0.34363949928E+03  0.34462663890E+03  0.00000000000E+00 0. -1.
         21    1    1    2  503  501  0.24467687055E+02  0.89859369148E+01 -0.20974512679E+01  0.26149838888E+02  0.00000000000E+00 0. -1.
</event>
<event>
 4    1  0.2239940E+005  0.2628123E+02  0.7546771E-02  0.1454965E+00
          2   -1    0    0  502    0  0.00000000000E+00  0.00000000000E+00  0.13016407254E+02  0.13016407254E+02  0.00000000000E+00 0.  1.
         21   -1    0    0  503  502 -0.00000000000E+00 -0.00000000000E+00 -0.16616896496E+03  0.16616896496E+03  0.00000000000E+00 0. -1.
          2    1    1    2  501    0  0.58207226353E+01 -0.25628539593E+02 -0.26602880794E+01  0.26415525479E+02  0.00000000000E+00 0.  1.
         21    1    1    2  503  501 -0.58207226353E+01  0.25628539593E+02 -0.15049226963E+03  0.15276984673E+03  0.00000000000E+00 0. -1.
</event>
<event>
 4    1  0.2239940E+005  0.2263847E+02  0.7546771E-02  0.1497088E+00
          2   -1    0    0  503    0  0.00000000000E+00  0.00000000000E+00  0.67693730283E+03  0.67693730283E+03  0.00000000000E+00 0.  1.
         21   -1    0    0  501  502 -0.00000000000E+00 -0.00000000000E+00 -0.12097485383E+02  0.12097485383E+02  0.00000000000E+00 0. -1.
          2    1    1    2  501    0 -0.18320975137E+02  0.13298204495E+02  0.66598282178E+03  0.66636748066E+03  0.00000000000E+00 0.  1.
         21    1    1    2  503  502  0.18320975137E+02 -0.13298204495E+02 -0.11430043354E+01  0.22667307553E+02  0.00000000000E+00 0. -1.
</event>
<event>
 4    1  0.2239940E+005  0.4051853E+02  0.7546771E-02  0.1345474E+00
          2   -1    0    0  502    0  0.00000000000E+00  0.00000000000E+00  0.15661509256E+04  0.15661509256E+04  0.00000000000E+00 0.  1.
         21   -1    0    0  503  502 -0.00000000000E+00 -0.00000000000E+00 -0.66317704026E+01  0.66317704026E+01  0.00000000000E+00 0. -1.
          2    1    1    2  501    0  0.26528551412E+02  0.30626575416E+02  0.15013274839E+04  0.15018741509E+04  0.00000000000E+00 0.  1.
         21    1    1    2  503  501 -0.26528551412E+02 -0.30626575416E+02  0.58191671236E+02  0.70908545063E+02  0.00000000000E+00 0. -1.
</event>
<event>
 4    1  0.2239940E+005  0.2026379E+02  0.7546771E-02  0.1530041E+00
          2   -1    0    0  502    0  0.00000000000E+00  0.00000000000E+00  0.66055093446E+03  0.66055093446E+03  0.00000000000E+00 0.  1.
         21   -1    0    0  503  502 -0.00000000000E+00 -0.00000000000E+00 -0.81548281101E+01  0.81548281101E+01  0.00000000000E+00 0. -1.
          2    1    1    2  501    0  0.19335121277E+02  0.60641871875E+01  0.64755465606E+03  0.64787163379E+03  0.00000000000E+00 0.  1.
         21    1    1    2  503  501 -0.19335121277E+02 -0.60641871875E+01  0.48414502844E+01  0.20834128777E+02  0.00000000000E+00 0. -1.
</event>
<event>
 4    1  0.2239940E+005  0.2976698E+02  0.7546771E-02  0.1421632E+00
          2   -1    0    0  503    0  0.00000000000E+00  0.00000000000E+00  0.13091695922E+02  0.13091695922E+02  0.00000000000E+00 0. -1.
         21   -1    0    0  501  502 -0.00000000000E+00 -0.00000000000E+00 -0.46210636748E+03  0.46210636748E+03  0.00000000000E+00 0.  1.
          2    1    1    2  501    0 -0.12458256499E+02 -0.27034516454E+02 -0.49967271940E+01  0.30183447741E+02  0.00000000000E+00 0. -1.
         21    1    1    2  503  502  0.12458256499E+02  0.27034516454E+02 -0.44401794437E+03  0.44501461566E+03  0.00000000000E+00 0.  1.
</event>
<event>
 4    1  0.2239940E+005  0.2024356E+02  0.7546771E-02  0.1530344E+00
          2   -1    0    0  503    0  0.00000000000E+00  0.00000000000E+00  0.94613345273E+03  0.94613345273E+03  0.00000000000E+00 0. -1.
         21   -1    0    0  501  502 -0.00000000000E+00 -0.00000000000E+00 -0.16538777214E+01  0.16538777214E+01  0.00000000000E+00 0. -1.
          2    1    1    2  501    0  0.17011172198E+01  0.20171962404E+02  0.87937773790E+03  0.87961071377E+03  0.00000000000E+00 0. -1.
         21    1    1    2  503  502 -0.17011172198E+01 -0.20171962404E+02  0.65101837108E+02  0.68176616679E+02  0.00000000000E+00 0. -1.
</event>
<event>
 4    1  0.2239940E+005  0.3260229E+02  0.7546771E-02  0.1398252E+00
          2   -1    0    0  502    0  0.00000000000E+00  0.00000000000E+00  0.33066680469E+03  0.33066680469E+03  0.00000000000E+00 0.  1.
         21   -1    0    0  503  502 -0.00000000000E+00 -0.00000000000E+00 -0.52678709097E+02  0.52678709097E+02  0.00000000000E+00 0.  1.
          2    1    1    2  501    0 -0.30428387124E+02  0.11705651127E+02  0.32472685388E+03  0.32635937039E+03  0.00000000000E+00 0.  1.
         21    1    1    2  503  501  0.30428387124E+02 -0.11705651127E+02 -0.46738758294E+02  0.56986143388E+02  0.00000000000E+00 0.  1.
</event>
<event>
 4    1  0.2239940E+005  0.3065085E+02  0.7546771E-02  0.1414023E+00
          2   -1    0    0  502    0  0.00000000000E+00  0.00000000000E+00  0.13594770724E+04  0.13594770724E+04  0.00000000000E+00 0. -1.
         21   -1    0    0  503  502 -0.00000000000E+00 -0.00000000000E+00 -0.32869011697E+02  0.32869011697E+02  0.00000000000E+00 0. -1.
          2    1    1    2  501    0 -0.30355958298E+02  0.42414813633E+01  0.13521198391E+04  0.13524672024E+04  0.00000000000E+00 0. -1.
         21    1    1    2  503  501  0.30355958298E+02 -0.42414813633E+01 -0.25511778378E+02  0.39878881684E+02  0.00000000000E+00 0. -1.
</event>
<event>
 4    1  0.2239940E+005  0.3646300E+02  0.7546771E-02  0.1370560E+00
          2   -1    0    0  503    0  0.00000000000E+00  0.00000000000E+00  0.39486384685E+03  0.39486384685E+03  0.00000000000E+00 0.  1.
         21   -1    0    0  501  502 -0.00000000000E+00 -0.00000000000E+00 -0.20294845510E+02  0.20294845510E+02  0.00000000000E+00 0. -1.
          2    1    1    2  501    0  0.70694952086E+01 -0.35771109577E+02  0.37686370494E+03  0.37862356258E+03  0.00000000000E+00 0.  1.
         21    1    1    2  503  502 -0.70694952086E+01  0.35771109577E+02 -0.22947036029E+01  0.36535129772E+02  0.00000000000E+00 0. -1.
</event>
<event>
 4    1  0.2239940E+005  0.2092706E+02  0.7546771E-02  0.1520309E+00
          2   -1    0    0  502    0  0.00000000000E+00  0.00000000000E+00  0.16427086602E+04  0.16427086602E+04  0.00000000000E+00 0.  1.
         21   -1    0    0  503  502 -0.00000000000E+00 -0.00000000000E+00 -0.28814273160E+00  0.28814273160E+00  0.00000000000E+00 0.  1.
          2    1    1    2  501    0 -0.26559501957E+01 -0.20757833694E+02  0.10458467240E+04  0.10460560749E+04  0.00000000000E+00 0.  1.
         21    1    1    2  503  501  0.26559501957E+01  0.20757833694E+02  0.59657379347E+03  0.59694072804E+03  0.00000000000E+00 0.  1.
</event>
<event>
 4    1  0.2239940E+005  0.4037944E+02  0.7546771E-02  0.1346277E+00
          2   -1    0    0  503    0  0.00000000000E+00  0.00000000000E+00  0.20888189641E+02  0.20888189641E+02  0.00000000000E+00 0.  1.
         21   -1    0    0  501  502 -0.00000000000E+00 -0.00000000000E+00 -0.11557973625E+03  0.11557973625E+03  0.00000000000E+00 0. -1.
          2    1    1    2  501    0  0.37551236500E+02 -0.14846004757E+02 -0.84682366471E+01  0.41257850790E+02  0.00000000000E+00 0.  1.
         21    1    1    2  503  502 -0.37551236500E+02  0.14846004757E+02 -0.86223309958E+02  0.95210075097E+02  0.00000000000E+00 0. -1.
</event>
<event>
 4    1  0.2239940E+005  0.2539052E+02  0.7546771E-02  0.1464482E+00
          2   -1    0    0  503    0  0.00000000000E+00  0.00000000000E+00  0.89007096984E+02  0.89007096984E+02  0.00000000000E+00 0. -1.
         21   -1    0    0  501  502 -0.00000000000E+00 -0.00000000000E+00 -0.58145147203E+02  0.58145147203E+02  0.00000000000E+00 0. -1.
          2    1    1    2  501    0  0.21035543175E+02 -0.14219150944E+02  0.84272139966E+02  0.88014043792E+02  0.00000000000E+00 0. -1.
         21    1    1    2  503  502 -0.21035543175E+02  0.14219150944E+02 -0.53410190185E+02  0.59138200394E+02  0.00000000000E+00 0. -1.
</event>
<event>
 4    1  0.2239940E+005  0.2553182E+02  0.7546771E-02  0.1462941E+00
          2   -1    0    0  503    0  0.00000000000E+00  0.00000000000E+00  0.22359870512E+02  0.22359870512E+02  0.00000000000E+00 0. -1.
         21   -1    0    0  501  502 -0.00000000000E+00 -0.00000000000E+00 -0.29316614578E+02  0.29316614578E+02  0.00000000000E+00 0. -1.
          2    1    1    2  501    0  0.47895917080E+01  0.25078552004E+02 -0.15525051079E+01  0.25578980266E+02  0.00000000000E+00 0. -1.
         21    1    1    2  503  502 -0.47895917080E+01 -0.25078552004E+02 -0.54042389586E+01  0.26097504824E+02  0.00000000000E+00 0. -1.
</event>
<event>
 4    1  0.2239940E+005  0.2688590E+02  0.7546771E-02  0.1448758E+00
          2   -1    0    0  502    0  0.00000000000E+00  0.00000000000E+00  0.14014674614E+02  0.14014674614E+02  0.00000000000E+00 0. -1.
         21   -1    0    0  503  502 -0.00000000000E+00 -0.00000000000E+00 -0.76407156184E+02  0.76407156184E+02  0.00000000000E+00 0. -1.
          2    1    1    2  501    0 -0.26016044946E+02  0.67835726452E+01 -0.54237933880E+01  0.27427522440E+02  0.00000000000E+00 0. -1.
         21    1    1    2  503  501  0.26016044946E+02 -0.67835726452E+01 -0.56968688182E+02  0.62994308359E+02  0.00000000000E+00 0. -1.
</event>
<event>
 4    1  0.2239940E+005  0.3907177E+02  0.7546771E-02  0.1354013E+00
          2   -1    0    0  502    0  0.00000000000E+00  0.00000000000E+00  0.12051550123E+02  0.12051550123E+02  0.00000000000E+00 0.  1.
         21   -1    0    0  503  502 -0.00000000000E+00 -0.00000000000E+00 -0.24251026968E+03  0.24251026968E+03  0.00000000000E+00 0.  1.
          2    1    1    2  501    0 -0.38721775983E+02 -0.52179549656E+01 -0.27261742243E+02  0.47642476630E+02  0.00000000000E+00 0.  1.
         21    1    1    2  503  501  0.38721775983E+02  0.52179549656E+01 -0.20319697732E+03  0.20691934318E+03  0.00000000000E+00 0.  1.
</event>
<event>
 4    1  0.2239940E+005  0.5796809E+02  0.7546771E-02  0.1266897E+00
          2   -1    0    0  503    0  0.00000000000E+00  0.00000000000E+00  0.74339455316E+03  0.74339455316E+03  0.00000000000E+00 0. -1.
         21   -1    0    0  501  502 -0.00000000000E+00 -0.00000000000E+00 -0.64643990771E+01  0.64643990771E+01  0.00000000000E+00 0.  1.
          2    1    1    2  501    0  0.54551393535E+02  0.19607254105E+02  0.57408009700E+03  0.57699935591E+03  0.00000000000E+00 0. -1.
         21    1    1    2  503  502 -0.54551393535E+02 -0.19607254105E+02  0.16285005708E+03  0.17285959633E+03  0.00000000000E+00 0.  1.
</event>
<event>
 4    1  0.2239940E+005  0.5948146E+02  0.7546771E-02  0.1261605E+00
          2   -1    0    0  502    0  0.00000000000E+00  0.00000000000E+00  0.34857509558E+03  0.34857509558E+03  0.00000000000E+00 0.  1.
         21   -1    0    0  503  502 -0.00000000000E+00 -0.00000000000E+00 -0.33099074265E+02  0.33099074265E+02  0.00000000000E+00 0. -1.
          2    1    1    2  501    0  0.20133008488E+02 -0.55970583185E+02  0.31664289487E+03  0.32218126433E+03  0.00000000000E+00 0.  1.
         21    1    1    2  503  501 -0.20133008488E+02  0.55970583185E+02 -0.11668735544E+01  0.59492905516E+02  0.00000000000E+00 0. -1.
</event>
<event>
 4    1  0.2239940E+005  0.2046084E+02  0.7546771E-02  0.1527104E+00
          2   -1    0    0  502    0  0.00000000000E+00  0.00000000000E+00  0.92931407856E+03  0.92931407856E+03  0.00000000000E+00 0. -1.
         21   -1    0    0  503  502 -0.00000000000E+00 -0.00000000000E+00 -0.20126856726E+01  0.20126856726E+01  0.00000000000E+00 0.  1.
          2    1    1    2  501    0 -0.99788599640E+01 -0.17862487074E+02  0.87390383936E+03  0.87414333295E+03  0.00000000000E+00 0. -1.
         21    1    1    2  503  501  0.99788599640E+01  0.17862487074E+02  0.53397553524E+02  0.57183431280E+02  0.00000000000E+00 0.  1.
</event>
<event>
 4    1  0.2239940E+005  0.2103627E+02  0.7546771E-02  0.1518748E+00
          2   -1    0    0  503    0  0.00000000000E+00  0.00000000000E+00  0.63185475685E+03  0.63185475685E+03  0.00000000000E+00 0.  1.
         21   -1    0    0  501  502 -0.00000000000E+00 -0.00000000000E+00 -0.57349350326E+01  0.57349350326E+01  0.00000000000E+00 0.  1.
          2    1    1    2  501    0 -0.19134036970E+02 -0.87414579907E+01  0.61175531508E+03  0.61211689242E+03  0.00000000000E+00 0.  1.
         21    1    1    2  503  502  0.19134036970E+02  0.87414579907E+01  0.14364506736E+02  0.25472799460E+02  0.00000000000E+00 0.  1.
</event>
<event>
 4    1  0.2239940E+005  0.2535180E+02  0.7546771E-02  0.1464906E+00
          2   -1    0    0  503    0  0.00000000000E+00  0.00000000000E+00  0.35268648239E+01  0.35268648239E+01  0.00000000000E+00 0.  1.
         21   -1    0    0  501  502 -0.00000000000E+00 -0.00000000000E+00 -0.18956712402E+03  0.18956712402E+03  0.00000000000E+00 0.  1.
          2    1    1    2  501    0 -0.32016603480E+01  0.25148819528E+02 -0.74030802078E+02  0.78251347650E+02  0.00000000000E+00 0.  1.
         21    1    1    2  503  502  0.32016603480E+01 -0.25148819528E+02 -0.11200945712E+03  0.11484264120E+03  0.00000000000E+00 0.  1.
</event>
<event>
 4    1  0.2239940E+005  0.9035535E+02  0.7546771E-02  0.1181659E+00
          2   -1    0    0  503    0  0.00000000000E+00  0.00000000000E+00  0.26208182683E+04  0.26208182683E+04  0.00000000000E+00 0. -1.
         21   -1    0    0  501  502 -0.00000000000E+00 -0.00000000000E+00 -0.80844529423E+01  0.80844529423E+01  0.00000000000E+00 0.  1.
          2    1    1    2  501    0 -0.55696777994E+02  0.71147436336E+02  0.23369179182E+04  0.23386640299E+04  0.00000000000E+00 0. -1.
         21    1    1    2  503  502  0.55696777994E+02 -0.71147436336E+02  0.27581589724E+03  0.29023869134E+03  0.00000000000E+00 0.  1.
</event>
<event>
 4    1  0.2239940E+005  0.2222790E+02  0.7546771E-02  0.1502428E+00
          2   -1    0    0  502    0  0.00000000000E+00  0.00000000000E+00  0.15167787227E+04  0.15167787227E+04  0.00000000000E+00 0.  1.
         21   -1    0    0  503  502 -0.00000000000E+00 -0.00000000000E+00 -0.38241404846E+00  0.38241404846E+00  0.00000000000E+00 0.  1.
          2    1    1    2  501    0 -0.15137759194E+02  0.16276605238E+02  0.10502207650E+04  0.10504559652E+04  0.00000000000E+00 0.  1.
         21    1    1    2  503  501  0.15137759194E+02 -0.16276605238E+02  0.46617554362E+03  0.46670517149E+03  0.00000000000E+00 0.  1.
</event>
<event>
 4    1  0.2239940E+005  0.3565872E+02  0.7546771E-02  0.1375990E+00
          2   -1    0    0  503    0  0.00000000000E+00  0.00000000000E+00  0.24338630043E+04  0.24338630043E+04  0.00000000000E+00 0. -1.
         21   -1    0    0  501  502 -0.00000000000E+00 -0.00000000000E+00 -0.17729705017E+02  0.17729705017E+02  0.00000000000E+00 0.  1.
          2    1    1    2  501    0  0.15763469355E+02  0.31985262662E+02  0.24156677827E+04  0.24159309553E+04  0.00000000000E+00 0. -1.
         21    1    1    2  503  502 -0.15763469355E+02 -0.31985262662E+02  0.46551649545E+00  0.35661754013E+02  0.00000000000E+00 0.  1.
</event>
<event>
 4    1  0.2239940E+005  0.2265659E+02  0.7546771E-02  0.1496856E+00
          2   -1    0    0  502    0  0.00000000000E+00  0.00000000000E+00  0.33586885825E+03  0.33586885825E+03  0.00000000000E+00 0.  1.
         21   -1    0    0  503  502 -0.00000000000E+00 -0.00000000000E+00 -0.55570858607E+01  0.55570858607E+01  0.00000000000E+00 0. -1.
          2    1    1    2  501    0  0.25077700411E+01 -0.22517374859E+02  0.31051023275E+03  0.31133571225E+03  0.00000000000E+00 0.  1.
         21    1    1    2  503  501 -0.25077700411E+01  0.22517374859E+02  0.19801539634E+02  0.30090231854E+02  0.00000000000E+00 0. -1.
</event>
<event>
 4    1  0.2239940E+005  0.9246986E+02  0.7546771E-02  0.1177537E+00
          2   -1    0    0  502    0  0.00000000000E+00  0.00000000000E+00  0.20597659090E+04  0.20597659090E+04  0.00000000000E+00 0.  1.
         21   -1    0    0  503  502 -0.00000000000E+00 -0.00000000000E+00 -0.15444963743E+02  0.15444963743E+02  0.00000000000E+00 0. -1.
          2    1    1    2  501    0  0.90808523765E+02 -0.17449532160E+02  0.19094319437E+04  0.19116696948E+04  0.00000000000E+00 0.  1.
         21    1    1    2  503  501 -0.90808523765E+02  0.17449532160E+02  0.13488900154E+03  0.16354117799E+03  0.00000000000E+00 0. -1.
</event>
<event>
 4    1  0.2239940E+005  0.2085615E+02  0.7546771E-02  0.1521329E+00
          2   -1    0    0  502    0  0.00000000000E+00  0.00000000000E+00  0.15023998949E+04  0.15023998949E+04  0.00000000000E+00 0. -1.
         21   -1    0    0  503  502 -0.00000000000E+00 -0.00000000000E+00 -0.28675699361E+02  0.28675699361E+02  0.00000000000E+00 0.  1.
          2    1    1    2  501    0 -0.20856086068E+02 -0.51114696249E-01  0.14985254839E+04  0.14986706125E+04  0.00000000000E+00 0. -1.
         21    1    1    2  503  501  0.20856086068E+02  0.51114696249E-01 -0.24801288347E+02  0.32404981753E+02  0.00000000000E+00 0.  1.
</event>
<event>
 4    1  0.2239940E+005  0.2563204E+02  0.7546771E-02  0.1461855E+00
          2   -1    0    0  503    0  0.00000000000E+00  0.00000000000E+00  0.78474300663E+03  0.78474300663E+03  0.00000000000E+00 0. -1.
         21   -1    0    0  501  502 -0.00000000000E+00 -0.00000000000E+00 -0.14525645739E+02  0.14525645739E+02  0.00000000000E+00 0. -1.
          2    1    1    2  501    0 -0.16824013650E+02 -0.19337889546E+02  0.77305517805E+03  0.77347999956E+03  0.00000000000E+00 0. -1.
         21    1    1    2  503  502  0.16824013650E+02  0.19337889546E+02 -0.28378171627E+01  0.25788652807E+02  0.00000000000E+00 0. -1.
</event>
<event>
 4    1  0.2239940E+005  0.2249961E+02  0.7546771E-02  0.1498879E+00
          2   -1    0    0  503    0  0.00000000000E+00  0.00000000000E+00  0.10864608150E+04  0.10864608150E+04  0.00000000000E+00 0. -1.
         21   -1    0    0  501  502 -0.00000000000E+00 -0.00000000000E+00 -0.11555288006E+01  0.11555288006E+01  0.00000000000E+00 0. -1.
          2    1    1    2  501    0 -0.17994299737E+02 -0.13506952397E+02  0.96274850481E+03  0.96301137901E+03  0.00000000000E+00 0. -1.
         21    1    1    2  503  502  0.17994299737E+02  0.13506952397E+02  0.12255678134E+03  0.12460496474E+03  0.00000000000E+00 0. -1.
</event>
<event>
 4    1  0.2239940E+005  0.2435406E+02  0.7546771E-02  0.1476161E+00
          2   -1    0    0  502    0  0.00000000000E+00  0.00000000000E+00  0.33703068307E+03  0.33703068307E+03  0.00000000000E+00 0. -1.
         21   -1    0    0  503  502 -0.00000000000E+00 -0.00000000000E+00 -0.35253354910E+01  0.35253354910E+01  0.00000000000E+00 0. -1.
          2    1    1    2  501    0 -0.23614759543E+02  0.59551084284E+01  0.28725393843E+03  0.28828448680E+03  0.00000000000E+00 0. -1.
         21    1    1    2  503  501  0.23614759543E+02 -0.59551084284E+01  0.46251409153E+02  0.52271531767E+02  0.00000000000E+00 0. -1.
</event>
<event>
 4    1  0.2239940E+005  0.2181419E+02  0.7546771E-02  0.1507950E+00
          2   -1    0    0  503    0  0.00000000000E+00  0.00000000000E+00  0.33427528481E+03  0.33427528481E+03  0.00000000000E+00 0. -1.
         21   -1    0    0  501  502 -0.00000000000E+00 -0.00000000000E+00 -0.10450436431E+03  0.10450436431E+03  0.00000000000E+00 0.  1.
          2    1    1    2  501    0 -0.71305273824E+01  0.20615877237E+02  0.33277590208E+03  0.33349011952E+03  0.00000000000E+00 0. -1.
         21    1    1    2  503  502  0.71305273824E+01 -0.20615877237E+02 -0.10300498158E+03  0.10528952961E+03  0.00000000000E+00 0.  1.
</event>
<event>
 4    1  0.2239940E+005  0.6080123E+02  0.7546771E-02  0.1257134E+00
          2   -1    0    0  503    0  0.00000000000E+00  0.00000000000E+00  0.77767644809E+03  0.77767644809E+03  0.00000000000E+00 0. -1.
         21   -1    0    0  501  502 -0.00000000000E+00 -0.00000000000E+00 -0.19378871146E+02  0.19378871146E+02  0.00000000000E+00 0.  1.
          2    1    1    2  501    0 -0.75195475538E+00 -0.60796584009E+02  0.72536362364E+03  0.72790739560E+03  0.00000000000E+00 0. -1.
         21    1    1    2  503  502  0.75195475538E+00  0.60796584009E+02  0.32933953298E+02  0.69147923635E+02  0.00000000000E+00 0.  1.
</event>
<event>
 4    1  0.2239940E+005  0.3219982E+02  0.7546771E-02  0.1401396E+00
          2   -1    0    0  503    0  0.00000000000E+00  0.00000000000E+00  0.35209176438E+03  0.35209176438E+03  0.00000000000E+00 0.  1.
         21   -1    0    0  501  502 -0.00000000000E+00 -0.00000000000E+00 -0.69458123647E+03  0.69458123647E+03  0.00000000000E+00 0.  1.
          2    1    1    2  501    0 -0.21496675940E+02 -0.23973347108E+02  0.35098120939E+03  0.35245515714E+03  0.00000000000E+00 0.  1.
         21    1    1    2  503  502  0.21496675940E+02  0.23973347108E+02 -0.69347068148E+03  0.69421784371E+03  0.00000000000E+00 0.  1.
</event>
<event>
 4    1  0.2239940E+005  0.2127093E+02  0.7546771E-02  0.1515432E+00
          2   -1    0    0  503    0  0.00000000000E+00  0.00000000000E+00  0.16748055629E+04  0.16748055629E+04  0.00000000000E+00 0.  1.
         21   -1    0    0  501  502 -0.00000000000E+00 -0.00000000000E+00 -0.87565253722E+00  0.87565253722E+00  0.00000000000E+00 0.  1.
          2    1    1    2  501    0  0.77720719806E+01  0.19800189741E+02  0.15336759276E+04  0.15338234264E+04  0.00000000000E+00 0.  1.
         21    1    1    2  503  502 -0.77720719806E+01 -0.19800189741E+02  0.14025398281E+03  0.14185778904E+03  0.00000000000E+00 0.  1.
</event>
<event>
 4    1  0.2239940E+005  0.3252075E+02  0.7546771E-02  0.1398884E+00
          2   -1    0    0  502    0  0.00000000000E+00  0.00000000000E+00  0.14627570950E+04  0.14627570950E+04  0.00000000000E+00 0.  1.
         21   -1    0    0  503  502 -0.00000000000E+00 -0.00000000000E+00 -0.62249835874E+01  0.62249835874E+01  0.00000000000E+00 0.  1.
          2    1    1    2  501    0  0.12834500024E+02  0.29881007873E+02  0.14187861956E+04  0.14191588593E+04  0.00000000000E+00 0.  1.
         21    1    1    2  503  501 -0.12834500024E+02 -0.29881007873E+02  0.37745915805E+02  0.49823219309E+02  0.00000000000E+00 0.  1.
</event>
<event>
 4    1  0.2239940E+005  0.2241379E+02  0.7546771E-02  0.1499993E+00
          2   -1    0    0  502    0  0.00000000000E+00  0.00000000000E+00  0.64529291801E+03  0.64529291801E+03  0.00000000000E+00 0. -1.
         21   -1    0    0  503  502 -0.00000000000E+00 -0.00000000000E+00 -0.64160161045E+01  0.64160161045E+01  0.00000000000E+00 0. -1.
          2    1    1    2  501    0  0.16372506179E+02  0.15307489904E+02  0.62488399889E+03  0.62528584685E+03  0.00000000000E+00 0. -1.
         21    1    1    2  503  501 -0.16372506179E+02 -0.15307489904E+02  0.13992903020E+02  0.26423087266E+02  0.00000000000E+00 0. -1.
</event>
<event>
 4    1  0.2239940E+005  0.3386666E+02  0.7546771E-02  0.1388711E+00
          2   -1    0    0  502    0  0.00000000000E+00  0.00000000000E+00  0.76926415736E+02  0.76926415736E+02  0.00000000000E+00 0.  1.
         21   -1    0    0  503  502 -0.00000000000E+00 -0.00000000000E+00 -0.54964088573E+02  0.54964088573E+02  0.00000000000E+00 0.  1.
          2    1    1    2  501    0 -0.33117711823E+02  0.70829248715E+01  0.67276058018E+02  0.75319443994E+02  0.00000000000E+00 0.  1.
         21    1    1    2  503  501  0.33117711823E+02 -0.70829248715E+01 -0.45313730855E+02  0.56571060315E+02  0.00000000000E+00 0.  1.
</event>
<event>
 4    1  0.2239940E+005  0.5206119E+02  0.7546771E-02  0.1289475E+00
          2   -1    0    0  503    0  0.00000000000E+00  0.00000000000E+00  0.49909016111E+03  0.49909016111E+03  0.00000000000E+00 0.  1.
         21   -1    0    0  501  502 -0.00000000000E+00 -0.00000000000E+00 -0.76439756999E+01  0.76439756999E+01  0.00000000000E+00 0. -1.
          2    1    1    2  501    0 -0.18660710743E+02 -0.48601907940E+02  0.38206093148E+03  0.38559165310E+03  0.00000000000E+00 0.  1.
         21    1    1    2  503  502  0.18660710743E+02  0.48601907940E+02  0.10938525393E+03  0.12114248371E+03  0.00000000000E+00 0. -1.
</event>
<event>
 4    1  0.2239940E+005  0.2060754E+02  0.7546771E-02  0.1524943E+00
          2   -1    0    0  503    0  0.00000000000E+00  0.00000000000E+00  0.19593084471E+01  0.19593084471E+01  0.00000000000E+00 0. -1.
         21   -1    0    0  501  502 -0.00000000000E+00 -0.00000000000E+00 -0.22011323643E+03  0.22011323643E+03  0.00000000000E+00 0. -1.
          2    1    1    2  501    0  0.17843133970E+02 -0.10309853395E+02 -0.95341713679E+02  0.97543389700E+02  0.00000000000E+00 0. -1.
         21    1    1    2  503  502 -0.17843133970E+02  0.10309853395E+02 -0.12281221430E+03  0.12452915517E+03  0.00000000000E+00 0. -1.
</event>
<event>
 4    1  0.2239940E+005  0.2181203E+02  0.7546771E-02  0.1507980E+00
          2   -1    0    0  502    0  0.00000000000E+00  0.00000000000E+00  0.15940470129E+04  0.15940470129E+04  0.00000000000E+00 0. -1.
         21   -1    0    0  503  502 -0.00000000000E+00 -0.00000000000E+00 -0.24020400768E+02  0.24020400768E+02  0.00000000000E+00 0. -1.
          2    1    1    2  501    0  0.10866687370E+02 -0.18912420296E+02  0.15890050144E+04  0.15891547125E+04  0.00000000000E+00 0. -1.
         21    1    1    2  503  501 -0.10866687370E+02  0.18912420296E+02 -0.18978402259E+02  0.28912701157E+02  0.00000000000E+00 0. -1.
</event>
<event>
 4    1  0.2239940E+005  0.2808709E+02  0.7546771E-02  0.1436983E+00
          2   -1    0    0  503    0  0.00000000000E+00  0.00000000000E+00  0.94348025865E+03  0.94348025865E+03  0.00000000000E+00 0. -1.
         21   -1    0    0  501  502 -0.00000000000E+00 -0.00000000000E+00 -0.30979967237E+01  0.30979967237E+01  0.00000000000E+00 0. -1.
          2    1    1    2  501    0 -0.23749905722E+02  0.14994220741E+02  0.87459777477E+03  0.87504865711E+03  0.00000000000E+00 0. -1.
         21    1    1    2  503  502  0.23749905722E+02 -0.14994220741E+02  0.65784487162E+02  0.71529598269E+02  0.00000000000E+00 0. -1.
</event>
<event>
 4    1  0.2239940E+005  0.2472424E+02  0.7546771E-02  0.1471912E+00
          2   -1    0    0  502    0  0.00000000000E+00  0.00000000000E+00  0.42545122530E+02  0.42545122530E+02  0.00000000000E+00 0.  1.
         21   -1    0    0  503  502 -0.00000000000E+00 -0.00000000000E+00 -0.76329736210E+02  0.76329736210E+02  0.00000000000E+00 0.  1.
          2    1    1    2  501    0  0.13469970520E+02  0.20732771226E+02  0.36659602606E+02  0.44217806049E+02  0.00000000000E+00 0.  1.
         21    1    1    2  503  501 -0.13469970520E+02 -0.20732771226E+02 -0.70444216286E+02  0.74657052692E+02  0.00000000000E+00 0.  1.
</event>
<event>
 4    1  0.2239940E+005  0.2435261E+02  0.7546771E-02  0.1476178E+00
          2   -1    0    0  503    0  0.00000000000E+00  0.00000000000E+00  0.87887718794E+02  0.87887718794E+02  0.00000000000E+00 0. -1.
         21   -1    0    0  501  502 -0.00000000000E+00 -0.00000000000E+00 -0.40015332330E+02  0.40015332330E+02  0.00000000000E+00 0.  1.
          2    1    1    2  501    0  0.20505952172E+02  0.13136041332E+02  0.82246848438E+02  0.85776417122E+02  0.00000000000E+00 0. -1.
         21    1    1    2  503  502 -0.20505952172E+02 -0.13136041332E+02 -0.34374461974E+02  0.42126634002E+02  0.00000000000E+00 0.  1.
</event>
<event>
 4    1  0.2239940E+005  0.4083367E+02  0.7546771E-02  0.1343669E+00
          2   -1    0    0  503    0  0.00000000000E+00  0.00000000000E+00  0.15734676598E+04  0.15734676598E+04  0.00000000000E+00 0. -1.
         21   -1    0    0  501  502 -0.00000000000E+00 -0.00000000000E+00 -0.17039254521E+01  0.17039254521E+01  0.00000000000E+00 0.  1.
          2    1    1    2  501    0 -0.32493834157E+02 -0.24729324089E+02  0.12701598451E+04  0.12708160453E+04  0.00000000000E+00 0. -1.
         21    1    1    2  503  502  0.32493834157E+02  0.24729324089E+02  0.30160388923E+03  0.30435554000E+03  0.00000000000E+00 0.  1.
</event>
<event>
 4    1  0.2239940E+005  0.2660604E+02  0.7546771E-02  0.1451606E+00
          2   -1    0    0  503    0  0.00000000000E+00  0.00000000000E+00  0.98960969273E+03  0.98960969273E+03  0.00000000000E+00 0. -1.
         21   -1    0    0  501  502 -0.00000000000E+00 -0.00000000000E+00 -0.11061156611E+01  0.11061156611E+01  0.00000000000E+00 0. -1.
          2    1    1    2  501    0  0.20284879067E+01 -0.26528597860E+02  0.78869208864E+03  0.78914073013E+03  0.00000000000E+00 0. -1.
         21    1    1    2  503  502 -0.20284879067E+01  0.26528597860E+02  0.19981148844E+03  0.20157507827E+03  0.00000000000E+00 0. -1.
</event>
<event>
 4    1  0.2239940E+005  0.2206634E+02  0.7546771E-02  0.1504567E+00
          2   -1    0    0  503    0  0.00000000000E+00  0.00000000000E+00  0.11063296504E+04  0.11063296504E+04  0.00000000000E+00 0.  1.
         21   -1    0    0  501  502 -0.00000000000E+00 -0.00000000000E+00 -0.49645391646E+00  0.49645391646E+00  0.00000000000E+00 0.  1.
          2    1    1    2  501    0 -0.95460087043E+01 -0.19894652328E+02  0.73932915008E+03  0.73965837765E+03  0.00000000000E+00 0.  1.
         21    1    1    2  503  502  0.95460087043E+01  0.19894652328E+02  0.36650404637E+03  0.36716772663E+03  0.00000000000E+00 0.  1.
</event>
<event>
 4    1  0.2239940E+005  0.2012400E+02  0.7546771E-02  0.1532149E+00
          2   -1    0    0  502    0  0.00000000000E+00  0.00000000000E+00  0.98714511382E+03  0.98714511382E+03  0.00000000000E+00 0. -1.
         21   -1    0    0  503  502 -0.00000000000E+00 -0.00000000000E+00 -0.68153402009E+01  0.68153402009E+01  0.00000000000E+00 0.  1.
          2    1    1    2  501    0  0.12650471855E+02  0.15650582874E+02  0.97195513280E+03  0.97216344066E+03  0.00000000000E+00 0. -1.
         21    1    1    2  503  501 -0.12650471855E+02 -0.15650582874E+02  0.83746408161E+01  0.21797013356E+02  0.00000000000E+00 0.  1.
</event>
<event>
 4    1  0.2239940E+005  0.2508855E+02  0.7546771E-02  0.1467815E+00
          2   -1    0    0  503    0  0.00000000000E+00  0.00000000000E+00  0.11593292213E+04  0.11593292213E+04  0.00000000000E+00 0.  1.
         21   -1    0    0  501  502 -0.00000000000E+00 -0.00000000000E+00 -0.65364824015E+00  0.65364824015E+00  0.00000000000E+00 0.  1.
          2    1    1    2  501    0 -0.12977048650E+01  0.25054967407E+02  0.81804071073E+03  0.81842534164E+03  0.00000000000E+00 0.  1.
         21    1    1    2  503  502  0.12977048650E+01 -0.25054967407E+02  0.34063486238E+03  0.34155752794E+03  0.00000000000E+00 0.  1.
</event>
<event>
 4    1  0.2239940E+005  0.2297444E+02  0.7546771E-02  0.1492819E+00
          2   -1    0    0  503    0  0.00000000000E+00  0.00000000000E+00  0.18870855312E+04  0.18870855312E+04  0.00000000000E+00 0. -1.
         21   -1    0    0  501  502 -0.00000000000E+00 -0.00000000000E+00 -0.28245744935E+00  0.28245744935E+00  0.00000000000E+00 0. -1.
          2    1    1    2  501    0  0.22974077311E+02 -0.12849359365E+00  0.10365798945E+04  0.10368344624E+04  0.00000000000E+00 0. -1.
         21    1    1    2  503  502 -0.22974077311E+02  0.12849359365E+00  0.85022317927E+03  0.85053352627E+03  0.00000000000E+00 0. -1.
</event>
<event>
 4    1  0.2239940E+005  0.2328672E+02  0.7546771E-02  0.1488929E+00
          2   -1    0    0  503    0  0.00000000000E+00  0.00000000000E+00  0.34379174383E+03  0.34379174383E+03  0.00000000000E+00 0.  1.
         21   -1    0    0  501  502 -0.00000000000E+00 -0.00000000000E+00 -0.87174751982E+01  0.87174751982E+01  0.00000000000E+00 0. -1.
          2    1    1    2  501    0 -0.22313504612E+02 -0.66617388926E+01  0.32705113319E+03  0.32787911640E+03  0.00000000000E+00 0.  1.
         21    1    1    2  503  502  0.22313504612E+02  0.66617388926E+01  0.80231354475E+01  0.24630102630E+02  0.00000000000E+00 0. -1.
</event>
<event>
 4    1  0.2239940E+005  0.2045162E+02  0.7546771E-02  0.1527240E+00
          2   -1    0    0  502    0  0.00000000000E+00  0.00000000000E+00  0.57465666371E+02  0.57465666371E+02  0.00000000000E+00 0. -1.
         21   -1    0    0  503  502 -0.00000000000E+00 -0.00000000000E+00 -0.73769259509E+01  0.73769259509E+01  0.00000000000E+00 0.  1.
          2    1    1    2  501    0  0.13134354987E+02 -0.15676653607E+02  0.28787711317E+02  0.35312902346E+02  0.00000000000E+00 0. -1.
         21    1    1    2  503  501 -0.13134354987E+02  0.15676653607E+02  0.21301029102E+02  0.29529689975E+02  0.00000000000E+00 0.  1.
</event>
<event>
 4    1  0.2239940E+005  0.3369689E+02  0.7546771E-02  0.1389963E+00
          2   -1    0    0  503    0  0.00000000000E+00  0.00000000000E+00  0.10767304018E+04  0.10767304018E+04  0.00000000000E+00 0.  1.
         21   -1    0    0  501  502 -0.00000000000E+00 -0.00000000000E+00 -0.35762750360E+02  0.35762750360E+02  0.00000000000E+00 0.  1.
          2    1    1    2  501    0  0.33435096015E+02  0.41922075059E+01  0.10684678035E+04  0.10689990306E+04  0.00000000000E+00 0.  1.
         21    1    1    2  503  502 -0.33435096015E+02 -0.41922075059E+01 -0.27500152060E+02  0.43494121587E+02  0.00000000000E+00 0.  1.
</event>
<event>
 4    1  0.2239940E+005  0.2056096E+02  0.7546771E-02  0.1525626E+00
          2   -1    0    0  502    0  0.00000000000E+00  0.00000000000E+00  0.10732370690E+04  0.10732370690E+04  0.00000000000E+00 0. -1.
         21   -1    0    0  503  502 -0.00000000000E+00 -0.00000000000E+00 -0.14125796484E+01  0.14125796484E+01  0.00000000000E+00 0.  1.
          2    1    1    2  501    0  0.11618568041E+02  0.16963546686E+02  0.99220992719E+03  0.99242294041E+03  0.00000000000E+00 0. -1.
         21    1    1    2  503  501 -0.11618568041E+02 -0.16963546686E+02  0.79614562188E+02  0.82226708263E+02  0.00000000000E+00 0.  1.
</event>
<event>
 4    1  0.2239940E+005  0.3754338E+02  0.7546771E-02  0.1363516E+00
          2   -1    0    0  503    0  0.00000000000E+00  0.00000000000E+00  0.18025052091E+04  0.18025052091E+04  0.00000000000E+00 0. -1.
         21   -1    0    0  501  502 -0.00000000000E+00 -0.00000000000E+00 -0.79079210102E+00  0.79079210102E+00  0.00000000000E+00 0. -1.
          2    1    1    2  501    0  0.56621499467E+01  0.37113955788E+02  0.99608920557E+03  0.99679647426E+03  0.00000000000E+00 0. -1.
         21    1    1    2  503  502 -0.56621499467E+01 -0.37113955788E+02  0.80562521142E+03  0.80649952692E+03  0.00000000000E+00 0. -1.
</event>
<event>
 4    1  0.2239940E+005  0.2339330E+02  0.7546771E-02  0.1487618E+00
          2   -1    0    0  502    0  0.00000000000E+00  0.00000000000E+00  0.46032456235E+03  0.46032456235E+03  0.00000000000E+00 0.  1.
         21   -1    0    0  503  502 -0.00000000000E+00 -0.00000000000E+00 -0.50414317053E+02  0.50414317053E+02  0.00000000000E+00 0.  1.
          2    1    1    2  501    0 -0.20375598783E+02  0.11492675004E+02  0.45729564656E+03  0.45789360660E+03  0.00000000000E+00 0.  1.
         21    1    1    2  503  501  0.20375598783E+02 -0.11492675004E+02 -0.47385401263E+02  0.52845272801E+02  0.00000000000E+00 0.  1.
</event>
<event>
 4    1  0.2239940E+005  0.2552516E+02  0.7546771E-02  0.1463013E+00
          2   -1    0    0  503    0  0.00000000000E+00  0.00000000000E+00  0.71677981823E+03  0.71677981823E+03  0.00000000000E+00 0. -1.
         21   -1    0    0  501  502 -0.00000000000E+00 -0.00000000000E+00 -0.11443950046E+02  0.11443950046E+02  0.00000000000E+00 0.  1.
          2    1    1    2  501    0 -0.42687652495E+01 -0.25165675451E+02  0.70202028646E+03  0.70248417504E+03  0.00000000000E+00 0. -1.
         21    1    1    2  503  502  0.42687652495E+01  0.25165675451E+02  0.33155817188E+01  0.25739593233E+02  0.00000000000E+00 0.  1.
</event>
<event>
 4    1  0.2239940E+005  0.5056023E+02  0.7546771E-02  0.1295762E+00
          2   -1    0    0  503    0  0.00000000000E+00  0.00000000000E+00  0.24967302329E+04  0.24967302329E+04  0.00000000000E+00 0. -1.
         21   -1    0    0  501  502 -0.00000000000E+00 -0.00000000000E+00 -0.14582442796E+01  0.14582442796E+01  0.00000000000E+00 0. -1.
          2    1    1    2  501    0 -0.49698502965E+02 -0.92949533459E+01  0.56590964721E+03  0.56816376702E+03  0.00000000000E+00 0. -1.
         21    1    1    2  503  502  0.49698502965E+02  0.92949533459E+01  0.19293623415E+04  0.19300247102E+04  0.00000000000E+00 0. -1.
</event>
<event>
 4    1  0.2239940E+005  0.3944064E+02  0.7546771E-02  0.1351795E+00
          2   -1    0    0  503    0  0.00000000000E+00  0.00000000000E+00  0.20582050947E+04  0.20582050947E+04  0.00000000000E+00 0.  1.
         21   -1    0    0  501  502 -0.00000000000E+00 -0.00000000000E+00 -0.82331929090E+00  0.82331929090E+00  0.00000000000E+00 0. -1.
          2    1    1    2  501    0  0.38823858157E+02  0.69478188487E+01  0.13235433294E+04  0.13241308504E+04  0.00000000000E+00 0.  1.
         21    1    1    2  503  502 -0.38823858157E+02 -0.69478188487E+01  0.73383844600E+03  0.73489756360E+03  0.00000000000E+00 0. -1.
</event>
<event>
 4    1  0.2239940E+005  0.3093588E+02  0.7546771E-02  0.1411634E+00
          2   -1    0    0  503    0  0.00000000000E+00  0.00000000000E+00  0.12230132546E+04  0.12230132546E+04  0.00000000000E+00 0.  1.
         21   -1    0    0  501  502 -0.00000000000E+00 -0.00000000000E+00 -0.93510615125E+00  0.93510615125E+00  0.00000000000E+00 0.  1.
          2    1    1    2  501    0 -0.21824114037E+02  0.21925705625E+02  0.85824827843E+03  0.85880564503E+03  0.00000000000E+00 0.  1.
         21    1    1    2  503  502  0.21824114037E+02 -0.21925705625E+02  0.36382986997E+03  0.36514271567E+03  0.00000000000E+00 0.  1.
</event>
<event>
 4    1  0.2239940E+005  0.2239040E+02  0.7546771E-02  0.1500298E+00
          2   -1    0    0  502    0  0.00000000000E+00  0.00000000000E+00  0.98170416448E+03  0.98170416448E+03  0.00000000000E+00 0.  1.
         21   -1    0    0  503  502 -0.00000000000E+00 -0.00000000000E+00 -0.15574186738E+01  0.15574186738E+01  0.00000000000E+00 0.  1.
          2    1    1    2  501    0 -0.19366416661E+02 -0.11237079626E+02  0.89312151440E+03  0.89340213204E+03  0.00000000000E+00 0.  1.
         21    1    1    2  503  501  0.19366416661E+02  0.11237079626E+02  0.87025231405E+02  0.89859451110E+02  0.00000000000E+00 0.  1.
</event>
<event>
 4    1  0.2239940E+005  0.2225828E+02  0.7546771E-02  0.1502028E+00
          2   -1    0    0  503    0  0.00000000000E+00  0.00000000000E+00  0.51444188613E+03  0.51444188613E+03  0.00000000000E+00 0. -1.
         21   -1    0    0  501  502 -0.00000000000E+00 -0.00000000000E+00 -0.30408279452E+01  0.30408279452E+01  0.00000000000E+00 0. -1.
          2    1    1    2  501    0 -0.10652190817E+01  0.22232778418E+02  0.46958040654E+03  0.47010763590E+03  0.00000000000E+00 0. -1.
         21    1    1    2  503  502  0.10652190817E+01 -0.22232778418E+02  0.41820651648E+02  0.47375078176E+02  0.00000000000E+00 0. -1.
</event>
<event>
 4    1  0.2239940E+005  0.2108856E+02  0.7546771E-02  0.1518004E+00
          2   -1    0    0  502    0  0.00000000000E+00  0.00000000000E+00  0.13783730192E+04  0.13783730192E+04  0.00000000000E+00 0. -1.
         21   -1    0    0  503  502 -0.00000000000E+00 -0.00000000000E+00 -0.71419760966E+00  0.71419760966E+00  0.00000000000E+00 0.  1.
          2    1    1    2  501    0  0.18851642083E+02 -0.94521343078E+01  0.11993893813E+04  0.11995747644E+04  0.00000000000E+00 0. -1.
         21    1    1    2  503  501 -0.18851642083E+02  0.94521343078E+01  0.17826944023E+03  0.17951245242E+03  0.00000000000E+00 0.  1.
</event>
<event>
 4    1  0.2239940E+005  0.2454385E+02  0.7546771E-02  0.1473971E+00
          2   -1    0    0  503    0  0.00000000000E+00  0.00000000000E+00  0.70385528125E+02  0.70385528125E+02  0.00000000000E+00 0. -1.
         21   -1    0    0  501  502 -0.00000000000E+00 -0.00000000000E+00 -0.13873789771E+02  0.13873789771E+02  0.00000000000E+00 0.  1.
          2    1    1    2  501    0  0.16186664581E+01 -0.24490421133E+02  0.54332424712E+02  0.59618899549E+02  0.00000000000E+00 0. -1.
         21    1    1    2  503  502 -0.16186664581E+01  0.24490421133E+02  0.21793136422E+01  0.24640418347E+02  0.00000000000E+00 0.  1.
</event>
<event>
 4    1  0.2239940E+005  0.2668248E+02  0.7546771E-02  0.1450824E+00
          2   -1    0    0  503    0  0.00000000000E+00  0.00000000000E+00  0.12139241632E+04  0.12139241632E+04  0.00000000000E+00 0.  1.
         21   -1    0    0  501  502 -0.00000000000E+00 -0.00000000000E+00 -0.10737284446E+01  0.10737284446E+01  0.00000000000E+00 0.  1.
          2    1    1    2  501    0  0.26577670292E+02 -0.23626867318E+01  0.10156565738E+04  0.10160070033E+04  0.00000000000E+00 0.  1.
         21    1    1    2  503  502 -0.26577670292E+02  0.23626867318E+01  0.19719386101E+03  0.19899088840E+03  0.00000000000E+00 0.  1.
</event>
<event>
 4    1  0.2239940E+005  0.7216548E+02  0.7546771E-02  0.1223306E+00
          2   -1    0    0  503    0  0.00000000000E+00  0.00000000000E+00  0.20671060309E+04  0.20671060309E+04  0.00000000000E+00 0. -1.
         21   -1    0    0  501  502 -0.00000000000E+00 -0.00000000000E+00 -0.30915261537E+01  0.30915261537E+01  0.00000000000E+00 0.  1.
          2    1    1    2  501    0  0.50405369673E+02 -0.51644508781E+02  0.14772974507E+04  0.14790590300E+04  0.00000000000E+00 0. -1.
         21    1    1    2  503  502 -0.50405369673E+02  0.51644508781E+02  0.58671705409E+03  0.59113852703E+03  0.00000000000E+00 0.  1.
</event>
<event>
 4    1  0.2239940E+005  0.2147211E+02  0.7546771E-02  0.1512630E+00
          2   -1    0    0  502    0  0.00000000000E+00  0.00000000000E+00  0.72279654036E+03  0.72279654036E+03  0.00000000000E+00 0.  1.
         21   -1    0    0  503  502 -0.00000000000E+00 -0.00000000000E+00 -0.25661872601E+02  0.25661872601E+02  0.00000000000E+00 0.  1.
          2    1    1    2  501    0  0.21467175533E+02  0.46040213606E+00  0.71811620358E+03  0.71843714648E+03  0.00000000000E+00 0.  1.
         21    1    1    2  503  501 -0.21467175533E+02 -0.46040213606E+00 -0.20981535824E+02  0.30021266479E+02  0.00000000000E+00 0.  1.
</event>
<event>
 4    1  0.2239940E+005  0.3256194E+02  0.7546771E-02  0.1398564E+00
          2   -1    0    0  502    0  0.00000000000E+00  0.00000000000E+00  0.15743779757E+04  0.15743779757E+04  0.00000000000E+00 0.  1.
         21   -1    0    0  503  502 -0.00000000000E+00 -0.00000000000E+00 -0.67443215345E+00  0.67443215345E+00  0.00000000000E+00 0.  1.
          2    1    1    2  501    0 -0.28879360202E+02  0.15042019821E+02  0.81675890014E+03  0.81740772003E+03  0.00000000000E+00 0.  1.
         21    1    1    2  503  501  0.28879360202E+02 -0.15042019821E+02  0.75694464338E+03  0.75764468780E+03  0.00000000000E+00 0.  1.
</event>
<event>
 4    1  0.2239940E+005  0.2039326E+02  0.7546771E-02  0.1528107E+00
          2   -1    0    0  503    0  0.00000000000E+00  0.00000000000E+00  0.10682135021E+04  0.10682135021E+04  0.00000000000E+00 0. -1.
         21   -1    0    0  501  502 -0.00000000000E+00 -0.00000000000E+00 -0.41711903083E+00  0.41711903083E+00  0.00000000000E+00 0.  1.
          2    1    1    2  501    0 -0.96986352589E+00  0.20370183131E+02  0.67181687149E+03  0.67212632281E+03  0.00000000000E+00 0. -1.
         21    1    1    2  503  502  0.96986352589E+00 -0.20370183131E+02  0.39597951155E+03  0.39650429829E+03  0.00000000000E+00 0.  1.
</event>
<event>
 4    1  0.2239940E+005  0.2315339E+02  0.7546771E-02  0.1490581E+00
          2   -1    0    0  503    0  0.00000000000E+00  0.00000000000E+00  0.88940742767E+03  0.88940742767E+03  0.00000000000E+00 0.  1.
         21   -1    0    0  501  502 -0.00000000000E+00 -0.00000000000E+00 -0.18051973245E+01  0.18051973245E+01  0.00000000000E+00 0. -1.
          2    1    1    2  501    0  0.85021529452E+01  0.21535848234E+02  0.80748516124E+03  0.80781703683E+03  0.00000000000E+00 0.  1.
         21    1    1    2  503  502 -0.85021529452E+01 -0.21535848234E+02  0.80117069100E+02  0.83395588162E+02  0.00000000000E+00 0. -1.
</event>
<event>
 4    1  0.2239940E+005  0.4463395E+02  0.7546771E-02  0.1323280E+00
          2   -1    0    0  503    0  0.00000000000E+00  0.00000000000E+00  0.17053539719E+04  0.17053539719E+04  0.00000000000E+00 0. -1.
         21   -1    0    0  501  502 -0.00000000000E+00 -0.00000000000E+00 -0.21033647267E+01  0.21033647267E+01  0.00000000000E+00 0.  1.
          2    1    1    2  501    0 -0.38828807287E+02  0.22011665820E+02  0.14208808683E+04  0.14215817358E+04  0.00000000000E+00 0. -1.
         21    1    1    2  503  502  0.38828807287E+02 -0.22011665820E+02  0.28236973896E+03  0.28587560089E+03  0.00000000000E+00 0.  1.
</event>
<event>
 4    1  0.2239940E+005  0.2029949E+02  0.7546771E-02  0.1529506E+00
          2   -1    0    0  503    0  0.00000000000E+00  0.00000000000E+00  0.58734792153E+02  0.58734792153E+02  0.00000000000E+00 0.  1.
         21   -1    0    0  501  502 -0.00000000000E+00 -0.00000000000E+00 -0.39600728728E+02  0.39600728728E+02  0.00000000000E+00 0.  1.
          2    1    1    2  501    0  0.92371808374E+01  0.18076056245E+02  0.54167300840E+02  0.57846052583E+02  0.00000000000E+00 0.  1.
         21    1    1    2  503  502 -0.92371808374E+01 -0.18076056245E+02 -0.35033237415E+02  0.40489468297E+02  0.00000000000E+00 0.  1.
</event>
<event>
 4    1  0.2239940E+005  0.3195527E+02  0.7546771E-02  0.1403333E+00
          2   -1    0    0  502    0  0.00000000000E+00  0.00000000000E+00  0.97381484208E+03  0.97381484208E+03  0.00000000000E+00 0.  1.
         21   -1    0    0  503  502 -0.00000000000E+00 -0.00000000000E+00 -0.45918632802E+01  0.45918632802E+01  0.00000000000E+00 0. -1.
          2    1    1    2  501    0  0.11676221338E+02  0.29745672641E+02  0.91434265817E+03  0.91490088848E+03  0.00000000000E+00 0.  1.
         21    1    1    2  503  501 -0.11676221338E+02 -0.29745672641E+02  0.54880320626E+02  0.63505816880E+02  0.00000000000E+00 0. -1.
</event>
<event>
 4    1  0.2239940E+005  0.2422637E+02  0.7546771E-02  0.1477647E+00
          2   -1    0    0  502    0  0.00000000000E+00  0.00000000000E+00  0.73295535659E+03  0.73295535659E+03  0.00000000000E+00 0. -1.
         21   -1    0    0  503  502 -0.00000000000E+00 -0.00000000000E+00 -0.21264468206E+01  0.21264468206E+01  0.00000000000E+00 0. -1.
          2    1    1    2  501    0  0.97741057154E+01  0.22167182359E+02  0.65561606973E+03  0.65606352437E+03  0.00000000000E+00 0. -1.
         21    1    1    2  503  501 -0.97741057154E+01 -0.22167182359E+02  0.75212840039E+02  0.79018279043E+02  0.00000000000E+00 0. -1.
</event>
<event>
 4    1  0.2239940E+005  0.2683322E+02  0.7546771E-02  0.1449291E+00
          2   -1    0    0  502    0  0.00000000000E+00  0.00000000000E+00  0.13270244377E+04  0.13270244377E+04  0.00000000000E+00 0.  1.
         21   -1    0    0  503  502 -0.00000000000E+00 -0.00000000000E+00 -0.18423806052E+02  0.18423806052E+02  0.00000000000E+00 0.  1.
          2    1    1    2  501    0  0.84681039458E+01  0.25461990057E+02  0.13170445020E+04  0.13173178212E+04  0.00000000000E+00 0.  1.
         21    1    1    2  503  501 -0.84681039458E+01 -0.25461990057E+02 -0.84438704340E+01  0.28130422500E+02  0.00000000000E+00 0.  1.
</event>
<event>
 4    1  0.2239940E+005  0.2216703E+02  0.7546771E-02  0.1503231E+00
          2   -1    0    0  503    0  0.00000000000E+00  0.00000000000E+00  0.26142337424E+04  0.26142337424E+04  0.00000000000E+00 0. -1.
         21   -1    0    0  501  502 -0.00000000000E+00 -0.00000000000E+00 -0.19883124219E+00  0.19883124219E+00  0.00000000000E+00 0. -1.
          2    1    1    2  501    0 -0.47971376536E+01  0.21641731171E+02  0.16126511933E+04  0.16128035368E+04  0.00000000000E+00 0. -1.
         21    1    1    2  503  502  0.47971376536E+01 -0.21641731171E+02  0.10013837179E+04  0.10016290368E+04  0.00000000000E+00 0. -1.
</event>
<event>
 4    1  0.2239940E+005  0.2419426E+02  0.7546771E-02  0.1478023E+00
          2   -1    0    0  503    0  0.00000000000E+00  0.00000000000E+00  0.55918932813E+03  0.55918932813E+03  0.00000000000E+00 0.  1.
         21   -1    0    0  501  502 -0.00000000000E+00 -0.00000000000E+00 -0.18171512409E+02  0.18171512409E+02  0.00000000000E+00 0. -1.
          2    1    1    2  501    0  0.23711008684E+02  0.48114926649E+01  0.55075100003E+03  0.55128216589E+03  0.00000000000E+00 0.  1.
         21    1    1    2  503  502 -0.23711008684E+02 -0.48114926649E+01 -0.97331843118E+01  0.26078674646E+02  0.00000000000E+00 0. -1.
</event>
<event>
 4    1  0.2239940E+005  0.2023600E+02  0.7546771E-02  0.1530458E+00
          2   -1    0    0  502    0  0.00000000000E+00  0.00000000000E+00  0.38857183286E+03  0.38857183286E+03  0.00000000000E+00 0. -1.
         21   -1    0    0  503  502 -0.00000000000E+00 -0.00000000000E+00 -0.25281027019E+01  0.25281027019E+01  0.00000000000E+00 0.  1.
          2    1    1    2  501    0  0.10062963666E+02 -0.17556554072E+02  0.34235170000E+03  0.34294924161E+03  0.00000000000E+00 0. -1.
         21    1    1    2  503  501 -0.10062963666E+02  0.17556554072E+02  0.43692030158E+02  0.48150693951E+02  0.00000000000E+00 0.  1.
</event>
<event>
 4    1  0.2239940E+005  0.3623805E+02  0.7546771E-02  0.1372062E+00
          2   -1    0    0  502    0  0.00000000000E+00  0.00000000000E+00  0.18385602536E+03  0.18385602536E+03  0.00000000000E+00 0. -1.
         21   -1    0    0  503  502 -0.00000000000E+00 -0.00000000000E+00 -0.14416084191E+04  0.14416084191E+04  0.00000000000E+00 0.  1.
          2    1    1    2  501    0  0.23545527075E+02 -0.27546405511E+02  0.18184016292E+03  0.18541586004E+03  0.00000000000E+00 0. -1.
         21    1    1    2  503  501 -0.23545527075E+02  0.27546405511E+02 -0.14395925566E+04  0.14400485844E+04  0.00000000000E+00 0.  1.
</event>
<event>
 4    1  0.2239940E+005  0.2427890E+02  0.7546771E-02  0.1477034E+00
          2   -1    0    0  502    0  0.00000000000E+00  0.00000000000E+00  0.62952101157E+03  0.62952101157E+03  0.00000000000E+00 0. -1.
         21   -1    0    0  503  502 -0.00000000000E+00 -0.00000000000E+00 -0.30960203531E+01  0.30960203531E+01  0.00000000000E+00 0.  1.
          2    1    1    2  501    0 -0.14055819439E+02 -0.19796431833E+02  0.57739294464E+03  0.57790317294E+03  0.00000000000E+00 0. -1.
         21    1    1    2  503  501  0.14055819439E+02  0.19796431833E+02  0.49032046584E+02  0.54713858991E+02  0.00000000000E+00 0.  1.
</event>
<event>
 4    1  0.2239940E+005  0.3105258E+02  0.7546771E-02  0.1410665E+00
          2   -1    0    0  502    0  0.00000000000E+00  0.00000000000E+00  0.14601319833E+04  0.14601319833E+04  0.00000000000E+00 0. -1.
         21   -1    0    0  503  502 -0.00000000000E+00 -0.00000000000E+00 -0.95434549969E+01  0.95434549969E+01  0.00000000000E+00 0. -1.
          2    1    1    2  501    0 -0.30582793951E+02  0.53810322884E+01  0.14342513395E+04  0.14345874555E+04  0.00000000000E+00 0. -1.
         21    1    1    2  503  501  0.30582793951E+02 -0.53810322884E+01  0.16337188799E+02  0.35087982732E+02  0.00000000000E+00 0. -1.
</event>
<event>
 4    1  0.2239940E+005  0.2265567E+02  0.7546771E-02  0.1496868E+00
          2   -1    0    0  502    0  0.00000000000E+00  0.00000000000E+00  0.48583040976E+02  0.48583040976E+02  0.00000000000E+00 0. -1.
         21   -1    0    0  503  502 -0.00000000000E+00 -0.00000000000E+00 -0.22227013758E+02  0.22227013758E+02  0.00000000000E+00 0.  1.
          2    1    1    2  501    0  0.20794090231E+02  0.89936175029E+01  0.38823523328E+02  0.44950476170E+02  0.00000000000E+00 0. -1.
         21    1    1    2  503  501 -0.20794090231E+02 -0.89936175029E+01 -0.12467496110E+02  0.25859578565E+02  0.00000000000E+00 0.  1.
</event>
<event>
 4    1  0.2239940E+005  0.2627325E+02  0.7546771E-02  0.1455048E+00
          2   -1    0    0  503    0  0.00000000000E+00  0.00000000000E+00  0.81485087204E+03  0.81485087204E+03  0.00000000000E+00 0.  1.
         21   -1    0    0  501  502 -0.00000000000E+00 -0.00000000000E+00 -0.38656418722E+02  0.38656418722E+02  0.00000000000E+00 0.  1.
          2    1    1    2  501    0  0.25010401857E+02  0.80475787007E+01  0.81014896285E+03  0.81057487362E+03  0.00000000000E+00 0.  1.
         21    1    1    2  503  502 -0.25010401857E+02 -0.80475787007E+01 -0.33954509537E+02  0.42932417145E+02  0.00000000000E+00 0.  1.
</event>
<event>
 4    1  0.2239940E+005  0.2535116E+02  0.7546771E-02  0.1464913E+00
          2   -1    0    0  502    0  0.00000000000E+00  0.00000000000E+00  0.19962831602E+04  0.19962831602E+04  0.00000000000E+00 0. -1.
         21   -1    0    0  503  502 -0.00000000000E+00 -0.00000000000E+00 -0.54653345117E+00  0.54653345117E+00  0.00000000000E+00 0.  1.
          2    1    1    2  501    0 -0.52370051924E+01 -0.24804334622E+02  0.16379011374E+04  0.16380973162E+04  0.00000000000E+00 0. -1.
         21    1    1    2  503  501  0.52370051924E+01  0.24804334622E+02  0.35783548937E+03  0.35873237754E+03  0.00000000000E+00 0.  1.
</event>
<event>
 4    1  0.2239940E+005  0.2316349E+02  0.7546771E-02  0.1490455E+00
          2   -1    0    0  502    0  0.00000000000E+00  0.00000000000E+00  0.19749091405E+02  0.19749091405E+02  0.00000000000E+00 0.  1.
         21   -1    0    0  503  502 -0.00000000000E+00 -0.00000000000E+00 -0.30090390055E+02  0.30090390055E+02  0.00000000000E+00 0.  1.
          2    1    1    2  501    0 -0.85007204036E+01 -0.21547273714E+02  0.25951093372E+01  0.23308407160E+02  0.00000000000E+00 0.  1.
         21    1    1    2  503  501  0.85007204036E+01  0.21547273714E+02 -0.12936407987E+02  0.26531074300E+02  0.00000000000E+00 0.  1.
</event>
<event>
 4    1  0.2239940E+005  0.2193876E+02  0.7546771E-02  0.1506272E+00
          2   -1    0    0  503    0  0.00000000000E+00  0.00000000000E+00  0.13472201824E+04  0.13472201824E+04  0.00000000000E+00 0.  1.
         21   -1    0    0  501  502 -0.00000000000E+00 -0.00000000000E+00 -0.32126667761E+01  0.32126667761E+01  0.00000000000E+00 0.  1.
          2    1    1    2  501    0 -0.56041581545E+01 -0.21210910289E+02  0.13085706827E+04  0.13087545763E+04  0.00000000000E+00 0.  1.
         21    1    1    2  503  502  0.56041581545E+01  0.21210910289E+02  0.35436832902E+02  0.41678272877E+02  0.00000000000E+00 0.  1.
</event>
<event>
 4    1  0.2239940E+005  0.3609199E+02  0.7546771E-02  0.1373045E+00
          2   -1    0    0  503    0  0.00000000000E+00  0.00000000000E+00  0.93318126892E+03  0.93318126892E+03  0.00000000000E+00 0. -1.
         21   -1    0    0  501  502 -0.00000000000E+00 -0.00000000000E+00 -0.28955373262E+03  0.28955373262E+03  0.00000000000E+00 0.  1.
          2    1    1    2  501    0 -0.33286874098E+02 -0.13950468766E+02  0.93170582353E+03  0.93240461881E+03  0.00000000000E+00 0. -1.
         21    1    1    2  503  502  0.33286874098E+02  0.13950468766E+02 -0.28807828723E+03  0.29033038273E+03  0.00000000000E+00 0.  1.
</event>
<event>
 4    1  0.2239940E+005  0.2087560E+02  0.7546771E-02  0.1521048E+00
          2   -1    0    0  503    0  0.00000000000E+00  0.00000000000E+00  0.16291896405E+02  0.16291896405E+02  0.00000000000E+00 0.  1.
         21   -1    0    0  501  502 -0.00000000000E+00 -0.00000000000E+00 -0.28866577235E+02  0.28866577235E+02  0.00000000000E+00 0.  1.
          2    1    1    2  501    0 -0.16597454691E+02  0.12661561455E+02 -0.17173577735E+00  0.20876305561E+02  0.00000000000E+00 0.  1.
         21    1    1    2  503  502  0.16597454691E+02 -0.12661561455E+02 -0.12402945053E+02  0.24282168080E+02  0.00000000000E+00 0.  1.
</event>
<event>
 4    1  0.2239940E+005  0.3338929E+02  0.7546771E-02  0.1392255E+00
          2   -1    0    0  502    0  0.00000000000E+00  0.00000000000E+00  0.67418286213E+02  0.67418286213E+02  0.00000000000E+00 0. -1.
         21   -1    0    0  503  502 -0.00000000000E+00 -0.00000000000E+00 -0.13466853179E+03  0.13466853179E+03  0.00000000000E+00 0.  1.
          2    1    1    2  501    0  0.27863220171E+02 -0.18397987965E+02  0.61011501618E+02  0.69550329468E+02  0.00000000000E+00 0. -1.
         21    1    1    2  503  501 -0.27863220171E+02  0.18397987965E+02 -0.12826174720E+03  0.13253648854E+03  0.00000000000E+00 0.  1.
</event>
<event>
 4    1  0.2239940E+005  0.2894337E+02  0.7546771E-02  0.1429006E+00
          2   -1    0    0  503    0  0.00000000000E+00  0.00000000000E+00  0.40413218632E+03  0.40413218632E+03  0.00000000000E+00 0.  1.
         21   -1    0    0  501  502 -0.00000000000E+00 -0.00000000000E+00 -0.52681246748E+01  0.52681246748E+01  0.00000000000E+00 0.  1.
          2    1    1    2  501    0  0.27795737081E+02  0.80694160792E+01  0.35885175397E+03  0.36001708266E+03  0.00000000000E+00 0.  1.
         21    1    1    2  503  502 -0.27795737081E+02 -0.80694160792E+01  0.40012307672E+02  0.49383228337E+02  0.00000000000E+00 0.  1.
</event>
<event>
 4    1  0.2239940E+005  0.2115132E+02  0.7546771E-02  0.1517115E+00
          2   -1    0    0  502    0  0.00000000000E+00  0.00000000000E+00  0.49447377026E+03  0.49447377026E+03  0.00000000000E+00 0.  1.
         21   -1    0    0  503  502 -0.00000000000E+00 -0.00000000000E+00 -0.32399791959E+02  0.32399791959E+02  0.00000000000E+00 0. -1.
          2    1    1    2  501    0  0.14741944879E+02 -0.15167511282E+02  0.49076952247E+03  0.49122510372E+03  0.00000000000E+00 0.  1.
         21    1    1    2  503  501 -0.14741944879E+02  0.15167511282E+02 -0.28695544177E+02  0.35648458493E+02  0.00000000000E+00 0. -1.
</event>
<event>
 4    1  0.2239940E+005  0.2001519E+02  0.7546771E-02  0.1533803E+00
          2   -1    0    0  502    0  0.00000000000E+00  0.00000000000E+00  0.54155022599E+03  0.54155022599E+03  0.00000000000E+00 0. -1.
         21   -1    0    0  503  502 -0.00000000000E+00 -0.00000000000E+00 -0.47542639125E+01  0.47542639125E+01  0.00000000000E+00 0. -1.
          2    1    1    2  501    0  0.17062332158E+02  0.10463498659E+02  0.51940160630E+03  0.51978710701E+03  0.00000000000E+00 0. -1.
         21    1    1    2  503  501 -0.17062332158E+02 -0.10463498659E+02  0.17394355783E+02  0.26517382902E+02  0.00000000000E+00 0. -1.
</event>
<event>
 4    1  0.2239940E+005  0.2065581E+02  0.7546771E-02  0.1524236E+00
          2   -1    0    0  502    0  0.00000000000E+00  0.00000000000E+00  0.86070240640E+03  0.86070240640E+03  0.00000000000E+00 0.  1.
         21   -1    0    0  503  502 -0.00000000000E+00 -0.00000000000E+00 -0.15806606673E+01  0.15806606673E+01  0.00000000000E+00 0.  1.
          2    1    1    2  501    0 -0.41597284330E+01 -0.20232624529E+02  0.78675530997E+03  0.78702641646E+03  0.00000000000E+00 0.  1.
         21    1    1    2  503  501  0.41597284330E+01  0.20232624529E+02  0.72366435758E+02  0.75256650605E+02  0.00000000000E+00 0.  1.
</event>
<event>
 4    1  0.2298456E+005  0.2010050E+02  0.7546771E-02  0.1532505E+00
          2   -1    0    0  502    0  0.00000000000E+00  0.00000000000E+00  0.73347764967E+03  0.73347764967E+03  0.00000000000E+00 0.  1.
         21   -1    0    0  503  502 -0.00000000000E+00 -0.00000000000E+00 -0.33854730364E+02  0.33854730364E+02  0.00000000000E+00 0.  1.
          2    1    1    2  501    0 -0.19881027427E+02 -0.29622140661E+01  0.73034358239E+03  0.73062013270E+03  0.00000000000E+00 0.  1.
         21    1    1    2  503  501  0.19881027427E+02  0.29622140661E+01 -0.30720663087E+02  0.36712247333E+02  0.00000000000E+00 0.  1.
</event>
<event>
 4    1  0.2239940E+005  0.2457082E+02  0.7546771E-02  0.1473662E+00
          2   -1    0    0  503    0  0.00000000000E+00  0.00000000000E+00  0.22240312891E+03  0.22240312891E+03  0.00000000000E+00 0. -1.
         21   -1    0    0  501  502 -0.00000000000E+00 -0.00000000000E+00 -0.13970110126E+03  0.13970110126E+03  0.00000000000E+00 0. -1.
          2    1    1    2  501    0  0.16411084367E+02 -0.18286645974E+02  0.22063547444E+03  0.22199940921E+03  0.00000000000E+00 0. -1.
         21    1    1    2  503  502 -0.16411084367E+02  0.18286645974E+02 -0.13793344679E+03  0.14010482095E+03  0.00000000000E+00 0. -1.
</event>
<event>
 4    1  0.2239940E+005  0.3107608E+02  0.7546771E-02  0.1410470E+00
          2   -1    0    0  502    0  0.00000000000E+00  0.00000000000E+00  0.70904434751E+03  0.70904434751E+03  0.00000000000E+00 0.  1.
         21   -1    0    0  503  502 -0.00000000000E+00 -0.00000000000E+00 -0.25171006968E+01  0.25171006968E+01  0.00000000000E+00 0. -1.
          2    1    1    2  501    0  0.21832732553E+02 -0.22114577190E+02  0.59427685928E+03  0.59508882380E+03  0.00000000000E+00 0.  1.
         21    1    1    2  503  501 -0.21832732553E+02  0.22114577190E+02  0.11225038754E+03  0.11647262441E+03  0.00000000000E+00 0. -1.
</event>
<event>
 4    1  0.2239940E+005  0.2562880E+02  0.7546771E-02  0.1461890E+00
          2   -1    0    0  502    0  0.00000000000E+00  0.00000000000E+00  0.11653189023E+02  0.11653189023E+02  0.00000000000E+00 0.  1.
         21   -1    0    0  503  502 -0.00000000000E+00 -0.00000000000E+00 -0.19871902508E+03  0.19871902508E+03  0.00000000000E+00 0. -1.
          2    1    1    2  501    0 -0.21921505144E+02  0.13277163717E+02 -0.45056430480E+01  0.26021842430E+02  0.00000000000E+00 0.  1.
         21    1    1    2  503  501  0.21921505144E+02 -0.13277163717E+02 -0.18256019301E+03  0.18435037167E+03  0.00000000000E+00 0. -1.
</event>
<event>
 4    1  0.2239940E+005  0.2449885E+02  0.7546771E-02  0.1474488E+00
          2   -1    0    0  502    0  0.00000000000E+00  0.00000000000E+00  0.17252245987E+03  0.17252245987E+03  0.00000000000E+00 0. -1.
         21   -1    0    0  503  502 -0.00000000000E+00 -0.00000000000E+00 -0.17285580095E+03  0.17285580095E+03  0.00000000000E+00 0. -1.
          2    1    1    2  501    0  0.24481228113E+02  0.92916036185E+00  0.17077583832E+03  0.17252414562E+03  0.00000000000E+00 0. -1.
         21    1    1    2  503  501 -0.24481228113E+02 -0.92916036185E+00 -0.17110917939E+03  0.17285411520E+03  0.00000000000E+00 0. -1.
</event>
<event>
 4    1  0.2239940E+005  0.3660765E+02  0.7546771E-02  0.1369600E+00
          2   -1    0    0  503    0  0.00000000000E+00  0.00000000000E+00  0.14019839396E+02  0.14019839396E+02  0.00000000000E+00 0. -1.
         21   -1    0    0  501  502 -0.00000000000E+00 -0.00000000000E+00 -0.10454358797E+03  0.10454358797E+03  0.00000000000E+00 0. -1.
          2    1    1    2  501    0  0.16577021255E+02  0.32639280703E+02 -0.62613219915E+02  0.72529549748E+02  0.00000000000E+00 0. -1.
         21    1    1    2  503  502 -0.16577021255E+02 -0.32639280703E+02 -0.27910528660E+02  0.46033877619E+02  0.00000000000E+00 0. -1.
</event>
<event>
 4    1  0.2239940E+005  0.3310358E+02  0.7546771E-02  0.1394409E+00
          2   -1    0    0  502    0  0.00000000000E+00  0.00000000000E+00  0.74981924790E+03  0.74981924790E+03  0.00000000000E+00 0. -1.
         21   -1    0    0  503  502 -0.00000000000E+00 -0.00000000000E+00 -0.40738040665E+02  0.40738040665E+02  0.00000000000E+00 0.  1.
          2    1    1    2  501    0 -0.28086995227E+02  0.17520488784E+02  0.74266415875E+03  0.74340157352E+03  0.00000000000E+00 0. -1.
         21    1    1    2  503  501  0.28086995227E+02 -0.17520488784E+02 -0.33582951518E+02  0.47155715038E+02  0.00000000000E+00 0.  1.
</event>
<event>
 4    1  0.2239940E+005  0.2255786E+02  0.7546771E-02  0.1498126E+00
          2   -1    0    0  503    0  0.00000000000E+00  0.00000000000E+00  0.92491524789E+03  0.92491524789E+03  0.00000000000E+00 0. -1.
         21   -1    0    0  501  502 -0.00000000000E+00 -0.00000000000E+00 -0.55183500529E+00  0.55183500529E+00  0.00000000000E+00 0.  1.
          2    1    1    2  501    0  0.59471341992E+01 -0.21759797038E+02  0.43673567623E+03  0.43731785702E+03  0.00000000000E+00 0. -1.
         21    1    1    2  503  502 -0.59471341992E+01  0.21759797038E+02  0.48762773665E+03  0.48814922588E+03  0.00000000000E+00 0.  1.
</event>
<event>
 4    1  0.2239940E+005  0.2865290E+02  0.7546771E-02  0.1431675E+00
          2   -1    0    0  503    0  0.00000000000E+00  0.00000000000E+00  0.21548296098E+04  0.21548296098E+04  0.00000000000E+00 0.  1.
         21   -1    0    0  501  502 -0.00000000000E+00 -0.00000000000E+00 -0.19099641024E+01  0.19099641024E+01  0.00000000000E+00 0.  1.
          2    1    1    2  501    0  0.26857710450E+02  0.99825740081E+01  0.20412966345E+04  0.20414977194E+04  0.00000000000E+00 0.  1.
         21    1    1    2  503  502 -0.26857710450E+02 -0.99825740081E+01  0.11162301117E+03  0.11524185445E+03  0.00000000000E+00 0.  1.
</event>
<event>
 4    1  0.2239940E+005  0.2378379E+02  0.7546771E-02  0.1482884E+00
          2   -1    0    0  502    0  0.00000000000E+00  0.00000000000E+00  0.41291061089E+02  0.41291061089E+02  0.00000000000E+00 0.  1.
         21   -1    0    0  503  502 -0.00000000000E+00 -0.00000000000E+00 -0.33428716648E+03  0.33428716648E+03  0.00000000000E+00 0.  1.
          2    1    1    2  501    0  0.14189644847E+02 -0.19087240353E+02  0.37402881256E+02  0.44324308133E+02  0.00000000000E+00 0.  1.
         21    1    1    2  503  501 -0.14189644847E+02  0.19087240353E+02 -0.33039898665E+03  0.33125391944E+03  0.00000000000E+00 0.  1.
</event>
<event>
 4    1  0.2239940E+005  0.3129343E+02  0.7546771E-02  0.1408680E+00
          2   -1    0    0  502    0  0.00000000000E+00  0.00000000000E+00  0.67294717809E+03  0.67294717809E+03  0.00000000000E+00 0.  1.
         21   -1    0    0  503  502 -0.00000000000E+00 -0.00000000000E+00 -0.15430708491E+01  0.15430708491E+01  0.00000000000E+00 0. -1.
          2    1    1    2  501    0  0.24654280201E+02 -0.19272912147E+02  0.41617563680E+03  0.41735049939E+03  0.00000000000E+00 0.  1.
         21    1    1    2  503  501 -0.24654280201E+02  0.19272912147E+02  0.25522847044E+03  0.25713974955E+03  0.00000000000E+00 0. -1.
</event>
<event>
 4    1  0.2239940E+005  0.2037011E+02  0.7546771E-02  0.1528451E+00
          2   -1    0    0  502    0  0.00000000000E+00  0.00000000000E+00  0.23185751864E+01  0.23185751864E+01  0.00000000000E+00 0.  1.
         21   -1    0    0  503  502 -0.00000000000E+00 -0.00000000000E+00 -0.56984762807E+03  0.56984762807E+03  0.00000000000E+00 0. -1.
          2    1    1    2  501    0  0.18635832225E+02  0.82247898804E+01 -0.46825504021E+02  0.51064363681E+02  0.00000000000E+00 0.  1.
         21    1    1    2  503  501 -0.18635832225E+02 -0.82247898804E+01 -0.52070354887E+03  0.52110183958E+03  0.00000000000E+00 0. -1.
</event>
<event>
 4    1  0.2239940E+005  0.2215992E+02  0.7546771E-02  0.1503325E+00
          2   -1    0    0  502    0  0.00000000000E+00  0.00000000000E+00  0.63961947304E+03  0.63961947304E+03  0.00000000000E+00 0. -1.
         21   -1    0    0  503  502 -0.00000000000E+00 -0.00000000000E+00 -0.16694358278E+01  0.16694358278E+01  0.00000000000E+00 0. -1.
          2    1    1    2  501    0 -0.18039326148E+02  0.12870312925E+02  0.55462564666E+03  0.55506816714E+03  0.00000000000E+00 0. -1.
         21    1    1    2  503  501  0.18039326148E+02 -0.12870312925E+02  0.83324390555E+02  0.86220741727E+02  0.00000000000E+00 0. -1.
</event>
<event>
 4    1  0.2239940E+005  0.3320497E+02  0.7546771E-02  0.1393642E+00
          2   -1    0    0  502    0  0.00000000000E+00  0.00000000000E+00  0.37910608021E+03  0.37910608021E+03  0.00000000000E+00 0.  1.
         21   -1    0    0  503  502 -0.00000000000E+00 -0.00000000000E+00 -0.10837078285E+04  0.10837078285E+04  0.00000000000E+00 0.  1.
          2    1    1    2  501    0  0.12651188099E+02 -0.30700442103E+02  0.37812398440E+03  0.37957913178E+03  0.00000000000E+00 0.  1.
         21    1    1    2  503  501 -0.12651188099E+02  0.30700442103E+02 -0.10827257327E+04  0.10832347769E+04  0.00000000000E+00 0.  1.
</event>
<event>
 4    1  0.2239940E+005  0.2435818E+02  0.7546771E-02  0.1476113E+00
          2   -1    0    0  502    0  0.00000000000E+00  0.00000000000E+00  0.38735483651E+03  0.38735483651E+03  0.00000000000E+00 0. -1.
         21   -1    0    0  503  502 -0.00000000000E+00 -0.00000000000E+00 -0.35949642128E+02  0.35949642128E+02  0.00000000000E+00 0. -1.
          2    1    1    2  501    0  0.23348655875E+01  0.24246012397E+02  0.38279677069E+03  0.38357096914E+03  0.00000000000E+00 0. -1.
         21    1    1    2  503  501 -0.23348655875E+01 -0.24246012397E+02 -0.31391576305E+02  0.39733509503E+02  0.00000000000E+00 0. -1.
</event>
<event>
 4    1  0.2239940E+005  0.2213001E+02  0.7546771E-02  0.1503721E+00
          2   -1    0    0  503    0  0.00000000000E+00  0.00000000000E+00  0.10465701945E+04  0.10465701945E+04  0.00000000000E+00 0. -1.
         21   -1    0    0  501  502 -0.00000000000E+00 -0.00000000000E+00 -0.17890821945E+02  0.17890821945E+02  0.00000000000E+00 0.  1.
          2    1    1    2  501    0 -0.21957972535E+02  0.27540193246E+01  0.10395636762E+04  0.10397991989E+04  0.00000000000E+00 0. -1.
         21    1    1    2  503  502  0.21957972535E+02 -0.27540193246E+01 -0.10884303617E+02  0.24661817563E+02  0.00000000000E+00 0.  1.
</event>
<event>
 4    1  0.2239940E+005  0.2057145E+02  0.7546771E-02  0.1525472E+00
          2   -1    0    0  503    0  0.00000000000E+00  0.00000000000E+00  0.10334801657E+04  0.10334801657E+04  0.00000000000E+00 0.  1.
         21   -1    0    0  501  502 -0.00000000000E+00 -0.00000000000E+00 -0.34751139806E+01  0.34751139806E+01  0.00000000000E+00 0. -1.
          2    1    1    2  501    0  0.80445188714E+01 -0.18933313163E+02  0.10019767633E+04  0.10021879159E+04  0.00000000000E+00 0.  1.
         21    1    1    2  503  502 -0.80445188714E+01  0.18933313163E+02  0.28028288446E+02  0.34767363783E+02  0.00000000000E+00 0. -1.
</event>
<event>
 4    1  0.2239940E+005  0.3908486E+02  0.7546771E-02  0.1353934E+00
          2   -1    0    0  502    0  0.00000000000E+00  0.00000000000E+00  0.20822525189E+01  0.20822525189E+01  0.00000000000E+00 0.  1.
         21   -1    0    0  503  502 -0.00000000000E+00 -0.00000000000E+00 -0.95033644540E+03  0.95033644540E+03  0.00000000000E+00 0. -1.
          2    1    1    2  501    0 -0.20982944096E+02  0.32974872551E+02 -0.24673050443E+03  0.24980706150E+03  0.00000000000E+00 0.  1.
         21    1    1    2  503  501  0.20982944096E+02 -0.32974872551E+02 -0.70152368846E+03  0.70261163642E+03  0.00000000000E+00 0. -1.
</event>
<event>
 4    1  0.2239940E+005  0.6237379E+02  0.7546771E-02  0.1251974E+00
          2   -1    0    0  503    0  0.00000000000E+00  0.00000000000E+00  0.69538108936E+03  0.69538108936E+03  0.00000000000E+00 0.  1.
         21   -1    0    0  501  502 -0.00000000000E+00 -0.00000000000E+00 -0.12067364577E+03  0.12067364577E+03  0.00000000000E+00 0. -1.
          2    1    1    2  501    0  0.55794207993E+02 -0.27883607311E+02  0.68581021064E+03  0.68864078751E+03  0.00000000000E+00 0.  1.
         21    1    1    2  503  502 -0.55794207993E+02  0.27883607311E+02 -0.11110276705E+03  0.12741394762E+03  0.00000000000E+00 0. -1.
</event>
<event>
 4    1  0.2239940E+005  0.2156358E+02  0.7546771E-02  0.1511368E+00
          2   -1    0    0  503    0  0.00000000000E+00  0.00000000000E+00  0.72146318742E+03  0.72146318742E+03  0.00000000000E+00 0. -1.
         21   -1    0    0  501  502 -0.00000000000E+00 -0.00000000000E+00 -0.65783466125E+00  0.65783466125E+00  0.00000000000E+00 0. -1.
          2    1    1    2  501    0  0.18120168998E+02 -0.11689633267E+02  0.41179510399E+03  0.41235930416E+03  0.00000000000E+00 0. -1.
         21    1    1    2  503  502 -0.18120168998E+02  0.11689633267E+02  0.30901024876E+03  0.30976171792E+03  0.00000000000E+00 0. -1.
</event>
<event>
 4    1  0.2239940E+005  0.2053976E+02  0.7546771E-02  0.1525938E+00
          2   -1    0    0  503    0  0.00000000000E+00  0.00000000000E+00  0.97980511054E+02  0.97980511054E+02  0.00000000000E+00 0.  1.
         21   -1    0    0  501  502 -0.00000000000E+00 -0.00000000000E+00 -0.43105702818E+01  0.43105702818E+01  0.00000000000E+00 0.  1.
          2    1    1    2  501    0  0.96383970297E+01  0.18137887589E+02  0.45128420094E+02  0.49582819239E+02  0.00000000000E+00 0.  1.
         21    1    1    2  503  502 -0.96383970297E+01 -0.18137887589E+02  0.48541520678E+02  0.52708262097E+02  0.00000000000E+00 0.  1.
</event>
<event>
 4    1  0.2239940E+005  0.2306013E+02  0.7546771E-02  0.1491745E+00
          2   -1    0    0  502    0  0.00000000000E+00  0.00000000000E+00  0.17505839180E+04  0.17505839180E+04  0.00000000000E+00 0.  1.
         21   -1    0    0  503  502 -0.00000000000E+00 -0.00000000000E+00 -0.37753598608E+00  0.37753598608E+00  0.00000000000E+00 0.  1.
          2    1    1    2  501    0  0.23005216577E+02  0.15904035199E+01  0.12620976471E+04  0.12623082984E+04  0.00000000000E+00 0.  1.
         21    1    1    2  503  501 -0.23005216577E+02 -0.15904035199E+01  0.48810873492E+03  0.48865315560E+03  0.00000000000E+00 0.  1.
</event>
<event>
 4    1  0.2239940E+005  0.2553515E+02  0.7546771E-02  0.1462905E+00
          2   -1    0    0  502    0  0.00000000000E+00  0.00000000000E+00  0.30593525785E+02  0.30593525785E+02  0.00000000000E+00 0.  1.
         21   -1    0    0  503  502 -0.00000000000E+00 -0.00000000000E+00 -0.41013155335E+02  0.41013155335E+02  0.00000000000E+00 0. -1.
          2    1    1    2  501    0 -0.23523843352E+02  0.99334070991E+01  0.19604103861E+02  0.32192618266E+02  0.00000000000E+00 0.  1.
         21    1    1    2  503  501  0.23523843352E+02 -0.99334070991E+01 -0.30023733412E+02  0.39414062853E+02  0.00000000000E+00 0. -1.
</event>
<event>
 4    1  0.2239940E+005  0.3084010E+02  0.7546771E-02  0.1412434E+00
          2   -1    0    0  502    0  0.00000000000E+00  0.00000000000E+00  0.15314181932E+04  0.15314181932E+04  0.00000000000E+00 0. -1.
         21   -1    0    0  503  502 -0.00000000000E+00 -0.00000000000E+00 -0.36997777563E+01  0.36997777563E+01  0.00000000000E+00 0.  1.
          2    1    1    2  501    0  0.19014490695E+02  0.24280875143E+02  0.14640372023E+04  0.14643619913E+04  0.00000000000E+00 0. -1.
         21    1    1    2  503  501 -0.19014490695E+02 -0.24280875143E+02  0.63681213142E+02  0.70755979686E+02  0.00000000000E+00 0.  1.
</event>
<event>
 4    1  0.2239940E+005  0.3574579E+02  0.7546771E-02  0.1375395E+00
          2   -1    0    0  503    0  0.00000000000E+00  0.00000000000E+00  0.96314269354E+02  0.96314269354E+02  0.00000000000E+00 0.  1.
         21   -1    0    0  501  502 -0.00000000000E+00 -0.00000000000E+00 -0.97418621117E+02  0.97418621117E+02  0.00000000000E+00 0. -1.
          2    1    1    2  501    0  0.32459808611E+02  0.14970710058E+02  0.89477293496E+02  0.96353242738E+02  0.00000000000E+00 0.  1.
         21    1    1    2  503  502 -0.32459808611E+02 -0.14970710058E+02 -0.90581645259E+02  0.97379647733E+02  0.00000000000E+00 0. -1.
</event>
<event>
 4    1  0.2239940E+005  0.2689610E+02  0.7546771E-02  0.1448655E+00
          2   -1    0    0  503    0  0.00000000000E+00  0.00000000000E+00  0.59353535165E+03  0.59353535165E+03  0.00000000000E+00 0.  1.
         21   -1    0    0  501  502 -0.00000000000E+00 -0.00000000000E+00 -0.40546375641E+01  0.40546375641E+01  0.00000000000E+00 0.  1.
          2    1    1    2  501    0  0.24865368513E+02 -0.10252492655E+02  0.54462413754E+03  0.54528786099E+03  0.00000000000E+00 0.  1.
         21    1    1    2  503  502 -0.24865368513E+02  0.10252492655E+02  0.44856576551E+02  0.52302128225E+02  0.00000000000E+00 0.  1.
</event>
<event>
 4    1  0.2239940E+005  0.2022882E+02  0.7546771E-02  0.1530566E+00
          2   -1    0    0  503    0  0.00000000000E+00  0.00000000000E+00  0.58969933182E+02  0.58969933182E+02  0.00000000000E+00 0. -1.
         21   -1    0    0  501  502 -0.00000000000E+00 -0.00000000000E+00 -0.23870792039E+02  0.23870792039E+02  0.00000000000E+00 0. -1.
          2    1    1    2  501    0  0.19965975334E+02  0.32504051662E+01  0.52433799742E+02  0.56200610852E+02  0.00000000000E+00 0. -1.
         21    1    1    2  503  502 -0.19965975334E+02 -0.32504051662E+01 -0.17334658599E+02  0.26640114368E+02  0.00000000000E+00 0. -1.
</event>
<event>
 4    1  0.2239940E+005  0.2900671E+02  0.7546771E-02  0.1428429E+00
          2   -1    0    0  503    0  0.00000000000E+00  0.00000000000E+00  0.42298074020E+03  0.42298074020E+03  0.00000000000E+00 0. -1.
         21   -1    0    0  501  502 -0.00000000000E+00 -0.00000000000E+00 -0.38351607764E+03  0.38351607764E+03  0.00000000000E+00 0. -1.
          2    1    1    2  501    0 -0.69403325156E+01 -0.28164180473E+02  0.42193361235E+03  0.42292950064E+03  0.00000000000E+00 0. -1.
         21    1    1    2  503  502  0.69403325156E+01  0.28164180473E+02 -0.38246894978E+03  0.38356731720E+03  0.00000000000E+00 0. -1.
</event>
<event>
 4    1  0.2239940E+005  0.2311758E+02  0.7546771E-02  0.1491027E+00
          2   -1    0    0  502    0  0.00000000000E+00  0.00000000000E+00  0.95608901560E+03  0.95608901560E+03  0.00000000000E+00 0. -1.
         21   -1    0    0  503  502 -0.00000000000E+00 -0.00000000000E+00 -0.40981069243E+01  0.40981069243E+01  0.00000000000E+00 0. -1.
          2    1    1    2  501    0  0.10273989372E+02  0.20709124387E+02  0.92214769100E+03  0.92243741614E+03  0.00000000000E+00 0. -1.
         21    1    1    2  503  501 -0.10273989372E+02 -0.20709124387E+02  0.29843217684E+02  0.37749706386E+02  0.00000000000E+00 0. -1.
</event>
<event>
 4    1  0.2239940E+005  0.2079769E+02  0.7546771E-02  0.1522173E+00
          2   -1    0    0  503    0  0.00000000000E+00  0.00000000000E+00  0.12743799749E+03  0.12743799749E+03  0.00000000000E+00 0.  1.
         21   -1    0    0  501  502 -0.00000000000E+00 -0.00000000000E+00 -0.11161460476E+02  0.11161460476E+02  0.00000000000E+00 0. -1.
          2    1    1    2  501    0  0.10391513467E+02 -0.18015553506E+02  0.11594871810E+03  0.11779918908E+03  0.00000000000E+00 0.  1.
         21    1    1    2  503  502 -0.10391513467E+02  0.18015553506E+02  0.32781891394E+00  0.20800268880E+02  0.00000000000E+00 0. -1.
</event>
<event>
 4    1  0.2239940E+005  0.3253675E+02  0.7546771E-02  0.1398760E+00
          2   -1    0    0  503    0  0.00000000000E+00  0.00000000000E+00  0.17370286199E+04  0.17370286199E+04  0.00000000000E+00 0. -1.
         21   -1    0    0  501  502 -0.00000000000E+00 -0.00000000000E+00 -0.26281952252E+01  0.26281952252E+01  0.00000000000E+00 0. -1.
          2    1    1    2  501    0  0.88290004024E+01  0.31315954692E+02  0.16295337498E+04  0.16298585467E+04  0.00000000000E+00 0. -1.
         21    1    1    2  503  502 -0.88290004024E+01 -0.31315954692E+02  0.10486667486E+03  0.10979826848E+03  0.00000000000E+00 0. -1.
</event>
<event>
 4    1  0.2239940E+005  0.2942543E+02  0.7546771E-02  0.1424656E+00
          2   -1    0    0  503    0  0.00000000000E+00  0.00000000000E+00  0.29297758716E+03  0.29297758716E+03  0.00000000000E+00 0.  1.
         21   -1    0    0  501  502 -0.00000000000E+00 -0.00000000000E+00 -0.70274174133E+01  0.70274174133E+01  0.00000000000E+00 0.  1.
          2    1    1    2  501    0 -0.26732696986E+02 -0.12297118034E+02  0.25715960171E+03  0.25883762661E+03  0.00000000000E+00 0.  1.
         21    1    1    2  503  502  0.26732696986E+02  0.12297118034E+02  0.28790568037E+02  0.41167377959E+02  0.00000000000E+00 0.  1.
</event>
<event>
 4    1  0.2886888E+005  0.3158806E+02  0.7546771E-02  0.1406280E+00
          2   -1    0    0  502    0  0.00000000000E+00  0.00000000000E+00  0.11518532433E+04  0.11518532433E+04  0.00000000000E+00 0.  1.
         21   -1    0    0  503  502 -0.00000000000E+00 -0.00000000000E+00 -0.27573523368E+03  0.27573523368E+03  0.00000000000E+00 0. -1.
          2    1    1    2  501    0  0.30796204162E+02 -0.70284880834E+01  0.11507311185E+04  0.11511645898E+04  0.00000000000E+00 0.  1.
         21    1    1    2  503  501 -0.30796204162E+02  0.70284880834E+01 -0.27461310885E+03  0.27642388715E+03  0.00000000000E+00 0. -1.
</event>
<event>
 4    1  0.2239940E+005  0.2166159E+02  0.7546771E-02  0.1510025E+00
          2   -1    0    0  503    0  0.00000000000E+00  0.00000000000E+00  0.66588602578E+03  0.66588602578E+03  0.00000000000E+00 0. -1.
         21   -1    0    0  501  502 -0.00000000000E+00 -0.00000000000E+00 -0.16026993007E+03  0.16026993007E+03  0.00000000000E+00 0. -1.
          2    1    1    2  501    0 -0.13519917392E+02 -0.16924426987E+02  0.66497693168E+03  0.66532965067E+03  0.00000000000E+00 0. -1.
         21    1    1    2  503  502  0.13519917392E+02  0.16924426987E+02 -0.15936083597E+03  0.16082630518E+03  0.00000000000E+00 0. -1.
</event>
<event>
 4    1  0.2239940E+005  0.2092991E+02  0.7546771E-02  0.1520268E+00
          2   -1    0    0  503    0  0.00000000000E+00  0.00000000000E+00  0.36717344398E+02  0.36717344398E+02  0.00000000000E+00 0. -1.
         21   -1    0    0  501  502 -0.00000000000E+00 -0.00000000000E+00 -0.11479436748E+03  0.11479436748E+03  0.00000000000E+00 0.  1.
          2    1    1    2  501    0 -0.19315505622E+02 -0.80605458109E+01  0.32672700643E+02  0.38801630424E+02  0.00000000000E+00 0. -1.
         21    1    1    2  503  502  0.19315505622E+02  0.80605458109E+01 -0.11074972372E+03  0.11271008145E+03  0.00000000000E+00 0.  1.
</event>
<event>
 4    1  0.2239940E+005  0.2136094E+02  0.7546771E-02  0.1514174E+00
          2   -1    0    0  503    0  0.00000000000E+00  0.00000000000E+00  0.17702137634E+02  0.17702137634E+02  0.00000000000E+00 0. -1.
         21   -1    0    0  501  502 -0.00000000000E+00 -0.00000000000E+00 -0.43209180022E+02  0.43209180022E+02  0.00000000000E+00 0. -1.
          2    1    1    2  501    0  0.10314229942E+02 -0.18705780180E+02  0.65914826467E+01  0.22354802502E+02  0.00000000000E+00 0. -1.
         21    1    1    2  503  502 -0.10314229942E+02  0.18705780180E+02 -0.32098525034E+02  0.38556515154E+02  0.00000000000E+00 0. -1.
</event>
<event>
 4    1  0.2239940E+005  0.3189674E+02  0.7546771E-02  0.1403800E+00
          2   -1    0    0  503    0  0.00000000000E+00  0.00000000000E+00  0.16352783269E+03  0.16352783269E+03  0.00000000000E+00 0.  1.
         21   -1    0    0  501  502 -0.00000000000E+00 -0.00000000000E+00 -0.42883465778E+02  0.42883465778E+02  0.00000000000E+00 0.  1.
          2    1    1    2  501    0 -0.31884606093E+02 -0.87985822438E+00  0.15574800421E+03  0.15898063741E+03  0.00000000000E+00 0.  1.
         21    1    1    2  503  502  0.31884606093E+02  0.87985822438E+00 -0.35103637302E+02  0.47430661054E+02  0.00000000000E+00 0.  1.
</event>
<event>
 4    1  0.2239940E+005  0.3025763E+02  0.7546771E-02  0.1417371E+00
          2   -1    0    0  503    0  0.00000000000E+00  0.00000000000E+00  0.26206033733E+02  0.26206033733E+02  0.00000000000E+00 0. -1.
         21   -1    0    0  501  502 -0.00000000000E+00 -0.00000000000E+00 -0.37816372368E+02  0.37816372368E+02  0.00000000000E+00 0.  1.
          2    1    1    2  501    0 -0.13468321727E+02 -0.27094807917E+02  0.30299872605E+01  0.30408964615E+02  0.00000000000E+00 0. -1.
         21    1    1    2  503  502  0.13468321727E+02  0.27094807917E+02 -0.14640325895E+02  0.33613441485E+02  0.00000000000E+00 0.  1.
</event>
<event>
 4    1  0.3213462E+005  0.2327891E+02  0.7546771E-02  0.1489025E+00
          2   -1    0    0  503    0  0.00000000000E+00  0.00000000000E+00  0.92346750196E+03  0.92346750196E+03  0.00000000000E+00 0. -1.
         21   -1    0    0  501  502 -0.00000000000E+00 -0.00000000000E+00 -0.51268241036E+03  0.51268241036E+03  0.00000000000E+00 0. -1.
          2    1    1    2  501    0 -0.21433565733E+02  0.90835057175E+01  0.92305642844E+03  0.92334992170E+03  0.00000000000E+00 0. -1.
         21    1    1    2  503  502  0.21433565733E+02 -0.90835057175E+01 -0.51227133685E+03  0.51279999062E+03  0.00000000000E+00 0. -1.
</event>
<event>
 4    1  0.2239940E+005  0.2685240E+02  0.7546771E-02  0.1449096E+00
          2   -1    0    0  502    0  0.00000000000E+00  0.00000000000E+00  0.98613365577E+01  0.98613365577E+01  0.00000000000E+00 0.  1.
         21   -1    0    0  503  502 -0.00000000000E+00 -0.00000000000E+00 -0.14092546278E+03  0.14092546278E+03  0.00000000000E+00 0.  1.
          2    1    1    2  501    0  0.23522820655E+02  0.12951002915E+02 -0.13235400511E+02  0.29937057216E+02  0.00000000000E+00 0.  1.
         21    1    1    2  503  501 -0.23522820655E+02 -0.12951002915E+02 -0.11782872571E+03  0.12084974212E+03  0.00000000000E+00 0.  1.
</event>
<event>
 4    1  0.2239940E+005  0.2513402E+02  0.7546771E-02  0.1467310E+00
          2   -1    0    0  503    0  0.00000000000E+00  0.00000000000E+00  0.61570690274E+03  0.61570690274E+03  0.00000000000E+00 0.  1.
         21   -1    0    0  501  502 -0.00000000000E+00 -0.00000000000E+00 -0.64037561608E+01  0.64037561608E+01  0.00000000000E+00 0.  1.
          2    1    1    2  501    0 -0.25096606240E+02 -0.13707940130E+01  0.58970126857E+03  0.59023665158E+03  0.00000000000E+00 0.  1.
         21    1    1    2  503  502  0.25096606240E+02  0.13707940130E+01  0.19601878012E+02  0.31874007319E+02  0.00000000000E+00 0.  1.
</event>
<event>
 4    1  0.3864478E+005  0.2026713E+02  0.7546771E-02  0.1529991E+00
          2   -1    0    0  503    0  0.00000000000E+00  0.00000000000E+00  0.70454422734E+03  0.70454422734E+03  0.00000000000E+00 0.  1.
         21   -1    0    0  501  502 -0.00000000000E+00 -0.00000000000E+00 -0.12565125841E+03  0.12565125841E+03  0.00000000000E+00 0. -1.
          2    1    1    2  501    0  0.18398025042E+02  0.85011243651E+01  0.70358010021E+03  0.70387194421E+03  0.00000000000E+00 0.  1.
         21    1    1    2  503  502 -0.18398025042E+02 -0.85011243651E+01 -0.12468713128E+03  0.12632354154E+03  0.00000000000E+00 0. -1.
</event>
<event>
 4    1  0.2239940E+005  0.2068886E+02  0.7546771E-02  0.1523754E+00
          2   -1    0    0  503    0  0.00000000000E+00  0.00000000000E+00  0.22457480355E+04  0.22457480355E+04  0.00000000000E+00 0. -1.
         21   -1    0    0  501  502 -0.00000000000E+00 -0.00000000000E+00 -0.21466820274E+00  0.21466820274E+00  0.00000000000E+00 0. -1.
          2    1    1    2  501    0  0.38211024440E+01  0.20332931496E+02  0.74671001864E+03  0.74699657353E+03  0.00000000000E+00 0. -1.
         21    1    1    2  503  502 -0.38211024440E+01 -0.20332931496E+02  0.14988233486E+04  0.14989661301E+04  0.00000000000E+00 0. -1.
</event>
<event>
 4    1  0.2239940E+005  0.2621436E+02  0.7546771E-02  0.1455664E+00
          2   -1    0    0  502    0  0.00000000000E+00  0.00000000000E+00  0.19004779206E+04  0.19004779206E+04  0.00000000000E+00 0. -1.
         21   -1    0    0  503  502 -0.00000000000E+00 -0.00000000000E+00 -0.38484844199E+01  0.38484844199E+01  0.00000000000E+00 0.  1.
          2    1    1    2  501    0  0.11973114208E+02  0.23320321958E+02  0.18546438853E+04  0.18548291388E+04  0.00000000000E+00 0. -1.
         21    1    1    2  503  501 -0.11973114208E+02 -0.23320321958E+02  0.41985550882E+02  0.49497266216E+02  0.00000000000E+00 0.  1.
</event>
<event>
 4    1  0.2239940E+005  0.2048235E+02  0.7546771E-02  0.1526785E+00
          2   -1    0    0  503    0  0.00000000000E+00  0.00000000000E+00  0.34090997796E+03  0.34090997796E+03  0.00000000000E+00 0.  1.
         21   -1    0    0  501  502 -0.00000000000E+00 -0.00000000000E+00 -0.30507100093E+01  0.30507100093E+01  0.00000000000E+00 0. -1.
          2    1    1    2  501    0  0.19168776564E+02 -0.72169618350E+01  0.30176882402E+03  0.30246313772E+03  0.00000000000E+00 0.  1.
         21    1    1    2  503  502 -0.19168776564E+02  0.72169618350E+01  0.36090443936E+02  0.41497550248E+02  0.00000000000E+00 0. -1.
</event>
<event>
 4    1  0.2239940E+005  0.2279065E+02  0.7546771E-02  0.1495144E+00
          2   -1    0    0  502    0  0.00000000000E+00  0.00000000000E+00  0.10667839327E+02  0.10667839327E+02  0.00000000000E+00 0. -1.
         21   -1    0    0  503  502 -0.00000000000E+00 -0.00000000000E+00 -0.10434417462E+03  0.10434417462E+03  0.00000000000E+00 0. -1.
          2    1    1    2  501    0 -0.73566630143E+01  0.21570655014E+02 -0.48401063525E+01  0.23298932979E+02  0.00000000000E+00 0. -1.
         21    1    1    2  503  501  0.73566630143E+01 -0.21570655014E+02 -0.88836228945E+02  0.91713080973E+02  0.00000000000E+00 0. -1.
</event>
<event>
 4    1  0.2239940E+005  0.3839765E+02  0.7546771E-02  0.1358140E+00
          2   -1    0    0  503    0  0.00000000000E+00  0.00000000000E+00  0.87334114249E+03  0.87334114249E+03  0.00000000000E+00 0.  1.
         21   -1    0    0  501  502 -0.00000000000E+00 -0.00000000000E+00 -0.39854539104E+01  0.39854539104E+01  0.00000000000E+00 0. -1.
          2    1    1    2  501    0 -0.29145249001E+02 -0.24998681359E+02  0.76771780962E+03  0.76867744523E+03  0.00000000000E+00 0.  1.
         21    1    1    2  503  502  0.29145249001E+02  0.24998681359E+02  0.10163787896E+03  0.10864915116E+03  0.00000000000E+00 0. -1.
</event>
<event>
 4    1  0.2239940E+005  0.2232101E+02  0.7546771E-02  0.1501205E+00
          2   -1    0    0  503    0  0.00000000000E+00  0.00000000000E+00  0.21189734886E+03  0.21189734886E+03  0.00000000000E+00 0. -1.
         21   -1    0    0  501  502 -0.00000000000E+00 -0.00000000000E+00 -0.86852588833E+01  0.86852588833E+01  0.00000000000E+00 0. -1.
          2    1    1    2  501    0  0.22265549528E+02 -0.15725636912E+01  0.19579252621E+03  0.19706075452E+03  0.00000000000E+00 0. -1.
         21    1    1    2  503  502 -0.22265549528E+02  0.15725636912E+01  0.74195637605E+01  0.23521853217E+02  0.00000000000E+00 0. -1.
</event>
<event>
 4    1  0.2239940E+005  0.2708260E+02  0.7546771E-02  0.1446780E+00
          2   -1    0    0  503    0  0.00000000000E+00  0.00000000000E+00  0.56831631471E+03  0.56831631471E+03  0.00000000000E+00 0.  1.
         21   -1    0    0  501  502 -0.00000000000E+00 -0.00000000000E+00 -0.59320672653E+02  0.59320672653E+02  0.00000000000E+00 0.  1.
          2    1    1    2  501    0  0.23500820110E+02 -0.13460259601E+02  0.56488378211E+03  0.56553262896E+03  0.00000000000E+00 0.  1.
         21    1    1    2  503  502 -0.23500820110E+02  0.13460259601E+02 -0.55888140048E+02  0.62104358401E+02  0.00000000000E+00 0.  1.
</event>
<event>
 4    1  0.2239940E+005  0.3744775E+02  0.7546771E-02  0.1364128E+00
          2   -1    0    0  503    0  0.00000000000E+00  0.00000000000E+00  0.42994694493E+03  0.42994694493E+03  0.00000000000E+00 0. -1.
         21   -1    0    0  501  502 -0.00000000000E+00 -0.00000000000E+00 -0.39998070624E+01  0.39998070624E+01  0.00000000000E+00 0. -1.
          2    1    1    2  501    0  0.59911740314E+01  0.36965384797E+02  0.30618369660E+03  0.30846521668E+03  0.00000000000E+00 0. -1.
         21    1    1    2  503  502 -0.59911740314E+01 -0.36965384797E+02  0.11976344127E+03  0.12548153531E+03  0.00000000000E+00 0. -1.
</event>
<event>
 4    1  0.2239940E+005  0.2250911E+02  0.7546771E-02  0.1498756E+00
          2   -1    0    0  503    0  0.00000000000E+00  0.00000000000E+00  0.18950308315E+02  0.18950308315E+02  0.00000000000E+00 0. -1.
         21   -1    0    0  501  502 -0.00000000000E+00 -0.00000000000E+00 -0.26785876339E+02  0.26785876339E+02  0.00000000000E+00 0. -1.
          2    1    1    2  501    0 -0.18276088988E+02 -0.13139424472E+02 -0.29333265241E+01  0.22699434105E+02  0.00000000000E+00 0. -1.
         21    1    1    2  503  502  0.18276088988E+02  0.13139424472E+02 -0.49022414998E+01  0.23036750550E+02  0.00000000000E+00 0. -1.
</event>
<event>
 4    1  0.2239940E+005  0.2045481E+02  0.7546771E-02  0.1527193E+00
          2   -1    0    0  503    0  0.00000000000E+00  0.00000000000E+00  0.54343009170E+03  0.54343009170E+03  0.00000000000E+00 0.  1.
         21   -1    0    0  501  502 -0.00000000000E+00 -0.00000000000E+00 -0.60077525809E+01  0.60077525809E+01  0.00000000000E+00 0.  1.
          2    1    1    2  501    0  0.12601286431E+02 -0.16112323626E+02  0.52522349126E+03  0.52562164640E+03  0.00000000000E+00 0.  1.
         21    1    1    2  503  502 -0.12601286431E+02  0.16112323626E+02  0.12198847855E+02  0.23816197878E+02  0.00000000000E+00 0.  1.
</event>
<event>
 4    1  0.2239940E+005  0.5667501E+02  0.7546771E-02  0.1271568E+00
          2   -1    0    0  502    0  0.00000000000E+00  0.00000000000E+00  0.12867340326E+03  0.12867340326E+03  0.00000000000E+00 0.  1.
         21   -1    0    0  503  502 -0.00000000000E+00 -0.00000000000E+00 -0.74022464034E+02  0.74022464034E+02  0.00000000000E+00 0. -1.
          2    1    1    2  501    0 -0.70929721782E+01  0.56229408428E+02  0.10983329343E+03  0.12359372546E+03  0.00000000000E+00 0.  1.
         21    1    1    2  503  501  0.70929721782E+01 -0.56229408428E+02 -0.55182354209E+02  0.79102141833E+02  0.00000000000E+00 0. -1.
</event>
<event>
 4    1  0.2239940E+005  0.3077210E+02  0.7546771E-02  0.1413003E+00
          2   -1    0    0  503    0  0.00000000000E+00  0.00000000000E+00  0.20037318268E+04  0.20037318268E+04  0.00000000000E+00 0. -1.
         21   -1    0    0  501  502 -0.00000000000E+00 -0.00000000000E+00 -0.11870152473E+02  0.11870152473E+02  0.00000000000E+00 0.  1.
          2    1    1    2  501    0 -0.18592188559E+02  0.24520450273E+02  0.19834665914E+04  0.19837052808E+04  0.00000000000E+00 0. -1.
         21    1    1    2  503  502  0.18592188559E+02 -0.24520450273E+02  0.83950829750E+01  0.31896698499E+02  0.00000000000E+00 0.  1.
</event>
<event>
 4    1  0.2239940E+005  0.2468451E+02  0.7546771E-02  0.1472364E+00
          2   -1    0    0  503    0  0.00000000000E+00  0.00000000000E+00  0.33280919595E+03  0.33280919595E+03  0.00000000000E+00 0. -1.
         21   -1    0    0  501  502 -0.00000000000E+00 -0.00000000000E+00 -0.18315042407E+01  0.18315042407E+01  0.00000000000E+00 0.  1.
          2    1    1    2  501    0  0.14419089758E+01 -0.24642357188E+02  0.16233485237E+03  0.16420088052E+03  0.00000000000E+00 0. -1.
         21    1    1    2  503  502 -0.14419089758E+01  0.24642357188E+02  0.16864283935E+03  0.17043981968E+03  0.00000000000E+00 0.  1.
</event>
<event>
 4    1  0.2239940E+005  0.2146417E+02  0.7546771E-02  0.1512740E+00
          2   -1    0    0  503    0  0.00000000000E+00  0.00000000000E+00  0.32711393538E+02  0.32711393538E+02  0.00000000000E+00 0.  1.
         21   -1    0    0  501  502 -0.00000000000E+00 -0.00000000000E+00 -0.78052487556E+02  0.78052487556E+02  0.00000000000E+00 0.  1.
          2    1    1    2  501    0  0.18100768737E+02 -0.11535716089E+02  0.27466354723E+02  0.34858445409E+02  0.00000000000E+00 0.  1.
         21    1    1    2  503  502 -0.18100768737E+02  0.11535716089E+02 -0.72807448741E+02  0.75905435686E+02  0.00000000000E+00 0.  1.
</event>
<event>
 4    1  0.2239940E+005  0.4605030E+02  0.7546771E-02  0.1316270E+00
          2   -1    0    0  503    0  0.00000000000E+00  0.00000000000E+00  0.14055277754E+03  0.14055277754E+03  0.00000000000E+00 0.  1.
         21   -1    0    0  501  502 -0.00000000000E+00 -0.00000000000E+00 -0.83192394122E+02  0.83192394122E+02  0.00000000000E+00 0. -1.
          2    1    1    2  501    0  0.32060957830E+02  0.33056389199E+02  0.12990107485E+03  0.13782205604E+03  0.00000000000E+00 0.  1.
         21    1    1    2  503  502 -0.32060957830E+02 -0.33056389199E+02 -0.72540691434E+02  0.85923115619E+02  0.00000000000E+00 0. -1.
</event>
<event>
 4    1  0.2239940E+005  0.2178413E+02  0.7546771E-02  0.1508357E+00
          2   -1    0    0  502    0  0.00000000000E+00  0.00000000000E+00  0.67456607631E+03  0.67456607631E+03  0.00000000000E+00 0. -1.
         21   -1    0    0  503  502 -0.00000000000E+00 -0.00000000000E+00 -0.75828715326E+00  0.75828715326E+00  0.00000000000E+00 0. -1.
          2    1    1    2  501    0  0.21623203187E+02  0.26430285610E+01  0.42767678440E+03  0.42823122310E+03  0.00000000000E+00 0. -1.
         21    1    1    2  503  501 -0.21623203187E+02 -0.26430285610E+01  0.24613100476E+03  0.24709314037E+03  0.00000000000E+00 0. -1.
</event>
<event>
 4    1  0.2239940E+005  0.2662774E+02  0.7546771E-02  0.1451384E+00
          2   -1    0    0  503    0  0.00000000000E+00  0.00000000000E+00  0.34532004451E+02  0.34532004451E+02  0.00000000000E+00 0.  1.
         21   -1    0    0  501  502 -0.00000000000E+00 -0.00000000000E+00 -0.61434939879E+02  0.61434939879E+02  0.00000000000E+00 0. -1.
          2    1    1    2  501    0 -0.16444645581E+02 -0.20943018551E+02  0.25700836620E+02  0.37007693758E+02  0.00000000000E+00 0.  1.
         21    1    1    2  503  502  0.16444645581E+02  0.20943018551E+02 -0.52603772048E+02  0.58959250572E+02  0.00000000000E+00 0. -1.
</event>
<event>
 4    1  0.2239940E+005  0.6233437E+02  0.7546771E-02  0.1252101E+00
          2   -1    0    0  503    0  0.00000000000E+00  0.00000000000E+00  0.36767460214E+04  0.36767460214E+04  0.00000000000E+00 0. -1.
         21   -1    0    0  501  502 -0.00000000000E+00 -0.00000000000E+00 -0.13219196372E+01  0.13219196372E+01  0.00000000000E+00 0.  1.
          2    1    1    2  501    0  0.55173030495E+02  0.29008791311E+02  0.26613016058E+04  0.26620315194E+04  0.00000000000E+00 0. -1.
         21    1    1    2  503  502 -0.55173030495E+02 -0.29008791311E+02  0.10141224960E+04  0.10160364216E+04  0.00000000000E+00 0.  1.
</event>
<event>
 4    1  0.2239940E+005  0.2077117E+02  0.7546771E-02  0.1522557E+00
          2   -1    0    0  502    0  0.00000000000E+00  0.00000000000E+00  0.23438153442E+03  0.23438153442E+03  0.00000000000E+00 0. -1.
         21   -1    0    0  503  502 -0.00000000000E+00 -0.00000000000E+00 -0.31409401164E+03  0.31409401164E+03  0.00000000000E+00 0.  1.
          2    1    1    2  501    0  0.76736350044E+01 -0.19301734813E+02  0.23357676032E+03  0.23449849595E+03  0.00000000000E+00 0. -1.
         21    1    1    2  503  501 -0.76736350044E+01  0.19301734813E+02 -0.31328923754E+03  0.31397705011E+03  0.00000000000E+00 0.  1.
</event>
<event>
 4    1  0.2239940E+005  0.3068165E+02  0.7546771E-02  0.1413764E+00
          2   -1    0    0  503    0  0.00000000000E+00  0.00000000000E+00  0.10916498808E+03  0.10916498808E+03  0.00000000000E+00 0. -1.
         21   -1    0    0  501  502 -0.00000000000E+00 -0.00000000000E+00 -0.42445700776E+02  0.42445700776E+02  0.00000000000E+00 0. -1.
          2    1    1    2  501    0 -0.16713541438E+02  0.25729777934E+02  0.10102791760E+03  0.10558410900E+03  0.00000000000E+00 0. -1.
         21    1    1    2  503  502  0.16713541438E+02 -0.25729777934E+02 -0.34308630296E+02  0.46026579850E+02  0.00000000000E+00 0. -1.
</event>
<event>
 4    1  0.2239940E+005  0.2996028E+02  0.7546771E-02  0.1419942E+00
          2   -1    0    0  503    0  0.00000000000E+00  0.00000000000E+00  0.30274005068E+02  0.30274005068E+02  0.00000000000E+00 0.  1.
         21   -1    0    0  501  502 -0.00000000000E+00 -0.00000000000E+00 -0.52549625184E+02  0.52549625184E+02  0.00000000000E+00 0. -1.
          2    1    1    2  501    0 -0.17353847713E+02  0.24422580199E+02  0.16199479803E+02  0.34059383434E+02  0.00000000000E+00 0.  1.
         21    1    1    2  503  502  0.17353847713E+02 -0.24422580199E+02 -0.38475099918E+02  0.48764246818E+02  0.00000000000E+00 0. -1.
</event>
<event>
 4    1  0.2239940E+005  0.2110519E+02  0.7546771E-02  0.1517768E+00
          2   -1    0    0  502    0  0.00000000000E+00  0.00000000000E+00  0.18603764242E+03  0.18603764242E+03  0.00000000000E+00 0. -1.
         21   -1    0    0  503  502 -0.00000000000E+00 -0.00000000000E+00 -0.81550068094E+01  0.81550068094E+01  0.00000000000E+00 0.  1.
          2    1    1    2  501    0  0.15961862698E+02 -0.13807535792E+02  0.17054855584E+03  0.17184946612E+03  0.00000000000E+00 0. -1.
         21    1    1    2  503  501 -0.15961862698E+02  0.13807535792E+02  0.73340797680E+01  0.22343183110E+02  0.00000000000E+00 0.  1.
</event>
<event>
 4    1  0.2239940E+005  0.3173921E+02  0.7546771E-02  0.1405062E+00
          2   -1    0    0  502    0  0.00000000000E+00  0.00000000000E+00  0.12171808946E+02  0.12171808946E+02  0.00000000000E+00 0.  1.
         21   -1    0    0  503  502 -0.00000000000E+00 -0.00000000000E+00 -0.10978337075E+03  0.10978337075E+03  0.00000000000E+00 0.  1.
          2    1    1    2  501    0  0.48704289570E+00 -0.31735468576E+02 -0.18554311886E+02  0.36764652400E+02  0.00000000000E+00 0.  1.
         21    1    1    2  503  501 -0.48704289570E+00  0.31735468576E+02 -0.79057249921E+02  0.85190527299E+02  0.00000000000E+00 0.  1.
</event>
<event>
 4    1  0.2239940E+005  0.3117139E+02  0.7546771E-02  0.1409683E+00
          2   -1    0    0  502    0  0.00000000000E+00  0.00000000000E+00  0.12245308230E+04  0.12245308230E+04  0.00000000000E+00 0.  1.
         21   -1    0    0  503  502 -0.00000000000E+00 -0.00000000000E+00 -0.29564877008E+01  0.29564877008E+01  0.00000000000E+00 0. -1.
          2    1    1    2  501    0  0.23623669776E+01  0.31081740605E+02  0.11357478871E+04  0.11361755668E+04  0.00000000000E+00 0.  1.
         21    1    1    2  503  501 -0.23623669776E+01 -0.31081740605E+02  0.85826448186E+02  0.91311743960E+02  0.00000000000E+00 0. -1.
</event>
<event>
 4    1  0.2239940E+005  0.2117350E+02  0.7546771E-02  0.1516802E+00
          2   -1    0    0  502    0  0.00000000000E+00  0.00000000000E+00  0.13781740182E+04  0.13781740182E+04  0.00000000000E+00 0. -1.
         21   -1    0    0  503  502 -0.00000000000E+00 -0.00000000000E+00 -0.38940628615E+02  0.38940628615E+02  0.00000000000E+00 0. -1.
          2    1    1    2  501    0 -0.17748435940E+02  0.11546005862E+02  0.13752082770E+04  0.13753712671E+04  0.00000000000E+00 0. -1.
         21    1    1    2  503  501  0.17748435940E+02 -0.11546005862E+02 -0.35974887389E+02  0.41743379742E+02  0.00000000000E+00 0. -1.
</event>
<event>
 4    1  0.2239940E+005  0.3193759E+02  0.7546771E-02  0.1403474E+00
          2   -1    0    0  503    0  0.00000000000E+00  0.00000000000E+00  0.96058255040E+03  0.96058255040E+03  0.00000000000E+00 0.  1.
         21   -1    0    0  501  502 -0.00000000000E+00 -0.00000000000E+00 -0.50719592436E+01  0.50719592436E+01  0.00000000000E+00 0. -1.
          2    1    1    2  501    0 -0.23032637854E+02  0.22124807994E+02  0.90707533320E+03  0.90763741088E+03  0.00000000000E+00 0.  1.
         21    1    1    2  503  502  0.23032637854E+02 -0.22124807994E+02  0.48435257958E+02  0.58017098762E+02  0.00000000000E+00 0. -1.
</event>
<event>
 4    1  0.2239940E+005  0.2176238E+02  0.7546771E-02  0.1508653E+00
          2   -1    0    0  503    0  0.00000000000E+00  0.00000000000E+00  0.94618236936E+03  0.94618236936E+03  0.00000000000E+00 0.  1.
         21   -1    0    0  501  502 -0.00000000000E+00 -0.00000000000E+00 -0.21048138870E+01  0.21048138870E+01  0.00000000000E+00 0.  1.
          2    1    1    2  501    0 -0.18749189576E+02 -0.11048478433E+02  0.88598360022E+03  0.88625083404E+03  0.00000000000E+00 0.  1.
         21    1    1    2  503  502  0.18749189576E+02  0.11048478433E+02  0.58093955250E+02  0.62036349200E+02  0.00000000000E+00 0.  1.
</event>
<event>
 4    1  0.2239940E+005  0.2622958E+02  0.7546771E-02  0.1455504E+00
          2   -1    0    0  502    0  0.00000000000E+00  0.00000000000E+00  0.12485907108E+03  0.12485907108E+03  0.00000000000E+00 0.  1.
         21   -1    0    0  503  502 -0.00000000000E+00 -0.00000000000E+00 -0.17967902471E+02  0.17967902471E+02  0.00000000000E+00 0. -1.
          2    1    1    2  501    0  0.11338762853E+02 -0.23652127893E+02  0.11290924029E+03  0.11591586276E+03  0.00000000000E+00 0.  1.
         21    1    1    2  503  501 -0.11338762853E+02  0.23652127893E+02 -0.60180716837E+01  0.26911110786E+02  0.00000000000E+00 0. -1.
</event>
<event>
 4    1  0.2239940E+005  0.2295761E+02  0.7546771E-02  0.1493031E+00
          2   -1    0    0  502    0  0.00000000000E+00  0.00000000000E+00  0.24897854198E+03  0.24897854198E+03  0.00000000000E+00 0.  1.
         21   -1    0    0  503  502 -0.00000000000E+00 -0.00000000000E+00 -0.13617178454E+02  0.13617178454E+02  0.00000000000E+00 0. -1.
          2    1    1    2  501    0  0.22927976952E+02  0.11661412755E+01  0.23834227917E+03  0.23944538845E+03  0.00000000000E+00 0.  1.
         21    1    1    2  503  501 -0.22927976952E+02 -0.11661412755E+01 -0.29809156452E+01  0.23150331978E+02  0.00000000000E+00 0. -1.
</event>
<event>
 4    1  0.2239940E+005  0.2407319E+02  0.7546771E-02  0.1479444E+00
          2   -1    0    0  502    0  0.00000000000E+00  0.00000000000E+00  0.44363438585E+03  0.44363438585E+03  0.00000000000E+00 0. -1.
         21   -1    0    0  503  502 -0.00000000000E+00 -0.00000000000E+00 -0.10864991413E+02  0.10864991413E+02  0.00000000000E+00 0.  1.
          2    1    1    2  501    0  0.51458897621E+01 -0.23516768875E+02  0.42953594283E+03  0.43021000080E+03  0.00000000000E+00 0. -1.
         21    1    1    2  503  501 -0.51458897621E+01  0.23516768875E+02  0.32334516023E+01  0.24289376464E+02  0.00000000000E+00 0.  1.
</event>
<event>
 4    1  0.2239940E+005  0.2066802E+02  0.7546771E-02  0.1524058E+00
          2   -1    0    0  502    0  0.00000000000E+00  0.00000000000E+00  0.12391418818E+04  0.12391418818E+04  0.00000000000E+00 0. -1.
         21   -1    0    0  503  502 -0.00000000000E+00 -0.00000000000E+00 -0.49176117471E+00  0.49176117471E+00  0.00000000000E+00 0. -1.
          2    1    1    2  501    0  0.19691471374E+02  0.62779683274E+01  0.95824246576E+03  0.95846533068E+03  0.00000000000E+00 0. -1.
         21    1    1    2  503  501 -0.19691471374E+02 -0.62779683274E+01  0.28040765488E+03  0.28116831230E+03  0.00000000000E+00 0. -1.
</event>
<event>
 4    1  0.2239940E+005  0.3485650E+02  0.7546771E-02  0.1381575E+00
          2   -1    0    0  502    0  0.00000000000E+00  0.00000000000E+00  0.25106987342E+04  0.25106987342E+04  0.00000000000E+00 0. -1.
         21   -1    0    0  503  502 -0.00000000000E+00 -0.00000000000E+00 -0.26310750227E+02  0.26310750227E+02  0.00000000000E+00 0.  1.
          2    1    1    2  501    0  0.14730002309E+01 -0.34825361039E+02  0.24989791383E+04  0.24992222208E+04  0.00000000000E+00 0. -1.
         21    1    1    2  503  501 -0.14730002309E+01  0.34825361039E+02 -0.14591154360E+02  0.37787263551E+02  0.00000000000E+00 0.  1.
</event>
<event>
 4    1  0.2239940E+005  0.2115691E+02  0.7546771E-02  0.1517036E+00
          2   -1    0    0  502    0  0.00000000000E+00  0.00000000000E+00  0.63399726540E+03  0.63399726540E+03  0.00000000000E+00 0. -1.
         21   -1    0    0  503  502 -0.00000000000E+00 -0.00000000000E+00 -0.32977606422E+02  0.32977606422E+02  0.00000000000E+00 0. -1.
          2    1    1    2  501    0  0.33570796849E+01  0.20888873317E+02  0.63040812078E+03  0.63076304090E+03  0.00000000000E+00 0. -1.
         21    1    1    2  503  501 -0.33570796849E+01 -0.20888873317E+02 -0.29388461799E+02  0.36211830931E+02  0.00000000000E+00 0. -1.
</event>
<event>
 4    1  0.2239940E+005  0.2540492E+02  0.7546771E-02  0.1464324E+00
          2   -1    0    0  502    0  0.00000000000E+00  0.00000000000E+00  0.18035697447E+03  0.18035697447E+03  0.00000000000E+00 0. -1.
         21   -1    0    0  503  502 -0.00000000000E+00 -0.00000000000E+00 -0.36301719114E+02  0.36301719114E+02  0.00000000000E+00 0. -1.
          2    1    1    2  501    0  0.24127470633E+02 -0.79545623699E+01  0.17487908454E+03  0.17671475352E+03  0.00000000000E+00 0. -1.
         21    1    1    2  503  501 -0.24127470633E+02  0.79545623699E+01 -0.30823829189E+02  0.39943940060E+02  0.00000000000E+00 0. -1.
</event>
<event>
 4    1  0.2239940E+005  0.3376858E+02  0.7546771E-02  0.1389433E+00
          2   -1    0    0  502    0  0.00000000000E+00  0.00000000000E+00  0.98766462146E+03  0.98766462146E+03  0.00000000000E+00 0. -1.
         21   -1    0    0  503  502 -0.00000000000E+00 -0.00000000000E+00 -0.19171292510E+01  0.19171292510E+01  0.00000000000E+00 0.  1.
          2    1    1    2  501    0 -0.33501885654E+02 -0.42356569033E+01  0.80493216163E+03  0.80564018144E+03  0.00000000000E+00 0. -1.
         21    1    1    2  503  501  0.33501885654E+02  0.42356569033E+01  0.18081533058E+03  0.18394156927E+03  0.00000000000E+00 0.  1.
</event>
<event>
 4    1  0.2239940E+005  0.2351840E+02  0.7546771E-02  0.1486089E+00
          2   -1    0    0  503    0  0.00000000000E+00  0.00000000000E+00  0.23757467964E+02  0.23757467964E+02  0.00000000000E+00 0. -1.
         21   -1    0    0  501  502 -0.00000000000E+00 -0.00000000000E+00 -0.77013745124E+02  0.77013745124E+02  0.00000000000E+00 0. -1.
          2    1    1    2  501    0  0.86070198053E+01  0.21886852928E+02  0.15457982972E+02  0.28143637977E+02  0.00000000000E+00 0. -1.
         21    1    1    2  503  502 -0.86070198053E+01 -0.21886852928E+02 -0.68714260132E+02  0.72627575111E+02  0.00000000000E+00 0. -1.
</event>
<event>
 4    1  0.2239940E+005  0.2276170E+02  0.7546771E-02  0.1495512E+00
          2   -1    0    0  502    0  0.00000000000E+00  0.00000000000E+00  0.13296501932E+04  0.13296501932E+04  0.00000000000E+00 0. -1.
         21   -1    0    0  503  502 -0.00000000000E+00 -0.00000000000E+00 -0.67098101692E+02  0.67098101692E+02  0.00000000000E+00 0. -1.
          2    1    1    2  501    0  0.18597881618E+02  0.13123020308E+02  0.13276194656E+04  0.13278145730E+04  0.00000000000E+00 0. -1.
         21    1    1    2  503  501 -0.18597881618E+02 -0.13123020308E+02 -0.65067374011E+02  0.68933721961E+02  0.00000000000E+00 0. -1.
</event>
<event>
 4    1  0.2239940E+005  0.2880780E+02  0.7546771E-02  0.1430247E+00
          2   -1    0    0  503    0  0.00000000000E+00  0.00000000000E+00  0.87847657392E+03  0.87847657392E+03  0.00000000000E+00 0.  1.
         21   -1    0    0  501  502 -0.00000000000E+00 -0.00000000000E+00 -0.20089112789E+01  0.20089112789E+01  0.00000000000E+00 0. -1.
          2    1    1    2  501    0 -0.20049935877E+02  0.20685487991E+02  0.75865964238E+03  0.75920638981E+03  0.00000000000E+00 0.  1.
         21    1    1    2  503  502  0.20049935877E+02 -0.20685487991E+02  0.11780802026E+03  0.12127909540E+03  0.00000000000E+00 0. -1.
</event>
<event>
 4    1  0.2239940E+005  0.4253494E+02  0.7546771E-02  0.1334239E+00
          2   -1    0    0  502    0  0.00000000000E+00  0.00000000000E+00  0.14469253719E+04  0.14469253719E+04  0.00000000000E+00 0. -1.
         21   -1    0    0  503  502 -0.00000000000E+00 -0.00000000000E+00 -0.29798276447E+01  0.29798276447E+01  0.00000000000E+00 0. -1.
          2    1    1    2  501    0  0.14454224981E+02 -0.40003707362E+02  0.12742618762E+04  0.12749715881E+04  0.00000000000E+00 0. -1.
         21    1    1    2  503  501 -0.14454224981E+02  0.40003707362E+02  0.16968366805E+03  0.17493361148E+03  0.00000000000E+00 0. -1.
</event>
<event>
 4    1  0.2239940E+005  0.2603414E+02  0.7546771E-02  0.1457559E+00
          2   -1    0    0  503    0  0.00000000000E+00  0.00000000000E+00  0.11521850861E+04  0.11521850861E+04  0.00000000000E+00 0. -1.
         21   -1    0    0  501  502 -0.00000000000E+00 -0.00000000000E+00 -0.20212927109E+01  0.20212927109E+01  0.00000000000E+00 0. -1.
          2    1    1    2  501    0  0.20955832346E+02  0.15447642728E+02  0.10610054501E+04  0.10613248050E+04  0.00000000000E+00 0. -1.
         21    1    1    2  503  502 -0.20955832346E+02 -0.15447642728E+02  0.89158343337E+02  0.92881573855E+02  0.00000000000E+00 0. -1.
</event>
<event>
 4    1  0.2239940E+005  0.2799401E+02  0.7546771E-02  0.1437871E+00
          2   -1    0    0  502    0  0.00000000000E+00  0.00000000000E+00  0.27864232768E+04  0.27864232768E+04  0.00000000000E+00 0. -1.
         21   -1    0    0  503  502 -0.00000000000E+00 -0.00000000000E+00 -0.31459032910E+00  0.31459032910E+00  0.00000000000E+00 0.  1.
          2    1    1    2  501    0  0.29628066127E+01 -0.27836785635E+02  0.18467006573E+04  0.18469128249E+04  0.00000000000E+00 0. -1.
         21    1    1    2  503  501 -0.29628066127E+01  0.27836785635E+02  0.93940802915E+03  0.93982504227E+03  0.00000000000E+00 0.  1.
</event>
<event>
 4    1  0.2239940E+005  0.2047397E+02  0.7546771E-02  0.1526909E+00
          2   -1    0    0  503    0  0.00000000000E+00  0.00000000000E+00  0.73692132548E+03  0.73692132548E+03  0.00000000000E+00 0.  1.
         21   -1    0    0  501  502 -0.00000000000E+00 -0.00000000000E+00 -0.57949837853E+00  0.57949837853E+00  0.00000000000E+00 0. -1.
          2    1    1    2  501    0  0.11605005604E+02  0.16867343310E+02  0.41820231727E+03  0.41870319034E+03  0.00000000000E+00 0.  1.
         21    1    1    2  503  502 -0.11605005604E+02 -0.16867343310E+02  0.31813950983E+03  0.31879763352E+03  0.00000000000E+00 0. -1.
</event>
<event>
 4    1  0.2239940E+005  0.3054632E+02  0.7546771E-02  0.1414907E+00
          2   -1    0    0  503    0  0.00000000000E+00  0.00000000000E+00  0.37907138479E+03  0.37907138479E+03  0.00000000000E+00 0.  1.
         21   -1    0    0  501  502 -0.00000000000E+00 -0.00000000000E+00 -0.34955297008E+01  0.34955297008E+01  0.00000000000E+00 0. -1.
          2    1    1    2  501    0  0.31461979838E+01  0.30383860942E+02  0.29182571385E+03  0.29342004845E+03  0.00000000000E+00 0.  1.
         21    1    1    2  503  502 -0.31461979838E+01 -0.30383860942E+02  0.83750141234E+02  0.89146866037E+02  0.00000000000E+00 0. -1.
</event>
<event>
 4    1  0.2239940E+005  0.3587712E+02  0.7546771E-02  0.1374499E+00
          2   -1    0    0  503    0  0.00000000000E+00  0.00000000000E+00  0.78358007913E+02  0.78358007913E+02  0.00000000000E+00 0. -1.
         21   -1    0    0  501  502 -0.00000000000E+00 -0.00000000000E+00 -0.28599210925E+02  0.28599210925E+02  0.00000000000E+00 0.  1.
          2    1    1    2  501    0 -0.30691975702E+02 -0.18578764253E+02  0.59768691844E+02  0.69709858546E+02  0.00000000000E+00 0. -1.
         21    1    1    2  503  502  0.30691975702E+02  0.18578764253E+02 -0.10009894856E+02  0.37247360292E+02  0.00000000000E+00 0.  1.
</event>
<event>
 4    1  0.2239940E+005  0.2706320E+02  0.7546771E-02  0.1446974E+00
          2   -1    0    0  502    0  0.00000000000E+00  0.00000000000E+00  0.46599528746E+03  0.46599528746E+03  0.00000000000E+00 0. -1.
         21   -1    0    0  503  502 -0.00000000000E+00 -0.00000000000E+00 -0.70800903664E+01  0.70800903664E+01  0.00000000000E+00 0.  1.
          2    1    1    2  501    0  0.14322604992E+01 -0.27025276406E+02  0.43809505366E+03  0.43893016868E+03  0.00000000000E+00 0. -1.
         21    1    1    2  503  501 -0.14322604992E+01  0.27025276406E+02  0.20820143426E+02  0.34145209141E+02  0.00000000000E+00 0.  1.
</event>
<event>
 4    1  0.2239940E+005  0.3922936E+02  0.7546771E-02  0.1353062E+00
          2   -1    0    0  503    0  0.00000000000E+00  0.00000000000E+00  0.13313582685E+04  0.13313582685E+04  0.00000000000E+00 0.  1.
         21   -1    0    0  501  502 -0.00000000000E+00 -0.00000000000E+00 -0.17143043141E+01  0.17143043141E+01  0.00000000000E+00 0.  1.
          2    1    1    2  501    0 -0.23324260494E+02  0.31542372734E+02  0.28441646509E+03  0.28710915697E+03  0.00000000000E+00 0.  1.
         21    1    1    2  503  502  0.23324260494E+02 -0.31542372734E+02  0.10452274991E+04  0.10459634159E+04  0.00000000000E+00 0.  1.
</event>
<event>
 4    1  0.2239940E+005  0.3446062E+02  0.7546771E-02  0.1384395E+00
          2   -1    0    0  503    0  0.00000000000E+00  0.00000000000E+00  0.41631961117E+03  0.41631961117E+03  0.00000000000E+00 0. -1.
         21   -1    0    0  501  502 -0.00000000000E+00 -0.00000000000E+00 -0.20375690243E+02  0.20375690243E+02  0.00000000000E+00 0. -1.
          2    1    1    2  501    0  0.21151980400E+02 -0.27205300057E+02  0.40046003682E+03  0.40194001507E+03  0.00000000000E+00 0. -1.
         21    1    1    2  503  502 -0.21151980400E+02  0.27205300057E+02 -0.45161158914E+01  0.34755286343E+02  0.00000000000E+00 0. -1.
</event>
<event>
 4    1  0.2239940E+005  0.2221558E+02  0.7546771E-02  0.1502590E+00
          2   -1    0    0  503    0  0.00000000000E+00  0.00000000000E+00  0.72987353257E+02  0.72987353257E+02  0.00000000000E+00 0. -1.
         21   -1    0    0  501  502 -0.00000000000E+00 -0.00000000000E+00 -0.15159995049E+02  0.15159995049E+02  0.00000000000E+00 0. -1.
          2    1    1    2  501    0  0.15065172211E+02 -0.16327054323E+02  0.61717202827E+02  0.65593789656E+02  0.00000000000E+00 0. -1.
         21    1    1    2  503  502 -0.15065172211E+02  0.16327054323E+02 -0.38898446199E+01  0.22553558650E+02  0.00000000000E+00 0. -1.
</event>
<event>
 4    1  0.2239940E+005  0.2179111E+02  0.7546771E-02  0.1508263E+00
          2   -1    0    0  503    0  0.00000000000E+00  0.00000000000E+00  0.37041114781E+03  0.37041114781E+03  0.00000000000E+00 0.  1.
         21   -1    0    0  501  502 -0.00000000000E+00 -0.00000000000E+00 -0.19747285372E+01  0.19747285372E+01  0.00000000000E+00 0. -1.
          2    1    1    2  501    0  0.13314981675E+02 -0.17250035822E+02  0.29449990007E+03  0.29530500100E+03  0.00000000000E+00 0.  1.
         21    1    1    2  503  502 -0.13314981675E+02  0.17250035822E+02  0.73936519208E+02  0.77080875355E+02  0.00000000000E+00 0. -1.
</event>
<event>
 4    1  0.2239940E+005  0.6892015E+02  0.7546771E-02  0.1232207E+00
          2   -1    0    0  503    0  0.00000000000E+00  0.00000000000E+00  0.81049290269E+03  0.81049290269E+03  0.00000000000E+00 0. -1.
         21   -1    0    0  501  502 -0.00000000000E+00 -0.00000000000E+00 -0.28501940173E+02  0.28501940173E+02  0.00000000000E+00 0. -1.
          2    1    1    2  501    0  0.65956022807E+02  0.19994744760E+02  0.76488475470E+03  0.76798351202E+03  0.00000000000E+00 0. -1.
         21    1    1    2  503  502 -0.65956022807E+02 -0.19994744760E+02  0.17106207819E+02  0.71011330846E+02  0.00000000000E+00 0. -1.
</event>
<event>
 4    1  0.2239940E+005  0.2567035E+02  0.7546771E-02  0.1461442E+00
          2   -1    0    0  502    0  0.00000000000E+00  0.00000000000E+00  0.13247992828E+02  0.13247992828E+02  0.00000000000E+00 0. -1.
         21   -1    0    0  503  502 -0.00000000000E+00 -0.00000000000E+00 -0.96923011081E+03  0.96923011081E+03  0.00000000000E+00 0.  1.
          2    1    1    2  501    0  0.16882284882E+02 -0.19337928039E+02  0.47678502251E+00  0.25674779992E+02  0.00000000000E+00 0. -1.
         21    1    1    2  503  501 -0.16882284882E+02  0.19337928039E+02 -0.95645890301E+03  0.95680332365E+03  0.00000000000E+00 0.  1.
</event>
<event>
 4    1  0.2239940E+005  0.2281461E+02  0.7546771E-02  0.1494839E+00
          2   -1    0    0  503    0  0.00000000000E+00  0.00000000000E+00  0.18480901321E+03  0.18480901321E+03  0.00000000000E+00 0.  1.
         21   -1    0    0  501  502 -0.00000000000E+00 -0.00000000000E+00 -0.40130727171E+01  0.40130727171E+01  0.00000000000E+00 0. -1.
          2    1    1    2  501    0 -0.22057145373E+02 -0.58299858220E+01  0.14195191122E+03  0.14377361196E+03  0.00000000000E+00 0.  1.
         21    1    1    2  503  502  0.22057145373E+02  0.58299858220E+01  0.38844029273E+02  0.45048473968E+02  0.00000000000E+00 0. -1.
</event>
<event>
 4    1  0.2239940E+005  0.2281231E+02  0.7546771E-02  0.1494868E+00
          2   -1    0    0  503    0  0.00000000000E+00  0.00000000000E+00  0.94523304257E+03  0.94523304257E+03  0.00000000000E+00 0.  1.
         21   -1    0    0  501  502 -0.00000000000E+00 -0.00000000000E+00 -0.13848617308E+01  0.13848617308E+01  0.00000000000E+00 0. -1.
          2    1    1    2  501    0  0.18249078127E+01  0.22739204519E+02  0.83929492862E+03  0.83960489453E+03  0.00000000000E+00 0.  1.
         21    1    1    2  503  502 -0.18249078127E+01 -0.22739204519E+02  0.10455325222E+03  0.10701300977E+03  0.00000000000E+00 0. -1.
</event>
<event>
 4    1  0.2239940E+005  0.2042652E+02  0.7546771E-02  0.1527612E+00
          2   -1    0    0  502    0  0.00000000000E+00  0.00000000000E+00  0.55570236640E+03  0.55570236640E+03  0.00000000000E+00 0. -1.
         21   -1    0    0  503  502 -0.00000000000E+00 -0.00000000000E+00 -0.22665445709E+01  0.22665445709E+01  0.00000000000E+00 0. -1.
          2    1    1    2  501    0 -0.71825366437E+01  0.19122075726E+02  0.50485999241E+03  0.50527304949E+03  0.00000000000E+00 0. -1.
         21    1    1    2  503  501  0.71825366437E+01 -0.19122075726E+02  0.48575829428E+02  0.52695861482E+02  0.00000000000E+00 0. -1.
</event>
<event>
 4    1  0.2239940E+005  0.3100103E+02  0.7546771E-02  0.1411092E+00
          2   -1    0    0  503    0  0.00000000000E+00  0.00000000000E+00  0.13331859651E+04  0.13331859651E+04  0.00000000000E+00 0. -1.
         21   -1    0    0  501  502 -0.00000000000E+00 -0.00000000000E+00 -0.20522434168E+01  0.20522434168E+01  0.00000000000E+00 0.  1.
          2    1    1    2  501    0  0.18935140893E+02  0.24546366245E+02  0.12032953557E+04  0.12036946360E+04  0.00000000000E+00 0. -1.
         21    1    1    2  503  502 -0.18935140893E+02 -0.24546366245E+02  0.12783836598E+03  0.13154357253E+03  0.00000000000E+00 0.  1.
</event>
<event>
 4    1  0.2239940E+005  0.2648135E+02  0.7546771E-02  0.1452889E+00
          2   -1    0    0  502    0  0.00000000000E+00  0.00000000000E+00  0.62972301377E+03  0.62972301377E+03  0.00000000000E+00 0.  1.
         21   -1    0    0  503  502 -0.00000000000E+00 -0.00000000000E+00 -0.14525671290E+01  0.14525671290E+01  0.00000000000E+00 0.  1.
          2    1    1    2  501    0  0.24509154175E+02  0.10028130110E+02  0.46658554759E+03  0.46733642620E+03  0.00000000000E+00 0.  1.
         21    1    1    2  503  501 -0.24509154175E+02 -0.10028130110E+02  0.16168489904E+03  0.16383915469E+03  0.00000000000E+00 0.  1.
</event>
<event>
 4    1  0.2239940E+005  0.7742007E+02  0.7546771E-02  0.1209967E+00
          2   -1    0    0  503    0  0.00000000000E+00  0.00000000000E+00  0.24896478869E+03  0.24896478869E+03  0.00000000000E+00 0.  1.
         21   -1    0    0  501  502 -0.00000000000E+00 -0.00000000000E+00 -0.25440023385E+02  0.25440023385E+02  0.00000000000E+00 0.  1.
          2    1    1    2  501    0  0.66965639787E+02 -0.38851897830E+02  0.79982834179E+02  0.11131541062E+03  0.00000000000E+00 0.  1.
         21    1    1    2  503  502 -0.66965639787E+02  0.38851897830E+02  0.14354193112E+03  0.16308940146E+03  0.00000000000E+00 0.  1.
</event>
<event>
 4    1  0.2239940E+005  0.2062167E+02  0.7546771E-02  0.1524736E+00
          2   -1    0    0  503    0  0.00000000000E+00  0.00000000000E+00  0.22522762294E+03  0.22522762294E+03  0.00000000000E+00 0.  1.
         21   -1    0    0  501  502 -0.00000000000E+00 -0.00000000000E+00 -0.39116719038E+01  0.39116719038E+01  0.00000000000E+00 0.  1.
          2    1    1    2  501    0 -0.68581701384E+01  0.19447847721E+02  0.19306176964E+03  0.19415998603E+03  0.00000000000E+00 0.  1.
         21    1    1    2  503  502  0.68581701384E+01 -0.19447847721E+02  0.28254181388E+02  0.34979308806E+02  0.00000000000E+00 0.  1.
</event>
<event>
 4    1  0.2239940E+005  0.2050199E+02  0.7546771E-02  0.1526495E+00
          2   -1    0    0  503    0  0.00000000000E+00  0.00000000000E+00  0.11396486594E+03  0.11396486594E+03  0.00000000000E+00 0. -1.
         21   -1    0    0  501  502 -0.00000000000E+00 -0.00000000000E+00 -0.14196149099E+02  0.14196149099E+02  0.00000000000E+00 0. -1.
          2    1    1    2  501    0  0.44473922291E+01  0.20013802284E+02  0.10501569145E+03  0.10699825714E+03  0.00000000000E+00 0. -1.
         21    1    1    2  503  502 -0.44473922291E+01 -0.20013802284E+02 -0.52469746090E+01  0.21162757903E+02  0.00000000000E+00 0. -1.
</event>
<event>
 4    1  0.2239940E+005  0.4316093E+02  0.7546771E-02  0.1330896E+00
          2   -1    0    0  503    0  0.00000000000E+00  0.00000000000E+00  0.30075250578E+03  0.30075250578E+03  0.00000000000E+00 0. -1.
         21   -1    0    0  501  502 -0.00000000000E+00 -0.00000000000E+00 -0.46849346134E+02  0.46849346134E+02  0.00000000000E+00 0. -1.
          2    1    1    2  501    0 -0.38407324818E+02 -0.19691191650E+02  0.28885613530E+03  0.29206289140E+03  0.00000000000E+00 0. -1.
         21    1    1    2  503  502  0.38407324818E+02  0.19691191650E+02 -0.34952975657E+02  0.55538960519E+02  0.00000000000E+00 0. -1.
</event>
<event>
 4    1  0.2239940E+005  0.3668950E+02  0.7546771E-02  0.1369059E+00
          2   -1    0    0  502    0  0.00000000000E+00  0.00000000000E+00  0.33898809113E+03  0.33898809113E+03  0.00000000000E+00 0. -1.
         21   -1    0    0  503  502 -0.00000000000E+00 -0.00000000000E+00 -0.71841763450E+02  0.71841763450E+02  0.00000000000E+00 0.  1.
          2    1    1    2  501    0  0.32814143015E+02  0.16411918855E+02  0.33323032890E+03  0.33524404717E+03  0.00000000000E+00 0. -1.
         21    1    1    2  503  501 -0.32814143015E+02 -0.16411918855E+02 -0.66084001230E+02  0.75585807403E+02  0.00000000000E+00 0.  1.
</event>
<event>
 4    1  0.2239940E+005  0.3463399E+02  0.7546771E-02  0.1383155E+00
          2   -1    0    0  502    0  0.00000000000E+00  0.00000000000E+00  0.54776996102E+03  0.54776996102E+03  0.00000000000E+00 0. -1.
         21   -1    0    0  503  502 -0.00000000000E+00 -0.00000000000E+00 -0.68505082942E+01  0.68505082942E+01  0.00000000000E+00 0. -1.
          2    1    1    2  501    0  0.25553377678E+02  0.23378152761E+02  0.49919329734E+03  0.50039330656E+03  0.00000000000E+00 0. -1.
         21    1    1    2  503  501 -0.25553377678E+02 -0.23378152761E+02  0.41726155378E+02  0.54227162750E+02  0.00000000000E+00 0. -1.
</event>
<event>
 4    1  0.2239940E+005  0.2737893E+02  0.7546771E-02  0.1443838E+00
          2   -1    0    0  503    0  0.00000000000E+00  0.00000000000E+00  0.32401660870E+03  0.32401660870E+03  0.00000000000E+00 0. -1.
         21   -1    0    0  501  502 -0.00000000000E+00 -0.00000000000E+00 -0.73087154149E+01  0.73087154149E+01  0.00000000000E+00 0. -1.
          2    1    1    2  501    0  0.24993724721E+02  0.11176735730E+02  0.29531028091E+03  0.29657674843E+03  0.00000000000E+00 0. -1.
         21    1    1    2  503  502 -0.24993724721E+02 -0.11176735730E+02  0.21397612380E+02  0.34748575692E+02  0.00000000000E+00 0. -1.
</event>
<event>
 4    1  0.2239940E+005  0.2981630E+02  0.7546771E-02  0.1421200E+00
          2   -1    0    0  502    0  0.00000000000E+00  0.00000000000E+00  0.11728261225E+04  0.11728261225E+04  0.00000000000E+00 0. -1.
         21   -1    0    0  503  502 -0.00000000000E+00 -0.00000000000E+00 -0.34446934817E+02  0.34446934817E+02  0.00000000000E+00 0. -1.
          2    1    1    2  501    0  0.18953705664E+02 -0.23016713119E+02  0.11661476356E+04  0.11665287480E+04  0.00000000000E+00 0. -1.
         21    1    1    2  503  501 -0.18953705664E+02  0.23016713119E+02 -0.27768447885E+02  0.40744309286E+02  0.00000000000E+00 0. -1.
</event>
<event>
 4    1  0.2239940E+005  0.2733503E+02  0.7546771E-02  0.1444271E+00
          2   -1    0    0  503    0  0.00000000000E+00  0.00000000000E+00  0.14584930302E+04  0.14584930302E+04  0.00000000000E+00 0. -1.
         21   -1    0    0  501  502 -0.00000000000E+00 -0.00000000000E+00 -0.22487688667E+01  0.22487688667E+01  0.00000000000E+00 0. -1.
          2    1    1    2  501    0 -0.27064773852E+02  0.38343188913E+01  0.13699270002E+04  0.13701996898E+04  0.00000000000E+00 0. -1.
         21    1    1    2  503  502  0.27064773852E+02 -0.38343188913E+01  0.86317261107E+02  0.90542109264E+02  0.00000000000E+00 0. -1.
</event>
<event>
 4    1  0.2239940E+005  0.3567628E+02  0.7546771E-02  0.1375870E+00
          2   -1    0    0  503    0  0.00000000000E+00  0.00000000000E+00  0.24094273978E+04  0.24094273978E+04  0.00000000000E+00 0. -1.
         21   -1    0    0  501  502 -0.00000000000E+00 -0.00000000000E+00 -0.14797033852E+01  0.14797033852E+01  0.00000000000E+00 0. -1.
          2    1    1    2  501    0 -0.50486849470E+01  0.35317244414E+02  0.21705927841E+04  0.21708859554E+04  0.00000000000E+00 0. -1.
         21    1    1    2  503  502  0.50486849470E+01 -0.35317244414E+02  0.23735491031E+03  0.24002114578E+03  0.00000000000E+00 0. -1.
</event>
<event>
 4    1  0.2239940E+005  0.2060952E+02  0.7546771E-02  0.1524914E+00
          2   -1    0    0  503    0  0.00000000000E+00  0.00000000000E+00  0.76829996645E+03  0.76829996645E+03  0.00000000000E+00 0. -1.
         21   -1    0    0  501  502 -0.00000000000E+00 -0.00000000000E+00 -0.17898372184E+01  0.17898372184E+01  0.00000000000E+00 0.  1.
          2    1    1    2  501    0  0.11599051557E+02 -0.17035673957E+02  0.70335661422E+03  0.70365849597E+03  0.00000000000E+00 0. -1.
         21    1    1    2  503  502 -0.11599051557E+02  0.17035673957E+02  0.63153515019E+02  0.66431307706E+02  0.00000000000E+00 0.  1.
</event>
<event>
 4    1  0.2239940E+005  0.2100712E+02  0.7546771E-02  0.1519163E+00
          2   -1    0    0  503    0  0.00000000000E+00  0.00000000000E+00  0.17965253540E+02  0.17965253540E+02  0.00000000000E+00 0. -1.
         21   -1    0    0  501  502 -0.00000000000E+00 -0.00000000000E+00 -0.13179247086E+03  0.13179247086E+03  0.00000000000E+00 0. -1.
          2    1    1    2  501    0 -0.71344102017E+01  0.19758527903E+02  0.10627612537E+02  0.23542416657E+02  0.00000000000E+00 0. -1.
         21    1    1    2  503  502  0.71344102017E+01 -0.19758527903E+02 -0.12445482986E+03  0.12621530775E+03  0.00000000000E+00 0. -1.
</event>
<event>
 4    1  0.2239940E+005  0.2705286E+02  0.7546771E-02  0.1447078E+00
          2   -1    0    0  503    0  0.00000000000E+00  0.00000000000E+00  0.62254451138E+03  0.62254451138E+03  0.00000000000E+00 0. -1.
         21   -1    0    0  501  502 -0.00000000000E+00 -0.00000000000E+00 -0.16353642013E+02  0.16353642013E+02  0.00000000000E+00 0.  1.
          2    1    1    2  501    0 -0.10443229746E+02 -0.24955888213E+02  0.61084851276E+03  0.61144726915E+03  0.00000000000E+00 0. -1.
         21    1    1    2  503  502  0.10443229746E+02  0.24955888213E+02 -0.46576433916E+01  0.27450884248E+02  0.00000000000E+00 0.  1.
</event>
<event>
 4    1  0.2239940E+005  0.2231587E+02  0.7546771E-02  0.1501272E+00
          2   -1    0    0  502    0  0.00000000000E+00  0.00000000000E+00  0.61000638661E+03  0.61000638661E+03  0.00000000000E+00 0. -1.
         21   -1    0    0  503  502 -0.00000000000E+00 -0.00000000000E+00 -0.43248134568E+01  0.43248134568E+01  0.00000000000E+00 0.  1.
          2    1    1    2  501    0  0.21871125532E+02  0.44330629388E+01  0.57950016102E+03  0.57992968091E+03  0.00000000000E+00 0. -1.
         21    1    1    2  503  501 -0.21871125532E+02 -0.44330629388E+01  0.26181412140E+02  0.34401519162E+02  0.00000000000E+00 0.  1.
</event>
<event>
 4    1  0.2239940E+005  0.2290632E+02  0.7546771E-02  0.1493678E+00
          2   -1    0    0  503    0  0.00000000000E+00  0.00000000000E+00  0.10474748172E+04  0.10474748172E+04  0.00000000000E+00 0. -1.
         21   -1    0    0  501  502 -0.00000000000E+00 -0.00000000000E+00 -0.48289529571E+01  0.48289529571E+01  0.00000000000E+00 0.  1.
          2    1    1    2  501    0  0.12244177817E+02  0.19359230537E+02  0.10194383559E+04  0.10196956708E+04  0.00000000000E+00 0. -1.
         21    1    1    2  503  502 -0.12244177817E+02 -0.19359230537E+02  0.23207508415E+02  0.32608099366E+02  0.00000000000E+00 0.  1.
</event>
<event>
 4    1  0.2239940E+005  0.2005536E+02  0.7546771E-02  0.1533191E+00
          2   -1    0    0  503    0  0.00000000000E+00  0.00000000000E+00  0.15802283011E+03  0.15802283011E+03  0.00000000000E+00 0.  1.
         21   -1    0    0  501  502 -0.00000000000E+00 -0.00000000000E+00 -0.26155009648E+01  0.26155009648E+01  0.00000000000E+00 0.  1.
          2    1    1    2  501    0 -0.54902794111E+01  0.19289226810E+02  0.64546099862E+02  0.67590061742E+02  0.00000000000E+00 0.  1.
         21    1    1    2  503  502  0.54902794111E+01 -0.19289226810E+02  0.90861229284E+02  0.93048269333E+02  0.00000000000E+00 0.  1.
</event>
<event>
 4    1  0.2239940E+005  0.2116738E+02  0.7546771E-02  0.1516888E+00
          2   -1    0    0  503    0  0.00000000000E+00  0.00000000000E+00  0.70673880022E+01  0.70673880022E+01  0.00000000000E+00 0.  1.
         21   -1    0    0  501  502 -0.00000000000E+00 -0.00000000000E+00 -0.18525143925E+03  0.18525143925E+03  0.00000000000E+00 0. -1.
          2    1    1    2  501    0  0.34118986694E+01 -0.20890589470E+02 -0.11103622366E+02  0.23902891260E+02  0.00000000000E+00 0.  1.
         21    1    1    2  503  502 -0.34118986694E+01  0.20890589470E+02 -0.16708042888E+03  0.16841593599E+03  0.00000000000E+00 0. -1.
</event>
<event>
 4    1  0.2239940E+005  0.2366263E+02  0.7546771E-02  0.1484341E+00
          2   -1    0    0  502    0  0.00000000000E+00  0.00000000000E+00  0.37741384540E+03  0.37741384540E+03  0.00000000000E+00 0.  1.
         21   -1    0    0  503  502 -0.00000000000E+00 -0.00000000000E+00 -0.15292274110E+01  0.15292274110E+01  0.00000000000E+00 0.  1.
          2    1    1    2  501    0  0.21768171985E+02 -0.92772080975E+01  0.22068113018E+03  0.22194612211E+03  0.00000000000E+00 0.  1.
         21    1    1    2  503  501 -0.21768171985E+02  0.92772080975E+01  0.15520348781E+03  0.15699695070E+03  0.00000000000E+00 0.  1.
</event>
<event>
 4    1  0.2239940E+005  0.2465062E+02  0.7546771E-02  0.1472750E+00
          2   -1    0    0  503    0  0.00000000000E+00  0.00000000000E+00  0.16711095020E+02  0.16711095020E+02  0.00000000000E+00 0.  1.
         21   -1    0    0  501  502 -0.00000000000E+00 -0.00000000000E+00 -0.13507115704E+03  0.13507115704E+03  0.00000000000E+00 0. -1.
          2    1    1    2  501    0  0.17449135132E+02  0.17412082231E+02  0.56965373925E+01  0.25300266060E+02  0.00000000000E+00 0.  1.
         21    1    1    2  503  502 -0.17449135132E+02 -0.17412082231E+02 -0.12405659941E+03  0.12648198600E+03  0.00000000000E+00 0. -1.
</event>
<event>
 4    1  0.2239940E+005  0.2247947E+02  0.7546771E-02  0.1499140E+00
          2   -1    0    0  503    0  0.00000000000E+00  0.00000000000E+00  0.58571543902E+01  0.58571543902E+01  0.00000000000E+00 0. -1.
         21   -1    0    0  501  502 -0.00000000000E+00 -0.00000000000E+00 -0.49402428988E+03  0.49402428988E+03  0.00000000000E+00 0.  1.
          2    1    1    2  501    0  0.16719989666E+02  0.15025593236E+02 -0.17013740706E+02  0.28192088949E+02  0.00000000000E+00 0. -1.
         21    1    1    2  503  502 -0.16719989666E+02 -0.15025593236E+02 -0.47115339479E+03  0.47168935532E+03  0.00000000000E+00 0.  1.
</event>
<event>
 4    1  0.2239940E+005  0.3393474E+02  0.7546771E-02  0.1388211E+00
          2   -1    0    0  503    0  0.00000000000E+00  0.00000000000E+00  0.24512022929E+03  0.24512022929E+03  0.00000000000E+00 0.  1.
         21   -1    0    0  501  502 -0.00000000000E+00 -0.00000000000E+00 -0.48406068354E+02  0.48406068354E+02  0.00000000000E+00 0.  1.
          2    1    1    2  501    0 -0.33934585138E+02  0.10306257322E+00  0.23781657541E+03  0.24022549871E+03  0.00000000000E+00 0.  1.
         21    1    1    2  503  502  0.33934585138E+02 -0.10306257322E+00 -0.41102414480E+02  0.53300798929E+02  0.00000000000E+00 0.  1.
</event>
<event>
 4    1  0.2239940E+005  0.2459362E+02  0.7546771E-02  0.1473401E+00
          2   -1    0    0  502    0  0.00000000000E+00  0.00000000000E+00  0.78542923199E+03  0.78542923199E+03  0.00000000000E+00 0. -1.
         21   -1    0    0  503  502 -0.00000000000E+00 -0.00000000000E+00 -0.36234270008E+01  0.36234270008E+01  0.00000000000E+00 0.  1.
          2    1    1    2  501    0  0.19674164557E+02 -0.14757143136E+02  0.74100383633E+03  0.74141185011E+03  0.00000000000E+00 0. -1.
         21    1    1    2  503  501 -0.19674164557E+02  0.14757143136E+02  0.40801968660E+02  0.47640808884E+02  0.00000000000E+00 0.  1.
</event>
<event>
 4    1  0.2239940E+005  0.2139418E+02  0.7546771E-02  0.1513711E+00
          2   -1    0    0  502    0  0.00000000000E+00  0.00000000000E+00  0.59596435378E+03  0.59596435378E+03  0.00000000000E+00 0. -1.
         21   -1    0    0  503  502 -0.00000000000E+00 -0.00000000000E+00 -0.48556813399E+01  0.48556813399E+01  0.00000000000E+00 0.  1.
          2    1    1    2  501    0 -0.82491263593E+01  0.19739874814E+02  0.57118462236E+03  0.57158514988E+03  0.00000000000E+00 0. -1.
         21    1    1    2  503  501  0.82491263593E+01 -0.19739874814E+02  0.19924050081E+02  0.29234885240E+02  0.00000000000E+00 0.  1.
</event>
<event>
 4    1  0.2239940E+005  0.2034441E+02  0.7546771E-02  0.1528834E+00
          2   -1    0    0  502    0  0.00000000000E+00  0.00000000000E+00  0.13881860040E+03  0.13881860040E+03  0.00000000000E+00 0. -1.
         21   -1    0    0  503  502 -0.00000000000E+00 -0.00000000000E+00 -0.13488255472E+02  0.13488255472E+02  0.00000000000E+00 0.  1.
          2    1    1    2  501    0 -0.14147837503E+02 -0.14619633343E+02  0.12987685806E+03  0.13146061480E+03  0.00000000000E+00 0. -1.
         21    1    1    2  503  501  0.14147837503E+02  0.14619633343E+02 -0.45465131309E+01  0.20846241070E+02  0.00000000000E+00 0.  1.
</event>
<event>
 4    1  0.2239940E+005  0.3325380E+02  0.7546771E-02  0.1393273E+00
          2   -1    0    0  503    0  0.00000000000E+00  0.00000000000E+00  0.16644400546E+04  0.16644400546E+04  0.00000000000E+00 0.  1.
         21   -1    0    0  501  502 -0.00000000000E+00 -0.00000000000E+00 -0.12553163612E+01  0.12553163612E+01  0.00000000000E+00 0. -1.
          2    1    1    2  501    0 -0.34817070052E+01 -0.33071027941E+02  0.14030191124E+04  0.14034131412E+04  0.00000000000E+00 0.  1.
         21    1    1    2  503  502  0.34817070052E+01  0.33071027941E+02  0.26016562578E+03  0.26228222969E+03  0.00000000000E+00 0. -1.
</event>
<event>
 4    1  0.2239940E+005  0.2392152E+02  0.7546771E-02  0.1481240E+00
          2   -1    0    0  503    0  0.00000000000E+00  0.00000000000E+00  0.65656868234E+03  0.65656868234E+03  0.00000000000E+00 0.  1.
         21   -1    0    0  501  502 -0.00000000000E+00 -0.00000000000E+00 -0.13745052450E+01  0.13745052450E+01  0.00000000000E+00 0.  1.
          2    1    1    2  501    0 -0.14203123204E+02 -0.19248651088E+02  0.52659355715E+03  0.52713661769E+03  0.00000000000E+00 0.  1.
         21    1    1    2  503  502  0.14203123204E+02  0.19248651088E+02  0.12860061994E+03  0.13080656989E+03  0.00000000000E+00 0.  1.
</event>
<event>
 4    1  0.2239940E+005  0.2400735E+02  0.7546771E-02  0.1480222E+00
          2   -1    0    0  502    0  0.00000000000E+00  0.00000000000E+00  0.97563939139E+03  0.97563939139E+03  0.00000000000E+00 0.  1.
         21   -1    0    0  503  502 -0.00000000000E+00 -0.00000000000E+00 -0.34407593972E+01  0.34407593972E+01  0.00000000000E+00 0.  1.
          2    1    1    2  501    0 -0.24991395154E+01 -0.23876916066E+02  0.93163728875E+03  0.93194655996E+03  0.00000000000E+00 0.  1.
         21    1    1    2  503  501  0.24991395154E+01  0.23876916066E+02  0.40561343235E+02  0.47133590826E+02  0.00000000000E+00 0.  1.
</event>
<event>
 4    1  0.2239940E+005  0.2646368E+02  0.7546771E-02  0.1453071E+00
          2   -1    0    0  502    0  0.00000000000E+00  0.00000000000E+00  0.73530696692E+03  0.73530696692E+03  0.00000000000E+00 0.  1.
         21   -1    0    0  503  502 -0.00000000000E+00 -0.00000000000E+00 -0.59583500115E+01  0.59583500115E+01  0.00000000000E+00 0. -1.
          2    1    1    2  501    0 -0.26199064406E+02  0.37330396894E+01  0.70439558027E+03  0.70489251667E+03  0.00000000000E+00 0.  1.
         21    1    1    2  503  501  0.26199064406E+02 -0.37330396894E+01  0.24953036642E+02  0.36372800260E+02  0.00000000000E+00 0. -1.
</event>
<event>
 4    1  0.2239940E+005  0.2151597E+02  0.7546771E-02  0.1512024E+00
          2   -1    0    0  503    0  0.00000000000E+00  0.00000000000E+00  0.11835641689E+04  0.11835641689E+04  0.00000000000E+00 0. -1.
         21   -1    0    0  501  502 -0.00000000000E+00 -0.00000000000E+00 -0.54768936853E+01  0.54768936853E+01  0.00000000000E+00 0.  1.
          2    1    1    2  501    0 -0.50129757290E+01  0.20923843194E+02  0.11619418151E+04  0.11621410064E+04  0.00000000000E+00 0. -1.
         21    1    1    2  503  502  0.50129757290E+01 -0.20923843194E+02  0.16145460143E+02  0.26900056187E+02  0.00000000000E+00 0.  1.
</event>
<event>
 4    1  0.2239940E+005  0.3528003E+02  0.7546771E-02  0.1378605E+00
          2   -1    0    0  503    0  0.00000000000E+00  0.00000000000E+00  0.13933523371E+03  0.13933523371E+03  0.00000000000E+00 0. -1.
         21   -1    0    0  501  502 -0.00000000000E+00 -0.00000000000E+00 -0.13450428356E+02  0.13450428356E+02  0.00000000000E+00 0. -1.
          2    1    1    2  501    0  0.31203451769E+02  0.16462831557E+02  0.10721455876E+03  0.11287002186E+03  0.00000000000E+00 0. -1.
         21    1    1    2  503  502 -0.31203451769E+02 -0.16462831557E+02  0.18670246600E+02  0.39915640209E+02  0.00000000000E+00 0. -1.
</event>
<event>
 4    1  0.2239940E+005  0.6474003E+02  0.7546771E-02  0.1244526E+00
          2   -1    0    0  503    0  0.00000000000E+00  0.00000000000E+00  0.21069748142E+03  0.21069748142E+03  0.00000000000E+00 0.  1.
         21   -1    0    0  501  502 -0.00000000000E+00 -0.00000000000E+00 -0.27120879288E+02  0.27120879288E+02  0.00000000000E+00 0.  1.
          2    1    1    2  501    0 -0.40615573247E+02  0.50414741528E+02  0.15317694789E+03  0.16629626670E+03  0.00000000000E+00 0.  1.
         21    1    1    2  503  502  0.40615573247E+02 -0.50414741528E+02  0.30399654243E+02  0.71522094010E+02  0.00000000000E+00 0.  1.
</event>
<event>
 4    1  0.2239940E+005  0.3416303E+02  0.7546771E-02  0.1386545E+00
          2   -1    0    0  503    0  0.00000000000E+00  0.00000000000E+00  0.11304975852E+03  0.11304975852E+03  0.00000000000E+00 0.  1.
         21   -1    0    0  501  502 -0.00000000000E+00 -0.00000000000E+00 -0.31273452785E+02  0.31273452785E+02  0.00000000000E+00 0. -1.
          2    1    1    2  501    0 -0.54543945017E+01  0.33724803263E+02  0.99949833261E+02  0.10562708906E+03  0.00000000000E+00 0.  1.
         21    1    1    2  503  502  0.54543945017E+01 -0.33724803263E+02 -0.18173527521E+02  0.38696122249E+02  0.00000000000E+00 0. -1.
</event>
<event>
 4    1  0.2239940E+005  0.2382856E+02  0.7546771E-02  0.1482348E+00
          2   -1    0    0  502    0  0.00000000000E+00  0.00000000000E+00  0.10012785300E+03  0.10012785300E+03  0.00000000000E+00 0.  1.
         21   -1    0    0  503  502 -0.00000000000E+00 -0.00000000000E+00 -0.13434732761E+02  0.13434732761E+02  0.00000000000E+00 0.  1.
          2    1    1    2  501    0  0.23422817127E+02  0.43785761593E+01  0.86511681551E+02  0.89733334587E+02  0.00000000000E+00 0.  1.
         21    1    1    2  503  501 -0.23422817127E+02 -0.43785761593E+01  0.18143868446E+00  0.23829251170E+02  0.00000000000E+00 0.  1.
</event>
<event>
 4    1  0.2239940E+005  0.2342281E+02  0.7546771E-02  0.1487256E+00
          2   -1    0    0  503    0  0.00000000000E+00  0.00000000000E+00  0.49502580912E+03  0.49502580912E+03  0.00000000000E+00 0. -1.
         21   -1    0    0  501  502 -0.00000000000E+00 -0.00000000000E+00 -0.16597007676E+01  0.16597007676E+01  0.00000000000E+00 0.  1.
          2    1    1    2  501    0 -0.92109217345E+01 -0.21535709000E+02  0.38982853747E+03  0.39053158190E+03  0.00000000000E+00 0. -1.
         21    1    1    2  503  502  0.92109217345E+01  0.21535709000E+02  0.10353757089E+03  0.10615392799E+03  0.00000000000E+00 0.  1.
</event>
<event>
 4    1  0.2239940E+005  0.2014234E+02  0.7546771E-02  0.1531871E+00
          2   -1    0    0  503    0  0.00000000000E+00  0.00000000000E+00  0.11651609970E+04  0.11651609970E+04  0.00000000000E+00 0.  1.
         21   -1    0    0  501  502 -0.00000000000E+00 -0.00000000000E+00 -0.69410528782E+00  0.69410528782E+00  0.00000000000E+00 0.  1.
          2    1    1    2  501    0  0.30415774368E+01  0.19911369308E+02  0.99374112165E+03  0.99394523525E+03  0.00000000000E+00 0.  1.
         21    1    1    2  503  502 -0.30415774368E+01 -0.19911369308E+02  0.17072577003E+03  0.17190986700E+03  0.00000000000E+00 0.  1.
</event>
<event>
 4    1  0.2239940E+005  0.2865888E+02  0.7546771E-02  0.1431620E+00
          2   -1    0    0  502    0  0.00000000000E+00  0.00000000000E+00  0.14337967499E+02  0.14337967499E+02  0.00000000000E+00 0.  1.
         21   -1    0    0  503  502 -0.00000000000E+00 -0.00000000000E+00 -0.60121146897E+02  0.60121146897E+02  0.00000000000E+00 0.  1.
          2    1    1    2  501    0  0.82751596452E+01  0.27438164962E+02 -0.14803579989E+02  0.32256427951E+02  0.00000000000E+00 0.  1.
         21    1    1    2  503  501 -0.82751596452E+01 -0.27438164962E+02 -0.30979599409E+02  0.42202686445E+02  0.00000000000E+00 0.  1.
</event>
<event>
 4    1  0.2239940E+005  0.2855722E+02  0.7546771E-02  0.1432563E+00
          2   -1    0    0  503    0  0.00000000000E+00  0.00000000000E+00  0.75766641580E+02  0.75766641580E+02  0.00000000000E+00 0. -1.
         21   -1    0    0  501  502 -0.00000000000E+00 -0.00000000000E+00 -0.30014580028E+02  0.30014580028E+02  0.00000000000E+00 0.  1.
          2    1    1    2  501    0 -0.27123338802E+02  0.89352807199E+01  0.65234467319E+02  0.71211308622E+02  0.00000000000E+00 0. -1.
         21    1    1    2  503  502  0.27123338802E+02 -0.89352807199E+01 -0.19482405768E+02  0.34569912985E+02  0.00000000000E+00 0.  1.
</event>
<event>
 4    1  0.2790842E+005  0.2927501E+02  0.7546771E-02  0.1426003E+00
          2   -1    0    0  502    0  0.00000000000E+00  0.00000000000E+00  0.12211648777E+04  0.12211648777E+04  0.00000000000E+00 0.  1.
         21   -1    0    0  503  502 -0.00000000000E+00 -0.00000000000E+00 -0.29962837827E+03  0.29962837827E+03  0.00000000000E+00 0. -1.
          2    1    1    2  501    0 -0.26117006293E+02 -0.13226041789E+02  0.12202738288E+04  0.12206249397E+04  0.00000000000E+00 0.  1.
         21    1    1    2  503  501  0.26117006293E+02  0.13226041789E+02 -0.29873732931E+03  0.30016831632E+03  0.00000000000E+00 0. -1.
</event>
<event>
 4    1  0.2239940E+005  0.4710986E+02  0.7546771E-02  0.1311214E+00
          2   -1    0    0  502    0  0.00000000000E+00  0.00000000000E+00  0.13016149952E+04  0.13016149952E+04  0.00000000000E+00 0. -1.
         21   -1    0    0  503  502 -0.00000000000E+00 -0.00000000000E+00 -0.28587410405E+01  0.28587410405E+01  0.00000000000E+00 0. -1.
          2    1    1    2  501    0  0.44343298056E+02 -0.15906300052E+02  0.10637209591E+04  0.10647636439E+04  0.00000000000E+00 0. -1.
         21    1    1    2  503  501 -0.44343298056E+02  0.15906300052E+02  0.23503529505E+03  0.23971009237E+03  0.00000000000E+00 0. -1.
</event>
<event>
 4    1  0.2239940E+005  0.2272014E+02  0.7546771E-02  0.1496043E+00
          2   -1    0    0  503    0  0.00000000000E+00  0.00000000000E+00  0.17559481530E+03  0.17559481530E+03  0.00000000000E+00 0. -1.
         21   -1    0    0  501  502 -0.00000000000E+00 -0.00000000000E+00 -0.43002137338E+02  0.43002137338E+02  0.00000000000E+00 0.  1.
          2    1    1    2  501    0  0.16834179243E+02 -0.15258280692E+02  0.17179270593E+03  0.17328859896E+03  0.00000000000E+00 0. -1.
         21    1    1    2  503  502 -0.16834179243E+02  0.15258280692E+02 -0.39200027964E+02  0.45308353676E+02  0.00000000000E+00 0.  1.
</event>
<event>
 4    1  0.2239940E+005  0.2366114E+02  0.7546771E-02  0.1484359E+00
          2   -1    0    0  502    0  0.00000000000E+00  0.00000000000E+00  0.96989851850E+02  0.96989851850E+02  0.00000000000E+00 0.  1.
         21   -1    0    0  503  502 -0.00000000000E+00 -0.00000000000E+00 -0.97976907933E+01  0.97976907933E+01  0.00000000000E+00 0.  1.
          2    1    1    2  501    0  0.10238496499E+02 -0.21331264887E+02  0.77820449879E+02  0.81338011358E+02  0.00000000000E+00 0.  1.
         21    1    1    2  503  501 -0.10238496499E+02  0.21331264887E+02  0.93717111770E+01  0.25449531285E+02  0.00000000000E+00 0.  1.
</event>
<event>
 4    1  0.2239940E+005  0.2300769E+02  0.7546771E-02  0.1492402E+00
          2   -1    0    0  502    0  0.00000000000E+00  0.00000000000E+00  0.34406931621E+03  0.34406931621E+03  0.00000000000E+00 0.  1.
         21   -1    0    0  503  502 -0.00000000000E+00 -0.00000000000E+00 -0.30438646098E+03  0.30438646098E+03  0.00000000000E+00 0.  1.
          2    1    1    2  501    0 -0.39953957860E+01  0.22658119713E+02  0.34324888009E+03  0.34401910886E+03  0.00000000000E+00 0.  1.
         21    1    1    2  503  501  0.39953957860E+01 -0.22658119713E+02 -0.30356602486E+03  0.30443666833E+03  0.00000000000E+00 0.  1.
</event>
<event>
 4    1  0.2239940E+005  0.2282462E+02  0.7546771E-02  0.1494712E+00
          2   -1    0    0  502    0  0.00000000000E+00  0.00000000000E+00  0.38680213043E+03  0.38680213043E+03  0.00000000000E+00 0.  1.
         21   -1    0    0  503  502 -0.00000000000E+00 -0.00000000000E+00 -0.17661626949E+01  0.17661626949E+01  0.00000000000E+00 0. -1.
          2    1    1    2  501    0 -0.80412052282E+01  0.21361234414E+02  0.28718365793E+03  0.28808925127E+03  0.00000000000E+00 0.  1.
         21    1    1    2  503  501  0.80412052282E+01 -0.21361234414E+02  0.97852309806E+02  0.10047904185E+03  0.00000000000E+00 0. -1.
</event>
<event>
 4    1  0.2239940E+005  0.3334058E+02  0.7546771E-02  0.1392620E+00
          2   -1    0    0  502    0  0.00000000000E+00  0.00000000000E+00  0.40026921803E+03  0.40026921803E+03  0.00000000000E+00 0. -1.
         21   -1    0    0  503  502 -0.00000000000E+00 -0.00000000000E+00 -0.39029505411E+01  0.39029505411E+01  0.00000000000E+00 0.  1.
          2    1    1    2  501    0 -0.66513987096E+01  0.32670372360E+02  0.30671993846E+03  0.30852668439E+03  0.00000000000E+00 0. -1.
         21    1    1    2  503  501  0.66513987096E+01 -0.32670372360E+02  0.89646329032E+02  0.95645484179E+02  0.00000000000E+00 0.  1.
</event>
<event>
 4    1  0.2239940E+005  0.2482926E+02  0.7546771E-02  0.1470723E+00
          2   -1    0    0  503    0  0.00000000000E+00  0.00000000000E+00  0.27198282676E+02  0.27198282676E+02  0.00000000000E+00 0. -1.
         21   -1    0    0  501  502 -0.00000000000E+00 -0.00000000000E+00 -0.66901100934E+02  0.66901100934E+02  0.00000000000E+00 0.  1.
          2    1    1    2  501    0  0.24056234973E+02  0.61473413718E+01  0.18406460175E+02  0.30907766390E+02  0.00000000000E+00 0. -1.
         21    1    1    2  503  502 -0.24056234973E+02 -0.61473413718E+01 -0.58109278432E+02  0.63191617220E+02  0.00000000000E+00 0.  1.
</event>
<event>
 4    1  0.2239940E+005  0.2470308E+02  0.7546771E-02  0.1472153E+00
          2   -1    0    0  502    0  0.00000000000E+00  0.00000000000E+00  0.10060112246E+04  0.10060112246E+04  0.00000000000E+00 0. -1.
         21   -1    0    0  503  502 -0.00000000000E+00 -0.00000000000E+00 -0.15262510134E+01  0.15262510134E+01  0.00000000000E+00 0. -1.
          2    1    1    2  501    0  0.30486762295E+01  0.24514232901E+02  0.89329112917E+03  0.89363263341E+03  0.00000000000E+00 0. -1.
         21    1    1    2  503  501 -0.30486762295E+01 -0.24514232901E+02  0.11119384446E+03  0.11390484224E+03  0.00000000000E+00 0. -1.
</event>
<event>
 4    1  0.2239940E+005  0.2047839E+02  0.7546771E-02  0.1526844E+00
          2   -1    0    0  503    0  0.00000000000E+00  0.00000000000E+00  0.87727558183E+03  0.87727558183E+03  0.00000000000E+00 0.  1.
         21   -1    0    0  501  502 -0.00000000000E+00 -0.00000000000E+00 -0.19791696220E+02  0.19791696220E+02  0.00000000000E+00 0.  1.
          2    1    1    2  501    0  0.91814172413E+01 -0.18304810570E+02  0.87182573738E+03  0.87206621358E+03  0.00000000000E+00 0.  1.
         21    1    1    2  503  502 -0.91814172413E+01  0.18304810570E+02 -0.14341851767E+02  0.25001064471E+02  0.00000000000E+00 0.  1.
</event>
<event>
 4    1  0.2239940E+005  0.2140287E+02  0.7546771E-02  0.1513590E+00
          2   -1    0    0  503    0  0.00000000000E+00  0.00000000000E+00  0.76524650557E+03  0.76524650557E+03  0.00000000000E+00 0. -1.
         21   -1    0    0  501  502 -0.00000000000E+00 -0.00000000000E+00 -0.60086256277E+00  0.60086256277E+00  0.00000000000E+00 0. -1.
          2    1    1    2  501    0 -0.17309931954E+02  0.12587655153E+02  0.35886757910E+03  0.35950524633E+03  0.00000000000E+00 0. -1.
         21    1    1    2  503  502  0.17309931954E+02 -0.12587655153E+02  0.40577806390E+03  0.40634212180E+03  0.00000000000E+00 0. -1.
</event>
<event>
 4    1  0.2239940E+005  0.2212843E+02  0.7546771E-02  0.1503742E+00
          2   -1    0    0  503    0  0.00000000000E+00  0.00000000000E+00  0.13196158207E+02  0.13196158207E+02  0.00000000000E+00 0. -1.
         21   -1    0    0  501  502 -0.00000000000E+00 -0.00000000000E+00 -0.37184714415E+02  0.37184714415E+02  0.00000000000E+00 0.  1.
          2    1    1    2  501    0  0.19828547097E+02 -0.98232475408E+01 -0.10841341091E+02  0.24641472133E+02  0.00000000000E+00 0. -1.
         21    1    1    2  503  502 -0.19828547097E+02  0.98232475408E+01 -0.13147215116E+02  0.25739400489E+02  0.00000000000E+00 0.  1.
</event>
<event>
 4    1  0.2239940E+005  0.2035015E+02  0.7546771E-02  0.1528749E+00
          2   -1    0    0  503    0  0.00000000000E+00  0.00000000000E+00  0.16771611318E+04  0.16771611318E+04  0.00000000000E+00 0.  1.
         21   -1    0    0  501  502 -0.00000000000E+00 -0.00000000000E+00 -0.62102618513E+00  0.62102618513E+00  0.00000000000E+00 0.  1.
          2    1    1    2  501    0 -0.17177914094E+02 -0.10910911074E+02  0.14893684854E+04  0.14895075072E+04  0.00000000000E+00 0.  1.
         21    1    1    2  503  502  0.17177914094E+02  0.10910911074E+02  0.18717162023E+03  0.18827465080E+03  0.00000000000E+00 0.  1.
</event>
<event>
 4    1  0.2239940E+005  0.3956601E+02  0.7546771E-02  0.1351048E+00
          2   -1    0    0  503    0  0.00000000000E+00  0.00000000000E+00  0.37017001138E+01  0.37017001138E+01  0.00000000000E+00 0.  1.
         21   -1    0    0  501  502 -0.00000000000E+00 -0.00000000000E+00 -0.43587829599E+03  0.43587829599E+03  0.00000000000E+00 0. -1.
          2    1    1    2  501    0 -0.77584879021E+01  0.38797868920E+02 -0.25400623275E+03  0.25706931953E+03  0.00000000000E+00 0.  1.
         21    1    1    2  503  502  0.77584879021E+01 -0.38797868920E+02 -0.17817036313E+03  0.18251067658E+03  0.00000000000E+00 0. -1.
</event>
<event>
 4    1  0.2239940E+005  0.2655552E+02  0.7546771E-02  0.1452125E+00
          2   -1    0    0  503    0  0.00000000000E+00  0.00000000000E+00  0.94275070560E+03  0.94275070560E+03  0.00000000000E+00 0.  1.
         21   -1    0    0  501  502 -0.00000000000E+00 -0.00000000000E+00 -0.87002849863E+00  0.87002849863E+00  0.00000000000E+00 0. -1.
          2    1    1    2  501    0 -0.26555135686E+02 -0.14316606024E+00  0.64762425524E+03  0.64816847479E+03  0.00000000000E+00 0.  1.
         21    1    1    2  503  502  0.26555135686E+02  0.14316606024E+00  0.29425642186E+03  0.29545225931E+03  0.00000000000E+00 0. -1.
</event>
<event>
 4    1  0.2239940E+005  0.3331592E+02  0.7546771E-02  0.1392806E+00
          2   -1    0    0  503    0  0.00000000000E+00  0.00000000000E+00  0.27600892415E+02  0.27600892415E+02  0.00000000000E+00 0. -1.
         21   -1    0    0  501  502 -0.00000000000E+00 -0.00000000000E+00 -0.40297421924E+02  0.40297421924E+02  0.00000000000E+00 0. -1.
          2    1    1    2  501    0  0.20234177677E+02  0.26467506061E+02 -0.78900503026E+01  0.34237460729E+02  0.00000000000E+00 0. -1.
         21    1    1    2  503  502 -0.20234177677E+02 -0.26467506061E+02 -0.48064792059E+01  0.33660853610E+02  0.00000000000E+00 0. -1.
</event>
<event>
 4    1  0.2239940E+005  0.2625927E+02  0.7546771E-02  0.1455194E+00
          2   -1    0    0  503    0  0.00000000000E+00  0.00000000000E+00  0.65942047489E+03  0.65942047489E+03  0.00000000000E+00 0. -1.
         21   -1    0    0  501  502 -0.00000000000E+00 -0.00000000000E+00 -0.11462426038E+01  0.11462426038E+01  0.00000000000E+00 0. -1.
          2    1    1    2  501    0 -0.25256485431E+02 -0.71874451595E+01  0.23131321267E+03  0.23279895141E+03  0.00000000000E+00 0. -1.
         21    1    1    2  503  502  0.25256485431E+02  0.71874451595E+01  0.42696101961E+03  0.42776776608E+03  0.00000000000E+00 0. -1.
</event>
<event>
 4    1  0.2239940E+005  0.3471019E+02  0.7546771E-02  0.1382612E+00
          2   -1    0    0  503    0  0.00000000000E+00  0.00000000000E+00  0.30180604686E+02  0.30180604686E+02  0.00000000000E+00 0. -1.
         21   -1    0    0  501  502 -0.00000000000E+00 -0.00000000000E+00 -0.57766574107E+02  0.57766574107E+02  0.00000000000E+00 0. -1.
          2    1    1    2  501    0  0.32145608520E+02 -0.13094174555E+02  0.10648971005E+02  0.36306998469E+02  0.00000000000E+00 0. -1.
         21    1    1    2  503  502 -0.32145608520E+02  0.13094174555E+02 -0.38234940427E+02  0.51640180323E+02  0.00000000000E+00 0. -1.
</event>
<event>
 4    1  0.2239940E+005  0.3291353E+02  0.7546771E-02  0.1395856E+00
          2   -1    0    0  502    0  0.00000000000E+00  0.00000000000E+00  0.11093715503E+03  0.11093715503E+03  0.00000000000E+00 0. -1.
         21   -1    0    0  503  502 -0.00000000000E+00 -0.00000000000E+00 -0.10885057089E+02  0.10885057089E+02  0.00000000000E+00 0. -1.
          2    1    1    2  501    0 -0.32410322492E+02 -0.57333570800E+01  0.69565071679E+02  0.76958427642E+02  0.00000000000E+00 0. -1.
         21    1    1    2  503  501  0.32410322492E+02  0.57333570800E+01  0.30487026266E+02  0.44863784482E+02  0.00000000000E+00 0. -1.
</event>
<event>
 4    1  0.2239940E+005  0.3001502E+02  0.7546771E-02  0.1419466E+00
          2   -1    0    0  503    0  0.00000000000E+00  0.00000000000E+00  0.79042458955E+03  0.79042458955E+03  0.00000000000E+00 0.  1.
         21   -1    0    0  501  502 -0.00000000000E+00 -0.00000000000E+00 -0.15549537095E+02  0.15549537095E+02  0.00000000000E+00 0.  1.
          2    1    1    2  501    0 -0.17682951916E+01 -0.29962886338E+02  0.77537422736E+03  0.77595495609E+03  0.00000000000E+00 0.  1.
         21    1    1    2  503  502  0.17682951916E+01  0.29962886338E+02 -0.49917489961E+00  0.30019170561E+02  0.00000000000E+00 0.  1.
</event>
<event>
 4    1  0.2239940E+005  0.2028209E+02  0.7546771E-02  0.1529766E+00
          2   -1    0    0  502    0  0.00000000000E+00  0.00000000000E+00  0.31333240895E+03  0.31333240895E+03  0.00000000000E+00 0. -1.
         21   -1    0    0  503  502 -0.00000000000E+00 -0.00000000000E+00 -0.45143993360E+02  0.45143993360E+02  0.00000000000E+00 0. -1.
          2    1    1    2  501    0  0.12568804240E+02 -0.15918172658E+02  0.31070690250E+03  0.31136817808E+03  0.00000000000E+00 0. -1.
         21    1    1    2  503  501 -0.12568804240E+02  0.15918172658E+02 -0.42518486910E+02  0.47108224228E+02  0.00000000000E+00 0. -1.
</event>
<event>
 4    1  0.2239940E+005  0.2345067E+02  0.7546771E-02  0.1486915E+00
          2   -1    0    0  502    0  0.00000000000E+00  0.00000000000E+00  0.51649771558E+03  0.51649771558E+03  0.00000000000E+00 0. -1.
         21   -1    0    0  503  502 -0.00000000000E+00 -0.00000000000E+00 -0.37325845476E+02  0.37325845476E+02  0.00000000000E+00 0.  1.
          2    1    1    2  501    0  0.21226688932E+02 -0.99680400622E+01  0.51251962342E+03  0.51305584348E+03  0.00000000000E+00 0. -1.
         21    1    1    2  503  501 -0.21226688932E+02  0.99680400622E+01 -0.33347753309E+02  0.40767717577E+02  0.00000000000E+00 0.  1.
</event>
<event>
 4    1  0.2239940E+005  0.3529795E+02  0.7546771E-02  0.1378481E+00
          2   -1    0    0  502    0  0.00000000000E+00  0.00000000000E+00  0.85618946105E+01  0.85618946105E+01  0.00000000000E+00 0.  1.
         21   -1    0    0  503  502 -0.00000000000E+00 -0.00000000000E+00 -0.39531054333E+03  0.39531054333E+03  0.00000000000E+00 0.  1.
          2    1    1    2  501    0 -0.35165403017E+01 -0.35122344089E+02 -0.32853578390E+02  0.48221392795E+02  0.00000000000E+00 0.  1.
         21    1    1    2  503  501  0.35165403017E+01  0.35122344089E+02 -0.35389507033E+03  0.35565104514E+03  0.00000000000E+00 0.  1.
</event>
<event>
 4    1  0.2239940E+005  0.4858696E+02  0.7546771E-02  0.1304418E+00
          2   -1    0    0  502    0  0.00000000000E+00  0.00000000000E+00  0.61136341973E+02  0.61136341973E+02  0.00000000000E+00 0. -1.
         21   -1    0    0  503  502 -0.00000000000E+00 -0.00000000000E+00 -0.87413156531E+02  0.87413156531E+02  0.00000000000E+00 0.  1.
          2    1    1    2  501    0 -0.20328350601E+02 -0.44129926122E+02  0.42357490134E+02  0.64458119645E+02  0.00000000000E+00 0. -1.
         21    1    1    2  503  501  0.20328350601E+02  0.44129926122E+02 -0.68634304693E+02  0.84091378859E+02  0.00000000000E+00 0.  1.
</event>
<event>
 4    1  0.2239940E+005  0.2282577E+02  0.7546771E-02  0.1494698E+00
          2   -1    0    0  503    0  0.00000000000E+00  0.00000000000E+00  0.19936157533E+03  0.19936157533E+03  0.00000000000E+00 0. -1.
         21   -1    0    0  501  502 -0.00000000000E+00 -0.00000000000E+00 -0.12509682220E+02  0.12509682220E+02  0.00000000000E+00 0.  1.
          2    1    1    2  501    0  0.14969397211E+02 -0.17231740795E+02  0.18764841620E+03  0.18903159484E+03  0.00000000000E+00 0. -1.
         21    1    1    2  503  502 -0.14969397211E+02  0.17231740795E+02 -0.79652309493E+00  0.22839662710E+02  0.00000000000E+00 0.  1.
</event>
<event>
 4    1  0.2239940E+005  0.2048444E+02  0.7546771E-02  0.1526754E+00
          2   -1    0    0  503    0  0.00000000000E+00  0.00000000000E+00  0.77089126973E+03  0.77089126973E+03  0.00000000000E+00 0.  1.
         21   -1    0    0  501  502 -0.00000000000E+00 -0.00000000000E+00 -0.46958160584E+02  0.46958160584E+02  0.00000000000E+00 0.  1.
          2    1    1    2  501    0 -0.39483686327E+01 -0.20100320194E+02  0.76851431115E+03  0.76878726507E+03  0.00000000000E+00 0.  1.
         21    1    1    2  503  502  0.39483686327E+01  0.20100320194E+02 -0.44581202003E+02  0.49062165248E+02  0.00000000000E+00 0.  1.
</event>
<event>
 4    1  0.2239940E+005  0.3166334E+02  0.7546771E-02  0.1405672E+00
          2   -1    0    0  503    0  0.00000000000E+00  0.00000000000E+00  0.20382523969E+04  0.20382523969E+04  0.00000000000E+00 0. -1.
         21   -1    0    0  501  502 -0.00000000000E+00 -0.00000000000E+00 -0.49224850345E+00  0.49224850345E+00  0.00000000000E+00 0. -1.
          2    1    1    2  501    0  0.31520332987E+02 -0.30059056273E+01  0.10469324974E+04  0.10474111996E+04  0.00000000000E+00 0. -1.
         21    1    1    2  503  502 -0.31520332987E+02  0.30059056273E+01  0.99082765091E+03  0.99133344575E+03  0.00000000000E+00 0. -1.
</event>
<event>
 4    1  0.2239940E+005  0.6669332E+02  0.7546771E-02  0.1238643E+00
          2   -1    0    0  502    0  0.00000000000E+00  0.00000000000E+00  0.45537499781E+03  0.45537499781E+03  0.00000000000E+00 0. -1.
         21   -1    0    0  503  502 -0.00000000000E+00 -0.00000000000E+00 -0.15258189366E+02  0.15258189366E+02  0.00000000000E+00 0.  1.
          2    1    1    2  501    0 -0.65694667936E+02 -0.11498242933E+02  0.36121583562E+03  0.36732122030E+03  0.00000000000E+00 0. -1.
         21    1    1    2  503  501  0.65694667936E+02  0.11498242933E+02  0.78900972832E+02  0.10331196688E+03  0.00000000000E+00 0.  1.
</event>
<event>
 4    1  0.2239940E+005  0.2191966E+02  0.7546771E-02  0.1506529E+00
          2   -1    0    0  502    0  0.00000000000E+00  0.00000000000E+00  0.22633451450E+03  0.22633451450E+03  0.00000000000E+00 0.  1.
         21   -1    0    0  503  502 -0.00000000000E+00 -0.00000000000E+00 -0.52611761632E+01  0.52611761632E+01  0.00000000000E+00 0.  1.
          2    1    1    2  501    0  0.18589043878E+02  0.11615467223E+02  0.19997195267E+03  0.20116971314E+03  0.00000000000E+00 0.  1.
         21    1    1    2  503  501 -0.18589043878E+02 -0.11615467223E+02  0.21101385669E+02  0.30425977523E+02  0.00000000000E+00 0.  1.
</event>
<event>
 4    1  0.2239940E+005  0.2343015E+02  0.7546771E-02  0.1487166E+00
          2   -1    0    0  502    0  0.00000000000E+00  0.00000000000E+00  0.20657671449E+03  0.20657671449E+03  0.00000000000E+00 0.  1.
         21   -1    0    0  503  502 -0.00000000000E+00 -0.00000000000E+00 -0.39189653323E+03  0.39189653323E+03  0.00000000000E+00 0. -1.
          2    1    1    2  501    0 -0.11173852228E+02 -0.20594104105E+02  0.20556041816E+03  0.20689141502E+03  0.00000000000E+00 0.  1.
         21    1    1    2  503  501  0.11173852228E+02  0.20594104105E+02 -0.39088023690E+03  0.39158183270E+03  0.00000000000E+00 0. -1.
</event>
<event>
 4    1  0.2239940E+005  0.2539382E+02  0.7546771E-02  0.1464446E+00
          2   -1    0    0  503    0  0.00000000000E+00  0.00000000000E+00  0.80855178179E+03  0.80855178179E+03  0.00000000000E+00 0. -1.
         21   -1    0    0  501  502 -0.00000000000E+00 -0.00000000000E+00 -0.18115309957E+01  0.18115309957E+01  0.00000000000E+00 0.  1.
          2    1    1    2  501    0  0.20188074613E+02  0.15404144165E+02  0.70651178806E+03  0.70696799976E+03  0.00000000000E+00 0. -1.
         21    1    1    2  503  502 -0.20188074613E+02 -0.15404144165E+02  0.10022846274E+03  0.10339531303E+03  0.00000000000E+00 0.  1.
</event>
<event>
 4    1  0.2239940E+005  0.2257503E+02  0.7546771E-02  0.1497905E+00
          2   -1    0    0  502    0  0.00000000000E+00  0.00000000000E+00  0.79450479899E+03  0.79450479899E+03  0.00000000000E+00 0. -1.
         21   -1    0    0  503  502 -0.00000000000E+00 -0.00000000000E+00 -0.23740248140E+02  0.23740248140E+02  0.00000000000E+00 0. -1.
          2    1    1    2  501    0 -0.10893111843E+02  0.19773015370E+02  0.78893983843E+03  0.78926275769E+03  0.00000000000E+00 0. -1.
         21    1    1    2  503  501  0.10893111843E+02 -0.19773015370E+02 -0.18175287579E+02  0.28982289437E+02  0.00000000000E+00 0. -1.
</event>
<event>
 4    1  0.2239940E+005  0.2726178E+02  0.7546771E-02  0.1444996E+00
          2   -1    0    0  503    0  0.00000000000E+00  0.00000000000E+00  0.10944060708E+04  0.10944060708E+04  0.00000000000E+00 0. -1.
         21   -1    0    0  501  502 -0.00000000000E+00 -0.00000000000E+00 -0.10511695293E+01  0.10511695293E+01  0.00000000000E+00 0. -1.
          2    1    1    2  501    0  0.25975151934E+02  0.82762298731E+01  0.87254765938E+03  0.87297343739E+03  0.00000000000E+00 0. -1.
         21    1    1    2  503  502 -0.25975151934E+02 -0.82762298731E+01  0.22080724187E+03  0.22248380292E+03  0.00000000000E+00 0. -1.
</event>
<event>
 4    1  0.2239940E+005  0.2911484E+02  0.7546771E-02  0.1427447E+00
          2   -1    0    0  502    0  0.00000000000E+00  0.00000000000E+00  0.34222243533E+03  0.34222243533E+03  0.00000000000E+00 0. -1.
         21   -1    0    0  503  502 -0.00000000000E+00 -0.00000000000E+00 -0.15634074019E+02  0.15634074019E+02  0.00000000000E+00 0. -1.
          2    1    1    2  501    0 -0.19689991574E+02  0.21447100967E+02  0.32743743378E+03  0.32872929129E+03  0.00000000000E+00 0. -1.
         21    1    1    2  503  501  0.19689991574E+02 -0.21447100967E+02 -0.84907247041E+00  0.29127218063E+02  0.00000000000E+00 0. -1.
</event>
<event>
 4    1  0.2239940E+005  0.2278076E+02  0.7546771E-02  0.1495270E+00
          2   -1    0    0  502    0  0.00000000000E+00  0.00000000000E+00  0.65700353978E+03  0.65700353978E+03  0.00000000000E+00 0.  1.
         21   -1    0    0  503  502 -0.00000000000E+00 -0.00000000000E+00 -0.67249721585E+01  0.67249721585E+01  0.00000000000E+00 0. -1.
          2    1    1    2  501    0 -0.22731144614E+02 -0.15026746189E+01  0.63690507841E+03  0.63731235816E+03  0.00000000000E+00 0.  1.
         21    1    1    2  503  501  0.22731144614E+02  0.15026746189E+01  0.13373489212E+02  0.26416153774E+02  0.00000000000E+00 0. -1.
</event>
<event>
 4    1  0.2239940E+005  0.2322468E+02  0.7546771E-02  0.1489696E+00
          2   -1    0    0  503    0  0.00000000000E+00  0.00000000000E+00  0.93602905423E+02  0.93602905423E+02  0.00000000000E+00 0. -1.
         21   -1    0    0  501  502 -0.00000000000E+00 -0.00000000000E+00 -0.91610703395E+02  0.91610703395E+02  0.00000000000E+00 0. -1.
          2    1    1    2  501    0  0.15009124246E+02 -0.17723197314E+02  0.90643032232E+02  0.93571068317E+02  0.00000000000E+00 0. -1.
         21    1    1    2  503  502 -0.15009124246E+02  0.17723197314E+02 -0.88650830204E+02  0.91642540501E+02  0.00000000000E+00 0. -1.
</event>
<event>
 4    1  0.2239940E+005  0.5643380E+02  0.7546771E-02  0.1272456E+00
          2   -1    0    0  503    0  0.00000000000E+00  0.00000000000E+00  0.50586793202E+03  0.50586793202E+03  0.00000000000E+00 0. -1.
         21   -1    0    0  501  502 -0.00000000000E+00 -0.00000000000E+00 -0.84040165407E+01  0.84040165407E+01  0.00000000000E+00 0.  1.
          2    1    1    2  501    0 -0.18866714503E+02  0.53186660010E+02  0.37752463515E+03  0.38171929983E+03  0.00000000000E+00 0. -1.
         21    1    1    2  503  502  0.18866714503E+02 -0.53186660010E+02  0.11993928033E+03  0.13255264873E+03  0.00000000000E+00 0.  1.
</event>
<event>
 4    1  0.2239940E+005  0.2499922E+02  0.7546771E-02  0.1468812E+00
          2   -1    0    0  502    0  0.00000000000E+00  0.00000000000E+00  0.20729211697E+02  0.20729211697E+02  0.00000000000E+00 0.  1.
         21   -1    0    0  503  502 -0.00000000000E+00 -0.00000000000E+00 -0.35709587777E+03  0.35709587777E+03  0.00000000000E+00 0. -1.
          2    1    1    2  501    0  0.24119054256E+02 -0.65751370942E+01  0.12578650644E+02  0.27985418668E+02  0.00000000000E+00 0.  1.
         21    1    1    2  503  501 -0.24119054256E+02  0.65751370942E+01 -0.34894531672E+03  0.34983967080E+03  0.00000000000E+00 0. -1.
</event>
<event>
 4    1  0.2239940E+005  0.3183338E+02  0.7546771E-02  0.1404306E+00
          2   -1    0    0  502    0  0.00000000000E+00  0.00000000000E+00  0.14082432431E+04  0.14082432431E+04  0.00000000000E+00 0.  1.
         21   -1    0    0  503  502 -0.00000000000E+00 -0.00000000000E+00 -0.14783447906E+03  0.14783447906E+03  0.00000000000E+00 0. -1.
          2    1    1    2  501    0  0.21390952195E+02  0.23575224810E+02  0.14063473544E+04  0.14067075906E+04  0.00000000000E+00 0.  1.
         21    1    1    2  503  501 -0.21390952195E+02 -0.23575224810E+02 -0.14593859037E+03  0.14937013162E+03  0.00000000000E+00 0. -1.
</event>
<event>
 4    1  0.2239940E+005  0.2107933E+02  0.7546771E-02  0.1518135E+00
          2   -1    0    0  503    0  0.00000000000E+00  0.00000000000E+00  0.99905924298E+02  0.99905924298E+02  0.00000000000E+00 0. -1.
         21   -1    0    0  501  502 -0.00000000000E+00 -0.00000000000E+00 -0.13881794053E+03  0.13881794053E+03  0.00000000000E+00 0.  1.
          2    1    1    2  501    0  0.15113523240E+02  0.14694201391E+02  0.97978249700E+02  0.10022013547E+03  0.00000000000E+00 0. -1.
         21    1    1    2  503  502 -0.15113523240E+02 -0.14694201391E+02 -0.13689026594E+03  0.13850372936E+03  0.00000000000E+00 0.  1.
</event>
<event>
 4    1  0.2239940E+005  0.9170139E+02  0.7546771E-02  0.1179021E+00
          2   -1    0    0  502    0  0.00000000000E+00  0.00000000000E+00  0.32426112198E+02  0.32426112198E+02  0.00000000000E+00 0. -1.
         21   -1    0    0  503  502 -0.00000000000E+00 -0.00000000000E+00 -0.26278414673E+03  0.26278414673E+03  0.00000000000E+00 0. -1.
          2    1    1    2  501    0 -0.73794408253E+02 -0.54438316453E+02 -0.98262359550E+02  0.13440474803E+03  0.00000000000E+00 0. -1.
         21    1    1    2  503  501  0.73794408253E+02  0.54438316453E+02 -0.13209567499E+03  0.16080551091E+03  0.00000000000E+00 0. -1.
</event>
<event>
 4    1  0.2239940E+005  0.2609403E+02  0.7546771E-02  0.1456927E+00
          2   -1    0    0  502    0  0.00000000000E+00  0.00000000000E+00  0.50996410749E+01  0.50996410749E+01  0.00000000000E+00 0. -1.
         21   -1    0    0  503  502 -0.00000000000E+00 -0.00000000000E+00 -0.43614627497E+03  0.43614627497E+03  0.00000000000E+00 0.  1.
          2    1    1    2  501    0  0.23572987280E+02  0.11189850183E+02 -0.31747347107E+02  0.41094920912E+02  0.00000000000E+00 0. -1.
         21    1    1    2  503  501 -0.23572987280E+02 -0.11189850183E+02 -0.39929928678E+03  0.40015099513E+03  0.00000000000E+00 0.  1.
</event>
<event>
 4    1  0.2239940E+005  0.2110330E+02  0.7546771E-02  0.1517795E+00
          2   -1    0    0  502    0  0.00000000000E+00  0.00000000000E+00  0.45062307621E+03  0.45062307621E+03  0.00000000000E+00 0. -1.
         21   -1    0    0  503  502 -0.00000000000E+00 -0.00000000000E+00 -0.24015100468E+01  0.24015100468E+01  0.00000000000E+00 0.  1.
          2    1    1    2  501    0  0.13191443704E+01 -0.21062031728E+02  0.39787223231E+03  0.39843150298E+03  0.00000000000E+00 0. -1.
         21    1    1    2  503  501 -0.13191443704E+01  0.21062031728E+02  0.50349333857E+02  0.54593083282E+02  0.00000000000E+00 0.  1.
</event>
<event>
 4    1  0.2239940E+005  0.2029061E+02  0.7546771E-02  0.1529639E+00
          2   -1    0    0  502    0  0.00000000000E+00  0.00000000000E+00  0.13852076303E+04  0.13852076303E+04  0.00000000000E+00 0.  1.
         21   -1    0    0  503  502 -0.00000000000E+00 -0.00000000000E+00 -0.31969883882E+00  0.31969883882E+00  0.00000000000E+00 0.  1.
          2    1    1    2  501    0 -0.19950794247E+02  0.36979497522E+01  0.87614777571E+03  0.87638269832E+03  0.00000000000E+00 0.  1.
         21    1    1    2  503  501  0.19950794247E+02 -0.36979497522E+01  0.50874015572E+03  0.50914463080E+03  0.00000000000E+00 0.  1.
</event>
<event>
 4    1  0.2239940E+005  0.2124895E+02  0.7546771E-02  0.1515740E+00
          2   -1    0    0  503    0  0.00000000000E+00  0.00000000000E+00  0.13324531774E+03  0.13324531774E+03  0.00000000000E+00 0.  1.
         21   -1    0    0  501  502 -0.00000000000E+00 -0.00000000000E+00 -0.34782096204E+01  0.34782096204E+01  0.00000000000E+00 0.  1.
          2    1    1    2  501    0 -0.16146173117E+02  0.13813719578E+02  0.53912101837E+02  0.57948533022E+02  0.00000000000E+00 0.  1.
         21    1    1    2  503  502  0.16146173117E+02 -0.13813719578E+02  0.75855006282E+02  0.78774994338E+02  0.00000000000E+00 0.  1.
</event>
<event>
 4    1  0.2239940E+005  0.2388594E+02  0.7546771E-02  0.1481663E+00
          2   -1    0    0  503    0  0.00000000000E+00  0.00000000000E+00  0.21721302370E+02  0.21721302370E+02  0.00000000000E+00 0. -1.
         21   -1    0    0  501  502 -0.00000000000E+00 -0.00000000000E+00 -0.62689999841E+02  0.62689999841E+02  0.00000000000E+00 0.  1.
          2    1    1    2  501    0  0.10881693556E+02  0.21263278030E+02  0.11686572587E+02  0.26591619470E+02  0.00000000000E+00 0. -1.
         21    1    1    2  503  502 -0.10881693556E+02 -0.21263278030E+02 -0.52655270058E+02  0.57819682740E+02  0.00000000000E+00 0.  1.
</event>
<event>
 4    1  0.2239940E+005  0.2131180E+02  0.7546771E-02  0.1514859E+00
          2   -1    0    0  503    0  0.00000000000E+00  0.00000000000E+00  0.16717097664E+03  0.16717097664E+03  0.00000000000E+00 0.  1.
         21   -1    0    0  501  502 -0.00000000000E+00 -0.00000000000E+00 -0.27443301712E+01  0.27443301712E+01  0.00000000000E+00 0.  1.
          2    1    1    2  501    0 -0.14344193380E+02 -0.15761883861E+02  0.90701460015E+02  0.93171603589E+02  0.00000000000E+00 0.  1.
         21    1    1    2  503  502  0.14344193380E+02  0.15761883861E+02  0.73725186452E+02  0.76743703220E+02  0.00000000000E+00 0.  1.
</event>
<event>
 4    1  0.2239940E+005  0.2298001E+02  0.7546771E-02  0.1492749E+00
          2   -1    0    0  503    0  0.00000000000E+00  0.00000000000E+00  0.10386586076E+03  0.10386586076E+03  0.00000000000E+00 0. -1.
         21   -1    0    0  501  502 -0.00000000000E+00 -0.00000000000E+00 -0.83743477891E+01  0.83743477891E+01  0.00000000000E+00 0.  1.
          2    1    1    2  501    0 -0.22613819624E+02 -0.40860843345E+01  0.82921783877E+02  0.86047098525E+02  0.00000000000E+00 0. -1.
         21    1    1    2  503  502  0.22613819624E+02  0.40860843345E+01  0.12569729091E+02  0.26193110021E+02  0.00000000000E+00 0.  1.
</event>
<event>
 4    1  0.2239940E+005  0.2600109E+02  0.7546771E-02  0.1457909E+00
          2   -1    0    0  503    0  0.00000000000E+00  0.00000000000E+00  0.56863220795E+03  0.56863220795E+03  0.00000000000E+00 0.  1.
         21   -1    0    0  501  502 -0.00000000000E+00 -0.00000000000E+00 -0.15234747918E+02  0.15234747918E+02  0.00000000000E+00 0. -1.
          2    1    1    2  501    0  0.15338163763E+02  0.20995178137E+02  0.55700962342E+03  0.55761615593E+03  0.00000000000E+00 0.  1.
         21    1    1    2  503  502 -0.15338163763E+02 -0.20995178137E+02 -0.36121633937E+01  0.26250799931E+02  0.00000000000E+00 0. -1.
</event>
<event>
 4    1  0.2239940E+005  0.2386664E+02  0.7546771E-02  0.1481893E+00
          2   -1    0    0  503    0  0.00000000000E+00  0.00000000000E+00  0.14089629193E+02  0.14089629193E+02  0.00000000000E+00 0.  1.
         21   -1    0    0  501  502 -0.00000000000E+00 -0.00000000000E+00 -0.92685246400E+02  0.92685246400E+02  0.00000000000E+00 0.  1.
          2    1    1    2  501    0 -0.23599007851E+02  0.35641593708E+01  0.78948869261E+00  0.23879692125E+02  0.00000000000E+00 0.  1.
         21    1    1    2  503  502  0.23599007851E+02 -0.35641593708E+01 -0.79385105900E+02  0.82895183468E+02  0.00000000000E+00 0.  1.
</event>
<event>
 4    1  0.2239940E+005  0.2080903E+02  0.7546771E-02  0.1522009E+00
          2   -1    0    0  502    0  0.00000000000E+00  0.00000000000E+00  0.14095470620E+04  0.14095470620E+04  0.00000000000E+00 0. -1.
         21   -1    0    0  503  502 -0.00000000000E+00 -0.00000000000E+00 -0.12932531063E+01  0.12932531063E+01  0.00000000000E+00 0. -1.
          2    1    1    2  501    0 -0.60217495844E+01 -0.19918692378E+02  0.13200915668E+04  0.13202555664E+04  0.00000000000E+00 0. -1.
         21    1    1    2  503  501  0.60217495844E+01  0.19918692378E+02  0.88162242108E+02  0.90584748758E+02  0.00000000000E+00 0. -1.
</event>
<event>
 4    1  0.2239940E+005  0.4885522E+02  0.7546771E-02  0.1303214E+00
          2   -1    0    0  503    0  0.00000000000E+00  0.00000000000E+00  0.34283660656E+03  0.34283660656E+03  0.00000000000E+00 0.  1.
         21   -1    0    0  501  502 -0.00000000000E+00 -0.00000000000E+00 -0.76178813582E+01  0.76178813582E+01  0.00000000000E+00 0.  1.
          2    1    1    2  501    0 -0.36033440573E+02 -0.32991264633E+02  0.21902478162E+03  0.22440741375E+03  0.00000000000E+00 0.  1.
         21    1    1    2  503  502  0.36033440573E+02  0.32991264633E+02  0.11619394358E+03  0.12604707417E+03  0.00000000000E+00 0.  1.
</event>
<event>
 4    1  0.2239940E+005  0.2195207E+02  0.7546771E-02  0.1506094E+00
          2   -1    0    0  502    0  0.00000000000E+00  0.00000000000E+00  0.13809717432E+04  0.13809717432E+04  0.00000000000E+00 0. -1.
         21   -1    0    0  503  502 -0.00000000000E+00 -0.00000000000E+00 -0.61033923820E+02  0.61033923820E+02  0.00000000000E+00 0.  1.
          2    1    1    2  501    0 -0.21581900545E+02 -0.40143365394E+01  0.13789076757E+04  0.13790824020E+04  0.00000000000E+00 0. -1.
         21    1    1    2  503  501  0.21581900545E+02  0.40143365394E+01 -0.58969856323E+02  0.62923265043E+02  0.00000000000E+00 0.  1.
</event>
<event>
 4    1  0.2239940E+005  0.2007332E+02  0.7546771E-02  0.1532918E+00
          2   -1    0    0  503    0  0.00000000000E+00  0.00000000000E+00  0.74354718428E+02  0.74354718428E+02  0.00000000000E+00 0.  1.
         21   -1    0    0  501  502 -0.00000000000E+00 -0.00000000000E+00 -0.58863392200E+01  0.58863392200E+01  0.00000000000E+00 0.  1.
          2    1    1    2  501    0  0.13284441465E+02  0.15048642943E+02  0.45537320168E+02  0.49765304857E+02  0.00000000000E+00 0.  1.
         21    1    1    2  503  502 -0.13284441465E+02 -0.15048642943E+02  0.22931059040E+02  0.30475752791E+02  0.00000000000E+00 0.  1.
</event>
<event>
 4    1  0.2239940E+005  0.2487456E+02  0.7546771E-02  0.1470212E+00
          2   -1    0    0  502    0  0.00000000000E+00  0.00000000000E+00  0.17670450873E+03  0.17670450873E+03  0.00000000000E+00 0. -1.
         21   -1    0    0  503  502 -0.00000000000E+00 -0.00000000000E+00 -0.37645484620E+01  0.37645484620E+01  0.00000000000E+00 0. -1.
          2    1    1    2  501    0  0.24202877347E+02  0.57414790419E+01  0.11031915598E+03  0.11308872636E+03  0.00000000000E+00 0. -1.
         21    1    1    2  503  501 -0.24202877347E+02 -0.57414790419E+01  0.62620804287E+02  0.67380330832E+02  0.00000000000E+00 0. -1.
</event>
<event>
 4    1  0.2239940E+005  0.4595250E+02  0.7546771E-02  0.1316744E+00
          2   -1    0    0  502    0  0.00000000000E+00  0.00000000000E+00  0.17555812252E+03  0.17555812252E+03  0.00000000000E+00 0.  1.
         21   -1    0    0  503  502 -0.00000000000E+00 -0.00000000000E+00 -0.27989128210E+02  0.27989128210E+02  0.00000000000E+00 0. -1.
          2    1    1    2  501    0  0.36526531252E+02 -0.27882699037E+02  0.15063927249E+03  0.15749229444E+03  0.00000000000E+00 0.  1.
         21    1    1    2  503  501 -0.36526531252E+02  0.27882699037E+02 -0.30702781804E+01  0.46054956292E+02  0.00000000000E+00 0. -1.
</event>
<event>
 4    1  0.2239940E+005  0.4500074E+02  0.7546771E-02  0.1321436E+00
          2   -1    0    0  503    0  0.00000000000E+00  0.00000000000E+00  0.19362822558E+04  0.19362822558E+04  0.00000000000E+00 0. -1.
         21   -1    0    0  501  502 -0.00000000000E+00 -0.00000000000E+00 -0.27470894388E+01  0.27470894388E+01  0.00000000000E+00 0. -1.
          2    1    1    2  501    0 -0.44859208991E+02  0.35661866672E+01  0.17297250779E+04  0.17303103512E+04  0.00000000000E+00 0. -1.
         21    1    1    2  503  502  0.44859208991E+02 -0.35661866672E+01  0.20381008850E+03  0.20871899409E+03  0.00000000000E+00 0. -1.
</event>
<event>
 4    1  0.2239940E+005  0.3224929E+02  0.7546771E-02  0.1401006E+00
          2   -1    0    0  502    0  0.00000000000E+00  0.00000000000E+00  0.14342573814E+04  0.14342573814E+04  0.00000000000E+00 0. -1.
         21   -1    0    0  503  502 -0.00000000000E+00 -0.00000000000E+00 -0.80646686339E+00  0.80646686339E+00  0.00000000000E+00 0. -1.
          2    1    1    2  501    0 -0.68011887522E+01  0.31523972404E+02  0.94460373940E+03  0.94515408347E+03  0.00000000000E+00 0. -1.
         21    1    1    2  503  501  0.68011887522E+01 -0.31523972404E+02  0.48884717516E+03  0.48990976482E+03  0.00000000000E+00 0. -1.
</event>
<event>
 4    1  0.2239940E+005  0.2290778E+02  0.7546771E-02  0.1493659E+00
          2   -1    0    0  503    0  0.00000000000E+00  0.00000000000E+00  0.12071308498E+04  0.12071308498E+04  0.00000000000E+00 0.  1.
         21   -1    0    0  501  502 -0.00000000000E+00 -0.00000000000E+00 -0.50580999671E+00  0.50580999671E+00  0.00000000000E+00 0.  1.
          2    1    1    2  501    0  0.22472048394E+02  0.44467118781E+01  0.37694659133E+03  0.37764202484E+03  0.00000000000E+00 0.  1.
         21    1    1    2  503  502 -0.22472048394E+02 -0.44467118781E+01  0.82967844844E+03  0.82999463493E+03  0.00000000000E+00 0.  1.
</event>
<event>
 4    1  0.2239940E+005  0.4036301E+02  0.7546771E-02  0.1346372E+00
          2   -1    0    0  503    0  0.00000000000E+00  0.00000000000E+00  0.34461645818E+03  0.34461645818E+03  0.00000000000E+00 0. -1.
         21   -1    0    0  501  502 -0.00000000000E+00 -0.00000000000E+00 -0.14735757968E+03  0.14735757968E+03  0.00000000000E+00 0. -1.
          2    1    1    2  501    0 -0.38342557821E+02 -0.12610331883E+02  0.34063844152E+03  0.34302145713E+03  0.00000000000E+00 0. -1.
         21    1    1    2  503  502  0.38342557821E+02  0.12610331883E+02 -0.14337956303E+03  0.14895258072E+03  0.00000000000E+00 0. -1.
</event>
<event>
 4    1  0.2239940E+005  0.3226897E+02  0.7546771E-02  0.1400852E+00
          2   -1    0    0  502    0  0.00000000000E+00  0.00000000000E+00  0.20177188715E+04  0.20177188715E+04  0.00000000000E+00 0.  1.
         21   -1    0    0  503  502 -0.00000000000E+00 -0.00000000000E+00 -0.32768789335E+01  0.32768789335E+01  0.00000000000E+00 0.  1.
          2    1    1    2  501    0  0.25849014349E+02 -0.19316175336E+02  0.19347410422E+04  0.19350101256E+04  0.00000000000E+00 0.  1.
         21    1    1    2  503  501 -0.25849014349E+02  0.19316175336E+02  0.79700950383E+02  0.85985624754E+02  0.00000000000E+00 0.  1.
</event>
<event>
 4    1  0.2239940E+005  0.6090267E+02  0.7546771E-02  0.1256796E+00
          2   -1    0    0  503    0  0.00000000000E+00  0.00000000000E+00  0.19372415980E+04  0.19372415980E+04  0.00000000000E+00 0.  1.
         21   -1    0    0  501  502 -0.00000000000E+00 -0.00000000000E+00 -0.19172305987E+01  0.19172305987E+01  0.00000000000E+00 0.  1.
          2    1    1    2  501    0 -0.58759390815E+02  0.16014656229E+02  0.93207467473E+03  0.93406227549E+03  0.00000000000E+00 0.  1.
         21    1    1    2  503  502  0.58759390815E+02 -0.16014656229E+02  0.10032496927E+04  0.10050965532E+04  0.00000000000E+00 0.  1.
</event>
<event>
 4    1  0.2239940E+005  0.2229420E+02  0.7546771E-02  0.1501556E+00
          2   -1    0    0  502    0  0.00000000000E+00  0.00000000000E+00  0.15830922214E+03  0.15830922214E+03  0.00000000000E+00 0. -1.
         21   -1    0    0  503  502 -0.00000000000E+00 -0.00000000000E+00 -0.51249099388E+01  0.51249099388E+01  0.00000000000E+00 0. -1.
          2    1    1    2  501    0  0.11265680021E+02 -0.19238391618E+02  0.12745273518E+03  0.12938790888E+03  0.00000000000E+00 0. -1.
         21    1    1    2  503  501 -0.11265680021E+02  0.19238391618E+02  0.25731577021E+02  0.34046223203E+02  0.00000000000E+00 0. -1.
</event>
<event>
 4    1  0.2239940E+005  0.3752520E+02  0.7546771E-02  0.1363632E+00
          2   -1    0    0  503    0  0.00000000000E+00  0.00000000000E+00  0.17431137992E+03  0.17431137992E+03  0.00000000000E+00 0. -1.
         21   -1    0    0  501  502 -0.00000000000E+00 -0.00000000000E+00 -0.17964497672E+02  0.17964497672E+02  0.00000000000E+00 0. -1.
          2    1    1    2  501    0  0.66302501623E+01 -0.36934808118E+02  0.14949188047E+03  0.15412969407E+03  0.00000000000E+00 0. -1.
         21    1    1    2  503  502 -0.66302501623E+01  0.36934808118E+02  0.68550017789E+01  0.38146183522E+02  0.00000000000E+00 0. -1.
</event>
<event>
 4    1  0.2239940E+005  0.5869450E+02  0.7546771E-02  0.1264334E+00
          2   -1    0    0  503    0  0.00000000000E+00  0.00000000000E+00  0.11454563756E+04  0.11454563756E+04  0.00000000000E+00 0. -1.
         21   -1    0    0  501  502 -0.00000000000E+00 -0.00000000000E+00 -0.72364886904E+01  0.72364886904E+01  0.00000000000E+00 0. -1.
          2    1    1    2  501    0  0.27183949042E+02 -0.52019973205E+02  0.10096994329E+04  0.10114039695E+04  0.00000000000E+00 0. -1.
         21    1    1    2  503  502 -0.27183949042E+02  0.52019973205E+02  0.12852045409E+03  0.14128889489E+03  0.00000000000E+00 0. -1.
</event>
<event>
 4    1  0.2239940E+005  0.3626442E+02  0.7546771E-02  0.1371885E+00
          2   -1    0    0  503    0  0.00000000000E+00  0.00000000000E+00  0.13150203294E+04  0.13150203294E+04  0.00000000000E+00 0.  1.
         21   -1    0    0  501  502 -0.00000000000E+00 -0.00000000000E+00 -0.13966064541E+01  0.13966064541E+01  0.00000000000E+00 0.  1.
          2    1    1    2  501    0  0.15383392427E+02  0.32839907350E+02  0.10075392739E+04  0.10081916964E+04  0.00000000000E+00 0.  1.
         21    1    1    2  503  502 -0.15383392427E+02 -0.32839907350E+02  0.30608444910E+03  0.30822523949E+03  0.00000000000E+00 0.  1.
</event>
<event>
 4    1  0.2239940E+005  0.3405851E+02  0.7546771E-02  0.1387306E+00
          2   -1    0    0  503    0  0.00000000000E+00  0.00000000000E+00  0.76097439793E+02  0.76097439793E+02  0.00000000000E+00 0.  1.
         21   -1    0    0  501  502 -0.00000000000E+00 -0.00000000000E+00 -0.86001559627E+02  0.86001559627E+02  0.00000000000E+00 0. -1.
          2    1    1    2  501    0  0.33790244307E+02 -0.42663512721E+01  0.68564553637E+02  0.76557693140E+02  0.00000000000E+00 0.  1.
         21    1    1    2  503  502 -0.33790244307E+02  0.42663512721E+01 -0.78468673472E+02  0.85541306279E+02  0.00000000000E+00 0. -1.
</event>
<event>
 4    1  0.2239940E+005  0.2262993E+02  0.7546771E-02  0.1497198E+00
          2   -1    0    0  502    0  0.00000000000E+00  0.00000000000E+00  0.63643125073E+03  0.63643125073E+03  0.00000000000E+00 0. -1.
         21   -1    0    0  503  502 -0.00000000000E+00 -0.00000000000E+00 -0.31349803889E+01  0.31349803889E+01  0.00000000000E+00 0.  1.
          2    1    1    2  501    0 -0.20925508038E+02 -0.86160715222E+01  0.59235369368E+03  0.59278580617E+03  0.00000000000E+00 0. -1.
         21    1    1    2  503  501  0.20925508038E+02  0.86160715222E+01  0.40942576658E+02  0.46780424950E+02  0.00000000000E+00 0.  1.
</event>
<event>
 4    1  0.2239940E+005  0.2167459E+02  0.7546771E-02  0.1509848E+00
          2   -1    0    0  502    0  0.00000000000E+00  0.00000000000E+00  0.84220687877E+03  0.84220687877E+03  0.00000000000E+00 0. -1.
         21   -1    0    0  503  502 -0.00000000000E+00 -0.00000000000E+00 -0.74682730395E+01  0.74682730395E+01  0.00000000000E+00 0. -1.
          2    1    1    2  501    0 -0.18317409246E+02 -0.11587073605E+02  0.82603345135E+03  0.82631776606E+03  0.00000000000E+00 0. -1.
         21    1    1    2  503  501  0.18317409246E+02  0.11587073605E+02  0.87051543789E+01  0.23357385748E+02  0.00000000000E+00 0. -1.
</event>
<event>
 4    1  0.2239940E+005  0.2218212E+02  0.7546771E-02  0.1503032E+00
          2   -1    0    0  502    0  0.00000000000E+00  0.00000000000E+00  0.76094731482E+02  0.76094731482E+02  0.00000000000E+00 0.  1.
         21   -1    0    0  503  502 -0.00000000000E+00 -0.00000000000E+00 -0.27376445292E+02  0.27376445292E+02  0.00000000000E+00 0. -1.
          2    1    1    2  501    0  0.15129139005E+02  0.16222066542E+02  0.69573887691E+02  0.73024462602E+02  0.00000000000E+00 0.  1.
         21    1    1    2  503  501 -0.15129139005E+02 -0.16222066542E+02 -0.20855601501E+02  0.30446714172E+02  0.00000000000E+00 0. -1.
</event>
<event>
 4    1  0.2239940E+005  0.2747127E+02  0.7546771E-02  0.1442931E+00
          2   -1    0    0  503    0  0.00000000000E+00  0.00000000000E+00  0.28000960336E+03  0.28000960336E+03  0.00000000000E+00 0. -1.
         21   -1    0    0  501  502 -0.00000000000E+00 -0.00000000000E+00 -0.27988705033E+01  0.27988705033E+01  0.00000000000E+00 0. -1.
          2    1    1    2  501    0 -0.21797093136E+02 -0.16719965498E+02  0.16582508563E+03  0.16808518537E+03  0.00000000000E+00 0. -1.
         21    1    1    2  503  502  0.21797093136E+02  0.16719965498E+02  0.11138564722E+03  0.11472328849E+03  0.00000000000E+00 0. -1.
</event>
<event>
 4    1  0.2239940E+005  0.2828609E+02  0.7546771E-02  0.1435100E+00
          2   -1    0    0  503    0  0.00000000000E+00  0.00000000000E+00  0.43355171517E+02  0.43355171517E+02  0.00000000000E+00 0. -1.
         21   -1    0    0  501  502 -0.00000000000E+00 -0.00000000000E+00 -0.49648992472E+02  0.49648992472E+02  0.00000000000E+00 0.  1.
          2    1    1    2  501    0  0.17162894681E+02 -0.22484169877E+02  0.33713092273E+02  0.44007674779E+02  0.00000000000E+00 0. -1.
         21    1    1    2  503  502 -0.17162894681E+02  0.22484169877E+02 -0.40006913227E+02  0.48996489210E+02  0.00000000000E+00 0.  1.
</event>
<event>
 4    1  0.2239940E+005  0.2474611E+02  0.7546771E-02  0.1471664E+00
          2   -1    0    0  503    0  0.00000000000E+00  0.00000000000E+00  0.11560803702E+04  0.11560803702E+04  0.00000000000E+00 0.  1.
         21   -1    0    0  501  502 -0.00000000000E+00 -0.00000000000E+00 -0.65072974262E+00  0.65072974262E+00  0.00000000000E+00 0.  1.
          2    1    1    2  501    0  0.71440363444E+01 -0.23692455785E+02  0.82714990537E+03  0.82751999110E+03  0.00000000000E+00 0.  1.
         21    1    1    2  503  502 -0.71440363444E+01  0.23692455785E+02  0.32827973511E+03  0.32921110886E+03  0.00000000000E+00 0.  1.
</event>
<event>
 4    1  0.2239940E+005  0.3161510E+02  0.7546771E-02  0.1406062E+00
          2   -1    0    0  503    0  0.00000000000E+00  0.00000000000E+00  0.27707061097E+03  0.27707061097E+03  0.00000000000E+00 0.  1.
         21   -1    0    0  501  502 -0.00000000000E+00 -0.00000000000E+00 -0.26178092054E+02  0.26178092054E+02  0.00000000000E+00 0. -1.
          2    1    1    2  501    0 -0.24126254185E+02 -0.20431313551E+02  0.26623633597E+03  0.26810688411E+03  0.00000000000E+00 0.  1.
         21    1    1    2  503  502  0.24126254185E+02  0.20431313551E+02 -0.15343817060E+02  0.35141818911E+02  0.00000000000E+00 0. -1.
</event>
<event>
 4    1  0.2239940E+005  0.2179830E+02  0.7546771E-02  0.1508166E+00
          2   -1    0    0  503    0  0.00000000000E+00  0.00000000000E+00  0.10188983356E+03  0.10188983356E+03  0.00000000000E+00 0.  1.
         21   -1    0    0  501  502 -0.00000000000E+00 -0.00000000000E+00 -0.91001054525E+01  0.91001054525E+01  0.00000000000E+00 0. -1.
          2    1    1    2  501    0  0.20867059374E+02  0.63032947380E+01  0.85143340461E+02  0.87889442576E+02  0.00000000000E+00 0.  1.
         21    1    1    2  503  502 -0.20867059374E+02 -0.63032947380E+01  0.76463876428E+01  0.23100496433E+02  0.00000000000E+00 0. -1.
</event>
<event>
 4    1  0.2239940E+005  0.2064403E+02  0.7546771E-02  0.1524408E+00
          2   -1    0    0  503    0  0.00000000000E+00  0.00000000000E+00  0.10910517206E+01  0.10910517206E+01  0.00000000000E+00 0. -1.
         21   -1    0    0  501  502 -0.00000000000E+00 -0.00000000000E+00 -0.73886564159E+03  0.73886564159E+03  0.00000000000E+00 0. -1.
          2    1    1    2  501    0  0.20583075304E+02  0.15852662130E+01 -0.11488218455E+03  0.11672228744E+03  0.00000000000E+00 0. -1.
         21    1    1    2  503  502 -0.20583075304E+02 -0.15852662130E+01 -0.62289240532E+03  0.62323440587E+03  0.00000000000E+00 0. -1.
</event>
<event>
 4    1  0.2239940E+005  0.2401153E+02  0.7546771E-02  0.1480172E+00
          2   -1    0    0  503    0  0.00000000000E+00  0.00000000000E+00  0.46956078699E+02  0.46956078699E+02  0.00000000000E+00 0.  1.
         21   -1    0    0  501  502 -0.00000000000E+00 -0.00000000000E+00 -0.19189351572E+02  0.19189351572E+02  0.00000000000E+00 0. -1.
          2    1    1    2  501    0 -0.20966049641E+02  0.11703770230E+02  0.33730748813E+02  0.41404310049E+02  0.00000000000E+00 0.  1.
         21    1    1    2  503  502  0.20966049641E+02 -0.11703770230E+02 -0.59640216863E+01  0.24741120222E+02  0.00000000000E+00 0. -1.
</event>
<event>
 4    1  0.2239940E+005  0.2057347E+02  0.7546771E-02  0.1525443E+00
          2   -1    0    0  503    0  0.00000000000E+00  0.00000000000E+00  0.23069250823E+03  0.23069250823E+03  0.00000000000E+00 0. -1.
         21   -1    0    0  501  502 -0.00000000000E+00 -0.00000000000E+00 -0.61233062662E+02  0.61233062662E+02  0.00000000000E+00 0.  1.
          2    1    1    2  501    0 -0.15332343586E+02  0.13718123178E+02  0.22848908355E+03  0.22941344548E+03  0.00000000000E+00 0. -1.
         21    1    1    2  503  502  0.15332343586E+02 -0.13718123178E+02 -0.59029637984E+02  0.62512125415E+02  0.00000000000E+00 0.  1.
</event>
<event>
 4    1  0.2239940E+005  0.2533135E+02  0.7546771E-02  0.1465130E+00
          2   -1    0    0  503    0  0.00000000000E+00  0.00000000000E+00  0.46723030329E+02  0.46723030329E+02  0.00000000000E+00 0. -1.
         21   -1    0    0  501  502 -0.00000000000E+00 -0.00000000000E+00 -0.13733899495E+03  0.13733899495E+03  0.00000000000E+00 0.  1.
          2    1    1    2  501    0 -0.22812588599E+02  0.11011960632E+02  0.42000392439E+02  0.49048042169E+02  0.00000000000E+00 0. -1.
         21    1    1    2  503  502  0.22812588599E+02 -0.11011960632E+02 -0.13261635706E+03  0.13501398311E+03  0.00000000000E+00 0.  1.
</event>
<event>
 4    1  0.2239940E+005  0.2327208E+02  0.7546771E-02  0.1489110E+00
          2   -1    0    0  503    0  0.00000000000E+00  0.00000000000E+00  0.16666301389E+04  0.16666301389E+04  0.00000000000E+00 0. -1.
         21   -1    0    0  501  502 -0.00000000000E+00 -0.00000000000E+00 -0.36451182983E+00  0.36451182983E+00  0.00000000000E+00 0.  1.
          2    1    1    2  501    0 -0.51643164980E+01 -0.22691836178E+02  0.11076862374E+04  0.11079306793E+04  0.00000000000E+00 0. -1.
         21    1    1    2  503  502  0.51643164980E+01  0.22691836178E+02  0.55857938968E+03  0.55906397144E+03  0.00000000000E+00 0.  1.
</event>
<event>
 4    1  0.2239940E+005  0.2128404E+02  0.7546771E-02  0.1515248E+00
          2   -1    0    0  503    0  0.00000000000E+00  0.00000000000E+00  0.36307534138E+03  0.36307534138E+03  0.00000000000E+00 0. -1.
         21   -1    0    0  501  502 -0.00000000000E+00 -0.00000000000E+00 -0.14255841670E+02  0.14255841670E+02  0.00000000000E+00 0.  1.
          2    1    1    2  501    0 -0.11134762836E+02 -0.18139109707E+02  0.35463010721E+03  0.35526824117E+03  0.00000000000E+00 0. -1.
         21    1    1    2  503  502  0.11134762836E+02  0.18139109707E+02 -0.58106075088E+01  0.22062941871E+02  0.00000000000E+00 0.  1.
</event>
<event>
 4    1  0.2239940E+005  0.2301365E+02  0.7546771E-02  0.1492327E+00
          2   -1    0    0  503    0  0.00000000000E+00  0.00000000000E+00  0.58683853362E+01  0.58683853362E+01  0.00000000000E+00 0. -1.
         21   -1    0    0  501  502 -0.00000000000E+00 -0.00000000000E+00 -0.15483060777E+03  0.15483060777E+03  0.00000000000E+00 0.  1.
          2    1    1    2  501    0  0.18001306616E+02 -0.14338103966E+02 -0.22588909605E+02  0.32247280542E+02  0.00000000000E+00 0. -1.
         21    1    1    2  503  502 -0.18001306616E+02  0.14338103966E+02 -0.12637331283E+03  0.12845171256E+03  0.00000000000E+00 0.  1.
</event>
<event>
 4    1  0.2239940E+005  0.2080840E+02  0.7546771E-02  0.1522018E+00
          2   -1    0    0  502    0  0.00000000000E+00  0.00000000000E+00  0.78490917134E+03  0.78490917134E+03  0.00000000000E+00 0. -1.
         21   -1    0    0  503  502 -0.00000000000E+00 -0.00000000000E+00 -0.25392012424E+01  0.25392012424E+01  0.00000000000E+00 0. -1.
          2    1    1    2  501    0  0.17833494780E+02 -0.10721761523E+02  0.73952507309E+03  0.73981776366E+03  0.00000000000E+00 0. -1.
         21    1    1    2  503  501 -0.17833494780E+02  0.10721761523E+02  0.42844897011E+02  0.47630608921E+02  0.00000000000E+00 0. -1.
</event>
<event>
 4    1  0.2239940E+005  0.3148980E+02  0.7546771E-02  0.1407077E+00
          2   -1    0    0  503    0  0.00000000000E+00  0.00000000000E+00  0.17845993541E+04  0.17845993541E+04  0.00000000000E+00 0.  1.
         21   -1    0    0  501  502 -0.00000000000E+00 -0.00000000000E+00 -0.63319530205E+00  0.63319530205E+00  0.00000000000E+00 0. -1.
          2    1    1    2  501    0 -0.30353733615E+02 -0.83820310608E+01  0.12043619254E+04  0.12047735285E+04  0.00000000000E+00 0.  1.
         21    1    1    2  503  502  0.30353733615E+02  0.83820310608E+01  0.57960423332E+03  0.58045902083E+03  0.00000000000E+00 0. -1.
</event>
<event>
 4    1  0.2239940E+005  0.2823401E+02  0.7546771E-02  0.1435591E+00
          2   -1    0    0  503    0  0.00000000000E+00  0.00000000000E+00  0.89265834118E+03  0.89265834118E+03  0.00000000000E+00 0. -1.
         21   -1    0    0  501  502 -0.00000000000E+00 -0.00000000000E+00 -0.11935009983E+02  0.11935009983E+02  0.00000000000E+00 0.  1.
          2    1    1    2  501    0 -0.25197129939E+01  0.28121346284E+02  0.87540822248E+03  0.87586341119E+03  0.00000000000E+00 0. -1.
         21    1    1    2  503  502  0.25197129939E+01 -0.28121346284E+02  0.53151087185E+01  0.28729939977E+02  0.00000000000E+00 0.  1.
</event>
<event>
 4    1  0.2239940E+005  0.2880550E+02  0.7546771E-02  0.1430268E+00
          2   -1    0    0  503    0  0.00000000000E+00  0.00000000000E+00  0.12373650530E+04  0.12373650530E+04  0.00000000000E+00 0. -1.
         21   -1    0    0  501  502 -0.00000000000E+00 -0.00000000000E+00 -0.67264883192E+00  0.67264883192E+00  0.00000000000E+00 0. -1.
          2    1    1    2  501    0 -0.28442481622E+02  0.45587639379E+01  0.58404873901E+03  0.58475865674E+03  0.00000000000E+00 0. -1.
         21    1    1    2  503  502  0.28442481622E+02 -0.45587639379E+01  0.65264366515E+03  0.65327904509E+03  0.00000000000E+00 0. -1.
</event>
<event>
 4    1  0.2239940E+005  0.2440426E+02  0.7546771E-02  0.1475579E+00
          2   -1    0    0  502    0  0.00000000000E+00  0.00000000000E+00  0.93458438207E+02  0.93458438207E+02  0.00000000000E+00 0. -1.
         21   -1    0    0  503  502 -0.00000000000E+00 -0.00000000000E+00 -0.67468848120E+01  0.67468848120E+01  0.00000000000E+00 0. -1.
          2    1    1    2  501    0 -0.24365809212E+02 -0.13694055213E+01  0.55157440322E+02  0.60315098880E+02  0.00000000000E+00 0. -1.
         21    1    1    2  503  501  0.24365809212E+02  0.13694055213E+01  0.31554113074E+02  0.39890224140E+02  0.00000000000E+00 0. -1.
</event>
<event>
 4    1  0.2239940E+005  0.4977846E+02  0.7546771E-02  0.1299136E+00
          2   -1    0    0  503    0  0.00000000000E+00  0.00000000000E+00  0.54855443190E+03  0.54855443190E+03  0.00000000000E+00 0.  1.
         21   -1    0    0  501  502 -0.00000000000E+00 -0.00000000000E+00 -0.82296054766E+02  0.82296054766E+02  0.00000000000E+00 0.  1.
          2    1    1    2  501    0  0.41804571804E+02 -0.27023559060E+02  0.53977560210E+03  0.54206604357E+03  0.00000000000E+00 0.  1.
         21    1    1    2  503  502 -0.41804571804E+02  0.27023559060E+02 -0.73517224970E+02  0.88784443092E+02  0.00000000000E+00 0.  1.
</event>
<event>
 4    1  0.2239940E+005  0.2282775E+02  0.7546771E-02  0.1494673E+00
          2   -1    0    0  502    0  0.00000000000E+00  0.00000000000E+00  0.98811038254E+03  0.98811038254E+03  0.00000000000E+00 0.  1.
         21   -1    0    0  503  502 -0.00000000000E+00 -0.00000000000E+00 -0.97826247540E+01  0.97826247540E+01  0.00000000000E+00 0. -1.
          2    1    1    2  501    0 -0.10359743538E+01  0.22804225552E+02  0.97447509476E+03  0.97474243585E+03  0.00000000000E+00 0.  1.
         21    1    1    2  503  501  0.10359743538E+01 -0.22804225552E+02  0.38526630327E+01  0.23150571447E+02  0.00000000000E+00 0. -1.
</event>
<event>
 4    1  0.2239940E+005  0.3003657E+02  0.7546771E-02  0.1419279E+00
          2   -1    0    0  503    0  0.00000000000E+00  0.00000000000E+00  0.98677506368E+02  0.98677506368E+02  0.00000000000E+00 0.  1.
         21   -1    0    0  501  502 -0.00000000000E+00 -0.00000000000E+00 -0.20932637675E+02  0.20932637675E+02  0.00000000000E+00 0.  1.
          2    1    1    2  501    0  0.21791452397E+02 -0.20671923307E+02  0.83755098317E+02  0.88978156336E+02  0.00000000000E+00 0.  1.
         21    1    1    2  503  502 -0.21791452397E+02  0.20671923307E+02 -0.60102296231E+01  0.30631987707E+02  0.00000000000E+00 0.  1.
</event>
<event>
 4    1  0.3104814E+005  0.2902953E+02  0.7546771E-02  0.1428221E+00
          2   -1    0    0  503    0  0.00000000000E+00  0.00000000000E+00  0.10614414722E+04  0.10614414722E+04  0.00000000000E+00 0.  1.
         21   -1    0    0  501  502 -0.00000000000E+00 -0.00000000000E+00 -0.27158036835E+03  0.27158036835E+03  0.00000000000E+00 0. -1.
          2    1    1    2  501    0 -0.28622689287E+02 -0.48430585946E+01  0.10604665261E+04  0.10608637832E+04  0.00000000000E+00 0.  1.
         21    1    1    2  503  502  0.28622689287E+02  0.48430585946E+01 -0.27060542231E+03  0.27215805728E+03  0.00000000000E+00 0. -1.
</event>
<event>
 4    1  0.2239940E+005  0.8360472E+02  0.7546771E-02  0.1195718E+00
          2   -1    0    0  503    0  0.00000000000E+00  0.00000000000E+00  0.72149453840E+03  0.72149453840E+03  0.00000000000E+00 0. -1.
         21   -1    0    0  501  502 -0.00000000000E+00 -0.00000000000E+00 -0.24585446569E+03  0.24585446569E+03  0.00000000000E+00 0. -1.
          2    1    1    2  501    0  0.76567260036E+01 -0.83253373280E+02  0.71186918589E+03  0.71676180663E+03  0.00000000000E+00 0. -1.
         21    1    1    2  503  502 -0.76567260036E+01  0.83253373280E+02 -0.23622911319E+03  0.25058719746E+03  0.00000000000E+00 0. -1.
</event>
<event>
 4    1  0.2239940E+005  0.2187680E+02  0.7546771E-02  0.1507105E+00
          2   -1    0    0  502    0  0.00000000000E+00  0.00000000000E+00  0.30955902106E+03  0.30955902106E+03  0.00000000000E+00 0.  1.
         21   -1    0    0  503  502 -0.00000000000E+00 -0.00000000000E+00 -0.38860046205E+01  0.38860046205E+01  0.00000000000E+00 0. -1.
          2    1    1    2  501    0 -0.17589789904E+02 -0.13007438868E+02  0.27445043528E+03  0.27532096833E+03  0.00000000000E+00 0.  1.
         21    1    1    2  503  501  0.17589789904E+02  0.13007438868E+02  0.31222581153E+02  0.38124057348E+02  0.00000000000E+00 0. -1.
</event>
<event>
 4    1  0.2239940E+005  0.6423789E+02  0.7546771E-02  0.1246076E+00
          2   -1    0    0  503    0  0.00000000000E+00  0.00000000000E+00  0.15685735481E+04  0.15685735481E+04  0.00000000000E+00 0.  1.
         21   -1    0    0  501  502 -0.00000000000E+00 -0.00000000000E+00 -0.34956597035E+01  0.34956597035E+01  0.00000000000E+00 0. -1.
          2    1    1    2  501    0 -0.33945601759E+02  0.54536246689E+02  0.11735287930E+04  0.11752856394E+04  0.00000000000E+00 0.  1.
         21    1    1    2  503  502  0.33945601759E+02 -0.54536246689E+02  0.39154909533E+03  0.39678356838E+03  0.00000000000E+00 0. -1.
</event>
<event>
 4    1  0.2239940E+005  0.2174605E+02  0.7546771E-02  0.1508874E+00
          2   -1    0    0  503    0  0.00000000000E+00  0.00000000000E+00  0.75296370946E+03  0.75296370946E+03  0.00000000000E+00 0. -1.
         21   -1    0    0  501  502 -0.00000000000E+00 -0.00000000000E+00 -0.19862924449E+01  0.19862924449E+01  0.00000000000E+00 0. -1.
          2    1    1    2  501    0  0.58592516381E+01  0.20941820324E+02  0.68763414309E+03  0.68797791055E+03  0.00000000000E+00 0. -1.
         21    1    1    2  503  502 -0.58592516381E+01 -0.20941820324E+02  0.63343273923E+02  0.66972091348E+02  0.00000000000E+00 0. -1.
</event>
<event>
 4    1  0.2239940E+005  0.2333727E+02  0.7546771E-02  0.1488306E+00
          2   -1    0    0  503    0  0.00000000000E+00  0.00000000000E+00  0.18369693187E+04  0.18369693187E+04  0.00000000000E+00 0.  1.
         21   -1    0    0  501  502 -0.00000000000E+00 -0.00000000000E+00 -0.42470327268E+00  0.42470327268E+00  0.00000000000E+00 0. -1.
          2    1    1    2  501    0 -0.19927847462E+02 -0.12145323848E+02  0.14230612771E+04  0.14232526222E+04  0.00000000000E+00 0.  1.
         21    1    1    2  503  502  0.19927847462E+02  0.12145323848E+02  0.41348333825E+03  0.41414139977E+03  0.00000000000E+00 0. -1.
</event>
<event>
 4    1  0.2239940E+005  0.2916070E+02  0.7546771E-02  0.1427033E+00
          2   -1    0    0  503    0  0.00000000000E+00  0.00000000000E+00  0.16442086170E+04  0.16442086170E+04  0.00000000000E+00 0. -1.
         21   -1    0    0  501  502 -0.00000000000E+00 -0.00000000000E+00 -0.52352904330E+00  0.52352904330E+00  0.00000000000E+00 0. -1.
          2    1    1    2  501    0  0.28870521508E+02 -0.41035609917E+01  0.73125569847E+03  0.73183689629E+03  0.00000000000E+00 0. -1.
         21    1    1    2  503  502 -0.28870521508E+02  0.41035609917E+01  0.91242938949E+03  0.91289524975E+03  0.00000000000E+00 0. -1.
</event>
<event>
 4    1  0.2239940E+005  0.2169502E+02  0.7546771E-02  0.1509569E+00
          2   -1    0    0  503    0  0.00000000000E+00  0.00000000000E+00  0.11787696389E+04  0.11787696389E+04  0.00000000000E+00 0. -1.
         21   -1    0    0  501  502 -0.00000000000E+00 -0.00000000000E+00 -0.10589798873E+01  0.10589798873E+01  0.00000000000E+00 0. -1.
          2    1    1    2  501    0 -0.18025987125E+02 -0.12072184978E+02  0.10544566134E+04  0.10546797730E+04  0.00000000000E+00 0. -1.
         21    1    1    2  503  502  0.18025987125E+02  0.12072184978E+02  0.12325404555E+03  0.12514884581E+03  0.00000000000E+00 0. -1.
</event>
<event>
 4    1  0.2239940E+005  0.2911288E+02  0.7546771E-02  0.1427465E+00
          2   -1    0    0  503    0  0.00000000000E+00  0.00000000000E+00  0.34178285482E+03  0.34178285482E+03  0.00000000000E+00 0.  1.
         21   -1    0    0  501  502 -0.00000000000E+00 -0.00000000000E+00 -0.26228753487E+02  0.26228753487E+02  0.00000000000E+00 0. -1.
          2    1    1    2  501    0  0.28613185340E+02 -0.53708041685E+01  0.33286842575E+03  0.33413911590E+03  0.00000000000E+00 0.  1.
         21    1    1    2  503  502 -0.28613185340E+02  0.53708041685E+01 -0.17314324409E+02  0.33872492416E+02  0.00000000000E+00 0. -1.
</event>
<event>
 4    1  0.2239940E+005  0.2130841E+02  0.7546771E-02  0.1514907E+00
          2   -1    0    0  503    0  0.00000000000E+00  0.00000000000E+00  0.19391225969E+01  0.19391225969E+01  0.00000000000E+00 0. -1.
         21   -1    0    0  501  502 -0.00000000000E+00 -0.00000000000E+00 -0.23552796260E+03  0.23552796260E+03  0.00000000000E+00 0. -1.
          2    1    1    2  501    0 -0.21171085056E-01 -0.21308395742E+02 -0.10771709721E+03  0.10980446807E+03  0.00000000000E+00 0. -1.
         21    1    1    2  503  502  0.21171085056E-01  0.21308395742E+02 -0.12587174279E+03  0.12766261713E+03  0.00000000000E+00 0. -1.
</event>
<event>
 4    1  0.2239940E+005  0.2070935E+02  0.7546771E-02  0.1523455E+00
          2   -1    0    0  502    0  0.00000000000E+00  0.00000000000E+00  0.97640167415E+03  0.97640167415E+03  0.00000000000E+00 0. -1.
         21   -1    0    0  503  502 -0.00000000000E+00 -0.00000000000E+00 -0.10165333603E+01  0.10165333603E+01  0.00000000000E+00 0. -1.
          2    1    1    2  501    0 -0.19212223007E+02  0.77309452532E+01  0.85598007565E+03  0.85623055711E+03  0.00000000000E+00 0. -1.
         21    1    1    2  503  501  0.19212223007E+02 -0.77309452532E+01  0.11940506515E+03  0.12118765040E+03  0.00000000000E+00 0. -1.
</event>
<event>
 4    1  0.2239940E+005  0.2207436E+02  0.7546771E-02  0.1504460E+00
          2   -1    0    0  503    0  0.00000000000E+00  0.00000000000E+00  0.10722559543E+04  0.10722559543E+04  0.00000000000E+00 0. -1.
         21   -1    0    0  501  502 -0.00000000000E+00 -0.00000000000E+00 -0.15809545125E+01  0.15809545125E+01  0.00000000000E+00 0.  1.
          2    1    1    2  501    0  0.18180830121E+02 -0.12519373361E+02  0.98856557713E+03  0.98881200315E+03  0.00000000000E+00 0. -1.
         21    1    1    2  503  502 -0.18180830121E+02  0.12519373361E+02  0.82109422655E+02  0.85024905657E+02  0.00000000000E+00 0.  1.
</event>
<event>
 4    1  0.2239940E+005  0.2254738E+02  0.7546771E-02  0.1498261E+00
          2   -1    0    0  502    0  0.00000000000E+00  0.00000000000E+00  0.47495405369E+02  0.47495405369E+02  0.00000000000E+00 0.  1.
         21   -1    0    0  503  502 -0.00000000000E+00 -0.00000000000E+00 -0.49045459677E+02  0.49045459677E+02  0.00000000000E+00 0.  1.
          2    1    1    2  501    0  0.24468085297E+01  0.22414222677E+02  0.41904233781E+02  0.47585176883E+02  0.00000000000E+00 0.  1.
         21    1    1    2  503  501 -0.24468085297E+01 -0.22414222677E+02 -0.43454288089E+02  0.48955688163E+02  0.00000000000E+00 0.  1.
</event>
<event>
 4    1  0.2239940E+005  0.2979098E+02  0.7546771E-02  0.1421422E+00
          2   -1    0    0  503    0  0.00000000000E+00  0.00000000000E+00  0.72880380873E+03  0.72880380873E+03  0.00000000000E+00 0. -1.
         21   -1    0    0  501  502 -0.00000000000E+00 -0.00000000000E+00 -0.41840823688E+01  0.41840823688E+01  0.00000000000E+00 0.  1.
          2    1    1    2  501    0  0.29013141722E+02 -0.67631234363E+01  0.67089603245E+03  0.67155713725E+03  0.00000000000E+00 0. -1.
         21    1    1    2  503  502 -0.29013141722E+02  0.67631234363E+01  0.53723693907E+02  0.61430753847E+02  0.00000000000E+00 0.  1.
</event>
<event>
 4    1  0.2239940E+005  0.3026006E+02  0.7546771E-02  0.1417350E+00
          2   -1    0    0  503    0  0.00000000000E+00  0.00000000000E+00  0.18628906097E+03  0.18628906097E+03  0.00000000000E+00 0.  1.
         21   -1    0    0  501  502 -0.00000000000E+00 -0.00000000000E+00 -0.12265010335E+02  0.12265010335E+02  0.00000000000E+00 0.  1.
          2    1    1    2  501    0  0.26850129980E+02 -0.13954984099E+02  0.16386297685E+03  0.16663356878E+03  0.00000000000E+00 0.  1.
         21    1    1    2  503  502 -0.26850129980E+02  0.13954984099E+02  0.10161073783E+02  0.31920502527E+02  0.00000000000E+00 0.  1.
</event>
<event>
 4    1  0.2239940E+005  0.2566309E+02  0.7546771E-02  0.1461520E+00
          2   -1    0    0  502    0  0.00000000000E+00  0.00000000000E+00  0.25806924274E+01  0.25806924274E+01  0.00000000000E+00 0. -1.
         21   -1    0    0  503  502 -0.00000000000E+00 -0.00000000000E+00 -0.34329800520E+03  0.34329800520E+03  0.00000000000E+00 0. -1.
          2    1    1    2  501    0  0.20759504488E+02 -0.15087647207E+02 -0.82751443686E+02  0.86639457276E+02  0.00000000000E+00 0. -1.
         21    1    1    2  503  501 -0.20759504488E+02  0.15087647207E+02 -0.25796586909E+03  0.25923924036E+03  0.00000000000E+00 0. -1.
</event>
<event>
 4    1  0.2239940E+005  0.2084190E+02  0.7546771E-02  0.1521534E+00
          2   -1    0    0  503    0  0.00000000000E+00  0.00000000000E+00  0.25375576688E+02  0.25375576688E+02  0.00000000000E+00 0.  1.
         21   -1    0    0  501  502 -0.00000000000E+00 -0.00000000000E+00 -0.34551637445E+03  0.34551637445E+03  0.00000000000E+00 0.  1.
          2    1    1    2  501    0 -0.11275727401E+02 -0.17528343983E+02  0.20723364697E+02  0.29391201329E+02  0.00000000000E+00 0.  1.
         21    1    1    2  503  502  0.11275727401E+02  0.17528343983E+02 -0.34086416246E+03  0.34150074981E+03  0.00000000000E+00 0.  1.
</event>
<event>
 4    1  0.2239940E+005  0.2309192E+02  0.7546771E-02  0.1491347E+00
          2   -1    0    0  502    0  0.00000000000E+00  0.00000000000E+00  0.26374724437E+03  0.26374724437E+03  0.00000000000E+00 0.  1.
         21   -1    0    0  503  502 -0.00000000000E+00 -0.00000000000E+00 -0.26886230849E+01  0.26886230849E+01  0.00000000000E+00 0.  1.
          2    1    1    2  501    0  0.99904469254E+01  0.20818926348E+02  0.19687492939E+03  0.19822455586E+03  0.00000000000E+00 0.  1.
         21    1    1    2  503  501 -0.99904469254E+01 -0.20818926348E+02  0.64183691897E+02  0.68211311596E+02  0.00000000000E+00 0.  1.
</event>
<event>
 4    1  0.2239940E+005  0.6694747E+02  0.7546771E-02  0.1237894E+00
          2   -1    0    0  502    0  0.00000000000E+00  0.00000000000E+00  0.10823473944E+03  0.10823473944E+03  0.00000000000E+00 0. -1.
         21   -1    0    0  503  502 -0.00000000000E+00 -0.00000000000E+00 -0.57455221057E+02  0.57455221057E+02  0.00000000000E+00 0. -1.
          2    1    1    2  501    0 -0.14128118570E+02 -0.65439746681E+02  0.69170070975E+02  0.96262468796E+02  0.00000000000E+00 0. -1.
         21    1    1    2  503  501  0.14128118570E+02  0.65439746681E+02 -0.18390552587E+02  0.69427491705E+02  0.00000000000E+00 0. -1.
</event>
<event>
 4    1  0.2239940E+005  0.2285183E+02  0.7546771E-02  0.1494367E+00
          2   -1    0    0  502    0  0.00000000000E+00  0.00000000000E+00  0.27256925929E+03  0.27256925929E+03  0.00000000000E+00 0. -1.
         21   -1    0    0  503  502 -0.00000000000E+00 -0.00000000000E+00 -0.12760276574E+02  0.12760276574E+02  0.00000000000E+00 0. -1.
          2    1    1    2  501    0  0.22267869093E+02  0.51330494976E+01  0.26142384483E+03  0.26242071724E+03  0.00000000000E+00 0. -1.
         21    1    1    2  503  501 -0.22267869093E+02 -0.51330494976E+01 -0.16148621144E+01  0.22908818623E+02  0.00000000000E+00 0. -1.
</event>
<event>
 4    1  0.2239940E+005  0.4505272E+02  0.7546771E-02  0.1321176E+00
          2   -1    0    0  502    0  0.00000000000E+00  0.00000000000E+00  0.21829287975E+04  0.21829287975E+04  0.00000000000E+00 0.  1.
         21   -1    0    0  503  502 -0.00000000000E+00 -0.00000000000E+00 -0.20351303361E+01  0.20351303361E+01  0.00000000000E+00 0.  1.
          2    1    1    2  501    0 -0.21237679803E+02 -0.39732964777E+02  0.18955634249E+04  0.18960987435E+04  0.00000000000E+00 0.  1.
         21    1    1    2  503  501  0.21237679803E+02  0.39732964777E+02  0.28533024229E+03  0.28886518430E+03  0.00000000000E+00 0.  1.
</event>
<event>
 4    1  0.2239940E+005  0.2231601E+02  0.7546771E-02  0.1501270E+00
          2   -1    0    0  503    0  0.00000000000E+00  0.00000000000E+00  0.19305955722E+02  0.19305955722E+02  0.00000000000E+00 0.  1.
         21   -1    0    0  501  502 -0.00000000000E+00 -0.00000000000E+00 -0.33966437874E+02  0.33966437874E+02  0.00000000000E+00 0. -1.
          2    1    1    2  501    0 -0.19576673236E+02 -0.10712518984E+02  0.57340763085E+01  0.23040916412E+02  0.00000000000E+00 0.  1.
         21    1    1    2  503  502  0.19576673236E+02  0.10712518984E+02 -0.20394558460E+02  0.30231477185E+02  0.00000000000E+00 0. -1.
</event>
<event>
 4    1  0.2239940E+005  0.2433167E+02  0.7546771E-02  0.1476421E+00
          2   -1    0    0  503    0  0.00000000000E+00  0.00000000000E+00  0.18359099113E+03  0.18359099113E+03  0.00000000000E+00 0. -1.
         21   -1    0    0  501  502 -0.00000000000E+00 -0.00000000000E+00 -0.11325265982E+02  0.11325265982E+02  0.00000000000E+00 0. -1.
          2    1    1    2  501    0  0.62995640788E+01 -0.23502033276E+02  0.16855633937E+03  0.17030346332E+03  0.00000000000E+00 0. -1.
         21    1    1    2  503  502 -0.62995640788E+01  0.23502033276E+02  0.37093857799E+01  0.24612793799E+02  0.00000000000E+00 0. -1.
</event>
<event>
 4    1  0.2239940E+005  0.2657889E+02  0.7546771E-02  0.1451885E+00
          2   -1    0    0  502    0  0.00000000000E+00  0.00000000000E+00  0.85495485835E+03  0.85495485835E+03  0.00000000000E+00 0. -1.
         21   -1    0    0  503  502 -0.00000000000E+00 -0.00000000000E+00 -0.13614838397E+02  0.13614838397E+02  0.00000000000E+00 0. -1.
          2    1    1    2  501    0  0.19164998840E+02  0.18415766011E+02  0.84157019646E+03  0.84198980586E+03  0.00000000000E+00 0. -1.
         21    1    1    2  503  501 -0.19164998840E+02 -0.18415766011E+02 -0.23017649791E+00  0.26579890886E+02  0.00000000000E+00 0. -1.
</event>
<event>
 4    1  0.2239940E+005  0.2593442E+02  0.7546771E-02  0.1458616E+00
          2   -1    0    0  503    0  0.00000000000E+00  0.00000000000E+00  0.51289755839E+03  0.51289755839E+03  0.00000000000E+00 0. -1.
         21   -1    0    0  501  502 -0.00000000000E+00 -0.00000000000E+00 -0.57257303706E+01  0.57257303706E+01  0.00000000000E+00 0.  1.
          2    1    1    2  501    0 -0.22424775668E+01 -0.25837284465E+02  0.48127430927E+03  0.48197256637E+03  0.00000000000E+00 0. -1.
         21    1    1    2  503  502  0.22424775668E+01  0.25837284465E+02  0.25897518754E+02  0.36650722391E+02  0.00000000000E+00 0.  1.
</event>
<event>
 4    1  0.2239940E+005  0.2510898E+02  0.7546771E-02  0.1467588E+00
          2   -1    0    0  502    0  0.00000000000E+00  0.00000000000E+00  0.42797177906E+02  0.42797177906E+02  0.00000000000E+00 0. -1.
         21   -1    0    0  503  502 -0.00000000000E+00 -0.00000000000E+00 -0.27457113617E+03  0.27457113617E+03  0.00000000000E+00 0. -1.
          2    1    1    2  501    0 -0.18344813418E+02 -0.17144352245E+02  0.38481611263E+02  0.45948834573E+02  0.00000000000E+00 0. -1.
         21    1    1    2  503  501  0.18344813418E+02  0.17144352245E+02 -0.27025556953E+03  0.27141947951E+03  0.00000000000E+00 0. -1.
</event>
<event>
 4    1  0.2239940E+005  0.2751414E+02  0.7546771E-02  0.1442511E+00
          2   -1    0    0  503    0  0.00000000000E+00  0.00000000000E+00  0.48235216627E+02  0.48235216627E+02  0.00000000000E+00 0. -1.
         21   -1    0    0  501  502 -0.00000000000E+00 -0.00000000000E+00 -0.30540614420E+02  0.30540614420E+02  0.00000000000E+00 0.  1.
          2    1    1    2  501    0 -0.31499826331E+01 -0.27333227817E+02  0.36309194455E+02  0.45556397306E+02  0.00000000000E+00 0. -1.
         21    1    1    2  503  502  0.31499826331E+01  0.27333227817E+02 -0.18614592249E+02  0.33219433741E+02  0.00000000000E+00 0.  1.
</event>
<event>
 4    1  0.2239940E+005  0.3705632E+02  0.7546771E-02  0.1366656E+00
          2   -1    0    0  503    0  0.00000000000E+00  0.00000000000E+00  0.25763556490E+04  0.25763556490E+04  0.00000000000E+00 0.  1.
         21   -1    0    0  501  502 -0.00000000000E+00 -0.00000000000E+00 -0.23173748956E+03  0.23173748956E+03  0.00000000000E+00 0. -1.
          2    1    1    2  501    0 -0.32143577419E+02 -0.18438031099E+02  0.25747400863E+04  0.25750067345E+04  0.00000000000E+00 0.  1.
         21    1    1    2  503  502  0.32143577419E+02  0.18438031099E+02 -0.23012192685E+03  0.23308640410E+03  0.00000000000E+00 0. -1.
</event>
<event>
 4    1  0.2239940E+005  0.4412631E+02  0.7546771E-02  0.1325866E+00
          2   -1    0    0  502    0  0.00000000000E+00  0.00000000000E+00  0.34925068351E+03  0.34925068351E+03  0.00000000000E+00 0. -1.
         21   -1    0    0  503  502 -0.00000000000E+00 -0.00000000000E+00 -0.14781621056E+03  0.14781621056E+03  0.00000000000E+00 0. -1.
          2    1    1    2  501    0  0.43697907027E+02 -0.61338427305E+01  0.34451868133E+03  0.34733305758E+03  0.00000000000E+00 0. -1.
         21    1    1    2  503  501 -0.43697907027E+02  0.61338427305E+01 -0.14308420837E+03  0.14973383649E+03  0.00000000000E+00 0. -1.
</event>
<event>
 4    1  0.2239940E+005  0.3969410E+02  0.7546771E-02  0.1350288E+00
          2   -1    0    0  503    0  0.00000000000E+00  0.00000000000E+00  0.84311281313E+01  0.84311281313E+01  0.00000000000E+00 0.  1.
         21   -1    0    0  501  502 -0.00000000000E+00 -0.00000000000E+00 -0.20798804169E+03  0.20798804169E+03  0.00000000000E+00 0.  1.
          2    1    1    2  501    0 -0.10579155403E+01 -0.39679994890E+02 -0.65307294047E+02  0.76424235917E+02  0.00000000000E+00 0.  1.
         21    1    1    2  503  502  0.10579155403E+01  0.39679994890E+02 -0.13424961951E+03  0.13999493390E+03  0.00000000000E+00 0.  1.
</event>
<event>
 4    1  0.2239940E+005  0.2242057E+02  0.7546771E-02  0.1499905E+00
          2   -1    0    0  502    0  0.00000000000E+00  0.00000000000E+00  0.38870207657E+02  0.38870207657E+02  0.00000000000E+00 0.  1.
         21   -1    0    0  503  502 -0.00000000000E+00 -0.00000000000E+00 -0.30882377493E+02  0.30882377493E+02  0.00000000000E+00 0.  1.
          2    1    1    2  501    0 -0.16709040024E+02 -0.14949585838E+02  0.30583270991E+02  0.37921215694E+02  0.00000000000E+00 0.  1.
         21    1    1    2  503  501  0.16709040024E+02  0.14949585838E+02 -0.22595440827E+02  0.31831369455E+02  0.00000000000E+00 0.  1.
</event>
<event>
 4    1  0.2239940E+005  0.3126349E+02  0.7546771E-02  0.1408925E+00
          2   -1    0    0  502    0  0.00000000000E+00  0.00000000000E+00  0.92404453271E+01  0.92404453271E+01  0.00000000000E+00 0. -1.
         21   -1    0    0  503  502 -0.00000000000E+00 -0.00000000000E+00 -0.15548584787E+03  0.15548584787E+03  0.00000000000E+00 0. -1.
          2    1    1    2  501    0 -0.17126558649E+02  0.26155051698E+02 -0.26551847511E+02  0.41017146984E+02  0.00000000000E+00 0. -1.
         21    1    1    2  503  501  0.17126558649E+02 -0.26155051698E+02 -0.11969355503E+03  0.12370914621E+03  0.00000000000E+00 0. -1.
</event>
<event>
 4    1  0.2239940E+005  0.2277319E+02  0.7546771E-02  0.1495366E+00
          2   -1    0    0  503    0  0.00000000000E+00  0.00000000000E+00  0.47199840867E+03  0.47199840867E+03  0.00000000000E+00 0.  1.
         21   -1    0    0  501  502 -0.00000000000E+00 -0.00000000000E+00 -0.11304805812E+02  0.11304805812E+02  0.00000000000E+00 0.  1.
          2    1    1    2  501    0 -0.18679293437E+02 -0.13026983246E+02  0.45995460883E+03  0.46051803491E+03  0.00000000000E+00 0.  1.
         21    1    1    2  503  502  0.18679293437E+02  0.13026983246E+02  0.73899402772E+00  0.22785179569E+02  0.00000000000E+00 0.  1.
</event>
<event>
 4    1  0.2239940E+005  0.2258932E+02  0.7546771E-02  0.1497720E+00
          2   -1    0    0  503    0  0.00000000000E+00  0.00000000000E+00  0.13965861700E+03  0.13965861700E+03  0.00000000000E+00 0. -1.
         21   -1    0    0  501  502 -0.00000000000E+00 -0.00000000000E+00 -0.52247259976E+01  0.52247259976E+01  0.00000000000E+00 0. -1.
          2    1    1    2  501    0  0.71010996176E+01  0.21444155944E+02  0.10693991504E+03  0.10929969290E+03  0.00000000000E+00 0. -1.
         21    1    1    2  503  502 -0.71010996176E+01 -0.21444155944E+02  0.27493975967E+02  0.35583650099E+02  0.00000000000E+00 0. -1.
</event>
<event>
 4    1  0.2239940E+005  0.2086389E+02  0.7546771E-02  0.1521217E+00
          2   -1    0    0  502    0  0.00000000000E+00  0.00000000000E+00  0.22843156374E+03  0.22843156374E+03  0.00000000000E+00 0. -1.
         21   -1    0    0  503  502 -0.00000000000E+00 -0.00000000000E+00 -0.13066946320E+02  0.13066946320E+02  0.00000000000E+00 0.  1.
          2    1    1    2  501    0  0.11179205389E+02  0.17616108390E+02  0.21928006596E+03  0.22027040027E+03  0.00000000000E+00 0. -1.
         21    1    1    2  503  501 -0.11179205389E+02 -0.17616108390E+02 -0.39154485412E+01  0.21228109789E+02  0.00000000000E+00 0.  1.
</event>
<event>
 4    1  0.2239940E+005  0.2326246E+02  0.7546771E-02  0.1489228E+00
          2   -1    0    0  502    0  0.00000000000E+00  0.00000000000E+00  0.84234621053E+03  0.84234621053E+03  0.00000000000E+00 0.  1.
         21   -1    0    0  503  502 -0.00000000000E+00 -0.00000000000E+00 -0.52961149726E+01  0.52961149726E+01  0.00000000000E+00 0.  1.
          2    1    1    2  501    0  0.12666930517E+02  0.19511300326E+02  0.81581061415E+03  0.81614220583E+03  0.00000000000E+00 0.  1.
         21    1    1    2  503  501 -0.12666930517E+02 -0.19511300326E+02  0.21239481402E+02  0.31500119672E+02  0.00000000000E+00 0.  1.
</event>
<event>
 4    1  0.2239940E+005  0.2153165E+02  0.7546771E-02  0.1511808E+00
          2   -1    0    0  502    0  0.00000000000E+00  0.00000000000E+00  0.19576149409E+03  0.19576149409E+03  0.00000000000E+00 0.  1.
         21   -1    0    0  503  502 -0.00000000000E+00 -0.00000000000E+00 -0.51129641855E+03  0.51129641855E+03  0.00000000000E+00 0. -1.
          2    1    1    2  501    0  0.19363963273E+02 -0.94153550907E+01  0.19494179698E+03  0.19612729590E+03  0.00000000000E+00 0.  1.
         21    1    1    2  503  501 -0.19363963273E+02  0.94153550907E+01 -0.51047672144E+03  0.51093061674E+03  0.00000000000E+00 0. -1.
</event>
<event>
 4    1  0.2239940E+005  0.2165056E+02  0.7546771E-02  0.1510176E+00
          2   -1    0    0  503    0  0.00000000000E+00  0.00000000000E+00  0.12357004701E+04  0.12357004701E+04  0.00000000000E+00 0.  1.
         21   -1    0    0  501  502 -0.00000000000E+00 -0.00000000000E+00 -0.13163900945E+01  0.13163900945E+01  0.00000000000E+00 0.  1.
          2    1    1    2  501    0  0.20012316835E+01  0.21557870227E+02  0.11390297503E+04  0.11392354975E+04  0.00000000000E+00 0.  1.
         21    1    1    2  503  502 -0.20012316835E+01 -0.21557870227E+02  0.95354329764E+02  0.97781362753E+02  0.00000000000E+00 0.  1.
</event>
<event>
 4    1  0.2239940E+005  0.2005151E+02  0.7546771E-02  0.1533250E+00
          2   -1    0    0  503    0  0.00000000000E+00  0.00000000000E+00  0.91106377223E+03  0.91106377223E+03  0.00000000000E+00 0.  1.
         21   -1    0    0  501  502 -0.00000000000E+00 -0.00000000000E+00 -0.25895882760E+01  0.25895882760E+01  0.00000000000E+00 0.  1.
          2    1    1    2  501    0  0.18675745194E+02  0.72993005327E+01  0.87032124989E+03  0.87055220478E+03  0.00000000000E+00 0.  1.
         21    1    1    2  503  502 -0.18675745194E+02 -0.72993005327E+01  0.38152934070E+02  0.43101155726E+02  0.00000000000E+00 0.  1.
</event>
<event>
 4    1  0.2239940E+005  0.2273878E+02  0.7546771E-02  0.1495805E+00
          2   -1    0    0  502    0  0.00000000000E+00  0.00000000000E+00  0.66851346103E+02  0.66851346103E+02  0.00000000000E+00 0. -1.
         21   -1    0    0  503  502 -0.00000000000E+00 -0.00000000000E+00 -0.41303374245E+02  0.41303374245E+02  0.00000000000E+00 0.  1.
          2    1    1    2  501    0 -0.21937455001E+02  0.59833096579E+01  0.61525943020E+02  0.65593395940E+02  0.00000000000E+00 0. -1.
         21    1    1    2  503  501  0.21937455001E+02 -0.59833096579E+01 -0.35977971162E+02  0.42561324408E+02  0.00000000000E+00 0.  1.
</event>
<event>
 4    1  0.2239940E+005  0.2032618E+02  0.7546771E-02  0.1529107E+00
          2   -1    0    0  502    0  0.00000000000E+00  0.00000000000E+00  0.21584086394E+03  0.21584086394E+03  0.00000000000E+00 0. -1.
         21   -1    0    0  503  502 -0.00000000000E+00 -0.00000000000E+00 -0.32320060228E+01  0.32320060228E+01  0.00000000000E+00 0.  1.
          2    1    1    2  501    0  0.70317073037E+01  0.19071144565E+02  0.17624919585E+03  0.17741739627E+03  0.00000000000E+00 0. -1.
         21    1    1    2  503  501 -0.70317073037E+01 -0.19071144565E+02  0.36359662067E+02  0.41655473689E+02  0.00000000000E+00 0.  1.
</event>
<event>
 4    1  0.2239940E+005  0.2846551E+02  0.7546771E-02  0.1433417E+00
          2   -1    0    0  503    0  0.00000000000E+00  0.00000000000E+00  0.33692800150E+03  0.33692800150E+03  0.00000000000E+00 0.  1.
         21   -1    0    0  501  502 -0.00000000000E+00 -0.00000000000E+00 -0.13852380386E+02  0.13852380386E+02  0.00000000000E+00 0.  1.
          2    1    1    2  501    0 -0.27794786621E+02 -0.61428714624E+01  0.32097794911E+03  0.32223768999E+03  0.00000000000E+00 0.  1.
         21    1    1    2  503  502  0.27794786621E+02  0.61428714624E+01  0.20976720049E+01  0.28542691901E+02  0.00000000000E+00 0.  1.
</event>
<event>
 4    1  0.2239940E+005  0.2675829E+02  0.7546771E-02  0.1450051E+00
          2   -1    0    0  503    0  0.00000000000E+00  0.00000000000E+00  0.52726760607E+01  0.52726760607E+01  0.00000000000E+00 0. -1.
         21   -1    0    0  501  502 -0.00000000000E+00 -0.00000000000E+00 -0.13706788707E+03  0.13706788707E+03  0.00000000000E+00 0. -1.
          2    1    1    2  501    0  0.26604708987E+02 -0.28627411098E+01 -0.72754630890E+02  0.77519301744E+02  0.00000000000E+00 0. -1.
         21    1    1    2  503  502 -0.26604708987E+02  0.28627411098E+01 -0.59040580121E+02  0.64821261388E+02  0.00000000000E+00 0. -1.
</event>
<event>
 4    1  0.2239940E+005  0.2009216E+02  0.7546771E-02  0.1532632E+00
          2   -1    0    0  503    0  0.00000000000E+00  0.00000000000E+00  0.15989940322E+04  0.15989940322E+04  0.00000000000E+00 0. -1.
         21   -1    0    0  501  502 -0.00000000000E+00 -0.00000000000E+00 -0.26239876006E+00  0.26239876006E+00  0.00000000000E+00 0.  1.
          2    1    1    2  501    0  0.12768142326E+02 -0.15513519663E+02  0.95492637192E+03  0.95513772334E+03  0.00000000000E+00 0. -1.
         21    1    1    2  503  502 -0.12768142326E+02  0.15513519663E+02  0.64380526150E+03  0.64411870761E+03  0.00000000000E+00 0.  1.
</event>
<event>
 4    1  0.2239940E+005  0.2418579E+02  0.7546771E-02  0.1478122E+00
          2   -1    0    0  503    0  0.00000000000E+00  0.00000000000E+00  0.96936544842E+02  0.96936544842E+02  0.00000000000E+00 0. -1.
         21   -1    0    0  501  502 -0.00000000000E+00 -0.00000000000E+00 -0.12490290541E+03  0.12490290541E+03  0.00000000000E+00 0. -1.
          2    1    1    2  501    0 -0.20764695825E+02 -0.12400802793E+02  0.94223965443E+02  0.97278508246E+02  0.00000000000E+00 0. -1.
         21    1    1    2  503  502  0.20764695825E+02  0.12400802793E+02 -0.12219032601E+03  0.12456094201E+03  0.00000000000E+00 0. -1.
</event>
<event>
 4    1  0.2239940E+005  0.5273742E+02  0.7546771E-02  0.1286721E+00
          2   -1    0    0  503    0  0.00000000000E+00  0.00000000000E+00  0.58966208934E+03  0.58966208934E+03  0.00000000000E+00 0. -1.
         21   -1    0    0  501  502 -0.00000000000E+00 -0.00000000000E+00 -0.47542086648E+01  0.47542086648E+01  0.00000000000E+00 0.  1.
          2    1    1    2  501    0  0.49818652081E+02  0.17301356878E+02  0.31886733317E+03  0.32319902723E+03  0.00000000000E+00 0. -1.
         21    1    1    2  503  502 -0.49818652081E+02 -0.17301356878E+02  0.26604054751E+03  0.27121727077E+03  0.00000000000E+00 0.  1.
</event>
<event>
 4    1  0.2239940E+005  0.2080633E+02  0.7546771E-02  0.1522048E+00
          2   -1    0    0  503    0  0.00000000000E+00  0.00000000000E+00  0.39976410005E+03  0.39976410005E+03  0.00000000000E+00 0. -1.
         21   -1    0    0  501  502 -0.00000000000E+00 -0.00000000000E+00 -0.82110687040E+02  0.82110687040E+02  0.00000000000E+00 0.  1.
          2    1    1    2  501    0  0.17952138187E+02  0.10517799964E+02  0.39817005444E+03  0.39871330005E+03  0.00000000000E+00 0. -1.
         21    1    1    2  503  502 -0.17952138187E+02 -0.10517799964E+02 -0.80516641425E+02  0.83161487047E+02  0.00000000000E+00 0.  1.
</event>
<event>
 4    1  0.2239940E+005  0.2256974E+02  0.7546771E-02  0.1497973E+00
          2   -1    0    0  503    0  0.00000000000E+00  0.00000000000E+00  0.70035856050E+03  0.70035856050E+03  0.00000000000E+00 0.  1.
         21   -1    0    0  501  502 -0.00000000000E+00 -0.00000000000E+00 -0.17879715010E+01  0.17879715010E+01  0.00000000000E+00 0.  1.
          2    1    1    2  501    0  0.18910254384E+02 -0.12320523511E+02  0.61968201027E+03  0.62009288568E+03  0.00000000000E+00 0.  1.
         21    1    1    2  503  502 -0.18910254384E+02  0.12320523511E+02  0.78888578724E+02  0.82053646314E+02  0.00000000000E+00 0.  1.
</event>
<event>
 4    1  0.2239940E+005  0.3452247E+02  0.7546771E-02  0.1383952E+00
          2   -1    0    0  503    0  0.00000000000E+00  0.00000000000E+00  0.73274752323E+03  0.73274752323E+03  0.00000000000E+00 0.  1.
         21   -1    0    0  501  502 -0.00000000000E+00 -0.00000000000E+00 -0.81683276698E+01  0.81683276698E+01  0.00000000000E+00 0. -1.
          2    1    1    2  501    0  0.13312382074E+02 -0.31852496324E+02  0.69381930093E+03  0.69467763991E+03  0.00000000000E+00 0.  1.
         21    1    1    2  503  502 -0.13312382074E+02  0.31852496324E+02  0.30759894632E+02  0.46238210998E+02  0.00000000000E+00 0. -1.
</event>
<event>
 4    1  0.2239940E+005  0.2064175E+02  0.7546771E-02  0.1524442E+00
          2   -1    0    0  502    0  0.00000000000E+00  0.00000000000E+00  0.29678793852E+03  0.29678793852E+03  0.00000000000E+00 0.  1.
         21   -1    0    0  503  502 -0.00000000000E+00 -0.00000000000E+00 -0.10150384153E+04  0.10150384153E+04  0.00000000000E+00 0.  1.
          2    1    1    2  501    0  0.20492442635E+02 -0.24782442855E+01  0.29632392102E+03  0.29704199714E+03  0.00000000000E+00 0.  1.
         21    1    1    2  503  501 -0.20492442635E+02  0.24782442855E+01 -0.10145743978E+04  0.10147843567E+04  0.00000000000E+00 0.  1.
</event>
<event>
 4    1  0.2239940E+005  0.2581350E+02  0.7546771E-02  0.1459905E+00
          2   -1    0    0  503    0  0.00000000000E+00  0.00000000000E+00  0.97444570849E+02  0.97444570849E+02  0.00000000000E+00 0. -1.
         21   -1    0    0  501  502 -0.00000000000E+00 -0.00000000000E+00 -0.89056635461E+02  0.89056635461E+02  0.00000000000E+00 0. -1.
          2    1    1    2  501    0  0.24511772611E+02  0.80937996977E+01  0.93793006863E+02  0.97280340905E+02  0.00000000000E+00 0. -1.
         21    1    1    2  503  502 -0.24511772611E+02 -0.80937996977E+01 -0.85405071475E+02  0.89220865406E+02  0.00000000000E+00 0. -1.
</event>
<event>
 4    1  0.2239940E+005  0.2034257E+02  0.7546771E-02  0.1528862E+00
          2   -1    0    0  503    0  0.00000000000E+00  0.00000000000E+00  0.35437317851E+03  0.35437317851E+03  0.00000000000E+00 0.  1.
         21   -1    0    0  501  502 -0.00000000000E+00 -0.00000000000E+00 -0.10825019463E+02  0.10825019463E+02  0.00000000000E+00 0.  1.
          2    1    1    2  501    0  0.12150745884E+02 -0.16315008970E+02  0.34424322327E+03  0.34484375724E+03  0.00000000000E+00 0.  1.
         21    1    1    2  503  502 -0.12150745884E+02  0.16315008970E+02 -0.69506421896E+00  0.20354440732E+02  0.00000000000E+00 0.  1.
</event>
<event>
 4    1  0.2239940E+005  0.2399121E+02  0.7546771E-02  0.1480413E+00
          2   -1    0    0  503    0  0.00000000000E+00  0.00000000000E+00  0.15260300580E+02  0.15260300580E+02  0.00000000000E+00 0.  1.
         21   -1    0    0  501  502 -0.00000000000E+00 -0.00000000000E+00 -0.13931718492E+03  0.13931718492E+03  0.00000000000E+00 0.  1.
          2    1    1    2  501    0 -0.20918589666E+02  0.11746941623E+02  0.39740612153E+01  0.24318124797E+02  0.00000000000E+00 0.  1.
         21    1    1    2  503  502  0.20918589666E+02 -0.11746941623E+02 -0.12803094555E+03  0.13025936070E+03  0.00000000000E+00 0.  1.
</event>
<event>
 4    1  0.2239940E+005  0.2158607E+02  0.7546771E-02  0.1511059E+00
          2   -1    0    0  503    0  0.00000000000E+00  0.00000000000E+00  0.60886732566E+03  0.60886732566E+03  0.00000000000E+00 0.  1.
         21   -1    0    0  501  502 -0.00000000000E+00 -0.00000000000E+00 -0.11287572230E+01  0.11287572230E+01  0.00000000000E+00 0.  1.
          2    1    1    2  501    0 -0.17400832856E+02 -0.12773772218E+02  0.47694303520E+03  0.47743126947E+03  0.00000000000E+00 0.  1.
         21    1    1    2  503  502  0.17400832856E+02  0.12773772218E+02  0.13079553324E+03  0.13256481342E+03  0.00000000000E+00 0.  1.
</event>
<event>
 4    1  0.2239940E+005  0.2304483E+02  0.7546771E-02  0.1491936E+00
          2   -1    0    0  502    0  0.00000000000E+00  0.00000000000E+00  0.75887168523E+02  0.75887168523E+02  0.00000000000E+00 0.  1.
         21   -1    0    0  503  502 -0.00000000000E+00 -0.00000000000E+00 -0.47430760463E+02  0.47430760463E+02  0.00000000000E+00 0. -1.
          2    1    1    2  501    0 -0.22029136553E+02 -0.67661896170E+01  0.71157061886E+02  0.74795665887E+02  0.00000000000E+00 0.  1.
         21    1    1    2  503  501  0.22029136553E+02  0.67661896170E+01 -0.42700653825E+02  0.48522263100E+02  0.00000000000E+00 0. -1.
</event>
<event>
 4    1  0.2239940E+005  0.2572364E+02  0.7546771E-02  0.1460868E+00
          2   -1    0    0  503    0  0.00000000000E+00  0.00000000000E+00  0.11366152206E+03  0.11366152206E+03  0.00000000000E+00 0.  1.
         21   -1    0    0  501  502 -0.00000000000E+00 -0.00000000000E+00 -0.59105214805E+01  0.59105214805E+01  0.00000000000E+00 0.  1.
          2    1    1    2  501    0  0.13879329975E+02 -0.21658021689E+02  0.46547361627E+02  0.53182352134E+02  0.00000000000E+00 0.  1.
         21    1    1    2  503  502 -0.13879329975E+02  0.21658021689E+02  0.61203638955E+02  0.66389691409E+02  0.00000000000E+00 0.  1.
</event>
<event>
 4    1  0.2239940E+005  0.2666801E+02  0.7546771E-02  0.1450972E+00
          2   -1    0    0  503    0  0.00000000000E+00  0.00000000000E+00  0.10714373969E+04  0.10714373969E+04  0.00000000000E+00 0.  1.
         21   -1    0    0  501  502 -0.00000000000E+00 -0.00000000000E+00 -0.23805794885E+02  0.23805794885E+02  0.00000000000E+00 0. -1.
          2    1    1    2  501    0  0.18733709201E+02  0.18979751204E+02  0.10637488938E+04  0.10640831227E+04  0.00000000000E+00 0.  1.
         21    1    1    2  503  502 -0.18733709201E+02 -0.18979751204E+02 -0.16117291772E+02  0.31160069164E+02  0.00000000000E+00 0. -1.
</event>
<event>
 4    1  0.2239940E+005  0.2012971E+02  0.7546771E-02  0.1532062E+00
          2   -1    0    0  502    0  0.00000000000E+00  0.00000000000E+00  0.87039570654E+03  0.87039570654E+03  0.00000000000E+00 0.  1.
         21   -1    0    0  503  502 -0.00000000000E+00 -0.00000000000E+00 -0.52960092614E+01  0.52960092614E+01  0.00000000000E+00 0. -1.
          2    1    1    2  501    0  0.84763166771E+01  0.18258074801E+02  0.85070887500E+03  0.85094699908E+03  0.00000000000E+00 0.  1.
         21    1    1    2  503  501 -0.84763166771E+01 -0.18258074801E+02  0.14390822283E+02  0.24744716725E+02  0.00000000000E+00 0. -1.
</event>
<event>
 4    1  0.2239940E+005  0.2755453E+02  0.7546771E-02  0.1442116E+00
          2   -1    0    0  503    0  0.00000000000E+00  0.00000000000E+00  0.10870770083E+04  0.10870770083E+04  0.00000000000E+00 0. -1.
         21   -1    0    0  501  502 -0.00000000000E+00 -0.00000000000E+00 -0.70328939924E+00  0.70328939924E+00  0.00000000000E+00 0. -1.
          2    1    1    2  501    0  0.18281687976E+02 -0.20616310068E+02  0.58837486622E+03  0.58901972425E+03  0.00000000000E+00 0. -1.
         21    1    1    2  503  502 -0.18281687976E+02  0.20616310068E+02  0.49799885267E+03  0.49876057343E+03  0.00000000000E+00 0. -1.
</event>
<event>
 4    1  0.2239940E+005  0.2201372E+02  0.7546771E-02  0.1505269E+00
          2   -1    0    0  503    0  0.00000000000E+00  0.00000000000E+00  0.92586115029E+02  0.92586115029E+02  0.00000000000E+00 0. -1.
         21   -1    0    0  501  502 -0.00000000000E+00 -0.00000000000E+00 -0.55585217935E+01  0.55585217935E+01  0.00000000000E+00 0.  1.
          2    1    1    2  501    0 -0.77292285773E+01 -0.20612207771E+02  0.55369257579E+02  0.59584887081E+02  0.00000000000E+00 0. -1.
         21    1    1    2  503  502  0.77292285773E+01  0.20612207771E+02  0.31658335657E+02  0.38559749742E+02  0.00000000000E+00 0.  1.
</event>
<event>
 4    1  0.2239940E+005  0.3673893E+02  0.7546771E-02  0.1368733E+00
          2   -1    0    0  503    0  0.00000000000E+00  0.00000000000E+00  0.25054280962E+02  0.25054280962E+02  0.00000000000E+00 0.  1.
         21   -1    0    0  501  502 -0.00000000000E+00 -0.00000000000E+00 -0.31256108697E+03  0.31256108697E+03  0.00000000000E+00 0.  1.
          2    1    1    2  501    0 -0.36336605096E+02  0.54222142556E+01  0.98189264042E+01  0.38028418230E+02  0.00000000000E+00 0.  1.
         21    1    1    2  503  502  0.36336605096E+02 -0.54222142556E+01 -0.29732573241E+03  0.29958694970E+03  0.00000000000E+00 0.  1.
</event>
<event>
 4    1  0.2239940E+005  0.2306766E+02  0.7546771E-02  0.1491650E+00
          2   -1    0    0  503    0  0.00000000000E+00  0.00000000000E+00  0.37843155251E+03  0.37843155251E+03  0.00000000000E+00 0. -1.
         21   -1    0    0  501  502 -0.00000000000E+00 -0.00000000000E+00 -0.16841125920E+02  0.16841125920E+02  0.00000000000E+00 0.  1.
          2    1    1    2  501    0  0.22964321459E+02 -0.21810129826E+01  0.37000115132E+03  0.37071952856E+03  0.00000000000E+00 0. -1.
         21    1    1    2  503  502 -0.22964321459E+02  0.21810129826E+01 -0.84107247349E+01  0.24553149864E+02  0.00000000000E+00 0.  1.
</event>
<event>
 4    1  0.2239940E+005  0.4167592E+02  0.7546771E-02  0.1338935E+00
          2   -1    0    0  502    0  0.00000000000E+00  0.00000000000E+00  0.29787018339E+04  0.29787018339E+04  0.00000000000E+00 0.  1.
         21   -1    0    0  503  502 -0.00000000000E+00 -0.00000000000E+00 -0.13523587262E+01  0.13523587262E+01  0.00000000000E+00 0.  1.
          2    1    1    2  501    0  0.41660267398E+02 -0.11420388567E+01  0.26124625672E+04  0.26127949684E+04  0.00000000000E+00 0.  1.
         21    1    1    2  503  501 -0.41660267398E+02  0.11420388567E+01  0.36488690797E+03  0.36725922417E+03  0.00000000000E+00 0.  1.
</event>
<event>
 4    1  0.2239940E+005  0.2228648E+02  0.7546771E-02  0.1501658E+00
          2   -1    0    0  503    0  0.00000000000E+00  0.00000000000E+00  0.19430933719E+02  0.19430933719E+02  0.00000000000E+00 0. -1.
         21   -1    0    0  501  502 -0.00000000000E+00 -0.00000000000E+00 -0.30369025607E+03  0.30369025607E+03  0.00000000000E+00 0.  1.
          2    1    1    2  501    0 -0.17130750905E+02  0.14255678621E+02  0.12482209006E+02  0.25543933549E+02  0.00000000000E+00 0. -1.
         21    1    1    2  503  502  0.17130750905E+02 -0.14255678621E+02 -0.29674153135E+03  0.29757725624E+03  0.00000000000E+00 0.  1.
</event>
<event>
 4    1  0.2239940E+005  0.2489301E+02  0.7546771E-02  0.1470004E+00
          2   -1    0    0  503    0  0.00000000000E+00  0.00000000000E+00  0.95337165388E+03  0.95337165388E+03  0.00000000000E+00 0.  1.
         21   -1    0    0  501  502 -0.00000000000E+00 -0.00000000000E+00 -0.14301591120E+01  0.14301591120E+01  0.00000000000E+00 0. -1.
          2    1    1    2  501    0 -0.16650317986E+00  0.24892449300E+02  0.82857809581E+03  0.82895194229E+03  0.00000000000E+00 0.  1.
         21    1    1    2  503  502  0.16650317986E+00 -0.24892449300E+02  0.12336339895E+03  0.12584987071E+03  0.00000000000E+00 0. -1.
</event>
<event>
 4    1  0.2239940E+005  0.2230623E+02  0.7546771E-02  0.1501398E+00
          2   -1    0    0  502    0  0.00000000000E+00  0.00000000000E+00  0.66252772289E+03  0.66252772289E+03  0.00000000000E+00 0.  1.
         21   -1    0    0  503  502 -0.00000000000E+00 -0.00000000000E+00 -0.55827918495E+01  0.55827918495E+01  0.00000000000E+00 0.  1.
          2    1    1    2  501    0  0.20688841623E+02  0.83390574324E+01  0.63924744170E+03  0.63963650597E+03  0.00000000000E+00 0.  1.
         21    1    1    2  503  501 -0.20688841623E+02 -0.83390574324E+01  0.17697489340E+02  0.28474008772E+02  0.00000000000E+00 0.  1.
</event>
<event>
 4    1  0.2239940E+005  0.2091082E+02  0.7546771E-02  0.1520542E+00
          2   -1    0    0  502    0  0.00000000000E+00  0.00000000000E+00  0.72566435475E+02  0.72566435475E+02  0.00000000000E+00 0. -1.
         21   -1    0    0  503  502 -0.00000000000E+00 -0.00000000000E+00 -0.53219859671E+02  0.53219859671E+02  0.00000000000E+00 0. -1.
          2    1    1    2  501    0  0.23893113511E+01 -0.20773866318E+02  0.68899052342E+02  0.72002373184E+02  0.00000000000E+00 0. -1.
         21    1    1    2  503  501 -0.23893113511E+01  0.20773866318E+02 -0.49552476538E+02  0.53783921962E+02  0.00000000000E+00 0. -1.
</event>
<event>
 4    1  0.2239940E+005  0.2958881E+02  0.7546771E-02  0.1423204E+00
          2   -1    0    0  502    0  0.00000000000E+00  0.00000000000E+00  0.97413706590E+03  0.97413706590E+03  0.00000000000E+00 0.  1.
         21   -1    0    0  503  502 -0.00000000000E+00 -0.00000000000E+00 -0.58517294550E+01  0.58517294550E+01  0.00000000000E+00 0.  1.
          2    1    1    2  501    0  0.15002395241E+02  0.25503441778E+02  0.93494134343E+03  0.93540943605E+03  0.00000000000E+00 0.  1.
         21    1    1    2  503  501 -0.15002395241E+02 -0.25503441778E+02  0.33343993017E+02  0.44579359302E+02  0.00000000000E+00 0.  1.
</event>
<event>
 4    1  0.2239940E+005  0.2428647E+02  0.7546771E-02  0.1476946E+00
          2   -1    0    0  503    0  0.00000000000E+00  0.00000000000E+00  0.53878564830E+01  0.53878564830E+01  0.00000000000E+00 0.  1.
         21   -1    0    0  501  502 -0.00000000000E+00 -0.00000000000E+00 -0.56830996434E+03  0.56830996434E+03  0.00000000000E+00 0.  1.
          2    1    1    2  501    0 -0.57888491099E+01  0.23586472260E+02 -0.23716737422E+02  0.33945781499E+02  0.00000000000E+00 0.  1.
         21    1    1    2  503  502  0.57888491099E+01 -0.23586472260E+02 -0.53920537043E+03  0.53975203932E+03  0.00000000000E+00 0.  1.
</event>
<event>
 4    1  0.2239940E+005  0.2055280E+02  0.7546771E-02  0.1525747E+00
          2   -1    0    0  503    0  0.00000000000E+00  0.00000000000E+00  0.45914928435E+02  0.45914928435E+02  0.00000000000E+00 0.  1.
         21   -1    0    0  501  502 -0.00000000000E+00 -0.00000000000E+00 -0.93813916554E+01  0.93813916554E+01  0.00000000000E+00 0.  1.
          2    1    1    2  501    0 -0.11450450941E+01  0.20520874875E+02  0.14422277409E+02  0.25108156435E+02  0.00000000000E+00 0.  1.
         21    1    1    2  503  502  0.11450450941E+01 -0.20520874875E+02  0.22111259370E+02  0.30188163655E+02  0.00000000000E+00 0.  1.
</event>
<event>
 4    1  0.2239940E+005  0.2067028E+02  0.7546771E-02  0.1524025E+00
          2   -1    0    0  502    0  0.00000000000E+00  0.00000000000E+00  0.64637697587E+02  0.64637697587E+02  0.00000000000E+00 0. -1.
         21   -1    0    0  503  502 -0.00000000000E+00 -0.00000000000E+00 -0.72036414493E+01  0.72036414493E+01  0.00000000000E+00 0. -1.
          2    1    1    2  501    0  0.18768033580E+02 -0.86614824894E+01  0.39028036878E+02  0.44163876935E+02  0.00000000000E+00 0. -1.
         21    1    1    2  503  501 -0.18768033580E+02  0.86614824894E+01  0.18406019259E+02  0.27677462101E+02  0.00000000000E+00 0. -1.
</event>
<event>
 4    1  0.2239940E+005  0.2059238E+02  0.7546771E-02  0.1525165E+00
          2   -1    0    0  502    0  0.00000000000E+00  0.00000000000E+00  0.11706273837E+03  0.11706273837E+03  0.00000000000E+00 0.  1.
         21   -1    0    0  503  502 -0.00000000000E+00 -0.00000000000E+00 -0.64192935378E+01  0.64192935378E+01  0.00000000000E+00 0. -1.
          2    1    1    2  501    0 -0.15689486349E+02  0.13337392509E+02  0.96075650649E+02  0.98257705390E+02  0.00000000000E+00 0.  1.
         21    1    1    2  503  501  0.15689486349E+02 -0.13337392509E+02  0.14567794180E+02  0.25224326515E+02  0.00000000000E+00 0. -1.
</event>
<event>
 4    1  0.2239940E+005  0.2041241E+02  0.7546771E-02  0.1527822E+00
          2   -1    0    0  502    0  0.00000000000E+00  0.00000000000E+00  0.17343740352E+03  0.17343740352E+03  0.00000000000E+00 0.  1.
         21   -1    0    0  503  502 -0.00000000000E+00 -0.00000000000E+00 -0.60073831584E+02  0.60073831584E+02  0.00000000000E+00 0.  1.
          2    1    1    2  501    0  0.16330345041E+02  0.12246885326E+02  0.17107900773E+03  0.17229246430E+03  0.00000000000E+00 0.  1.
         21    1    1    2  503  501 -0.16330345041E+02 -0.12246885326E+02 -0.57715435796E+02  0.61218770801E+02  0.00000000000E+00 0.  1.
</event>
<event>
 4    1  0.2239940E+005  0.2297355E+02  0.7546771E-02  0.1492831E+00
          2   -1    0    0  503    0  0.00000000000E+00  0.00000000000E+00  0.33949446213E+03  0.33949446213E+03  0.00000000000E+00 0. -1.
         21   -1    0    0  501  502 -0.00000000000E+00 -0.00000000000E+00 -0.15923058346E+01  0.15923058346E+01  0.00000000000E+00 0. -1.
          2    1    1    2  501    0  0.17670655979E+02 -0.14681005476E+02  0.14271338959E+03  0.14455066784E+03  0.00000000000E+00 0. -1.
         21    1    1    2  503  502 -0.17670655979E+02  0.14681005476E+02  0.19518876670E+03  0.19653610012E+03  0.00000000000E+00 0. -1.
</event>
<event>
 4    1  0.2239940E+005  0.2025559E+02  0.7546771E-02  0.1530164E+00
          2   -1    0    0  502    0  0.00000000000E+00  0.00000000000E+00  0.15536901403E+04  0.15536901403E+04  0.00000000000E+00 0. -1.
         21   -1    0    0  503  502 -0.00000000000E+00 -0.00000000000E+00 -0.32778166258E+00  0.32778166258E+00  0.00000000000E+00 0. -1.
          2    1    1    2  501    0 -0.13288833158E+02  0.15287116171E+02  0.11192358496E+04  0.11194191243E+04  0.00000000000E+00 0. -1.
         21    1    1    2  503  501  0.13288833158E+02 -0.15287116171E+02  0.43412650913E+03  0.43459879767E+03  0.00000000000E+00 0. -1.
</event>
<event>
 4    1  0.2239940E+005  0.3595164E+02  0.7546771E-02  0.1373994E+00
          2   -1    0    0  503    0  0.00000000000E+00  0.00000000000E+00  0.28042303293E+02  0.28042303293E+02  0.00000000000E+00 0. -1.
         21   -1    0    0  501  502 -0.00000000000E+00 -0.00000000000E+00 -0.65312811517E+02  0.65312811517E+02  0.00000000000E+00 0.  1.
          2    1    1    2  501    0  0.25810315132E+02  0.25026940042E+02  0.66866936158E+01  0.36568182435E+02  0.00000000000E+00 0. -1.
         21    1    1    2  503  502 -0.25810315132E+02 -0.25026940042E+02 -0.43957201839E+02  0.56786932375E+02  0.00000000000E+00 0.  1.
</event>
<event>
 4    1  0.2239940E+005  0.2642776E+02  0.7546771E-02  0.1453443E+00
          2   -1    0    0  502    0  0.00000000000E+00  0.00000000000E+00  0.14548870915E+03  0.14548870915E+03  0.00000000000E+00 0.  1.
         21   -1    0    0  503  502 -0.00000000000E+00 -0.00000000000E+00 -0.71832131328E+01  0.71832131328E+01  0.00000000000E+00 0.  1.
          2    1    1    2  501    0  0.15707561000E+02 -0.21253210349E+02  0.11311710731E+03  0.11616327470E+03  0.00000000000E+00 0.  1.
         21    1    1    2  503  501 -0.15707561000E+02  0.21253210349E+02  0.25188388708E+02  0.36508647584E+02  0.00000000000E+00 0.  1.
</event>
<event>
 4    1  0.2239940E+005  0.2012073E+02  0.7546771E-02  0.1532198E+00
          2   -1    0    0  502    0  0.00000000000E+00  0.00000000000E+00  0.13002815721E+04  0.13002815721E+04  0.00000000000E+00 0. -1.
         21   -1    0    0  503  502 -0.00000000000E+00 -0.00000000000E+00 -0.39202939504E+00  0.39202939504E+00  0.00000000000E+00 0. -1.
          2    1    1    2  501    0  0.11599546046E+02 -0.16440630758E+02  0.94496919411E+03  0.94518337990E+03  0.00000000000E+00 0. -1.
         21    1    1    2  503  501 -0.11599546046E+02  0.16440630758E+02  0.35492034855E+03  0.35549022156E+03  0.00000000000E+00 0. -1.
</event>
<event>
 4    1  0.2239940E+005  0.2414027E+02  0.7546771E-02  0.1478655E+00
          2   -1    0    0  502    0  0.00000000000E+00  0.00000000000E+00  0.83218839611E+03  0.83218839611E+03  0.00000000000E+00 0. -1.
         21   -1    0    0  503  502 -0.00000000000E+00 -0.00000000000E+00 -0.19252902608E+02  0.19252902608E+02  0.00000000000E+00 0. -1.
          2    1    1    2  501    0  0.17149066744E+02  0.16990059091E+02  0.82437454595E+03  0.82472792156E+03  0.00000000000E+00 0. -1.
         21    1    1    2  503  501 -0.17149066744E+02 -0.16990059091E+02 -0.11439052447E+02  0.26713377155E+02  0.00000000000E+00 0. -1.
</event>
<event>
 4    1  0.2239940E+005  0.2167228E+02  0.7546771E-02  0.1509879E+00
          2   -1    0    0  503    0  0.00000000000E+00  0.00000000000E+00  0.32340693407E+03  0.32340693407E+03  0.00000000000E+00 0.  1.
         21   -1    0    0  501  502 -0.00000000000E+00 -0.00000000000E+00 -0.10366885141E+02  0.10366885141E+02  0.00000000000E+00 0. -1.
          2    1    1    2  501    0  0.72961571875E+01  0.20407200087E+02  0.31127634977E+03  0.31202989224E+03  0.00000000000E+00 0.  1.
         21    1    1    2  503  502 -0.72961571875E+01 -0.20407200087E+02  0.17636991507E+01  0.21743926963E+02  0.00000000000E+00 0. -1.
</event>
<event>
 4    1  0.2239940E+005  0.5847760E+02  0.7546771E-02  0.1265095E+00
          2   -1    0    0  502    0  0.00000000000E+00  0.00000000000E+00  0.33116153527E+03  0.33116153527E+03  0.00000000000E+00 0. -1.
         21   -1    0    0  503  502 -0.00000000000E+00 -0.00000000000E+00 -0.45169383020E+02  0.45169383020E+02  0.00000000000E+00 0. -1.
          2    1    1    2  501    0 -0.53614921221E+02 -0.23346744735E+02  0.30825956776E+03  0.31375721726E+03  0.00000000000E+00 0. -1.
         21    1    1    2  503  501  0.53614921221E+02  0.23346744735E+02 -0.22267415508E+02  0.62573701031E+02  0.00000000000E+00 0. -1.
</event>
<event>
 4    1  0.2239940E+005  0.2364924E+02  0.7546771E-02  0.1484503E+00
          2   -1    0    0  502    0  0.00000000000E+00  0.00000000000E+00  0.30542119707E+03  0.30542119707E+03  0.00000000000E+00 0.  1.
         21   -1    0    0  503  502 -0.00000000000E+00 -0.00000000000E+00 -0.24351949689E+02  0.24351949689E+02  0.00000000000E+00 0. -1.
          2    1    1    2  501    0  0.22245562037E+02 -0.80262902919E+01  0.29910055219E+03  0.30003404255E+03  0.00000000000E+00 0.  1.
         21    1    1    2  503  501 -0.22245562037E+02  0.80262902919E+01 -0.18031304810E+02  0.29739104212E+02  0.00000000000E+00 0. -1.
</event>
<event>
 4    1  0.2239940E+005  0.9603478E+02  0.7546771E-02  0.1170862E+00
          2   -1    0    0  503    0  0.00000000000E+00  0.00000000000E+00  0.13251859678E+04  0.13251859678E+04  0.00000000000E+00 0.  1.
         21   -1    0    0  501  502 -0.00000000000E+00 -0.00000000000E+00 -0.75413260294E+01  0.75413260294E+01  0.00000000000E+00 0.  1.
          2    1    1    2  501    0 -0.91683381298E+02  0.28580368101E+02  0.84390699687E+03  0.84935369500E+03  0.00000000000E+00 0.  1.
         21    1    1    2  503  502  0.91683381298E+02 -0.28580368101E+02  0.47373764487E+03  0.48337359880E+03  0.00000000000E+00 0.  1.
</event>
<event>
 4    1  0.2239940E+005  0.3849520E+02  0.7546771E-02  0.1357537E+00
          2   -1    0    0  503    0  0.00000000000E+00  0.00000000000E+00  0.12026092231E+04  0.12026092231E+04  0.00000000000E+00 0.  1.
         21   -1    0    0  501  502 -0.00000000000E+00 -0.00000000000E+00 -0.17799514660E+01  0.17799514660E+01  0.00000000000E+00 0. -1.
          2    1    1    2  501    0 -0.35694194151E+02 -0.14415451728E+02  0.93446817917E+03  0.93526074365E+03  0.00000000000E+00 0.  1.
         21    1    1    2  503  502  0.35694194151E+02  0.14415451728E+02  0.26636109242E+03  0.26912843086E+03  0.00000000000E+00 0. -1.
</event>
<event>
 4    1  0.2239940E+005  0.4360213E+02  0.7546771E-02  0.1328579E+00
          2   -1    0    0  503    0  0.00000000000E+00  0.00000000000E+00  0.23465024856E+04  0.23465024856E+04  0.00000000000E+00 0. -1.
         21   -1    0    0  501  502 -0.00000000000E+00 -0.00000000000E+00 -0.63124782982E+01  0.63124782982E+01  0.00000000000E+00 0.  1.
          2    1    1    2  501    0  0.56019098810E+01 -0.43240776081E+02  0.22684151263E+04  0.22688341348E+04  0.00000000000E+00 0. -1.
         21    1    1    2  503  502 -0.56019098810E+01  0.43240776081E+02  0.71774881043E+02  0.83980829117E+02  0.00000000000E+00 0.  1.
</event>
<event>
 4    1  0.2239940E+005  0.2054956E+02  0.7546771E-02  0.1525794E+00
          2   -1    0    0  503    0  0.00000000000E+00  0.00000000000E+00  0.21457961659E+03  0.21457961659E+03  0.00000000000E+00 0.  1.
         21   -1    0    0  501  502 -0.00000000000E+00 -0.00000000000E+00 -0.42967201952E+01  0.42967201952E+01  0.00000000000E+00 0. -1.
          2    1    1    2  501    0 -0.19800521814E+02 -0.54976161640E+01  0.18570943538E+03  0.18684292557E+03  0.00000000000E+00 0.  1.
         21    1    1    2  503  502  0.19800521814E+02  0.54976161640E+01  0.24573461013E+02  0.32033411210E+02  0.00000000000E+00 0. -1.
</event>
<event>
 4    1  0.2239940E+005  0.2396117E+02  0.7546771E-02  0.1480769E+00
          2   -1    0    0  502    0  0.00000000000E+00  0.00000000000E+00  0.90358175082E+03  0.90358175082E+03  0.00000000000E+00 0. -1.
         21   -1    0    0  503  502 -0.00000000000E+00 -0.00000000000E+00 -0.55083142384E+01  0.55083142384E+01  0.00000000000E+00 0.  1.
          2    1    1    2  501    0  0.18646248427E+02 -0.15048429263E+02  0.87656204681E+03  0.87688947976E+03  0.00000000000E+00 0. -1.
         21    1    1    2  503  501 -0.18646248427E+02  0.15048429263E+02  0.21511389769E+02  0.32200585297E+02  0.00000000000E+00 0.  1.
</event>
<event>
 4    1  0.2239940E+005  0.2101863E+02  0.7546771E-02  0.1518999E+00
          2   -1    0    0  502    0  0.00000000000E+00  0.00000000000E+00  0.82918723919E+03  0.82918723919E+03  0.00000000000E+00 0.  1.
         21   -1    0    0  503  502 -0.00000000000E+00 -0.00000000000E+00 -0.53123337281E+01  0.53123337281E+01  0.00000000000E+00 0. -1.
          2    1    1    2  501    0 -0.18667095149E+02  0.96603580545E+01  0.80771089824E+03  0.80798433035E+03  0.00000000000E+00 0.  1.
         21    1    1    2  503  501  0.18667095149E+02 -0.96603580545E+01  0.16164007230E+02  0.26515242574E+02  0.00000000000E+00 0. -1.
</event>
<event>
 4    1  0.2239940E+005  0.2620833E+02  0.7546771E-02  0.1455727E+00
          2   -1    0    0  503    0  0.00000000000E+00  0.00000000000E+00  0.25856462396E+03  0.25856462396E+03  0.00000000000E+00 0. -1.
         21   -1    0    0  501  502 -0.00000000000E+00 -0.00000000000E+00 -0.43067859168E+01  0.43067859168E+01  0.00000000000E+00 0.  1.
          2    1    1    2  501    0  0.15992655011E+02  0.20763224908E+02  0.20848996388E+03  0.21013077253E+03  0.00000000000E+00 0. -1.
         21    1    1    2  503  502 -0.15992655011E+02 -0.20763224908E+02  0.45767874158E+02  0.52740637348E+02  0.00000000000E+00 0.  1.
</event>
<event>
 4    1  0.2239940E+005  0.2299368E+02  0.7546771E-02  0.1492578E+00
          2   -1    0    0  503    0  0.00000000000E+00  0.00000000000E+00  0.13785997899E+04  0.13785997899E+04  0.00000000000E+00 0. -1.
         21   -1    0    0  501  502 -0.00000000000E+00 -0.00000000000E+00 -0.50860185060E+00  0.50860185060E+00  0.00000000000E+00 0. -1.
          2    1    1    2  501    0 -0.22091461734E+02 -0.63778159210E+01  0.10310178780E+04  0.10312742477E+04  0.00000000000E+00 0. -1.
         21    1    1    2  503  502  0.22091461734E+02  0.63778159210E+01  0.34707331005E+03  0.34783414405E+03  0.00000000000E+00 0. -1.
</event>
<event>
 4    1  0.2239940E+005  0.2581988E+02  0.7546771E-02  0.1459837E+00
          2   -1    0    0  502    0  0.00000000000E+00  0.00000000000E+00  0.15636366906E+03  0.15636366906E+03  0.00000000000E+00 0.  1.
         21   -1    0    0  503  502 -0.00000000000E+00 -0.00000000000E+00 -0.61989823358E+01  0.61989823358E+01  0.00000000000E+00 0.  1.
          2    1    1    2  501    0  0.23045471628E+02  0.11643565962E+02  0.12049930640E+03  0.12323452939E+03  0.00000000000E+00 0.  1.
         21    1    1    2  503  501 -0.23045471628E+02 -0.11643565962E+02  0.29665380328E+02  0.39328122011E+02  0.00000000000E+00 0.  1.
</event>
<event>
 4    1  0.2239940E+005  0.2417977E+02  0.7546771E-02  0.1478192E+00
          2   -1    0    0  502    0  0.00000000000E+00  0.00000000000E+00  0.29515801419E+03  0.29515801419E+03  0.00000000000E+00 0.  1.
         21   -1    0    0  503  502 -0.00000000000E+00 -0.00000000000E+00 -0.56069580200E+01  0.56069580200E+01  0.00000000000E+00 0. -1.
          2    1    1    2  501    0 -0.24084951056E+02  0.21392559292E+01  0.26571121553E+03  0.26680912905E+03  0.00000000000E+00 0.  1.
         21    1    1    2  503  501  0.24084951056E+02 -0.21392559292E+01  0.23839840640E+02  0.33955843165E+02  0.00000000000E+00 0. -1.
</event>
<event>
 4    1  0.2239940E+005  0.2241443E+02  0.7546771E-02  0.1499985E+00
          2   -1    0    0  502    0  0.00000000000E+00  0.00000000000E+00  0.10534722745E+02  0.10534722745E+02  0.00000000000E+00 0.  1.
         21   -1    0    0  503  502 -0.00000000000E+00 -0.00000000000E+00 -0.97668861336E+03  0.97668861336E+03  0.00000000000E+00 0.  1.
          2    1    1    2  501    0  0.82495731965E+01  0.20841090669E+02 -0.16673263237E+01  0.22476354137E+02  0.00000000000E+00 0.  1.
         21    1    1    2  503  501 -0.82495731965E+01 -0.20841090669E+02 -0.96448656429E+03  0.96474698196E+03  0.00000000000E+00 0.  1.
</event>
<event>
 4    1  0.2239940E+005  0.2267001E+02  0.7546771E-02  0.1496684E+00
          2   -1    0    0  503    0  0.00000000000E+00  0.00000000000E+00  0.37857549086E+03  0.37857549086E+03  0.00000000000E+00 0.  1.
         21   -1    0    0  501  502 -0.00000000000E+00 -0.00000000000E+00 -0.16130121955E+03  0.16130121955E+03  0.00000000000E+00 0.  1.
          2    1    1    2  501    0  0.20301172625E+02  0.10089194517E+02  0.37743717015E+03  0.37811737181E+03  0.00000000000E+00 0.  1.
         21    1    1    2  503  502 -0.20301172625E+02 -0.10089194517E+02 -0.16016289885E+03  0.16175933860E+03  0.00000000000E+00 0.  1.
</event>
<event>
 4    1  0.2239940E+005  0.2288487E+02  0.7546771E-02  0.1493949E+00
          2   -1    0    0  502    0  0.00000000000E+00  0.00000000000E+00  0.10095928446E+04  0.10095928446E+04  0.00000000000E+00 0. -1.
         21   -1    0    0  503  502 -0.00000000000E+00 -0.00000000000E+00 -0.14517560906E+01  0.14517560906E+01  0.00000000000E+00 0.  1.
          2    1    1    2  501    0  0.22103827376E+02 -0.59277335486E+01  0.90933435370E+03  0.90962227546E+03  0.00000000000E+00 0. -1.
         21    1    1    2  503  501 -0.22103827376E+02  0.59277335486E+01  0.98806734802E+02  0.10142232521E+03  0.00000000000E+00 0.  1.
</event>
<event>
 4    1  0.2482283E+005  0.2121296E+02  0.7546771E-02  0.1516246E+00
          2   -1    0    0  503    0  0.00000000000E+00  0.00000000000E+00  0.12672677106E+04  0.12672677106E+04  0.00000000000E+00 0. -1.
         21   -1    0    0  501  502 -0.00000000000E+00 -0.00000000000E+00 -0.98696654749E+03  0.98696654749E+03  0.00000000000E+00 0. -1.
          2    1    1    2  501    0 -0.67552500952E+01 -0.20108616620E+02  0.12670649376E+04  0.12672424969E+04  0.00000000000E+00 0. -1.
         21    1    1    2  503  502  0.67552500952E+01  0.20108616620E+02 -0.98676377452E+03  0.98699176115E+03  0.00000000000E+00 0. -1.
</event>
<event>
 4    1  0.2239940E+005  0.2536193E+02  0.7546771E-02  0.1464795E+00
          2   -1    0    0  503    0  0.00000000000E+00  0.00000000000E+00  0.99735492710E+03  0.99735492710E+03  0.00000000000E+00 0.  1.
         21   -1    0    0  501  502 -0.00000000000E+00 -0.00000000000E+00 -0.10119663028E+01  0.10119663028E+01  0.00000000000E+00 0.  1.
          2    1    1    2  501    0  0.24029682438E+02 -0.81118405065E+01  0.79879959653E+03  0.79920211650E+03  0.00000000000E+00 0.  1.
         21    1    1    2  503  502 -0.24029682438E+02  0.81118405065E+01  0.19754336426E+03  0.19916477690E+03  0.00000000000E+00 0.  1.
</event>
<event>
 4    1  0.2239940E+005  0.3978362E+02  0.7546771E-02  0.1349758E+00
          2   -1    0    0  503    0  0.00000000000E+00  0.00000000000E+00  0.21091453768E+02  0.21091453768E+02  0.00000000000E+00 0.  1.
         21   -1    0    0  501  502 -0.00000000000E+00 -0.00000000000E+00 -0.92764003046E+02  0.92764003046E+02  0.00000000000E+00 0.  1.
          2    1    1    2  501    0 -0.35722166074E+02 -0.17511793025E+02 -0.10953681025E+02  0.41264017884E+02  0.00000000000E+00 0.  1.
         21    1    1    2  503  502  0.35722166074E+02  0.17511793025E+02 -0.60718868253E+02  0.72591438930E+02  0.00000000000E+00 0.  1.
</event>
<event>
 4    1  0.2239940E+005  0.2555561E+02  0.7546771E-02  0.1462683E+00
          2   -1    0    0  503    0  0.00000000000E+00  0.00000000000E+00  0.11297096083E+04  0.11297096083E+04  0.00000000000E+00 0.  1.
         21   -1    0    0  501  502 -0.00000000000E+00 -0.00000000000E+00 -0.55166178585E+01  0.55166178585E+01  0.00000000000E+00 0. -1.
          2    1    1    2  501    0 -0.25526502827E+02 -0.12193995991E+01  0.10991457546E+04  0.10994428039E+04  0.00000000000E+00 0.  1.
         21    1    1    2  503  502  0.25526502827E+02  0.12193995991E+01  0.25047235825E+02  0.35783422202E+02  0.00000000000E+00 0. -1.
</event>
<event>
 4    1  0.2239940E+005  0.5192045E+02  0.7546771E-02  0.1290054E+00
          2   -1    0    0  502    0  0.00000000000E+00  0.00000000000E+00  0.50380818758E+03  0.50380818758E+03  0.00000000000E+00 0. -1.
         21   -1    0    0  503  502 -0.00000000000E+00 -0.00000000000E+00 -0.12222892294E+02  0.12222892294E+02  0.00000000000E+00 0. -1.
          2    1    1    2  501    0  0.41508544073E+02 -0.31189316040E+02  0.43925930771E+03  0.44231716232E+03  0.00000000000E+00 0. -1.
         21    1    1    2  503  501 -0.41508544073E+02  0.31189316040E+02  0.52325987566E+02  0.73713917552E+02  0.00000000000E+00 0. -1.
</event>
<event>
 4    1  0.2239940E+005  0.2347176E+02  0.7546771E-02  0.1486658E+00
          2   -1    0    0  503    0  0.00000000000E+00  0.00000000000E+00  0.38340661291E+03  0.38340661291E+03  0.00000000000E+00 0. -1.
         21   -1    0    0  501  502 -0.00000000000E+00 -0.00000000000E+00 -0.93773817784E+01  0.93773817784E+01  0.00000000000E+00 0.  1.
          2    1    1    2  501    0  0.21752459342E+02  0.88178235901E+01  0.36773450349E+03  0.36848281989E+03  0.00000000000E+00 0. -1.
         21    1    1    2  503  502 -0.21752459342E+02 -0.88178235901E+01  0.62947276416E+01  0.24301174794E+02  0.00000000000E+00 0.  1.
</event>
<event>
 4    1  0.2239940E+005  0.3668732E+02  0.7546771E-02  0.1369074E+00
          2   -1    0    0  502    0  0.00000000000E+00  0.00000000000E+00  0.11933535762E+03  0.11933535762E+03  0.00000000000E+00 0.  1.
         21   -1    0    0  503  502 -0.00000000000E+00 -0.00000000000E+00 -0.46387376040E+02  0.46387376040E+02  0.00000000000E+00 0. -1.
          2    1    1    2  501    0 -0.26803327280E+02  0.25050770981E+02  0.10856129834E+03  0.11459282254E+03  0.00000000000E+00 0.  1.
         21    1    1    2  503  501  0.26803327280E+02 -0.25050770981E+02 -0.35613316763E+02  0.51129911118E+02  0.00000000000E+00 0. -1.
</event>
<event>
 4    1  0.2239940E+005  0.2198701E+02  0.7546771E-02  0.1505626E+00
          2   -1    0    0  503    0  0.00000000000E+00  0.00000000000E+00  0.43811761255E+02  0.43811761255E+02  0.00000000000E+00 0.  1.
         21   -1    0    0  501  502 -0.00000000000E+00 -0.00000000000E+00 -0.35751692068E+02  0.35751692068E+02  0.00000000000E+00 0. -1.
          2    1    1    2  501    0  0.13462415466E+02 -0.17383666657E+02  0.37107892536E+02  0.43132634804E+02  0.00000000000E+00 0.  1.
         21    1    1    2  503  502 -0.13462415466E+02  0.17383666657E+02 -0.29047823350E+02  0.36430818519E+02  0.00000000000E+00 0. -1.
</event>
<event>
 4    1  0.2239940E+005  0.3278887E+02  0.7546771E-02  0.1396812E+00
          2   -1    0    0  502    0  0.00000000000E+00  0.00000000000E+00  0.51350785533E+03  0.51350785533E+03  0.00000000000E+00 0.  1.
         21   -1    0    0  503  502 -0.00000000000E+00 -0.00000000000E+00 -0.54522408538E+01  0.54522408538E+01  0.00000000000E+00 0.  1.
          2    1    1    2  501    0  0.32370883744E+02 -0.52187805772E+01  0.45768253301E+03  0.45885554459E+03  0.00000000000E+00 0.  1.
         21    1    1    2  503  501 -0.32370883744E+02  0.52187805772E+01  0.50373081468E+02  0.60104551588E+02  0.00000000000E+00 0.  1.
</event>
<event>
 4    1  0.2239940E+005  0.2553345E+02  0.7546771E-02  0.1462923E+00
          2   -1    0    0  503    0  0.00000000000E+00  0.00000000000E+00  0.42143921770E+02  0.42143921770E+02  0.00000000000E+00 0. -1.
         21   -1    0    0  501  502 -0.00000000000E+00 -0.00000000000E+00 -0.83407299474E+02  0.83407299474E+02  0.00000000000E+00 0.  1.
          2    1    1    2  501    0 -0.21066876865E+02  0.14427194471E+02  0.36024030159E+02  0.44155271373E+02  0.00000000000E+00 0. -1.
         21    1    1    2  503  502  0.21066876865E+02 -0.14427194471E+02 -0.77287407863E+02  0.81395949871E+02  0.00000000000E+00 0.  1.
</event>
<event>
 4    1  0.2239940E+005  0.2568453E+02  0.7546771E-02  0.1461289E+00
          2   -1    0    0  502    0  0.00000000000E+00  0.00000000000E+00  0.18803169997E+03  0.18803169997E+03  0.00000000000E+00 0. -1.
         21   -1    0    0  503  502 -0.00000000000E+00 -0.00000000000E+00 -0.16776748497E+03  0.16776748497E+03  0.00000000000E+00 0.  1.
          2    1    1    2  501    0 -0.21738023080E+02  0.13680403129E+02  0.18616171598E+03  0.18792519675E+03  0.00000000000E+00 0. -1.
         21    1    1    2  503  501  0.21738023080E+02 -0.13680403129E+02 -0.16589750098E+03  0.16787398818E+03  0.00000000000E+00 0.  1.
</event>
<event>
 4    1  0.2239940E+005  0.2186335E+02  0.7546771E-02  0.1507287E+00
          2   -1    0    0  503    0  0.00000000000E+00  0.00000000000E+00  0.14101401914E+04  0.14101401914E+04  0.00000000000E+00 0. -1.
         21   -1    0    0  501  502 -0.00000000000E+00 -0.00000000000E+00 -0.14761664718E+01  0.14761664718E+01  0.00000000000E+00 0. -1.
          2    1    1    2  501    0 -0.10906695766E+02 -0.18948611332E+02  0.13238234757E+04  0.13240040033E+04  0.00000000000E+00 0. -1.
         21    1    1    2  503  502  0.10906695766E+02  0.18948611332E+02  0.84840549221E+02  0.87612354585E+02  0.00000000000E+00 0. -1.
</event>
<event>
 4    1  0.2239940E+005  0.2314470E+02  0.7546771E-02  0.1490689E+00
          2   -1    0    0  503    0  0.00000000000E+00  0.00000000000E+00  0.11129607390E+04  0.11129607390E+04  0.00000000000E+00 0. -1.
         21   -1    0    0  501  502 -0.00000000000E+00 -0.00000000000E+00 -0.21808782257E+01  0.21808782257E+01  0.00000000000E+00 0. -1.
          2    1    1    2  501    0  0.56531260651E+01  0.22443696685E+02  0.10476037759E+04  0.10478594127E+04  0.00000000000E+00 0. -1.
         21    1    1    2  503  502 -0.56531260651E+01 -0.22443696685E+02  0.63176084853E+02  0.67282204575E+02  0.00000000000E+00 0. -1.
</event>
<event>
 4    1  0.2239940E+005  0.2170043E+02  0.7546771E-02  0.1509495E+00
          2   -1    0    0  503    0  0.00000000000E+00  0.00000000000E+00  0.65799425279E+03  0.65799425279E+03  0.00000000000E+00 0. -1.
         21   -1    0    0  501  502 -0.00000000000E+00 -0.00000000000E+00 -0.16993473174E+02  0.16993473174E+02  0.00000000000E+00 0.  1.
          2    1    1    2  501    0  0.20546594616E+02 -0.69818419355E+01  0.65081110501E+03  0.65117279049E+03  0.00000000000E+00 0. -1.
         21    1    1    2  503  502 -0.20546594616E+02  0.69818419355E+01 -0.98103253975E+01  0.23814935472E+02  0.00000000000E+00 0.  1.
</event>
<event>
 4    1  0.2239940E+005  0.2820862E+02  0.7546771E-02  0.1435831E+00
          2   -1    0    0  503    0  0.00000000000E+00  0.00000000000E+00  0.31945358319E+03  0.31945358319E+03  0.00000000000E+00 0. -1.
         21   -1    0    0  501  502 -0.00000000000E+00 -0.00000000000E+00 -0.12921656232E+02  0.12921656232E+02  0.00000000000E+00 0. -1.
          2    1    1    2  501    0  0.19243074809E+02  0.20625959398E+02  0.30257893078E+03  0.30389099276E+03  0.00000000000E+00 0. -1.
         21    1    1    2  503  502 -0.19243074809E+02 -0.20625959398E+02  0.39529961808E+01  0.28484246664E+02  0.00000000000E+00 0. -1.
</event>
<event>
 4    1  0.2239940E+005  0.2769862E+02  0.7546771E-02  0.1440714E+00
          2   -1    0    0  503    0  0.00000000000E+00  0.00000000000E+00  0.77088852307E+01  0.77088852307E+01  0.00000000000E+00 0.  1.
         21   -1    0    0  501  502 -0.00000000000E+00 -0.00000000000E+00 -0.57030824749E+03  0.57030824749E+03  0.00000000000E+00 0.  1.
          2    1    1    2  501    0  0.25228072275E+02 -0.11434946039E+02 -0.18716334926E+02  0.33429250884E+02  0.00000000000E+00 0.  1.
         21    1    1    2  503  502 -0.25228072275E+02  0.11434946039E+02 -0.54388302733E+03  0.54458788184E+03  0.00000000000E+00 0.  1.
</event>
<event>
 4    1  0.2239940E+005  0.2221803E+02  0.7546771E-02  0.1502558E+00
          2   -1    0    0  502    0  0.00000000000E+00  0.00000000000E+00  0.12372029984E+04  0.12372029984E+04  0.00000000000E+00 0. -1.
         21   -1    0    0  503  502 -0.00000000000E+00 -0.00000000000E+00 -0.11439909367E+01  0.11439909367E+01  0.00000000000E+00 0. -1.
          2    1    1    2  501    0  0.11077330249E+02  0.19259636468E+02  0.11176926322E+04  0.11179134407E+04  0.00000000000E+00 0. -1.
         21    1    1    2  503  501 -0.11077330249E+02 -0.19259636468E+02  0.11836637528E+03  0.12043354865E+03  0.00000000000E+00 0. -1.
</event>
<event>
 4    1  0.2239940E+005  0.3370032E+02  0.7546771E-02  0.1389938E+00
          2   -1    0    0  503    0  0.00000000000E+00  0.00000000000E+00  0.13322331765E+02  0.13322331765E+02  0.00000000000E+00 0.  1.
         21   -1    0    0  501  502 -0.00000000000E+00 -0.00000000000E+00 -0.88263994857E+02  0.88263994857E+02  0.00000000000E+00 0.  1.
          2    1    1    2  501    0  0.33097342870E+02 -0.63464721739E+01 -0.46858904834E+02  0.57718877123E+02  0.00000000000E+00 0.  1.
         21    1    1    2  503  502 -0.33097342870E+02  0.63464721739E+01 -0.28082758258E+02  0.43867449499E+02  0.00000000000E+00 0.  1.
</event>
<event>
 4    1  0.2239940E+005  0.4211388E+02  0.7546771E-02  0.1336525E+00
          2   -1    0    0  502    0  0.00000000000E+00  0.00000000000E+00  0.79797381899E+03  0.79797381899E+03  0.00000000000E+00 0.  1.
         21   -1    0    0  503  502 -0.00000000000E+00 -0.00000000000E+00 -0.49619062863E+02  0.49619062863E+02  0.00000000000E+00 0. -1.
          2    1    1    2  501    0  0.26819246660E+02  0.32470091647E+02  0.78837345346E+03  0.78949748635E+03  0.00000000000E+00 0.  1.
         21    1    1    2  503  501 -0.26819246660E+02 -0.32470091647E+02 -0.40018697326E+02  0.58095395503E+02  0.00000000000E+00 0. -1.
</event>
<event>
 4    1  0.2239940E+005  0.2081263E+02  0.7546771E-02  0.1521957E+00
          2   -1    0    0  502    0  0.00000000000E+00  0.00000000000E+00  0.52201307468E+03  0.52201307468E+03  0.00000000000E+00 0. -1.
         21   -1    0    0  503  502 -0.00000000000E+00 -0.00000000000E+00 -0.11860546840E+02  0.11860546840E+02  0.00000000000E+00 0.  1.
          2    1    1    2  501    0 -0.15126684110E+02 -0.14295064729E+02  0.51250593834E+03  0.51292835979E+03  0.00000000000E+00 0. -1.
         21    1    1    2  503  501  0.15126684110E+02  0.14295064729E+02 -0.23534105001E+01  0.20945261725E+02  0.00000000000E+00 0.  1.
</event>
<event>
 4    1  0.2239940E+005  0.2037913E+02  0.7546771E-02  0.1528317E+00
          2   -1    0    0  503    0  0.00000000000E+00  0.00000000000E+00  0.25868835731E+01  0.25868835731E+01  0.00000000000E+00 0.  1.
         21   -1    0    0  501  502 -0.00000000000E+00 -0.00000000000E+00 -0.44965080909E+03  0.44965080909E+03  0.00000000000E+00 0.  1.
          2    1    1    2  501    0  0.11197593489E+02  0.17027115866E+02 -0.42219276860E+02  0.46880444892E+02  0.00000000000E+00 0.  1.
         21    1    1    2  503  502 -0.11197593489E+02 -0.17027115866E+02 -0.40484464866E+03  0.40535724777E+03  0.00000000000E+00 0.  1.
</event>
<event>
 4    1  0.2239940E+005  0.2324327E+02  0.7546771E-02  0.1489466E+00
          2   -1    0    0  503    0  0.00000000000E+00  0.00000000000E+00  0.28395579866E+03  0.28395579866E+03  0.00000000000E+00 0. -1.
         21   -1    0    0  501  502 -0.00000000000E+00 -0.00000000000E+00 -0.20401735657E+02  0.20401735657E+02  0.00000000000E+00 0. -1.
          2    1    1    2  501    0  0.22694204234E+02 -0.50222227754E+01  0.27668638377E+03  0.27766095259E+03  0.00000000000E+00 0. -1.
         21    1    1    2  503  502 -0.22694204234E+02  0.50222227754E+01 -0.13132320767E+02  0.26696581731E+02  0.00000000000E+00 0. -1.
</event>
<event>
 4    1  0.2239940E+005  0.2201247E+02  0.7546771E-02  0.1505285E+00
          2   -1    0    0  502    0  0.00000000000E+00  0.00000000000E+00  0.41738002425E+02  0.41738002425E+02  0.00000000000E+00 0.  1.
         21   -1    0    0  503  502 -0.00000000000E+00 -0.00000000000E+00 -0.24929697574E+02  0.24929697574E+02  0.00000000000E+00 0.  1.
          2    1    1    2  501    0  0.81882924687E+01 -0.20432835890E+02  0.32770228453E+02  0.39477041289E+02  0.00000000000E+00 0.  1.
         21    1    1    2  503  501 -0.81882924687E+01  0.20432835890E+02 -0.15961923602E+02  0.27190658711E+02  0.00000000000E+00 0.  1.
</event>
<event>
 4    1  0.2239940E+005  0.2538684E+02  0.7546771E-02  0.1464522E+00
          2   -1    0    0  502    0  0.00000000000E+00  0.00000000000E+00  0.11526407837E+04  0.11526407837E+04  0.00000000000E+00 0. -1.
         21   -1    0    0  503  502 -0.00000000000E+00 -0.00000000000E+00 -0.21210520839E+01  0.21210520839E+01  0.00000000000E+00 0.  1.
          2    1    1    2  501    0 -0.21933213598E+02 -0.12783812707E+02  0.10707266569E+04  0.10710275746E+04  0.00000000000E+00 0. -1.
         21    1    1    2  503  501  0.21933213598E+02  0.12783812707E+02  0.79793074748E+02  0.83734261230E+02  0.00000000000E+00 0.  1.
</event>
<event>
 4    1  0.2239940E+005  0.2423358E+02  0.7546771E-02  0.1477563E+00
          2   -1    0    0  502    0  0.00000000000E+00  0.00000000000E+00  0.15681517643E+04  0.15681517643E+04  0.00000000000E+00 0.  1.
         21   -1    0    0  503  502 -0.00000000000E+00 -0.00000000000E+00 -0.11946133565E+01  0.11946133565E+01  0.00000000000E+00 0. -1.
          2    1    1    2  501    0  0.17969180190E+02 -0.16259605912E+02  0.14336280111E+04  0.14338328147E+04  0.00000000000E+00 0.  1.
         21    1    1    2  503  501 -0.17969180190E+02  0.16259605912E+02  0.13332913982E+03  0.13551356296E+03  0.00000000000E+00 0. -1.
</event>
<event>
 4    1  0.2239940E+005  0.2030156E+02  0.7546771E-02  0.1529475E+00
          2   -1    0    0  502    0  0.00000000000E+00  0.00000000000E+00  0.18369533684E+02  0.18369533684E+02  0.00000000000E+00 0. -1.
         21   -1    0    0  503  502 -0.00000000000E+00 -0.00000000000E+00 -0.98526230212E+03  0.98526230212E+03  0.00000000000E+00 0. -1.
          2    1    1    2  501    0 -0.19630219576E+02 -0.51776359962E+01  0.12622850813E+02  0.23905852793E+02  0.00000000000E+00 0. -1.
         21    1    1    2  503  501  0.19630219576E+02  0.51776359962E+01 -0.97951561925E+03  0.97972598301E+03  0.00000000000E+00 0. -1.
</event>
<event>
 4    1  0.2239940E+005  0.2374452E+02  0.7546771E-02  0.1483355E+00
          2   -1    0    0  502    0  0.00000000000E+00  0.00000000000E+00  0.71592383931E+03  0.71592383931E+03  0.00000000000E+00 0.  1.
         21   -1    0    0  503  502 -0.00000000000E+00 -0.00000000000E+00 -0.66637039014E+01  0.66637039014E+01  0.00000000000E+00 0.  1.
          2    1    1    2  501    0 -0.15883185884E+02  0.17650122664E+02  0.69390394163E+03  0.69431007672E+03  0.00000000000E+00 0.  1.
         21    1    1    2  503  501  0.15883185884E+02 -0.17650122664E+02  0.15356193779E+02  0.28277466493E+02  0.00000000000E+00 0.  1.
</event>
<event>
 4    1  0.2239940E+005  0.4955104E+02  0.7546771E-02  0.1300131E+00
          2   -1    0    0  502    0  0.00000000000E+00  0.00000000000E+00  0.85001977025E+03  0.85001977025E+03  0.00000000000E+00 0.  1.
         21   -1    0    0  503  502 -0.00000000000E+00 -0.00000000000E+00 -0.75729992540E+02  0.75729992540E+02  0.00000000000E+00 0. -1.
          2    1    1    2  501    0 -0.49035427128E+02 -0.71297150796E+01  0.84110635622E+03  0.84256466127E+03  0.00000000000E+00 0.  1.
         21    1    1    2  503  501  0.49035427128E+02  0.71297150796E+01 -0.66816578510E+02  0.83185101518E+02  0.00000000000E+00 0. -1.
</event>
<event>
 4    1  0.2239940E+005  0.2172475E+02  0.7546771E-02  0.1509164E+00
          2   -1    0    0  502    0  0.00000000000E+00  0.00000000000E+00  0.22723623399E+02  0.22723623399E+02  0.00000000000E+00 0.  1.
         21   -1    0    0  503  502 -0.00000000000E+00 -0.00000000000E+00 -0.27577924114E+02  0.27577924114E+02  0.00000000000E+00 0.  1.
          2    1    1    2  501    0 -0.12925722050E+02  0.17461107055E+02  0.10069254505E+02  0.23944820659E+02  0.00000000000E+00 0.  1.
         21    1    1    2  503  501  0.12925722050E+02 -0.17461107055E+02 -0.14923555220E+02  0.26356726855E+02  0.00000000000E+00 0.  1.
</event>
<event>
 4    1  0.2239940E+005  0.4912644E+02  0.7546771E-02  0.1302005E+00
          2   -1    0    0  502    0  0.00000000000E+00  0.00000000000E+00  0.16199192688E+03  0.16199192688E+03  0.00000000000E+00 0.  1.
         21   -1    0    0  503  502 -0.00000000000E+00 -0.00000000000E+00 -0.82984853675E+02  0.82984853675E+02  0.00000000000E+00 0. -1.
          2    1    1    2  501    0 -0.38287143071E+02 -0.30781512341E+02  0.15045323801E+03  0.15827060262E+03  0.00000000000E+00 0.  1.
         21    1    1    2  503  501  0.38287143071E+02  0.30781512341E+02 -0.71446164804E+02  0.86706177933E+02  0.00000000000E+00 0. -1.
</event>
<event>
 4    1  0.2239940E+005  0.2958228E+02  0.7546771E-02  0.1423262E+00
          2   -1    0    0  503    0  0.00000000000E+00  0.00000000000E+00  0.72928977476E+03  0.72928977476E+03  0.00000000000E+00 0. -1.
         21   -1    0    0  501  502 -0.00000000000E+00 -0.00000000000E+00 -0.19951502462E+01  0.19951502462E+01  0.00000000000E+00 0.  1.
          2    1    1    2  501    0 -0.24471630758E+02 -0.16620781169E+02  0.59448522826E+03  0.59522079744E+03  0.00000000000E+00 0. -1.
         21    1    1    2  503  502  0.24471630758E+02  0.16620781169E+02  0.13280939625E+03  0.13606412757E+03  0.00000000000E+00 0.  1.
</event>
<event>
 4    1  0.2239940E+005  0.2214784E+02  0.7546771E-02  0.1503485E+00
          2   -1    0    0  503    0  0.00000000000E+00  0.00000000000E+00  0.97377156948E+02  0.97377156948E+02  0.00000000000E+00 0. -1.
         21   -1    0    0  501  502 -0.00000000000E+00 -0.00000000000E+00 -0.13682342747E+04  0.13682342747E+04  0.00000000000E+00 0.  1.
          2    1    1    2  501    0  0.16257259354E+01  0.22088088223E+02  0.96026938094E+02  0.98547955158E+02  0.00000000000E+00 0. -1.
         21    1    1    2  503  502 -0.16257259354E+01 -0.22088088223E+02 -0.13668840559E+04  0.13670634765E+04  0.00000000000E+00 0.  1.
</event>
<event>
 4    1  0.2239940E+005  0.2264965E+02  0.7546771E-02  0.1496945E+00
          2   -1    0    0  502    0  0.00000000000E+00  0.00000000000E+00  0.91098437562E+03  0.91098437562E+03  0.00000000000E+00 0.  1.
         21   -1    0    0  503  502 -0.00000000000E+00 -0.00000000000E+00 -0.20525051807E+01  0.20525051807E+01  0.00000000000E+00 0.  1.
          2    1    1    2  501    0  0.10297472353E+02  0.20173469501E+02  0.84334770238E+03  0.84365179661E+03  0.00000000000E+00 0.  1.
         21    1    1    2  503  501 -0.10297472353E+02 -0.20173469501E+02  0.65584168061E+02  0.69385084195E+02  0.00000000000E+00 0.  1.
</event>
<event>
 4    1  0.2239940E+005  0.2937461E+02  0.7546771E-02  0.1425110E+00
          2   -1    0    0  503    0  0.00000000000E+00  0.00000000000E+00  0.16223171940E+04  0.16223171940E+04  0.00000000000E+00 0.  1.
         21   -1    0    0  501  502 -0.00000000000E+00 -0.00000000000E+00 -0.10342443896E+02  0.10342443896E+02  0.00000000000E+00 0.  1.
          2    1    1    2  501    0  0.27407209033E+02 -0.10569432142E+02  0.16010497407E+04  0.16013191874E+04  0.00000000000E+00 0.  1.
         21    1    1    2  503  502 -0.27407209033E+02  0.10569432142E+02  0.10925009431E+02  0.31340450441E+02  0.00000000000E+00 0.  1.
</event>
<event>
 4    1  0.2239940E+005  0.2637402E+02  0.7546771E-02  0.1454000E+00
          2   -1    0    0  502    0  0.00000000000E+00  0.00000000000E+00  0.15734236897E+04  0.15734236897E+04  0.00000000000E+00 0.  1.
         21   -1    0    0  503  502 -0.00000000000E+00 -0.00000000000E+00 -0.46276925923E+02  0.46276925923E+02  0.00000000000E+00 0. -1.
          2    1    1    2  501    0  0.25826363739E+02  0.53467602140E+01  0.15695461330E+04  0.15697677065E+04  0.00000000000E+00 0.  1.
         21    1    1    2  503  501 -0.25826363739E+02 -0.53467602140E+01 -0.42399369165E+02  0.49932909131E+02  0.00000000000E+00 0. -1.
</event>
<event>
 4    1  0.2239940E+005  0.2244519E+02  0.7546771E-02  0.1499585E+00
          2   -1    0    0  502    0  0.00000000000E+00  0.00000000000E+00  0.20640654763E+02  0.20640654763E+02  0.00000000000E+00 0.  1.
         21   -1    0    0  503  502 -0.00000000000E+00 -0.00000000000E+00 -0.45979966942E+02  0.45979966942E+02  0.00000000000E+00 0.  1.
          2    1    1    2  501    0 -0.23880504878E+01 -0.22317795438E+02  0.10146593849E+02  0.24632095832E+02  0.00000000000E+00 0.  1.
         21    1    1    2  503  501  0.23880504878E+01  0.22317795438E+02 -0.35485906028E+02  0.41988525873E+02  0.00000000000E+00 0.  1.
</event>
<event>
 4    1  0.2239940E+005  0.4880479E+02  0.7546771E-02  0.1303439E+00
          2   -1    0    0  503    0  0.00000000000E+00  0.00000000000E+00  0.15298905694E+03  0.15298905694E+03  0.00000000000E+00 0.  1.
         21   -1    0    0  501  502 -0.00000000000E+00 -0.00000000000E+00 -0.37776260323E+02  0.37776260323E+02  0.00000000000E+00 0.  1.
          2    1    1    2  501    0 -0.40154451483E+02 -0.27740354986E+02  0.13073817337E+03  0.13955062610E+03  0.00000000000E+00 0.  1.
         21    1    1    2  503  502  0.40154451483E+02  0.27740354986E+02 -0.15525376745E+02  0.51214691171E+02  0.00000000000E+00 0.  1.
</event>
<event>
 4    1  0.2239940E+005  0.2074533E+02  0.7546771E-02  0.1522932E+00
          2   -1    0    0  503    0  0.00000000000E+00  0.00000000000E+00  0.15375031229E+04  0.15375031229E+04  0.00000000000E+00 0.  1.
         21   -1    0    0  501  502 -0.00000000000E+00 -0.00000000000E+00 -0.28852798423E+00  0.28852798423E+00  0.00000000000E+00 0.  1.
          2    1    1    2  501    0  0.50543940616E+01  0.20120183871E+02  0.90146133632E+03  0.90170001086E+03  0.00000000000E+00 0.  1.
         21    1    1    2  503  502 -0.50543940616E+01 -0.20120183871E+02  0.63575325861E+03  0.63609164004E+03  0.00000000000E+00 0.  1.
</event>
<event>
 4    1  0.2239940E+005  0.3175191E+02  0.7546771E-02  0.1404959E+00
          2   -1    0    0  502    0  0.00000000000E+00  0.00000000000E+00  0.41351608643E+02  0.41351608643E+02  0.00000000000E+00 0. -1.
         21   -1    0    0  503  502 -0.00000000000E+00 -0.00000000000E+00 -0.19272248801E+03  0.19272248801E+03  0.00000000000E+00 0. -1.
          2    1    1    2  501    0 -0.11499932518E+02  0.29596207195E+02  0.33698369991E+02  0.46300799867E+02  0.00000000000E+00 0. -1.
         21    1    1    2  503  501  0.11499932518E+02 -0.29596207195E+02 -0.18506924936E+03  0.18777329679E+03  0.00000000000E+00 0. -1.
</event>
<event>
 4    1  0.2239940E+005  0.3067139E+02  0.7546771E-02  0.1413850E+00
          2   -1    0    0  503    0  0.00000000000E+00  0.00000000000E+00  0.88208725624E+03  0.88208725624E+03  0.00000000000E+00 0.  1.
         21   -1    0    0  501  502 -0.00000000000E+00 -0.00000000000E+00 -0.40367079894E+01  0.40367079894E+01  0.00000000000E+00 0. -1.
          2    1    1    2  501    0  0.25466451902E+02  0.17093679704E+02  0.81907921880E+03  0.81965328080E+03  0.00000000000E+00 0.  1.
         21    1    1    2  503  502 -0.25466451902E+02 -0.17093679704E+02  0.58971329455E+02  0.66470683432E+02  0.00000000000E+00 0. -1.
</event>
<event>
 4    1  0.2239940E+005  0.2739943E+02  0.7546771E-02  0.1443637E+00
          2   -1    0    0  503    0  0.00000000000E+00  0.00000000000E+00  0.31848514263E+03  0.31848514263E+03  0.00000000000E+00 0. -1.
         21   -1    0    0  501  502 -0.00000000000E+00 -0.00000000000E+00 -0.81549084832E+01  0.81549084832E+01  0.00000000000E+00 0. -1.
          2    1    1    2  501    0 -0.16010964572E+02 -0.22234604197E+02  0.29287294174E+03  0.29415181219E+03  0.00000000000E+00 0. -1.
         21    1    1    2  503  502  0.16010964572E+02  0.22234604197E+02  0.17457292409E+02  0.32488238927E+02  0.00000000000E+00 0. -1.
</event>
<event>
 4    1  0.2239940E+005  0.2348356E+02  0.7546771E-02  0.1486514E+00
          2   -1    0    0  502    0  0.00000000000E+00  0.00000000000E+00  0.15133879574E+04  0.15133879574E+04  0.00000000000E+00 0.  1.
         21   -1    0    0  503  502 -0.00000000000E+00 -0.00000000000E+00 -0.38320622089E+00  0.38320622089E+00  0.00000000000E+00 0.  1.
          2    1    1    2  501    0 -0.11632987818E+02  0.20399779033E+02  0.92417946925E+03  0.92447778165E+03  0.00000000000E+00 0.  1.
         21    1    1    2  503  501  0.11632987818E+02 -0.20399779033E+02  0.58882528193E+03  0.58929338196E+03  0.00000000000E+00 0.  1.
</event>
<event>
 4    1  0.2239940E+005  0.2366853E+02  0.7546771E-02  0.1484270E+00
          2   -1    0    0  502    0  0.00000000000E+00  0.00000000000E+00  0.10990919715E+04  0.10990919715E+04  0.00000000000E+00 0. -1.
         21   -1    0    0  503  502 -0.00000000000E+00 -0.00000000000E+00 -0.87850478560E+00  0.87850478560E+00  0.00000000000E+00 0. -1.
          2    1    1    2  501    0  0.13503439838E+02 -0.19438534555E+02  0.90546049467E+03  0.90576978693E+03  0.00000000000E+00 0. -1.
         21    1    1    2  503  501 -0.13503439838E+02  0.19438534555E+02  0.19275297209E+03  0.19420068940E+03  0.00000000000E+00 0. -1.
</event>
<event>
 4    1  0.2239940E+005  0.2203700E+02  0.7546771E-02  0.1504958E+00
          2   -1    0    0  503    0  0.00000000000E+00  0.00000000000E+00  0.21841977482E+03  0.21841977482E+03  0.00000000000E+00 0. -1.
         21   -1    0    0  501  502 -0.00000000000E+00 -0.00000000000E+00 -0.31231191258E+01  0.31231191258E+01  0.00000000000E+00 0. -1.
          2    1    1    2  501    0 -0.18120431583E+02 -0.12541104878E+02  0.16710392541E+03  0.16855073788E+03  0.00000000000E+00 0. -1.
         21    1    1    2  503  502  0.18120431583E+02  0.12541104878E+02  0.48192730282E+02  0.52992156064E+02  0.00000000000E+00 0. -1.
</event>
<event>
 4    1  0.2239940E+005  0.3012182E+02  0.7546771E-02  0.1418541E+00
          2   -1    0    0  502    0  0.00000000000E+00  0.00000000000E+00  0.11508567183E+03  0.11508567183E+03  0.00000000000E+00 0. -1.
         21   -1    0    0  503  502 -0.00000000000E+00 -0.00000000000E+00 -0.14655679069E+02  0.14655679069E+02  0.00000000000E+00 0. -1.
          2    1    1    2  501    0 -0.20845581465E+02  0.21743641827E+02  0.94310748448E+02  0.99004249905E+02  0.00000000000E+00 0. -1.
         21    1    1    2  503  501  0.20845581465E+02 -0.21743641827E+02  0.61192443132E+01  0.30737100993E+02  0.00000000000E+00 0. -1.
</event>
<event>
 4    1  0.2239940E+005  0.2791341E+02  0.7546771E-02  0.1438642E+00
          2   -1    0    0  502    0  0.00000000000E+00  0.00000000000E+00  0.74753914934E+03  0.74753914934E+03  0.00000000000E+00 0. -1.
         21   -1    0    0  503  502 -0.00000000000E+00 -0.00000000000E+00 -0.17070492306E+02  0.17070492306E+02  0.00000000000E+00 0. -1.
          2    1    1    2  501    0 -0.14409038532E+02 -0.23906866333E+02  0.73568385934E+03  0.73621321609E+03  0.00000000000E+00 0. -1.
         21    1    1    2  503  501  0.14409038532E+02  0.23906866333E+02 -0.52152023069E+01  0.28396425556E+02  0.00000000000E+00 0. -1.
</event>
<event>
 4    1  0.2239940E+005  0.3302260E+02  0.7546771E-02  0.1395025E+00
          2   -1    0    0  503    0  0.00000000000E+00  0.00000000000E+00  0.20419196031E+02  0.20419196031E+02  0.00000000000E+00 0. -1.
         21   -1    0    0  501  502 -0.00000000000E+00 -0.00000000000E+00 -0.30315318242E+03  0.30315318242E+03  0.00000000000E+00 0.  1.
          2    1    1    2  501    0 -0.33018088762E+02  0.54571124545E+00  0.54787435573E+01  0.33473999122E+02  0.00000000000E+00 0. -1.
         21    1    1    2  503  502  0.33018088762E+02 -0.54571124545E+00 -0.28821272994E+03  0.29009837933E+03  0.00000000000E+00 0.  1.
</event>
<event>
 4    1  0.2239940E+005  0.2200417E+02  0.7546771E-02  0.1505396E+00
          2   -1    0    0  502    0  0.00000000000E+00  0.00000000000E+00  0.11023561278E+04  0.11023561278E+04  0.00000000000E+00 0.  1.
         21   -1    0    0  503  502 -0.00000000000E+00 -0.00000000000E+00 -0.18599808658E+02  0.18599808658E+02  0.00000000000E+00 0.  1.
          2    1    1    2  501    0  0.12652060935E+02  0.18003018830E+02  0.10956988771E+04  0.10959198021E+04  0.00000000000E+00 0.  1.
         21    1    1    2  503  501 -0.12652060935E+02 -0.18003018830E+02 -0.11942557967E+02  0.25036134360E+02  0.00000000000E+00 0.  1.
</event>
<event>
 4    1  0.2239940E+005  0.2515763E+02  0.7546771E-02  0.1467048E+00
          2   -1    0    0  503    0  0.00000000000E+00  0.00000000000E+00  0.16120416049E+04  0.16120416049E+04  0.00000000000E+00 0. -1.
         21   -1    0    0  501  502 -0.00000000000E+00 -0.00000000000E+00 -0.13553997095E+01  0.13553997095E+01  0.00000000000E+00 0. -1.
          2    1    1    2  501    0 -0.10895655490E+02  0.22675783031E+02  0.14852397287E+04  0.14854527788E+04  0.00000000000E+00 0. -1.
         21    1    1    2  503  502  0.10895655490E+02 -0.22675783031E+02  0.12544647646E+03  0.12794422574E+03  0.00000000000E+00 0. -1.
</event>
<event>
 4    1  0.2239940E+005  0.2091740E+02  0.7546771E-02  0.1520447E+00
          2   -1    0    0  502    0  0.00000000000E+00  0.00000000000E+00  0.57777469632E+02  0.57777469632E+02  0.00000000000E+00 0.  1.
         21   -1    0    0  503  502 -0.00000000000E+00 -0.00000000000E+00 -0.48456830464E+03  0.48456830464E+03  0.00000000000E+00 0.  1.
          2    1    1    2  501    0 -0.19626694905E+02 -0.72339893870E+01  0.55650187480E+02  0.59451502268E+02  0.00000000000E+00 0.  1.
         21    1    1    2  503  501  0.19626694905E+02  0.72339893870E+01 -0.48244102248E+03  0.48289427200E+03  0.00000000000E+00 0.  1.
</event>
<event>
 4    1  0.2239940E+005  0.2175925E+02  0.7546771E-02  0.1508695E+00
          2   -1    0    0  503    0  0.00000000000E+00  0.00000000000E+00  0.14348810628E+03  0.14348810628E+03  0.00000000000E+00 0.  1.
         21   -1    0    0  501  502 -0.00000000000E+00 -0.00000000000E+00 -0.33068257807E+01  0.33068257807E+01  0.00000000000E+00 0.  1.
          2    1    1    2  501    0 -0.17775897560E+02 -0.12549193522E+02  0.73502641930E+02  0.76655744487E+02  0.00000000000E+00 0.  1.
         21    1    1    2  503  502  0.17775897560E+02  0.12549193522E+02  0.66678638570E+02  0.70139187575E+02  0.00000000000E+00 0.  1.
</event>
<event>
 4    1  0.2239940E+005  0.2448761E+02  0.7546771E-02  0.1474618E+00
          2   -1    0    0  503    0  0.00000000000E+00  0.00000000000E+00  0.15418934203E+04  0.15418934203E+04  0.00000000000E+00 0. -1.
         21   -1    0    0  501  502 -0.00000000000E+00 -0.00000000000E+00 -0.11765001638E+01  0.11765001638E+01  0.00000000000E+00 0.  1.
          2    1    1    2  501    0  0.12956358671E+02 -0.20779210217E+02  0.14016245071E+04  0.14018384007E+04  0.00000000000E+00 0. -1.
         21    1    1    2  503  502 -0.12956358671E+02  0.20779210217E+02  0.13909241305E+03  0.14123151977E+03  0.00000000000E+00 0.  1.
</event>
<event>
 4    1  0.2239940E+005  0.5845890E+02  0.7546771E-02  0.1265161E+00
          2   -1    0    0  502    0  0.00000000000E+00  0.00000000000E+00  0.37862791206E+03  0.37862791206E+03  0.00000000000E+00 0.  1.
         21   -1    0    0  503  502 -0.00000000000E+00 -0.00000000000E+00 -0.15422621821E+02  0.15422621821E+02  0.00000000000E+00 0.  1.
          2    1    1    2  501    0  0.55108170496E+02  0.19507238734E+02  0.30849132640E+03  0.31398143462E+03  0.00000000000E+00 0.  1.
         21    1    1    2  503  501 -0.55108170496E+02 -0.19507238734E+02  0.54713963840E+02  0.80069099268E+02  0.00000000000E+00 0.  1.
</event>
<event>
 4    1  0.2239940E+005  0.2294417E+02  0.7546771E-02  0.1493200E+00
          2   -1    0    0  502    0  0.00000000000E+00  0.00000000000E+00  0.34565645305E+03  0.34565645305E+03  0.00000000000E+00 0. -1.
         21   -1    0    0  503  502 -0.00000000000E+00 -0.00000000000E+00 -0.48878050662E+01  0.48878050662E+01  0.00000000000E+00 0. -1.
          2    1    1    2  501    0  0.22534387824E+02 -0.43169562125E+01  0.31580825640E+03  0.31664063156E+03  0.00000000000E+00 0. -1.
         21    1    1    2  503  501 -0.22534387824E+02  0.43169562125E+01  0.24960391584E+02  0.33903626555E+02  0.00000000000E+00 0. -1.
</event>
<event>
 4    1  0.2239940E+005  0.2286214E+02  0.7546771E-02  0.1494237E+00
          2   -1    0    0  503    0  0.00000000000E+00  0.00000000000E+00  0.85916348376E+03  0.85916348376E+03  0.00000000000E+00 0. -1.
         21   -1    0    0  501  502 -0.00000000000E+00 -0.00000000000E+00 -0.73176357970E+00  0.73176357970E+00  0.00000000000E+00 0. -1.
          2    1    1    2  501    0 -0.11078336761E+02  0.19998698174E+02  0.60577924147E+03  0.60621049716E+03  0.00000000000E+00 0. -1.
         21    1    1    2  503  502  0.11078336761E+02 -0.19998698174E+02  0.25265247871E+03  0.25368475018E+03  0.00000000000E+00 0. -1.
</event>
<event>
 4    1  0.2239940E+005  0.2089108E+02  0.7546771E-02  0.1520826E+00
          2   -1    0    0  502    0  0.00000000000E+00  0.00000000000E+00  0.10578588928E+04  0.10578588928E+04  0.00000000000E+00 0. -1.
         21   -1    0    0  503  502 -0.00000000000E+00 -0.00000000000E+00 -0.32933187716E+01  0.32933187716E+01  0.00000000000E+00 0. -1.
          2    1    1    2  501    0  0.33284807466E+01  0.20624222520E+02  0.10235136202E+04  0.10237268034E+04  0.00000000000E+00 0. -1.
         21    1    1    2  503  501 -0.33284807466E+01 -0.20624222520E+02  0.31051953915E+02  0.37425408222E+02  0.00000000000E+00 0. -1.
</event>
<event>
 4    1  0.2239940E+005  0.2060401E+02  0.7546771E-02  0.1524994E+00
          2   -1    0    0  503    0  0.00000000000E+00  0.00000000000E+00  0.21308015933E+03  0.21308015933E+03  0.00000000000E+00 0. -1.
         21   -1    0    0  501  502 -0.00000000000E+00 -0.00000000000E+00 -0.49694644391E+01  0.49694644391E+01  0.00000000000E+00 0. -1.
          2    1    1    2  501    0 -0.15135539552E+02  0.13980013250E+02  0.18844127018E+03  0.18956433640E+03  0.00000000000E+00 0. -1.
         21    1    1    2  503  502  0.15135539552E+02 -0.13980013250E+02  0.19669424710E+02  0.28485287367E+02  0.00000000000E+00 0. -1.
</event>
<event>
 4    1  0.2239940E+005  0.2946279E+02  0.7546771E-02  0.1424323E+00
          2   -1    0    0  503    0  0.00000000000E+00  0.00000000000E+00  0.18428300422E+02  0.18428300422E+02  0.00000000000E+00 0.  1.
         21   -1    0    0  501  502 -0.00000000000E+00 -0.00000000000E+00 -0.15598138400E+03  0.15598138400E+03  0.00000000000E+00 0. -1.
          2    1    1    2  501    0 -0.29355216111E+02  0.25154360123E+01  0.40805832621E+01  0.29744029502E+02  0.00000000000E+00 0.  1.
         21    1    1    2  503  502  0.29355216111E+02 -0.25154360123E+01 -0.14163366684E+03  0.14466565492E+03  0.00000000000E+00 0. -1.
</event>
<event>
 4    1  0.2239940E+005  0.2108685E+02  0.7546771E-02  0.1518028E+00
          2   -1    0    0  503    0  0.00000000000E+00  0.00000000000E+00  0.77958094168E+01  0.77958094168E+01  0.00000000000E+00 0.  1.
         21   -1    0    0  501  502 -0.00000000000E+00 -0.00000000000E+00 -0.92372236284E+02  0.92372236284E+02  0.00000000000E+00 0. -1.
          2    1    1    2  501    0 -0.19517685642E+02  0.79821718458E+01 -0.11312015549E+02  0.23929413198E+02  0.00000000000E+00 0.  1.
         21    1    1    2  503  502  0.19517685642E+02 -0.79821718458E+01 -0.73264411318E+02  0.76238632503E+02  0.00000000000E+00 0. -1.
</event>
<event>
 4    1  0.2239940E+005  0.2486052E+02  0.7546771E-02  0.1470370E+00
          2   -1    0    0  503    0  0.00000000000E+00  0.00000000000E+00  0.41682615846E+03  0.41682615846E+03  0.00000000000E+00 0.  1.
         21   -1    0    0  501  502 -0.00000000000E+00 -0.00000000000E+00 -0.50895407415E+01  0.50895407415E+01  0.00000000000E+00 0.  1.
          2    1    1    2  501    0  0.88103035150E+01  0.23247020707E+02  0.38345784811E+03  0.38426288749E+03  0.00000000000E+00 0.  1.
         21    1    1    2  503  502 -0.88103035150E+01 -0.23247020707E+02  0.28278769612E+02  0.37652811721E+02  0.00000000000E+00 0.  1.
</event>
<event>
 4    1  0.2239940E+005  0.2576088E+02  0.7546771E-02  0.1460469E+00
          2   -1    0    0  503    0  0.00000000000E+00  0.00000000000E+00  0.41866351724E+01  0.41866351724E+01  0.00000000000E+00 0.  1.
         21   -1    0    0  501  502 -0.00000000000E+00 -0.00000000000E+00 -0.18920696883E+03  0.18920696883E+03  0.00000000000E+00 0. -1.
          2    1    1    2  501    0 -0.24279112323E+02  0.86109112103E+01 -0.53561548058E+02  0.59434522943E+02  0.00000000000E+00 0.  1.
         21    1    1    2  503  502  0.24279112323E+02 -0.86109112103E+01 -0.13145878560E+03  0.13395908106E+03  0.00000000000E+00 0. -1.
</event>
<event>
 4    1  0.2239940E+005  0.2695896E+02  0.7546771E-02  0.1448021E+00
          2   -1    0    0  503    0  0.00000000000E+00  0.00000000000E+00  0.26156235291E+03  0.26156235291E+03  0.00000000000E+00 0. -1.
         21   -1    0    0  501  502 -0.00000000000E+00 -0.00000000000E+00 -0.44248339421E+01  0.44248339421E+01  0.00000000000E+00 0.  1.
          2    1    1    2  501    0 -0.26191940897E+02 -0.63849547238E+01  0.20968799367E+03  0.21141390707E+03  0.00000000000E+00 0. -1.
         21    1    1    2  503  502  0.26191940897E+02  0.63849547238E+01  0.47449525299E+02  0.54573279780E+02  0.00000000000E+00 0.  1.
</event>
<event>
 4    1  0.2239940E+005  0.2190648E+02  0.7546771E-02  0.1506706E+00
          2   -1    0    0  503    0  0.00000000000E+00  0.00000000000E+00  0.78529535780E+03  0.78529535780E+03  0.00000000000E+00 0. -1.
         21   -1    0    0  501  502 -0.00000000000E+00 -0.00000000000E+00 -0.26741082341E+01  0.26741082341E+01  0.00000000000E+00 0. -1.
          2    1    1    2  501    0 -0.18794145226E+02  0.11254950175E+02  0.73736186443E+03  0.73768720533E+03  0.00000000000E+00 0. -1.
         21    1    1    2  503  502  0.18794145226E+02 -0.11254950175E+02  0.45259385138E+02  0.50282260702E+02  0.00000000000E+00 0. -1.
</event>
<event>
 4    1  0.2239940E+005  0.2308639E+02  0.7546771E-02  0.1491416E+00
          2   -1    0    0  503    0  0.00000000000E+00  0.00000000000E+00  0.18605745522E+02  0.18605745522E+02  0.00000000000E+00 0. -1.
         21   -1    0    0  501  502 -0.00000000000E+00 -0.00000000000E+00 -0.11145495315E+03  0.11145495315E+03  0.00000000000E+00 0. -1.
          2    1    1    2  501    0  0.14539413808E+02 -0.17932843975E+02  0.96291716740E+01  0.25014043936E+02  0.00000000000E+00 0. -1.
         21    1    1    2  503  502 -0.14539413808E+02  0.17932843975E+02 -0.10247837930E+03  0.10504665474E+03  0.00000000000E+00 0. -1.
</event>
<event>
 4    1  0.2239940E+005  0.2145947E+02  0.7546771E-02  0.1512805E+00
          2   -1    0    0  502    0  0.00000000000E+00  0.00000000000E+00  0.29998519520E+03  0.29998519520E+03  0.00000000000E+00 0. -1.
         21   -1    0    0  503  502 -0.00000000000E+00 -0.00000000000E+00 -0.27191049552E+01  0.27191049552E+01  0.00000000000E+00 0.  1.
          2    1    1    2  501    0  0.14696320371E+01 -0.21409088257E+02  0.24850680225E+03  0.24943163320E+03  0.00000000000E+00 0. -1.
         21    1    1    2  503  501 -0.14696320371E+01  0.21409088257E+02  0.48759287997E+02  0.53272666954E+02  0.00000000000E+00 0.  1.
</event>
<event>
 4    1  0.2239940E+005  0.2071609E+02  0.7546771E-02  0.1523357E+00
          2   -1    0    0  502    0  0.00000000000E+00  0.00000000000E+00  0.48895088850E+03  0.48895088850E+03  0.00000000000E+00 0.  1.
         21   -1    0    0  503  502 -0.00000000000E+00 -0.00000000000E+00 -0.93362061470E+01  0.93362061470E+01  0.00000000000E+00 0.  1.
          2    1    1    2  501    0  0.20632615385E+02  0.18578043238E+01  0.47695074483E+03  0.47740042862E+03  0.00000000000E+00 0.  1.
         21    1    1    2  503  501 -0.20632615385E+02 -0.18578043238E+01  0.26639375233E+01  0.20886666025E+02  0.00000000000E+00 0.  1.
</event>
<event>
 4    1  0.2239940E+005  0.2452479E+02  0.7546771E-02  0.1474190E+00
          2   -1    0    0  503    0  0.00000000000E+00  0.00000000000E+00  0.25090680395E+03  0.25090680395E+03  0.00000000000E+00 0. -1.
         21   -1    0    0  501  502 -0.00000000000E+00 -0.00000000000E+00 -0.26734004858E+01  0.26734004858E+01  0.00000000000E+00 0. -1.
          2    1    1    2  501    0 -0.15813870539E+02 -0.18745315186E+02  0.83360657229E+02  0.86893408936E+02  0.00000000000E+00 0. -1.
         21    1    1    2  503  502  0.15813870539E+02  0.18745315186E+02  0.16487274623E+03  0.16668679550E+03  0.00000000000E+00 0. -1.
</event>
<event>
 4    1  0.2239940E+005  0.2033235E+02  0.7546771E-02  0.1529014E+00
          2   -1    0    0  503    0  0.00000000000E+00  0.00000000000E+00  0.70470865813E+03  0.70470865813E+03  0.00000000000E+00 0.  1.
         21   -1    0    0  501  502 -0.00000000000E+00 -0.00000000000E+00 -0.60935201225E+01  0.60935201225E+01  0.00000000000E+00 0. -1.
          2    1    1    2  501    0  0.20049008720E+02  0.33825804743E+01  0.68716833238E+03  0.68746906958E+03  0.00000000000E+00 0.  1.
         21    1    1    2  503  502 -0.20049008720E+02 -0.33825804743E+01  0.11446805627E+02  0.23333108673E+02  0.00000000000E+00 0. -1.
</event>
<event>
 4    1  0.2239940E+005  0.3078768E+02  0.7546771E-02  0.1412872E+00
          2   -1    0    0  503    0  0.00000000000E+00  0.00000000000E+00  0.10762594981E+04  0.10762594981E+04  0.00000000000E+00 0. -1.
         21   -1    0    0  501  502 -0.00000000000E+00 -0.00000000000E+00 -0.89372650904E+00  0.89372650904E+00  0.00000000000E+00 0. -1.
          2    1    1    2  501    0 -0.24712857610E+02  0.18361812132E+02  0.47270683734E+03  0.47370838661E+03  0.00000000000E+00 0. -1.
         21    1    1    2  503  502  0.24712857610E+02 -0.18361812132E+02  0.60265893428E+03  0.60344483803E+03  0.00000000000E+00 0. -1.
</event>
<event>
 4    1  0.2239940E+005  0.2449713E+02  0.7546771E-02  0.1474508E+00
          2   -1    0    0  502    0  0.00000000000E+00  0.00000000000E+00  0.12764789602E+02  0.12764789602E+02  0.00000000000E+00 0. -1.
         21   -1    0    0  503  502 -0.00000000000E+00 -0.00000000000E+00 -0.48282670775E+03  0.48282670775E+03  0.00000000000E+00 0.  1.
          2    1    1    2  501    0 -0.23378886483E+01 -0.24385315884E+02  0.39194781226E+00  0.24500264839E+02  0.00000000000E+00 0. -1.
         21    1    1    2  503  501  0.23378886483E+01  0.24385315884E+02 -0.47045386596E+03  0.47109123251E+03  0.00000000000E+00 0.  1.
</event>
<event>
 4    1  0.2239940E+005  0.2797997E+02  0.7546771E-02  0.1438005E+00
          2   -1    0    0  503    0  0.00000000000E+00  0.00000000000E+00  0.21771357051E+01  0.21771357051E+01  0.00000000000E+00 0.  1.
         21   -1    0    0  501  502 -0.00000000000E+00 -0.00000000000E+00 -0.99236011596E+03  0.99236011596E+03  0.00000000000E+00 0. -1.
          2    1    1    2  501    0 -0.24140742995E+02 -0.14145786861E+02 -0.98010597062E+02  0.10192622771E+03  0.00000000000E+00 0.  1.
         21    1    1    2  503  502  0.24140742995E+02  0.14145786861E+02 -0.89217238319E+03  0.89261102396E+03  0.00000000000E+00 0. -1.
</event>
<event>
 4    1  0.2239940E+005  0.2717651E+02  0.7546771E-02  0.1445843E+00
          2   -1    0    0  503    0  0.00000000000E+00  0.00000000000E+00  0.42668231333E+03  0.42668231333E+03  0.00000000000E+00 0. -1.
         21   -1    0    0  501  502 -0.00000000000E+00 -0.00000000000E+00 -0.77532281673E+01  0.77532281673E+01  0.00000000000E+00 0.  1.
          2    1    1    2  501    0  0.19244196521E+02  0.19189159435E+02  0.40090543636E+03  0.40182549924E+03  0.00000000000E+00 0. -1.
         21    1    1    2  503  502 -0.19244196521E+02 -0.19189159435E+02  0.18023648801E+02  0.32610042252E+02  0.00000000000E+00 0.  1.
</event>
<event>
 4    1  0.2239940E+005  0.2596811E+02  0.7546771E-02  0.1458258E+00
          2   -1    0    0  502    0  0.00000000000E+00  0.00000000000E+00  0.37636173962E+03  0.37636173962E+03  0.00000000000E+00 0.  1.
         21   -1    0    0  503  502 -0.00000000000E+00 -0.00000000000E+00 -0.17385178970E+02  0.17385178970E+02  0.00000000000E+00 0. -1.
          2    1    1    2  501    0 -0.30395592711E+01 -0.25789608944E+02  0.36594091505E+03  0.36686114015E+03  0.00000000000E+00 0.  1.
         21    1    1    2  503  501  0.30395592711E+01  0.25789608944E+02 -0.69643543947E+01  0.26885778438E+02  0.00000000000E+00 0. -1.
</event>
<event>
 4    1  0.2239940E+005  0.3377712E+02  0.7546771E-02  0.1389370E+00
          2   -1    0    0  502    0  0.00000000000E+00  0.00000000000E+00  0.14150316860E+03  0.14150316860E+03  0.00000000000E+00 0.  1.
         21   -1    0    0  503  502 -0.00000000000E+00 -0.00000000000E+00 -0.70460795990E+03  0.70460795990E+03  0.00000000000E+00 0.  1.
          2    1    1    2  501    0 -0.19310367067E+02 -0.27712880667E+02  0.13907573833E+03  0.14311867462E+03  0.00000000000E+00 0.  1.
         21    1    1    2  503  501  0.19310367067E+02  0.27712880667E+02 -0.70218052963E+03  0.70299245389E+03  0.00000000000E+00 0.  1.
</event>
<event>
 4    1  0.2239940E+005  0.3570788E+02  0.7546771E-02  0.1375654E+00
          2   -1    0    0  502    0  0.00000000000E+00  0.00000000000E+00  0.20619498325E+04  0.20619498325E+04  0.00000000000E+00 0.  1.
         21   -1    0    0  503  502 -0.00000000000E+00 -0.00000000000E+00 -0.86267178705E+01  0.86267178705E+01  0.00000000000E+00 0. -1.
          2    1    1    2  501    0  0.84501013148E+00  0.35697881666E+02  0.20241546543E+04  0.20244695891E+04  0.00000000000E+00 0.  1.
         21    1    1    2  503  501 -0.84501013148E+00 -0.35697881666E+02  0.29168460358E+02  0.46106961266E+02  0.00000000000E+00 0. -1.
</event>
<event>
 4    1  0.2239940E+005  0.3535838E+02  0.7546771E-02  0.1378061E+00
          2   -1    0    0  503    0  0.00000000000E+00  0.00000000000E+00  0.27181216799E+02  0.27181216799E+02  0.00000000000E+00 0.  1.
         21   -1    0    0  501  502 -0.00000000000E+00 -0.00000000000E+00 -0.46674543370E+02  0.46674543370E+02  0.00000000000E+00 0. -1.
          2    1    1    2  501    0  0.35040091177E+02 -0.47335759208E+01 -0.14200665878E+02  0.38103459713E+02  0.00000000000E+00 0.  1.
         21    1    1    2  503  502 -0.35040091177E+02  0.47335759208E+01 -0.52926606935E+01  0.35752300456E+02  0.00000000000E+00 0. -1.
</event>
<event>
 4    1  0.2239940E+005  0.5862642E+02  0.7546771E-02  0.1264572E+00
          2   -1    0    0  502    0  0.00000000000E+00  0.00000000000E+00  0.73911968434E+02  0.73911968434E+02  0.00000000000E+00 0.  1.
         21   -1    0    0  503  502 -0.00000000000E+00 -0.00000000000E+00 -0.96470220423E+02  0.96470220423E+02  0.00000000000E+00 0.  1.
          2    1    1    2  501    0  0.56855183498E+02  0.14301931425E+02  0.50032712661E+02  0.77073532871E+02  0.00000000000E+00 0.  1.
         21    1    1    2  503  501 -0.56855183498E+02 -0.14301931425E+02 -0.72590964650E+02  0.93308655986E+02  0.00000000000E+00 0.  1.
</event>
<event>
 4    1  0.2239940E+005  0.2775542E+02  0.7546771E-02  0.1440164E+00
          2   -1    0    0  502    0  0.00000000000E+00  0.00000000000E+00  0.10776093030E+04  0.10776093030E+04  0.00000000000E+00 0. -1.
         21   -1    0    0  503  502 -0.00000000000E+00 -0.00000000000E+00 -0.67953819497E+01  0.67953819497E+01  0.00000000000E+00 0. -1.
          2    1    1    2  501    0  0.13778083756E+01 -0.27721200516E+02  0.10482968099E+04  0.10486641812E+04  0.00000000000E+00 0. -1.
         21    1    1    2  503  501 -0.13778083756E+01  0.27721200516E+02  0.22517111196E+02  0.35740503781E+02  0.00000000000E+00 0. -1.
</event>
<event>
 4    1  0.2239940E+005  0.2054819E+02  0.7546771E-02  0.1525814E+00
          2   -1    0    0  503    0  0.00000000000E+00  0.00000000000E+00  0.62862048911E+03  0.62862048911E+03  0.00000000000E+00 0. -1.
         21   -1    0    0  501  502 -0.00000000000E+00 -0.00000000000E+00 -0.68285298445E+01  0.68285298445E+01  0.00000000000E+00 0. -1.
          2    1    1    2  501    0 -0.56577080816E+01  0.19753944921E+02  0.61258993346E+03  0.61293446189E+03  0.00000000000E+00 0. -1.
         21    1    1    2  503  502  0.56577080816E+01 -0.19753944921E+02  0.92020258052E+01  0.22514557060E+02  0.00000000000E+00 0. -1.
</event>
<event>
 4    1  0.2239940E+005  0.2317660E+02  0.7546771E-02  0.1490292E+00
          2   -1    0    0  503    0  0.00000000000E+00  0.00000000000E+00  0.72814121976E+01  0.72814121976E+01  0.00000000000E+00 0.  1.
         21   -1    0    0  501  502 -0.00000000000E+00 -0.00000000000E+00 -0.38644562436E+03  0.38644562436E+03  0.00000000000E+00 0.  1.
          2    1    1    2  501    0  0.15729933249E+02 -0.17021273874E+02 -0.12502885551E+02  0.26333945990E+02  0.00000000000E+00 0.  1.
         21    1    1    2  503  502 -0.15729933249E+02  0.17021273874E+02 -0.36666132661E+03  0.36739309057E+03  0.00000000000E+00 0.  1.
</event>
<event>
 4    1  0.2239940E+005  0.3087410E+02  0.7546771E-02  0.1412149E+00
          2   -1    0    0  503    0  0.00000000000E+00  0.00000000000E+00  0.11174211887E+03  0.11174211887E+03  0.00000000000E+00 0.  1.
         21   -1    0    0  501  502 -0.00000000000E+00 -0.00000000000E+00 -0.91183215654E+01  0.91183215654E+01  0.00000000000E+00 0. -1.
          2    1    1    2  501    0  0.22217827897E+02  0.21437779702E+02  0.66655909170E+02  0.73458971557E+02  0.00000000000E+00 0.  1.
         21    1    1    2  503  502 -0.22217827897E+02 -0.21437779702E+02  0.35967888135E+02  0.47401468879E+02  0.00000000000E+00 0. -1.
</event>
<event>
 4    1  0.2239940E+005  0.2547628E+02  0.7546771E-02  0.1463545E+00
          2   -1    0    0  503    0  0.00000000000E+00  0.00000000000E+00  0.45583855656E+03  0.45583855656E+03  0.00000000000E+00 0.  1.
         21   -1    0    0  501  502 -0.00000000000E+00 -0.00000000000E+00 -0.14265083421E+01  0.14265083421E+01  0.00000000000E+00 0.  1.
          2    1    1    2  501    0  0.25405702442E+02 -0.18950820698E+01  0.21731724564E+03  0.21880545309E+03  0.00000000000E+00 0.  1.
         21    1    1    2  503  502 -0.25405702442E+02  0.18950820698E+01  0.23709480258E+03  0.23845961181E+03  0.00000000000E+00 0.  1.
</event>
<event>
 4    1  0.2239940E+005  0.2039641E+02  0.7546771E-02  0.1528060E+00
          2   -1    0    0  502    0  0.00000000000E+00  0.00000000000E+00  0.14054027840E+04  0.14054027840E+04  0.00000000000E+00 0. -1.
         21   -1    0    0  503  502 -0.00000000000E+00 -0.00000000000E+00 -0.29606076944E+00  0.29606076944E+00  0.00000000000E+00 0. -1.
          2    1    1    2  501    0  0.51464004772E+01  0.19736465594E+02  0.71174218717E+03  0.71203437734E+03  0.00000000000E+00 0. -1.
         21    1    1    2  503  501 -0.51464004772E+01 -0.19736465594E+02  0.69336453605E+03  0.69366446742E+03  0.00000000000E+00 0. -1.
</event>
<event>
 4    1  0.2239940E+005  0.2104683E+02  0.7546771E-02  0.1518597E+00
          2   -1    0    0  502    0  0.00000000000E+00  0.00000000000E+00  0.98302106421E+03  0.98302106421E+03  0.00000000000E+00 0. -1.
         21   -1    0    0  503  502 -0.00000000000E+00 -0.00000000000E+00 -0.62847503322E+00  0.62847503322E+00  0.00000000000E+00 0.  1.
          2    1    1    2  501    0  0.12230479526E+02  0.17128469537E+02  0.75283336696E+03  0.75312751079E+03  0.00000000000E+00 0. -1.
         21    1    1    2  503  501 -0.12230479526E+02 -0.17128469537E+02  0.22955922221E+03  0.23052202845E+03  0.00000000000E+00 0.  1.
</event>
<event>
 4    1  0.2239940E+005  0.3086992E+02  0.7546771E-02  0.1412184E+00
          2   -1    0    0  503    0  0.00000000000E+00  0.00000000000E+00  0.18755760836E+03  0.18755760836E+03  0.00000000000E+00 0.  1.
         21   -1    0    0  501  502 -0.00000000000E+00 -0.00000000000E+00 -0.15450495586E+02  0.15450495586E+02  0.00000000000E+00 0.  1.
          2    1    1    2  501    0 -0.26545054067E+02  0.15757913123E+02  0.16920966700E+03  0.17200250907E+03  0.00000000000E+00 0.  1.
         21    1    1    2  503  502  0.26545054067E+02 -0.15757913123E+02  0.28974457753E+01  0.31005594873E+02  0.00000000000E+00 0.  1.
</event>
<event>
 4    1  0.2239940E+005  0.2233780E+02  0.7546771E-02  0.1500985E+00
          2   -1    0    0  503    0  0.00000000000E+00  0.00000000000E+00  0.13376278057E+04  0.13376278057E+04  0.00000000000E+00 0. -1.
         21   -1    0    0  501  502 -0.00000000000E+00 -0.00000000000E+00 -0.43303729904E+00  0.43303729904E+00  0.00000000000E+00 0. -1.
          2    1    1    2  501    0  0.87930024449E+01 -0.20534374575E+02  0.41955143138E+03  0.42014566641E+03  0.00000000000E+00 0. -1.
         21    1    1    2  503  502 -0.87930024449E+01  0.20534374575E+02  0.91764333701E+03  0.91791517658E+03  0.00000000000E+00 0. -1.
</event>
<event>
 4    1  0.2239940E+005  0.2947798E+02  0.7546771E-02  0.1424188E+00
          2   -1    0    0  503    0  0.00000000000E+00  0.00000000000E+00  0.15629715783E+04  0.15629715783E+04  0.00000000000E+00 0.  1.
         21   -1    0    0  501  502 -0.00000000000E+00 -0.00000000000E+00 -0.61092706230E+00  0.61092706230E+00  0.00000000000E+00 0.  1.
          2    1    1    2  501    0  0.26078493317E+02  0.13742770151E+02  0.10156802305E+04  0.10161079088E+04  0.00000000000E+00 0.  1.
         21    1    1    2  503  502 -0.26078493317E+02 -0.13742770151E+02  0.54668042068E+03  0.54747459658E+03  0.00000000000E+00 0.  1.
</event>
<event>
 4    1  0.2239940E+005  0.3143790E+02  0.7546771E-02  0.1407499E+00
          2   -1    0    0  503    0  0.00000000000E+00  0.00000000000E+00  0.83845629976E+02  0.83845629976E+02  0.00000000000E+00 0. -1.
         21   -1    0    0  501  502 -0.00000000000E+00 -0.00000000000E+00 -0.19490377196E+02  0.19490377196E+02  0.00000000000E+00 0.  1.
          2    1    1    2  501    0 -0.23508867335E+02 -0.20872825856E+02  0.64658988531E+02  0.71896637616E+02  0.00000000000E+00 0. -1.
         21    1    1    2  503  502  0.23508867335E+02  0.20872825856E+02 -0.30373575109E+00  0.31439369555E+02  0.00000000000E+00 0.  1.
</event>
<event>
 4    1  0.2239940E+005  0.2147831E+02  0.7546771E-02  0.1512544E+00
          2   -1    0    0  502    0  0.00000000000E+00  0.00000000000E+00  0.57375724402E+03  0.57375724402E+03  0.00000000000E+00 0. -1.
         21   -1    0    0  503  502 -0.00000000000E+00 -0.00000000000E+00 -0.25811224156E+01  0.25811224156E+01  0.00000000000E+00 0.  1.
          2    1    1    2  501    0  0.13664714824E+02  0.16570857741E+02  0.52469836972E+03  0.52513778853E+03  0.00000000000E+00 0. -1.
         21    1    1    2  503  501 -0.13664714824E+02 -0.16570857741E+02  0.46477751894E+02  0.51200577913E+02  0.00000000000E+00 0.  1.
</event>
<event>
 4    1  0.2239940E+005  0.2423393E+02  0.7546771E-02  0.1477559E+00
          2   -1    0    0  502    0  0.00000000000E+00  0.00000000000E+00  0.93918609911E+03  0.93918609911E+03  0.00000000000E+00 0. -1.
         21   -1    0    0  503  502 -0.00000000000E+00 -0.00000000000E+00 -0.43201674576E+02  0.43201674576E+02  0.00000000000E+00 0.  1.
          2    1    1    2  501    0 -0.72407426585E+01 -0.23126934636E+02  0.93561831466E+03  0.93593210981E+03  0.00000000000E+00 0. -1.
         21    1    1    2  503  501  0.72407426585E+01  0.23126934636E+02 -0.39633890120E+02  0.46455663874E+02  0.00000000000E+00 0.  1.
</event>
<event>
 4    1  0.2239940E+005  0.4064275E+02  0.7546771E-02  0.1344760E+00
          2   -1    0    0  503    0  0.00000000000E+00  0.00000000000E+00  0.16931099246E+04  0.16931099246E+04  0.00000000000E+00 0. -1.
         21   -1    0    0  501  502 -0.00000000000E+00 -0.00000000000E+00 -0.22412322687E+01  0.22412322687E+01  0.00000000000E+00 0. -1.
          2    1    1    2  501    0 -0.31313496642E+02 -0.25909426860E+02  0.14824299237E+04  0.14829869562E+04  0.00000000000E+00 0. -1.
         21    1    1    2  503  502  0.31313496642E+02  0.25909426860E+02  0.20843876862E+03  0.21236420069E+03  0.00000000000E+00 0. -1.
</event>
<event>
 4    1  0.2239940E+005  0.2864530E+02  0.7546771E-02  0.1431746E+00
          2   -1    0    0  503    0  0.00000000000E+00  0.00000000000E+00  0.33909919251E+03  0.33909919251E+03  0.00000000000E+00 0.  1.
         21   -1    0    0  501  502 -0.00000000000E+00 -0.00000000000E+00 -0.25100498410E+01  0.25100498410E+01  0.00000000000E+00 0.  1.
          2    1    1    2  501    0 -0.27808918595E+02  0.68714645400E+01  0.20068198950E+03  0.20271609184E+03  0.00000000000E+00 0.  1.
         21    1    1    2  503  502  0.27808918595E+02 -0.68714645400E+01  0.13590715316E+03  0.13889315051E+03  0.00000000000E+00 0.  1.
</event>
<event>
 4    1  0.2239940E+005  0.3216592E+02  0.7546771E-02  0.1401663E+00
          2   -1    0    0  503    0  0.00000000000E+00  0.00000000000E+00  0.12940256693E+04  0.12940256693E+04  0.00000000000E+00 0.  1.
         21   -1    0    0  501  502 -0.00000000000E+00 -0.00000000000E+00 -0.26876945001E+01  0.26876945001E+01  0.00000000000E+00 0.  1.
          2    1    1    2  501    0  0.14987907844E+01 -0.32130981454E+02  0.11890956366E+04  0.11895306130E+04  0.00000000000E+00 0.  1.
         21    1    1    2  503  502 -0.14987907844E+01  0.32130981454E+02  0.10224233820E+03  0.10718275077E+03  0.00000000000E+00 0.  1.
</event>
<event>
 4    1  0.2239940E+005  0.3005269E+02  0.7546771E-02  0.1419139E+00
          2   -1    0    0  503    0  0.00000000000E+00  0.00000000000E+00  0.90386369331E+03  0.90386369331E+03  0.00000000000E+00 0. -1.
         21   -1    0    0  501  502 -0.00000000000E+00 -0.00000000000E+00 -0.12015914685E+01  0.12015914685E+01  0.00000000000E+00 0.  1.
          2    1    1    2  501    0 -0.31389601297E+00  0.30051050945E+02  0.63704288923E+03  0.63775136763E+03  0.00000000000E+00 0. -1.
         21    1    1    2  503  502  0.31389601297E+00 -0.30051050945E+02  0.26561921261E+03  0.26731391715E+03  0.00000000000E+00 0.  1.
</event>
<event>
 4    1  0.2239940E+005  0.2217803E+02  0.7546771E-02  0.1503086E+00
          2   -1    0    0  503    0  0.00000000000E+00  0.00000000000E+00  0.65694980855E+03  0.65694980855E+03  0.00000000000E+00 0.  1.
         21   -1    0    0  501  502 -0.00000000000E+00 -0.00000000000E+00 -0.18378730522E+02  0.18378730522E+02  0.00000000000E+00 0. -1.
          2    1    1    2  501    0  0.17730361661E+02 -0.13322882176E+02  0.65000043826E+03  0.65037868558E+03  0.00000000000E+00 0.  1.
         21    1    1    2  503  502 -0.17730361661E+02  0.13322882176E+02 -0.11429360232E+02  0.24949853495E+02  0.00000000000E+00 0. -1.
</event>
<event>
 4    1  0.2239940E+005  0.2591193E+02  0.7546771E-02  0.1458855E+00
          2   -1    0    0  502    0  0.00000000000E+00  0.00000000000E+00  0.46507860650E+03  0.46507860650E+03  0.00000000000E+00 0.  1.
         21   -1    0    0  503  502 -0.00000000000E+00 -0.00000000000E+00 -0.26623966126E+02  0.26623966126E+02  0.00000000000E+00 0. -1.
          2    1    1    2  501    0 -0.24013693842E+02  0.97350332546E+01  0.45832005023E+03  0.45905195436E+03  0.00000000000E+00 0.  1.
         21    1    1    2  503  501  0.24013693842E+02 -0.97350332546E+01 -0.19865409852E+02  0.32650618263E+02  0.00000000000E+00 0. -1.
</event>
<event>
 4    1  0.2239940E+005  0.3746123E+02  0.7546771E-02  0.1364041E+00
          2   -1    0    0  502    0  0.00000000000E+00  0.00000000000E+00  0.13921377588E+03  0.13921377588E+03  0.00000000000E+00 0.  1.
         21   -1    0    0  503  502 -0.00000000000E+00 -0.00000000000E+00 -0.97857306888E+02  0.97857306888E+02  0.00000000000E+00 0.  1.
          2    1    1    2  501    0  0.29362074304E+02  0.23263970432E+02  0.13294258293E+03  0.13811978165E+03  0.00000000000E+00 0.  1.
         21    1    1    2  503  501 -0.29362074304E+02 -0.23263970432E+02 -0.91586113934E+02  0.98951301119E+02  0.00000000000E+00 0.  1.
</event>
<event>
 4    1  0.2239940E+005  0.2868393E+02  0.7546771E-02  0.1431388E+00
          2   -1    0    0  503    0  0.00000000000E+00  0.00000000000E+00  0.21466009054E+02  0.21466009054E+02  0.00000000000E+00 0. -1.
         21   -1    0    0  501  502 -0.00000000000E+00 -0.00000000000E+00 -0.13336146538E+03  0.13336146538E+03  0.00000000000E+00 0. -1.
          2    1    1    2  501    0  0.25681835252E+02 -0.12775421572E+02  0.94012994295E+01  0.30185302537E+02  0.00000000000E+00 0. -1.
         21    1    1    2  503  502 -0.25681835252E+02  0.12775421572E+02 -0.12129675576E+03  0.12464217190E+03  0.00000000000E+00 0. -1.
</event>
<event>
 4    1  0.2239940E+005  0.2043834E+02  0.7546771E-02  0.1527437E+00
          2   -1    0    0  502    0  0.00000000000E+00  0.00000000000E+00  0.16872200953E+01  0.16872200953E+01  0.00000000000E+00 0.  1.
         21   -1    0    0  503  502 -0.00000000000E+00 -0.00000000000E+00 -0.25654180668E+03  0.25654180668E+03  0.00000000000E+00 0. -1.
          2    1    1    2  501    0 -0.19206448492E+02 -0.69884136876E+01 -0.10329817141E+03  0.10530070183E+03  0.00000000000E+00 0.  1.
         21    1    1    2  503  501  0.19206448492E+02  0.69884136876E+01 -0.15155641517E+03  0.15292832494E+03  0.00000000000E+00 0. -1.
</event>
<event>
 4    1  0.2239940E+005  0.2175032E+02  0.7546771E-02  0.1508816E+00
          2   -1    0    0  503    0  0.00000000000E+00  0.00000000000E+00  0.15364912023E+04  0.15364912023E+04  0.00000000000E+00 0. -1.
         21   -1    0    0  501  502 -0.00000000000E+00 -0.00000000000E+00 -0.31152403667E+00  0.31152403667E+00  0.00000000000E+00 0. -1.
          2    1    1    2  501    0 -0.97334922662E+01 -0.19450850981E+02  0.85103590161E+03  0.85131379779E+03  0.00000000000E+00 0. -1.
         21    1    1    2  503  502  0.97334922662E+01  0.19450850981E+02  0.68514377665E+03  0.68548892855E+03  0.00000000000E+00 0. -1.
</event>
<event>
 4    1  0.2239940E+005  0.2338029E+02  0.7546771E-02  0.1487777E+00
          2   -1    0    0  503    0  0.00000000000E+00  0.00000000000E+00  0.28959268755E+02  0.28959268755E+02  0.00000000000E+00 0. -1.
         21   -1    0    0  501  502 -0.00000000000E+00 -0.00000000000E+00 -0.19639422285E+02  0.19639422285E+02  0.00000000000E+00 0. -1.
          2    1    1    2  501    0  0.23354583925E+02  0.10961696201E+01  0.94504466024E+01  0.25218031627E+02  0.00000000000E+00 0. -1.
         21    1    1    2  503  502 -0.23354583925E+02 -0.10961696201E+01 -0.13060013191E+00  0.23380659412E+02  0.00000000000E+00 0. -1.
</event>
<event>
 4    1  0.2239940E+005  0.2208648E+02  0.7546771E-02  0.1504299E+00
          2   -1    0    0  502    0  0.00000000000E+00  0.00000000000E+00  0.27200767094E+03  0.27200767094E+03  0.00000000000E+00 0. -1.
         21   -1    0    0  503  502 -0.00000000000E+00 -0.00000000000E+00 -0.11232158386E+03  0.11232158386E+03  0.00000000000E+00 0. -1.
          2    1    1    2  501    0  0.21611644281E+02 -0.45551724060E+01  0.27046740308E+03  0.27136770054E+03  0.00000000000E+00 0. -1.
         21    1    1    2  503  501 -0.21611644281E+02  0.45551724060E+01 -0.11078131601E+03  0.11296155426E+03  0.00000000000E+00 0. -1.
</event>
<event>
 4    1  0.2239940E+005  0.3430945E+02  0.7546771E-02  0.1385484E+00
          2   -1    0    0  503    0  0.00000000000E+00  0.00000000000E+00  0.70327692791E+02  0.70327692791E+02  0.00000000000E+00 0. -1.
         21   -1    0    0  501  502 -0.00000000000E+00 -0.00000000000E+00 -0.66643793322E+02  0.66643793322E+02  0.00000000000E+00 0. -1.
          2    1    1    2  501    0 -0.21669835770E+02  0.26599940556E+02  0.61106663261E+02  0.70079689745E+02  0.00000000000E+00 0. -1.
         21    1    1    2  503  502  0.21669835770E+02 -0.26599940556E+02 -0.57422763792E+02  0.66891796368E+02  0.00000000000E+00 0. -1.
</event>
<event>
 4    1  0.2239940E+005  0.2230084E+02  0.7546771E-02  0.1501469E+00
          2   -1    0    0  503    0  0.00000000000E+00  0.00000000000E+00  0.29434957014E+02  0.29434957014E+02  0.00000000000E+00 0.  1.
         21   -1    0    0  501  502 -0.00000000000E+00 -0.00000000000E+00 -0.53603836181E+03  0.53603836181E+03  0.00000000000E+00 0.  1.
          2    1    1    2  501    0  0.48036897770E+01  0.21777326336E+02  0.24943382521E+02  0.33458925706E+02  0.00000000000E+00 0.  1.
         21    1    1    2  503  502 -0.48036897770E+01 -0.21777326336E+02 -0.53154678731E+03  0.53201439311E+03  0.00000000000E+00 0.  1.
</event>
<event>
 4    1  0.2239940E+005  0.2376211E+02  0.7546771E-02  0.1483144E+00
          2   -1    0    0  502    0  0.00000000000E+00  0.00000000000E+00  0.25303012394E+03  0.25303012394E+03  0.00000000000E+00 0.  1.
         21   -1    0    0  503  502 -0.00000000000E+00 -0.00000000000E+00 -0.55747168853E+02  0.55747168853E+02  0.00000000000E+00 0.  1.
          2    1    1    2  501    0 -0.16058431870E+02  0.17514698798E+02  0.24990855324E+03  0.25103570043E+03  0.00000000000E+00 0.  1.
         21    1    1    2  503  501  0.16058431870E+02 -0.17514698798E+02 -0.52625598151E+02  0.57741592365E+02  0.00000000000E+00 0.  1.
</event>
<event>
 4    1  0.2239940E+005  0.2064889E+02  0.7546771E-02  0.1524337E+00
          2   -1    0    0  503    0  0.00000000000E+00  0.00000000000E+00  0.44265390213E+03  0.44265390213E+03  0.00000000000E+00 0.  1.
         21   -1    0    0  501  502 -0.00000000000E+00 -0.00000000000E+00 -0.27193205649E+01  0.27193205649E+01  0.00000000000E+00 0. -1.
          2    1    1    2  501    0 -0.20567299389E+02 -0.18337657877E+01  0.39891973804E+03  0.39945379445E+03  0.00000000000E+00 0.  1.
         21    1    1    2  503  502  0.20567299389E+02  0.18337657877E+01  0.41014843525E+02  0.45919428246E+02  0.00000000000E+00 0. -1.
</event>
<event>
 4    1  0.2239940E+005  0.2488996E+02  0.7546771E-02  0.1470038E+00
          2   -1    0    0  502    0  0.00000000000E+00  0.00000000000E+00  0.17290195177E+04  0.17290195177E+04  0.00000000000E+00 0. -1.
         21   -1    0    0  503  502 -0.00000000000E+00 -0.00000000000E+00 -0.79833081000E+00  0.79833081000E+00  0.00000000000E+00 0. -1.
          2    1    1    2  501    0 -0.18466262437E+02  0.16688536828E+02  0.15062359003E+04  0.15064415347E+04  0.00000000000E+00 0. -1.
         21    1    1    2  503  501  0.18466262437E+02 -0.16688536828E+02  0.22198528657E+03  0.22337631379E+03  0.00000000000E+00 0. -1.
</event>
<event>
 4    1  0.2239940E+005  0.2065012E+02  0.7546771E-02  0.1524319E+00
          2   -1    0    0  502    0  0.00000000000E+00  0.00000000000E+00  0.25806079520E+02  0.25806079520E+02  0.00000000000E+00 0. -1.
         21   -1    0    0  503  502 -0.00000000000E+00 -0.00000000000E+00 -0.16718225285E+02  0.16718225285E+02  0.00000000000E+00 0.  1.
          2    1    1    2  501    0  0.11206492683E+02 -0.17344801784E+02  0.68338428143E+01  0.21751529481E+02  0.00000000000E+00 0. -1.
         21    1    1    2  503  501 -0.11206492683E+02  0.17344801784E+02  0.22540114211E+01  0.20772775324E+02  0.00000000000E+00 0.  1.
</event>
<event>
 4    1  0.2239940E+005  0.2369854E+02  0.7546771E-02  0.1483908E+00
          2   -1    0    0  502    0  0.00000000000E+00  0.00000000000E+00  0.70084084396E+03  0.70084084396E+03  0.00000000000E+00 0. -1.
         21   -1    0    0  503  502 -0.00000000000E+00 -0.00000000000E+00 -0.30282812702E+02  0.30282812702E+02  0.00000000000E+00 0. -1.
          2    1    1    2  501    0 -0.14892315013E+02  0.18434741380E+02  0.69597161261E+03  0.69637497535E+03  0.00000000000E+00 0. -1.
         21    1    1    2  503  501  0.14892315013E+02 -0.18434741380E+02 -0.25413581349E+02  0.34748681315E+02  0.00000000000E+00 0. -1.
</event>
<event>
 4    1  0.2239940E+005  0.2967656E+02  0.7546771E-02  0.1422428E+00
          2   -1    0    0  503    0  0.00000000000E+00  0.00000000000E+00  0.11484091705E+03  0.11484091705E+03  0.00000000000E+00 0. -1.
         21   -1    0    0  501  502 -0.00000000000E+00 -0.00000000000E+00 -0.11278827898E+02  0.11278827898E+02  0.00000000000E+00 0. -1.
          2    1    1    2  501    0 -0.28963153186E+02 -0.64679288498E+01  0.87456791230E+02  0.92354689531E+02  0.00000000000E+00 0. -1.
         21    1    1    2  503  502  0.28963153186E+02  0.64679288498E+01  0.16105297920E+02  0.33765055415E+02  0.00000000000E+00 0. -1.
</event>
<event>
 4    1  0.2239940E+005  0.2583809E+02  0.7546771E-02  0.1459642E+00
          2   -1    0    0  503    0  0.00000000000E+00  0.00000000000E+00  0.24092617225E+03  0.24092617225E+03  0.00000000000E+00 0.  1.
         21   -1    0    0  501  502 -0.00000000000E+00 -0.00000000000E+00 -0.28630558226E+01  0.28630558226E+01  0.00000000000E+00 0.  1.
          2    1    1    2  501    0 -0.23239468097E+02 -0.11293095676E+02  0.97174550938E+02  0.10055098327E+03  0.00000000000E+00 0.  1.
         21    1    1    2  503  502  0.23239468097E+02  0.11293095676E+02  0.14088856549E+03  0.14323824480E+03  0.00000000000E+00 0.  1.
</event>
<event>
 4    1  0.2239940E+005  0.2048809E+02  0.7546771E-02  0.1526701E+00
          2   -1    0    0  503    0  0.00000000000E+00  0.00000000000E+00  0.21711903592E+03  0.21711903592E+03  0.00000000000E+00 0.  1.
         21   -1    0    0  501  502 -0.00000000000E+00 -0.00000000000E+00 -0.63594233385E+01  0.63594233385E+01  0.00000000000E+00 0. -1.
          2    1    1    2  501    0 -0.13271860918E+02  0.15608314071E+02  0.19859942268E+03  0.19965343085E+03  0.00000000000E+00 0.  1.
         21    1    1    2  503  502  0.13271860918E+02 -0.15608314071E+02  0.12160189902E+02  0.23825028411E+02  0.00000000000E+00 0. -1.
</event>
<event>
 4    1  0.2239940E+005  0.2333801E+02  0.7546771E-02  0.1488297E+00
          2   -1    0    0  502    0  0.00000000000E+00  0.00000000000E+00  0.63790670389E+03  0.63790670389E+03  0.00000000000E+00 0. -1.
         21   -1    0    0  503  502 -0.00000000000E+00 -0.00000000000E+00 -0.89418719258E+01  0.89418719258E+01  0.00000000000E+00 0.  1.
          2    1    1    2  501    0  0.18236045555E+02 -0.14563977349E+02  0.62207803858E+03  0.62251566155E+03  0.00000000000E+00 0. -1.
         21    1    1    2  503  501 -0.18236045555E+02  0.14563977349E+02  0.68867933912E+01  0.24332914271E+02  0.00000000000E+00 0.  1.
</event>
<event>
 4    1  0.2239940E+005  0.5008409E+02  0.7546771E-02  0.1297808E+00
          2   -1    0    0  502    0  0.00000000000E+00  0.00000000000E+00  0.18541181029E+04  0.18541181029E+04  0.00000000000E+00 0.  1.
         21   -1    0    0  503  502 -0.00000000000E+00 -0.00000000000E+00 -0.74069480052E+01  0.74069480052E+01  0.00000000000E+00 0. -1.
          2    1    1    2  501    0 -0.21310429088E+02 -0.45324181870E+02  0.17648331950E+04  0.17655437185E+04  0.00000000000E+00 0.  1.
         21    1    1    2  503  501  0.21310429088E+02  0.45324181870E+02  0.81877959937E+02  0.95981332422E+02  0.00000000000E+00 0. -1.
</event>
<event>
 4    1  0.2239940E+005  0.2221882E+02  0.7546771E-02  0.1502547E+00
          2   -1    0    0  503    0  0.00000000000E+00  0.00000000000E+00  0.59161939331E+03  0.59161939331E+03  0.00000000000E+00 0. -1.
         21   -1    0    0  501  502 -0.00000000000E+00 -0.00000000000E+00 -0.91666104913E+00  0.91666104913E+00  0.00000000000E+00 0. -1.
          2    1    1    2  501    0 -0.21555667914E+02 -0.53878809631E+01  0.20662581279E+03  0.20781699303E+03  0.00000000000E+00 0. -1.
         21    1    1    2  503  502  0.21555667914E+02  0.53878809631E+01  0.38407691947E+03  0.38471906133E+03  0.00000000000E+00 0. -1.
</event>
<event>
 4    1  0.2239940E+005  0.2415722E+02  0.7546771E-02  0.1478457E+00
          2   -1    0    0  502    0  0.00000000000E+00  0.00000000000E+00  0.20436476554E+03  0.20436476554E+03  0.00000000000E+00 0.  1.
         21   -1    0    0  503  502 -0.00000000000E+00 -0.00000000000E+00 -0.25598249933E+02  0.25598249933E+02  0.00000000000E+00 0. -1.
          2    1    1    2  501    0 -0.82423368977E+01 -0.22707598016E+02  0.19776197283E+03  0.19923194779E+03  0.00000000000E+00 0.  1.
         21    1    1    2  503  501  0.82423368977E+01  0.22707598016E+02 -0.18995457225E+02  0.30731067674E+02  0.00000000000E+00 0. -1.
</event>
<event>
 4    1  0.2239940E+005  0.2399656E+02  0.7546771E-02  0.1480350E+00
          2   -1    0    0  502    0  0.00000000000E+00  0.00000000000E+00  0.16473471711E+02  0.16473471711E+02  0.00000000000E+00 0. -1.
         21   -1    0    0  503  502 -0.00000000000E+00 -0.00000000000E+00 -0.35910824152E+02  0.35910824152E+02  0.00000000000E+00 0. -1.
          2    1    1    2  501    0  0.18931146323E+02 -0.14746075619E+02 -0.54461904898E+01  0.24606829095E+02  0.00000000000E+00 0. -1.
         21    1    1    2  503  501 -0.18931146323E+02  0.14746075619E+02 -0.13991161951E+02  0.27777466767E+02  0.00000000000E+00 0. -1.
</event>
<event>
 4    1  0.2239940E+005  0.2076244E+02  0.7546771E-02  0.1522684E+00
          2   -1    0    0  502    0  0.00000000000E+00  0.00000000000E+00  0.38226176597E+03  0.38226176597E+03  0.00000000000E+00 0. -1.
         21   -1    0    0  503  502 -0.00000000000E+00 -0.00000000000E+00 -0.22686765723E+02  0.22686765723E+02  0.00000000000E+00 0. -1.
          2    1    1    2  501    0  0.19380457264E+02  0.74482807832E+01  0.37716536392E+03  0.37773640380E+03  0.00000000000E+00 0. -1.
         21    1    1    2  503  501 -0.19380457264E+02 -0.74482807832E+01 -0.17590363676E+02  0.27212127897E+02  0.00000000000E+00 0. -1.
</event>
<event>
 4    1  0.2239940E+005  0.4235658E+02  0.7546771E-02  0.1335203E+00
          2   -1    0    0  502    0  0.00000000000E+00  0.00000000000E+00  0.39254621202E+03  0.39254621202E+03  0.00000000000E+00 0. -1.
         21   -1    0    0  503  502 -0.00000000000E+00 -0.00000000000E+00 -0.57568945490E+02  0.57568945490E+02  0.00000000000E+00 0. -1.
          2    1    1    2  501    0  0.64197129395E+01 -0.41867259596E+02  0.38342789730E+03  0.38576033048E+03  0.00000000000E+00 0. -1.
         21    1    1    2  503  501 -0.64197129395E+01  0.41867259596E+02 -0.48450630772E+02  0.64354827033E+02  0.00000000000E+00 0. -1.
</event>
<event>
 4    1  0.2239940E+005  0.4338693E+02  0.7546771E-02  0.1329705E+00
          2   -1    0    0  502    0  0.00000000000E+00  0.00000000000E+00  0.14624354791E+04  0.14624354791E+04  0.00000000000E+00 0.  1.
         21   -1    0    0  503  502 -0.00000000000E+00 -0.00000000000E+00 -0.65504488312E+01  0.65504488312E+01  0.00000000000E+00 0. -1.
          2    1    1    2  501    0 -0.43147765238E+02 -0.45492704531E+01  0.13863271195E+04  0.13870058788E+04  0.00000000000E+00 0.  1.
         21    1    1    2  503  501  0.43147765238E+02  0.45492704531E+01  0.69557910697E+02  0.81980049081E+02  0.00000000000E+00 0. -1.
</event>
<event>
 4    1  0.2239940E+005  0.2818878E+02  0.7546771E-02  0.1436019E+00
          2   -1    0    0  503    0  0.00000000000E+00  0.00000000000E+00  0.50630907687E+03  0.50630907687E+03  0.00000000000E+00 0.  1.
         21   -1    0    0  501  502 -0.00000000000E+00 -0.00000000000E+00 -0.18097438213E+01  0.18097438213E+01  0.00000000000E+00 0.  1.
          2    1    1    2  501    0 -0.24343387922E+02 -0.14212902156E+02  0.15966626799E+03  0.16213551202E+03  0.00000000000E+00 0.  1.
         21    1    1    2  503  502  0.24343387922E+02  0.14212902156E+02  0.34483306506E+03  0.34598330867E+03  0.00000000000E+00 0.  1.
</event>
<event>
 4    1  0.2239940E+005  0.2940380E+02  0.7546771E-02  0.1424849E+00
          2   -1    0    0  503    0  0.00000000000E+00  0.00000000000E+00  0.88036785047E+03  0.88036785047E+03  0.00000000000E+00 0.  1.
         21   -1    0    0  501  502 -0.00000000000E+00 -0.00000000000E+00 -0.26844644255E+02  0.26844644255E+02  0.00000000000E+00 0.  1.
          2    1    1    2  501    0  0.22492239606E+02 -0.18938911546E+02  0.87199329759E+03  0.87248890781E+03  0.00000000000E+00 0.  1.
         21    1    1    2  503  502 -0.22492239606E+02  0.18938911546E+02 -0.18470091371E+02  0.34723586916E+02  0.00000000000E+00 0.  1.
</event>
<event>
 4    1  0.2239940E+005  0.6676084E+02  0.7546771E-02  0.1238444E+00
          2   -1    0    0  502    0  0.00000000000E+00  0.00000000000E+00  0.42654249588E+03  0.42654249588E+03  0.00000000000E+00 0. -1.
         21   -1    0    0  503  502 -0.00000000000E+00 -0.00000000000E+00 -0.24024887883E+02  0.24024887883E+02  0.00000000000E+00 0. -1.
          2    1    1    2  501    0  0.21524838306E+02 -0.63195655581E+02  0.37060704043E+03  0.37657215506E+03  0.00000000000E+00 0. -1.
         21    1    1    2  503  501 -0.21524838306E+02  0.63195655581E+02  0.31910567563E+02  0.73995228702E+02  0.00000000000E+00 0. -1.
</event>
<event>
 4    1  0.2239940E+005  0.2709680E+02  0.7546771E-02  0.1446638E+00
          2   -1    0    0  503    0  0.00000000000E+00  0.00000000000E+00  0.17290383273E+02  0.17290383273E+02  0.00000000000E+00 0.  1.
         21   -1    0    0  501  502 -0.00000000000E+00 -0.00000000000E+00 -0.47874880150E+02  0.47874880150E+02  0.00000000000E+00 0.  1.
          2    1    1    2  501    0 -0.16266048250E+01 -0.27047938694E+02 -0.43394651588E+01  0.27442080620E+02  0.00000000000E+00 0.  1.
         21    1    1    2  503  502  0.16266048250E+01  0.27047938694E+02 -0.26245031718E+02  0.37723182803E+02  0.00000000000E+00 0.  1.
</event>
<event>
 4    1  0.2239940E+005  0.2352129E+02  0.7546771E-02  0.1486054E+00
          2   -1    0    0  503    0  0.00000000000E+00  0.00000000000E+00  0.11289196929E+04  0.11289196929E+04  0.00000000000E+00 0. -1.
         21   -1    0    0  501  502 -0.00000000000E+00 -0.00000000000E+00 -0.52990306339E+01  0.52990306339E+01  0.00000000000E+00 0. -1.
          2    1    1    2  501    0 -0.21860688714E+02 -0.86810808818E+01  0.11020595709E+04  0.11023105500E+04  0.00000000000E+00 0. -1.
         21    1    1    2  503  502  0.21860688714E+02  0.86810808818E+01  0.21561091382E+02  0.31908173529E+02  0.00000000000E+00 0. -1.
</event>
<event>
 4    1  0.2239940E+005  0.2072126E+02  0.7546771E-02  0.1523282E+00
          2   -1    0    0  503    0  0.00000000000E+00  0.00000000000E+00  0.21345342932E+03  0.21345342932E+03  0.00000000000E+00 0.  1.
         21   -1    0    0  501  502 -0.00000000000E+00 -0.00000000000E+00 -0.10991523254E+02  0.10991523254E+02  0.00000000000E+00 0.  1.
          2    1    1    2  501    0 -0.20717065235E+02  0.41672128187E+00  0.20266613934E+03  0.20372269016E+03  0.00000000000E+00 0.  1.
         21    1    1    2  503  502  0.20717065235E+02 -0.41672128187E+00 -0.20423327358E+00  0.20722262420E+02  0.00000000000E+00 0.  1.
</event>
<event>
 4    1  0.2239940E+005  0.2089471E+02  0.7546771E-02  0.1520773E+00
          2   -1    0    0  503    0  0.00000000000E+00  0.00000000000E+00  0.15002890475E+03  0.15002890475E+03  0.00000000000E+00 0.  1.
         21   -1    0    0  501  502 -0.00000000000E+00 -0.00000000000E+00 -0.30498908768E+02  0.30498908768E+02  0.00000000000E+00 0. -1.
          2    1    1    2  501    0 -0.19845393423E+02  0.65382941564E+01  0.14561473812E+03  0.14710622315E+03  0.00000000000E+00 0.  1.
         21    1    1    2  503  502  0.19845393423E+02 -0.65382941564E+01 -0.26084742138E+02  0.33421590372E+02  0.00000000000E+00 0. -1.
</event>
<event>
 4    1  0.2239940E+005  0.2021039E+02  0.7546771E-02  0.1530844E+00
          2   -1    0    0  503    0  0.00000000000E+00  0.00000000000E+00  0.22271034896E+02  0.22271034896E+02  0.00000000000E+00 0.  1.
         21   -1    0    0  501  502 -0.00000000000E+00 -0.00000000000E+00 -0.27585398250E+02  0.27585398250E+02  0.00000000000E+00 0.  1.
          2    1    1    2  501    0  0.17618568252E+02 -0.99018075411E+01 -0.17088464645E+02  0.26466495116E+02  0.00000000000E+00 0.  1.
         21    1    1    2  503  502 -0.17618568252E+02  0.99018075411E+01  0.11774101291E+02  0.23389938030E+02  0.00000000000E+00 0.  1.
</event>
<event>
 4    1  0.2239940E+005  0.2265903E+02  0.7546771E-02  0.1496825E+00
          2   -1    0    0  503    0  0.00000000000E+00  0.00000000000E+00  0.93541401694E+03  0.93541401694E+03  0.00000000000E+00 0. -1.
         21   -1    0    0  501  502 -0.00000000000E+00 -0.00000000000E+00 -0.71450746313E+01  0.71450746313E+01  0.00000000000E+00 0.  1.
          2    1    1    2  501    0 -0.22164753212E+02 -0.47069390178E+01  0.91695059628E+03  0.91723052042E+03  0.00000000000E+00 0. -1.
         21    1    1    2  503  502  0.22164753212E+02  0.47069390178E+01  0.11318346022E+02  0.25328571151E+02  0.00000000000E+00 0.  1.
</event>
<event>
 4    1  0.2239940E+005  0.2051333E+02  0.7546771E-02  0.1526328E+00
          2   -1    0    0  503    0  0.00000000000E+00  0.00000000000E+00  0.12195184567E+02  0.12195184567E+02  0.00000000000E+00 0. -1.
         21   -1    0    0  501  502 -0.00000000000E+00 -0.00000000000E+00 -0.58272953524E+03  0.58272953524E+03  0.00000000000E+00 0. -1.
          2    1    1    2  501    0 -0.20410186431E+02  0.20544974714E+01  0.32539905684E+01  0.20769812821E+02  0.00000000000E+00 0. -1.
         21    1    1    2  503  502  0.20410186431E+02 -0.20544974714E+01 -0.57378834124E+03  0.57415490698E+03  0.00000000000E+00 0. -1.
</event>
<event>
 4    1  0.2239940E+005  0.2509922E+02  0.7546771E-02  0.1467696E+00
          2   -1    0    0  503    0  0.00000000000E+00  0.00000000000E+00  0.55325114102E+03  0.55325114102E+03  0.00000000000E+00 0.  1.
         21   -1    0    0  501  502 -0.00000000000E+00 -0.00000000000E+00 -0.24074121030E+01  0.24074121030E+01  0.00000000000E+00 0.  1.
          2    1    1    2  501    0 -0.23015798639E+02 -0.10012183026E+02  0.47711418633E+03  0.47777391891E+03  0.00000000000E+00 0.  1.
         21    1    1    2  503  502  0.23015798639E+02  0.10012183026E+02  0.73729542584E+02  0.77884634207E+02  0.00000000000E+00 0.  1.
</event>
<event>
 4    1  0.2239940E+005  0.2185350E+02  0.7546771E-02  0.1507419E+00
          2   -1    0    0  503    0  0.00000000000E+00  0.00000000000E+00  0.24432851967E+01  0.24432851967E+01  0.00000000000E+00 0. -1.
         21   -1    0    0  501  502 -0.00000000000E+00 -0.00000000000E+00 -0.22158678969E+03  0.22158678969E+03  0.00000000000E+00 0. -1.
          2    1    1    2  501    0 -0.21456279797E+02 -0.41477158117E+01 -0.71111677950E+02  0.74393858819E+02  0.00000000000E+00 0. -1.
         21    1    1    2  503  502  0.21456279797E+02  0.41477158117E+01 -0.14803182654E+03  0.14963621606E+03  0.00000000000E+00 0. -1.
</event>
<event>
 4    1  0.2239940E+005  0.2955579E+02  0.7546771E-02  0.1423496E+00
          2   -1    0    0  503    0  0.00000000000E+00  0.00000000000E+00  0.35245587742E+03  0.35245587742E+03  0.00000000000E+00 0. -1.
         21   -1    0    0  501  502 -0.00000000000E+00 -0.00000000000E+00 -0.24825022627E+01  0.24825022627E+01  0.00000000000E+00 0. -1.
          2    1    1    2  501    0  0.22617491284E+02  0.19026140321E+02  0.16781821115E+03  0.17040098861E+03  0.00000000000E+00 0. -1.
         21    1    1    2  503  502 -0.22617491284E+02 -0.19026140321E+02  0.18215516401E+03  0.18453739107E+03  0.00000000000E+00 0. -1.
</event>
<event>
 4    1  0.2239940E+005  0.3439200E+02  0.7546771E-02  0.1384889E+00
          2   -1    0    0  503    0  0.00000000000E+00  0.00000000000E+00  0.12895473507E+03  0.12895473507E+03  0.00000000000E+00 0.  1.
         21   -1    0    0  501  502 -0.00000000000E+00 -0.00000000000E+00 -0.28358334989E+02  0.28358334989E+02  0.00000000000E+00 0. -1.
          2    1    1    2  501    0 -0.16433587948E+02  0.30211697647E+02  0.11499566156E+03  0.12002837858E+03  0.00000000000E+00 0.  1.
         21    1    1    2  503  502  0.16433587948E+02 -0.30211697647E+02 -0.14399261477E+02  0.37284691479E+02  0.00000000000E+00 0. -1.
</event>
<event>
 4    1  0.2239940E+005  0.9131741E+02  0.7546771E-02  0.1179768E+00
          2   -1    0    0  502    0  0.00000000000E+00  0.00000000000E+00  0.31463240836E+04  0.31463240836E+04  0.00000000000E+00 0. -1.
         21   -1    0    0  503  502 -0.00000000000E+00 -0.00000000000E+00 -0.64182684442E+01  0.64182684442E+01  0.00000000000E+00 0. -1.
          2    1    1    2  501    0  0.91290167371E+02  0.22304793729E+01  0.27777670665E+04  0.27792676635E+04  0.00000000000E+00 0. -1.
         21    1    1    2  503  501 -0.91290167371E+02 -0.22304793729E+01  0.36213874859E+03  0.37347468847E+03  0.00000000000E+00 0. -1.
</event>
<event>
 4    1  0.2239940E+005  0.2046429E+02  0.7546771E-02  0.1527053E+00
          2   -1    0    0  503    0  0.00000000000E+00  0.00000000000E+00  0.42524354429E+02  0.42524354429E+02  0.00000000000E+00 0. -1.
         21   -1    0    0  501  502 -0.00000000000E+00 -0.00000000000E+00 -0.16702408733E+02  0.16702408733E+02  0.00000000000E+00 0. -1.
          2    1    1    2  501    0 -0.20336423243E+02  0.22841208946E+01  0.31881433572E+02  0.37884206804E+02  0.00000000000E+00 0. -1.
         21    1    1    2  503  502  0.20336423243E+02 -0.22841208946E+01 -0.60594878769E+01  0.21342556358E+02  0.00000000000E+00 0. -1.
</event>
<event>
 4    1  0.2239940E+005  0.2243926E+02  0.7546771E-02  0.1499662E+00
          2   -1    0    0  503    0  0.00000000000E+00  0.00000000000E+00  0.12085681192E+02  0.12085681192E+02  0.00000000000E+00 0.  1.
         21   -1    0    0  501  502 -0.00000000000E+00 -0.00000000000E+00 -0.49139542471E+02  0.49139542471E+02  0.00000000000E+00 0.  1.
          2    1    1    2  501    0  0.22406164838E+02  0.12181726122E+01 -0.65857130038E+01  0.23385717501E+02  0.00000000000E+00 0.  1.
         21    1    1    2  503  502 -0.22406164838E+02 -0.12181726122E+01 -0.30468148275E+02  0.37839506162E+02  0.00000000000E+00 0.  1.
</event>
<event>
 4    1  0.2239940E+005  0.2499461E+02  0.7546771E-02  0.1468864E+00
          2   -1    0    0  503    0  0.00000000000E+00  0.00000000000E+00  0.23560376748E+01  0.23560376748E+01  0.00000000000E+00 0.  1.
         21   -1    0    0  501  502 -0.00000000000E+00 -0.00000000000E+00 -0.11723903123E+04  0.11723903123E+04  0.00000000000E+00 0.  1.
          2    1    1    2  501    0 -0.24975658320E+02  0.97321616366E+00 -0.68319592937E+02  0.72748178241E+02  0.00000000000E+00 0.  1.
         21    1    1    2  503  502  0.24975658320E+02 -0.97321616366E+00 -0.11017146817E+04  0.11019981718E+04  0.00000000000E+00 0.  1.
</event>
<event>
 4    1  0.2239940E+005  0.2541653E+02  0.7546771E-02  0.1464197E+00
          2   -1    0    0  502    0  0.00000000000E+00  0.00000000000E+00  0.12292317113E+04  0.12292317113E+04  0.00000000000E+00 0. -1.
         21   -1    0    0  503  502 -0.00000000000E+00 -0.00000000000E+00 -0.12783064684E+02  0.12783064684E+02  0.00000000000E+00 0.  1.
          2    1    1    2  501    0 -0.47647267053E+01 -0.24965924875E+02  0.12163324564E+04  0.12165979798E+04  0.00000000000E+00 0. -1.
         21    1    1    2  503  501  0.47647267053E+01  0.24965924875E+02  0.11619019140E+00  0.25416796132E+02  0.00000000000E+00 0.  1.
</event>
<event>
 4    1  0.2239940E+005  0.2689293E+02  0.7546771E-02  0.1448687E+00
          2   -1    0    0  502    0  0.00000000000E+00  0.00000000000E+00  0.20008574237E+01  0.20008574237E+01  0.00000000000E+00 0.  1.
         21   -1    0    0  503  502 -0.00000000000E+00 -0.00000000000E+00 -0.10322945303E+04  0.10322945303E+04  0.00000000000E+00 0. -1.
          2    1    1    2  501    0 -0.82469951075E+01  0.25597198301E+02 -0.98257722917E+02  0.10187153480E+03  0.00000000000E+00 0.  1.
         21    1    1    2  503  501  0.82469951075E+01 -0.25597198301E+02 -0.93203594992E+03  0.93242385289E+03  0.00000000000E+00 0. -1.
</event>
<event>
 4    1  0.2239940E+005  0.2164246E+02  0.7546771E-02  0.1510287E+00
          2   -1    0    0  503    0  0.00000000000E+00  0.00000000000E+00  0.24144528433E+02  0.24144528433E+02  0.00000000000E+00 0.  1.
         21   -1    0    0  501  502 -0.00000000000E+00 -0.00000000000E+00 -0.10802433248E+03  0.10802433248E+03  0.00000000000E+00 0. -1.
          2    1    1    2  501    0  0.92759258108E+01  0.19553859646E+02  0.17917190545E+02  0.28096653603E+02  0.00000000000E+00 0.  1.
         21    1    1    2  503  502 -0.92759258108E+01 -0.19553859646E+02 -0.10179699460E+03  0.10407220731E+03  0.00000000000E+00 0. -1.
</event>
<event>
 4    1  0.2239940E+005  0.3468139E+02  0.7546771E-02  0.1382817E+00
          2   -1    0    0  503    0  0.00000000000E+00  0.00000000000E+00  0.63723942607E+02  0.63723942607E+02  0.00000000000E+00 0. -1.
         21   -1    0    0  501  502 -0.00000000000E+00 -0.00000000000E+00 -0.67501455614E+02  0.67501455614E+02  0.00000000000E+00 0. -1.
          2    1    1    2  501    0 -0.33575359165E+02 -0.86887255652E+01  0.53799932225E+02  0.64009619609E+02  0.00000000000E+00 0. -1.
         21    1    1    2  503  502  0.33575359165E+02  0.86887255652E+01 -0.57577445232E+02  0.67215778613E+02  0.00000000000E+00 0. -1.
</event>
<event>
 4    1  0.2239940E+005  0.3683562E+02  0.7546771E-02  0.1368098E+00
          2   -1    0    0  502    0  0.00000000000E+00  0.00000000000E+00  0.50123950663E+02  0.50123950663E+02  0.00000000000E+00 0.  1.
         21   -1    0    0  503  502 -0.00000000000E+00 -0.00000000000E+00 -0.12404513904E+03  0.12404513904E+03  0.00000000000E+00 0. -1.
          2    1    1    2  501    0  0.36231257596E+02 -0.66452383654E+01  0.40037693068E+02  0.54404779993E+02  0.00000000000E+00 0.  1.
         21    1    1    2  503  501 -0.36231257596E+02  0.66452383654E+01 -0.11395888145E+03  0.11976430971E+03  0.00000000000E+00 0. -1.
</event>
<event>
 4    1  0.2239940E+005  0.3155832E+02  0.7546771E-02  0.1406521E+00
          2   -1    0    0  502    0  0.00000000000E+00  0.00000000000E+00  0.21791714861E+04  0.21791714861E+04  0.00000000000E+00 0.  1.
         21   -1    0    0  503  502 -0.00000000000E+00 -0.00000000000E+00 -0.18741507603E+01  0.18741507603E+01  0.00000000000E+00 0.  1.
          2    1    1    2  501    0  0.31658840570E+01  0.31399118493E+02  0.20369301753E+04  0.20371746284E+04  0.00000000000E+00 0.  1.
         21    1    1    2  503  501 -0.31658840570E+01 -0.31399118493E+02  0.14036716007E+03  0.14387100851E+03  0.00000000000E+00 0.  1.
</event>
<event>
 4    1  0.2239940E+005  0.2198649E+02  0.7546771E-02  0.1505633E+00
          2   -1    0    0  503    0  0.00000000000E+00  0.00000000000E+00  0.15979143945E+03  0.15979143945E+03  0.00000000000E+00 0.  1.
         21   -1    0    0  501  502 -0.00000000000E+00 -0.00000000000E+00 -0.22502057689E+02  0.22502057689E+02  0.00000000000E+00 0.  1.
          2    1    1    2  501    0 -0.20830580533E+02 -0.70350947657E+01  0.15344339001E+03  0.15501057893E+03  0.00000000000E+00 0.  1.
         21    1    1    2  503  502  0.20830580533E+02  0.70350947657E+01 -0.16154008244E+02  0.27282918210E+02  0.00000000000E+00 0.  1.
</event>
<event>
 4    1  0.2239940E+005  0.2610664E+02  0.7546771E-02  0.1456794E+00
          2   -1    0    0  503    0  0.00000000000E+00  0.00000000000E+00  0.54194524687E+03  0.54194524687E+03  0.00000000000E+00 0.  1.
         21   -1    0    0  501  502 -0.00000000000E+00 -0.00000000000E+00 -0.12598892571E+01  0.12598892571E+01  0.00000000000E+00 0. -1.
          2    1    1    2  501    0  0.26074079857E+02 -0.13035339478E+01  0.28188982175E+03  0.28309614700E+03  0.00000000000E+00 0.  1.
         21    1    1    2  503  502 -0.26074079857E+02  0.13035339478E+01  0.25879553586E+03  0.26010898912E+03  0.00000000000E+00 0. -1.
</event>
<event>
 4    1  0.2239940E+005  0.2724951E+02  0.7546771E-02  0.1445118E+00
          2   -1    0    0  503    0  0.00000000000E+00  0.00000000000E+00  0.91201875455E+02  0.91201875455E+02  0.00000000000E+00 0.  1.
         21   -1    0    0  501  502 -0.00000000000E+00 -0.00000000000E+00 -0.10336627938E+02  0.10336627938E+02  0.00000000000E+00 0.  1.
          2    1    1    2  501    0  0.26717757670E+02 -0.53569634665E+01  0.63827694192E+02  0.69401081969E+02  0.00000000000E+00 0.  1.
         21    1    1    2  503  502 -0.26717757670E+02  0.53569634665E+01  0.17037553325E+02  0.32137421424E+02  0.00000000000E+00 0.  1.
</event>
<event>
 4    1  0.2239940E+005  0.3396683E+02  0.7546771E-02  0.1387976E+00
          2   -1    0    0  503    0  0.00000000000E+00  0.00000000000E+00  0.18839197503E+03  0.18839197503E+03  0.00000000000E+00 0. -1.
         21   -1    0    0  501  502 -0.00000000000E+00 -0.00000000000E+00 -0.97099620181E+01  0.97099620181E+01  0.00000000000E+00 0. -1.
          2    1    1    2  501    0 -0.21693081235E+02  0.26137250834E+02  0.14953347193E+03  0.15334276925E+03  0.00000000000E+00 0. -1.
         21    1    1    2  503  502  0.21693081235E+02 -0.26137250834E+02  0.29148541084E+02  0.44759167798E+02  0.00000000000E+00 0. -1.
</event>
<event>
 4    1  0.2239940E+005  0.3308197E+02  0.7546771E-02  0.1394573E+00
          2   -1    0    0  503    0  0.00000000000E+00  0.00000000000E+00  0.21071696791E+03  0.21071696791E+03  0.00000000000E+00 0. -1.
         21   -1    0    0  501  502 -0.00000000000E+00 -0.00000000000E+00 -0.99076317733E+01  0.99076317733E+01  0.00000000000E+00 0. -1.
          2    1    1    2  501    0  0.31702050377E+02  0.94549679678E+01  0.17649460501E+03  0.17956826562E+03  0.00000000000E+00 0. -1.
         21    1    1    2  503  502 -0.31702050377E+02 -0.94549679678E+01  0.24314731120E+02  0.41056334064E+02  0.00000000000E+00 0. -1.
</event>
<event>
 4    1  0.2239940E+005  0.2308822E+02  0.7546771E-02  0.1491393E+00
          2   -1    0    0  503    0  0.00000000000E+00  0.00000000000E+00  0.22582266406E+03  0.22582266406E+03  0.00000000000E+00 0.  1.
         21   -1    0    0  501  502 -0.00000000000E+00 -0.00000000000E+00 -0.28085521802E+01  0.28085521802E+01  0.00000000000E+00 0.  1.
          2    1    1    2  501    0 -0.63859858493E+01  0.22187495938E+02  0.65850396943E+02  0.69780660421E+02  0.00000000000E+00 0.  1.
         21    1    1    2  503  502  0.63859858493E+01 -0.22187495938E+02  0.15716371493E+03  0.15885055582E+03  0.00000000000E+00 0.  1.
</event>
<event>
 4    1  0.2239940E+005  0.2129832E+02  0.7546771E-02  0.1515048E+00
          2   -1    0    0  502    0  0.00000000000E+00  0.00000000000E+00  0.47856193238E+02  0.47856193238E+02  0.00000000000E+00 0. -1.
         21   -1    0    0  503  502 -0.00000000000E+00 -0.00000000000E+00 -0.53026970783E+02  0.53026970783E+02  0.00000000000E+00 0. -1.
          2    1    1    2  501    0 -0.59523363096E+01 -0.20449653627E+02  0.43126094692E+02  0.48098634953E+02  0.00000000000E+00 0. -1.
         21    1    1    2  503  501  0.59523363096E+01  0.20449653627E+02 -0.48296872237E+02  0.52784529068E+02  0.00000000000E+00 0. -1.
</event>
<event>
 4    1  0.2239940E+005  0.3685055E+02  0.7546771E-02  0.1368000E+00
          2   -1    0    0  502    0  0.00000000000E+00  0.00000000000E+00  0.54124749272E+03  0.54124749272E+03  0.00000000000E+00 0. -1.
         21   -1    0    0  503  502 -0.00000000000E+00 -0.00000000000E+00 -0.10984555724E+03  0.10984555724E+03  0.00000000000E+00 0. -1.
          2    1    1    2  501    0  0.37052659842E+01  0.36663796525E+02  0.53750816082E+03  0.53876988216E+03  0.00000000000E+00 0. -1.
         21    1    1    2  503  501 -0.37052659842E+01 -0.36663796525E+02 -0.10610622534E+03  0.11232316781E+03  0.00000000000E+00 0. -1.
</event>
<event>
 4    1  0.2239940E+005  0.3324450E+02  0.7546771E-02  0.1393343E+00
          2   -1    0    0  502    0  0.00000000000E+00  0.00000000000E+00  0.42737362271E+03  0.42737362271E+03  0.00000000000E+00 0.  1.
         21   -1    0    0  503  502 -0.00000000000E+00 -0.00000000000E+00 -0.85864103670E+02  0.85864103670E+02  0.00000000000E+00 0.  1.
          2    1    1    2  501    0  0.33030580142E+02 -0.37653328850E+01  0.42347970791E+03  0.42478260318E+03  0.00000000000E+00 0.  1.
         21    1    1    2  503  501 -0.33030580142E+02  0.37653328850E+01 -0.81970188870E+02  0.88455123196E+02  0.00000000000E+00 0.  1.
</event>
<event>
 4    1  0.2239940E+005  0.4409107E+02  0.7546771E-02  0.1326047E+00
          2   -1    0    0  503    0  0.00000000000E+00  0.00000000000E+00  0.96266111077E+02  0.96266111077E+02  0.00000000000E+00 0. -1.
         21   -1    0    0  501  502 -0.00000000000E+00 -0.00000000000E+00 -0.22051399321E+02  0.22051399321E+02  0.00000000000E+00 0. -1.
          2    1    1    2  501    0  0.16573158403E+02 -0.40857712034E+02  0.54275525667E+02  0.69927497442E+02  0.00000000000E+00 0. -1.
         21    1    1    2  503  502 -0.16573158403E+02  0.40857712034E+02  0.19939186089E+02  0.48390012957E+02  0.00000000000E+00 0. -1.
</event>
<event>
 4    1  0.2239940E+005  0.3619659E+02  0.7546771E-02  0.1372340E+00
          2   -1    0    0  503    0  0.00000000000E+00  0.00000000000E+00  0.16594590554E+03  0.16594590554E+03  0.00000000000E+00 0.  1.
         21   -1    0    0  501  502 -0.00000000000E+00 -0.00000000000E+00 -0.15696167010E+02  0.15696167010E+02  0.00000000000E+00 0.  1.
          2    1    1    2  501    0 -0.10700631965E+02 -0.34578744702E+02  0.13915155432E+03  0.14378229439E+03  0.00000000000E+00 0.  1.
         21    1    1    2  503  502  0.10700631965E+02  0.34578744702E+02  0.11098184207E+02  0.37859778160E+02  0.00000000000E+00 0.  1.
</event>
<event>
 4    1  0.2239940E+005  0.2487161E+02  0.7546771E-02  0.1470245E+00
          2   -1    0    0  503    0  0.00000000000E+00  0.00000000000E+00  0.11447080013E+02  0.11447080013E+02  0.00000000000E+00 0. -1.
         21   -1    0    0  501  502 -0.00000000000E+00 -0.00000000000E+00 -0.64546136968E+02  0.64546136968E+02  0.00000000000E+00 0. -1.
          2    1    1    2  501    0 -0.20742136007E+02 -0.13724461677E+02 -0.11219713188E+02  0.27285142816E+02  0.00000000000E+00 0. -1.
         21    1    1    2  503  502  0.20742136007E+02  0.13724461677E+02 -0.41879343767E+02  0.48708074165E+02  0.00000000000E+00 0. -1.
</event>
<event>
 4    1  0.2239940E+005  0.2617691E+02  0.7546771E-02  0.1456056E+00
          2   -1    0    0  503    0  0.00000000000E+00  0.00000000000E+00  0.89256766803E+03  0.89256766803E+03  0.00000000000E+00 0.  1.
         21   -1    0    0  501  502 -0.00000000000E+00 -0.00000000000E+00 -0.51912910904E+01  0.51912910904E+01  0.00000000000E+00 0. -1.
          2    1    1    2  501    0  0.35580587928E+01  0.25933966636E+02  0.85804950778E+03  0.85844871029E+03  0.00000000000E+00 0.  1.
         21    1    1    2  503  502 -0.35580587928E+01 -0.25933966636E+02  0.29326869158E+02  0.39310248822E+02  0.00000000000E+00 0. -1.
</event>
<event>
 4    1  0.2239940E+005  0.3185933E+02  0.7546771E-02  0.1404099E+00
          2   -1    0    0  502    0  0.00000000000E+00  0.00000000000E+00  0.82023986369E+03  0.82023986369E+03  0.00000000000E+00 0. -1.
         21   -1    0    0  503  502 -0.00000000000E+00 -0.00000000000E+00 -0.30665302939E+02  0.30665302939E+02  0.00000000000E+00 0. -1.
          2    1    1    2  501    0 -0.31624651231E+02  0.38598256502E+01  0.81156714079E+03  0.81219224376E+03  0.00000000000E+00 0. -1.
         21    1    1    2  503  501  0.31624651231E+02 -0.38598256502E+01 -0.21992580044E+02  0.38712922862E+02  0.00000000000E+00 0. -1.
</event>
<event>
 4    1  0.2239940E+005  0.4120114E+02  0.7546771E-02  0.1341587E+00
          2   -1    0    0  503    0  0.00000000000E+00  0.00000000000E+00  0.40357535805E+01  0.40357535805E+01  0.00000000000E+00 0.  1.
         21   -1    0    0  501  502 -0.00000000000E+00 -0.00000000000E+00 -0.49271248879E+03  0.49271248879E+03  0.00000000000E+00 0. -1.
          2    1    1    2  501    0  0.33356610934E+01  0.41065890236E+02 -0.14933409337E+03  0.15491354176E+03  0.00000000000E+00 0.  1.
         21    1    1    2  503  502 -0.33356610934E+01 -0.41065890236E+02 -0.33934264184E+03  0.34183470062E+03  0.00000000000E+00 0. -1.
</event>
<event>
 4    1  0.2239940E+005  0.2192612E+02  0.7546771E-02  0.1506442E+00
          2   -1    0    0  503    0  0.00000000000E+00  0.00000000000E+00  0.13067091385E+02  0.13067091385E+02  0.00000000000E+00 0.  1.
         21   -1    0    0  501  502 -0.00000000000E+00 -0.00000000000E+00 -0.21990523889E+03  0.21990523889E+03  0.00000000000E+00 0. -1.
          2    1    1    2  501    0 -0.14310279976E+02  0.16612360951E+02  0.28770235590E+01  0.22114065974E+02  0.00000000000E+00 0.  1.
         21    1    1    2  503  502  0.14310279976E+02 -0.16612360951E+02 -0.20971517106E+03  0.21085826430E+03  0.00000000000E+00 0. -1.
</event>
<event>
 4    1  0.2239940E+005  0.2536281E+02  0.7546771E-02  0.1464785E+00
          2   -1    0    0  502    0  0.00000000000E+00  0.00000000000E+00  0.20592169542E+04  0.20592169542E+04  0.00000000000E+00 0.  1.
         21   -1    0    0  503  502 -0.00000000000E+00 -0.00000000000E+00 -0.50739987255E+00  0.50739987255E+00  0.00000000000E+00 0.  1.
          2    1    1    2  501    0 -0.23936372383E+02 -0.83858409412E+01  0.16678178203E+04  0.16680106576E+04  0.00000000000E+00 0.  1.
         21    1    1    2  503  501  0.23936372383E+02  0.83858409412E+01  0.39089173406E+03  0.39171369648E+03  0.00000000000E+00 0.  1.
</event>
<event>
 4    1  0.2239940E+005  0.2066154E+02  0.7546771E-02  0.1524152E+00
          2   -1    0    0  503    0  0.00000000000E+00  0.00000000000E+00  0.20907172907E+02  0.20907172907E+02  0.00000000000E+00 0.  1.
         21   -1    0    0  501  502 -0.00000000000E+00 -0.00000000000E+00 -0.16068467908E+03  0.16068467908E+03  0.00000000000E+00 0.  1.
          2    1    1    2  501    0 -0.49819968281E+01 -0.20051907940E+02  0.14942357366E+02  0.25498496977E+02  0.00000000000E+00 0.  1.
         21    1    1    2  503  502  0.49819968281E+01  0.20051907940E+02 -0.15471986354E+03  0.15609335501E+03  0.00000000000E+00 0.  1.
</event>
<event>
 4    1  0.2239940E+005  0.2482385E+02  0.7546771E-02  0.1470784E+00
          2   -1    0    0  503    0  0.00000000000E+00  0.00000000000E+00  0.25054124288E+03  0.25054124288E+03  0.00000000000E+00 0. -1.
         21   -1    0    0  501  502 -0.00000000000E+00 -0.00000000000E+00 -0.22115681437E+03  0.22115681437E+03  0.00000000000E+00 0.  1.
          2    1    1    2  501    0  0.33505539637E+01 -0.24596690617E+02  0.24922609289E+03  0.25045931562E+03  0.00000000000E+00 0. -1.
         21    1    1    2  503  502 -0.33505539637E+01  0.24596690617E+02 -0.21984166438E+03  0.22123874163E+03  0.00000000000E+00 0.  1.
</event>
<event>
 4    1  0.2239940E+005  0.2336285E+02  0.7546771E-02  0.1487991E+00
          2   -1    0    0  502    0  0.00000000000E+00  0.00000000000E+00  0.13151303030E+04  0.13151303030E+04  0.00000000000E+00 0. -1.
         21   -1    0    0  503  502 -0.00000000000E+00 -0.00000000000E+00 -0.41929358208E+00  0.41929358208E+00  0.00000000000E+00 0. -1.
          2    1    1    2  501    0  0.22888003267E+02  0.46863726166E+01  0.72365965295E+03  0.72403668146E+03  0.00000000000E+00 0. -1.
         21    1    1    2  503  501 -0.22888003267E+02 -0.46863726166E+01  0.59105135647E+03  0.59151291513E+03  0.00000000000E+00 0. -1.
</event>
<event>
 4    1  0.2239940E+005  0.2053789E+02  0.7546771E-02  0.1525966E+00
          2   -1    0    0  502    0  0.00000000000E+00  0.00000000000E+00  0.12432222677E+04  0.12432222677E+04  0.00000000000E+00 0. -1.
         21   -1    0    0  503  502 -0.00000000000E+00 -0.00000000000E+00 -0.41096076228E+00  0.41096076228E+00  0.00000000000E+00 0. -1.
          2    1    1    2  501    0 -0.16648170854E+02  0.12026777509E+02  0.88109398628E+03  0.88133331812E+03  0.00000000000E+00 0. -1.
         21    1    1    2  503  501  0.16648170854E+02 -0.12026777509E+02  0.36171732063E+03  0.36229991032E+03  0.00000000000E+00 0. -1.
</event>
<event>
 4    1  0.2239940E+005  0.2268516E+02  0.7546771E-02  0.1496490E+00
          2   -1    0    0  502    0  0.00000000000E+00  0.00000000000E+00  0.26822174821E+03  0.26822174821E+03  0.00000000000E+00 0. -1.
         21   -1    0    0  503  502 -0.00000000000E+00 -0.00000000000E+00 -0.18540638542E+02  0.18540638542E+02  0.00000000000E+00 0.  1.
          2    1    1    2  501    0  0.22684987381E+02  0.89417596256E-01  0.26060050748E+03  0.26158601099E+03  0.00000000000E+00 0. -1.
         21    1    1    2  503  501 -0.22684987381E+02 -0.89417596256E-01 -0.10919397810E+02  0.25176375762E+02  0.00000000000E+00 0.  1.
</event>
<event>
 4    1  0.2239940E+005  0.2494077E+02  0.7546771E-02  0.1469467E+00
          2   -1    0    0  502    0  0.00000000000E+00  0.00000000000E+00  0.16489380526E+02  0.16489380526E+02  0.00000000000E+00 0.  1.
         21   -1    0    0  503  502 -0.00000000000E+00 -0.00000000000E+00 -0.85325840033E+02  0.85325840033E+02  0.00000000000E+00 0.  1.
          2    1    1    2  501    0 -0.23330367607E+02 -0.88167976501E+01  0.36055460095E+01  0.25200038403E+02  0.00000000000E+00 0.  1.
         21    1    1    2  503  501  0.23330367607E+02  0.88167976501E+01 -0.72442005516E+02  0.76615182155E+02  0.00000000000E+00 0.  1.
</event>
<event>
 4    1  0.2239940E+005  0.2645699E+02  0.7546771E-02  0.1453140E+00
          2   -1    0    0  503    0  0.00000000000E+00  0.00000000000E+00  0.30207591385E+03  0.30207591385E+03  0.00000000000E+00 0.  1.
         21   -1    0    0  501  502 -0.00000000000E+00 -0.00000000000E+00 -0.11250265168E+03  0.11250265168E+03  0.00000000000E+00 0. -1.
          2    1    1    2  501    0 -0.31104991350E+01 -0.26273506076E+02  0.29993004774E+03  0.30109467924E+03  0.00000000000E+00 0.  1.
         21    1    1    2  503  502  0.31104991350E+01  0.26273506076E+02 -0.11035678557E+03  0.11348388630E+03  0.00000000000E+00 0. -1.
</event>
<event>
 4    1  0.2239940E+005  0.2512692E+02  0.7546771E-02  0.1467389E+00
          2   -1    0    0  503    0  0.00000000000E+00  0.00000000000E+00  0.14809250314E+02  0.14809250314E+02  0.00000000000E+00 0.  1.
         21   -1    0    0  501  502 -0.00000000000E+00 -0.00000000000E+00 -0.13137079559E+03  0.13137079559E+03  0.00000000000E+00 0.  1.
          2    1    1    2  501    0  0.13182289116E+02  0.21391334084E+02  0.17899894067E+01  0.25190593132E+02  0.00000000000E+00 0.  1.
         21    1    1    2  503  502 -0.13182289116E+02 -0.21391334084E+02 -0.11835153468E+03  0.12098945277E+03  0.00000000000E+00 0.  1.
</event>
<event>
 4    1  0.2239940E+005  0.2418559E+02  0.7546771E-02  0.1478124E+00
          2   -1    0    0  503    0  0.00000000000E+00  0.00000000000E+00  0.39604286925E+03  0.39604286925E+03  0.00000000000E+00 0.  1.
         21   -1    0    0  501  502 -0.00000000000E+00 -0.00000000000E+00 -0.15886613168E+01  0.15886613168E+01  0.00000000000E+00 0. -1.
          2    1    1    2  501    0 -0.23767532279E+02  0.44774201605E+01  0.24994372765E+03  0.25111115043E+03  0.00000000000E+00 0.  1.
         21    1    1    2  503  502  0.23767532279E+02 -0.44774201605E+01  0.14451048029E+03  0.14652038014E+03  0.00000000000E+00 0. -1.
</event>
<event>
 4    1  0.2239940E+005  0.3332368E+02  0.7546771E-02  0.1392747E+00
          2   -1    0    0  503    0  0.00000000000E+00  0.00000000000E+00  0.82768819726E+03  0.82768819726E+03  0.00000000000E+00 0.  1.
         21   -1    0    0  501  502 -0.00000000000E+00 -0.00000000000E+00 -0.15118354286E+01  0.15118354286E+01  0.00000000000E+00 0.  1.
          2    1    1    2  501    0  0.63027751086E+01  0.32722202717E+02  0.55219191045E+03  0.55319650531E+03  0.00000000000E+00 0.  1.
         21    1    1    2  503  502 -0.63027751086E+01 -0.32722202717E+02  0.27398445138E+03  0.27600352738E+03  0.00000000000E+00 0.  1.
</event>
<event>
 4    1  0.2239940E+005  0.2470222E+02  0.7546771E-02  0.1472162E+00
          2   -1    0    0  502    0  0.00000000000E+00  0.00000000000E+00  0.12785576140E+04  0.12785576140E+04  0.00000000000E+00 0.  1.
         21   -1    0    0  503  502 -0.00000000000E+00 -0.00000000000E+00 -0.23115175527E+01  0.23115175527E+01  0.00000000000E+00 0.  1.
          2    1    1    2  501    0  0.34611644064E+01 -0.24458538262E+02  0.12086245013E+04  0.12088769106E+04  0.00000000000E+00 0.  1.
         21    1    1    2  503  501 -0.34611644064E+01  0.24458538262E+02  0.67621595194E+02  0.71992221035E+02  0.00000000000E+00 0.  1.
</event>
<event>
 4    1  0.2239940E+005  0.2318326E+02  0.7546771E-02  0.1490210E+00
          2   -1    0    0  503    0  0.00000000000E+00  0.00000000000E+00  0.44272810106E+03  0.44272810106E+03  0.00000000000E+00 0. -1.
         21   -1    0    0  501  502 -0.00000000000E+00 -0.00000000000E+00 -0.38902429411E+01  0.38902429411E+01  0.00000000000E+00 0. -1.
          2    1    1    2  501    0  0.18404984382E+02  0.14096812695E+02  0.40463663242E+03  0.40530021943E+03  0.00000000000E+00 0. -1.
         21    1    1    2  503  502 -0.18404984382E+02 -0.14096812695E+02  0.34201225695E+02  0.41318124562E+02  0.00000000000E+00 0. -1.
</event>
<event>
 4    1  0.2239940E+005  0.2249891E+02  0.7546771E-02  0.1498888E+00
          2   -1    0    0  503    0  0.00000000000E+00  0.00000000000E+00  0.21492587633E+02  0.21492587633E+02  0.00000000000E+00 0.  1.
         21   -1    0    0  501  502 -0.00000000000E+00 -0.00000000000E+00 -0.67879948376E+02  0.67879948376E+02  0.00000000000E+00 0.  1.
          2    1    1    2  501    0 -0.13248165331E+02  0.18184803340E+02  0.12917395928E+02  0.25943401371E+02  0.00000000000E+00 0.  1.
         21    1    1    2  503  502  0.13248165331E+02 -0.18184803340E+02 -0.59304756671E+02  0.63429134638E+02  0.00000000000E+00 0.  1.
</event>
<event>
 4    1  0.2239940E+005  0.2972480E+02  0.7546771E-02  0.1422003E+00
          2   -1    0    0  502    0  0.00000000000E+00  0.00000000000E+00  0.11445763261E+03  0.11445763261E+03  0.00000000000E+00 0.  1.
         21   -1    0    0  503  502 -0.00000000000E+00 -0.00000000000E+00 -0.12023002538E+02  0.12023002538E+02  0.00000000000E+00 0.  1.
          2    1    1    2  501    0  0.16541086534E+01  0.29678739508E+02  0.89052433286E+02  0.93882370701E+02  0.00000000000E+00 0.  1.
         21    1    1    2  503  501 -0.16541086534E+01 -0.29678739508E+02  0.13382196788E+02  0.32598264449E+02  0.00000000000E+00 0.  1.
</event>
<event>
 4    1  0.2239940E+005  0.2724409E+02  0.7546771E-02  0.1445171E+00
          2   -1    0    0  503    0  0.00000000000E+00  0.00000000000E+00  0.14676593775E+03  0.14676593775E+03  0.00000000000E+00 0. -1.
         21   -1    0    0  501  502 -0.00000000000E+00 -0.00000000000E+00 -0.78346328672E+01  0.78346328672E+01  0.00000000000E+00 0.  1.
          2    1    1    2  501    0 -0.27149477460E+02  0.22685711540E+01  0.11548973269E+03  0.11865967680E+03  0.00000000000E+00 0. -1.
         21    1    1    2  503  502  0.27149477460E+02 -0.22685711540E+01  0.23441572189E+02  0.35940893814E+02  0.00000000000E+00 0.  1.
</event>
<event>
 4    1  0.2239940E+005  0.6692567E+02  0.7546771E-02  0.1237959E+00
          2   -1    0    0  503    0  0.00000000000E+00  0.00000000000E+00  0.11406733626E+04  0.11406733626E+04  0.00000000000E+00 0. -1.
         21   -1    0    0  501  502 -0.00000000000E+00 -0.00000000000E+00 -0.58268462522E+02  0.58268462522E+02  0.00000000000E+00 0. -1.
          2    1    1    2  501    0 -0.63235432573E+02  0.21916314944E+02  0.11201221475E+04  0.11221197219E+04  0.00000000000E+00 0. -1.
         21    1    1    2  503  502  0.63235432573E+02 -0.21916314944E+02 -0.37717247458E+02  0.76822103260E+02  0.00000000000E+00 0. -1.
</event>
<event>
 4    1  0.2239940E+005  0.2423365E+02  0.7546771E-02  0.1477562E+00
          2   -1    0    0  503    0  0.00000000000E+00  0.00000000000E+00  0.47720096544E+03  0.47720096544E+03  0.00000000000E+00 0. -1.
         21   -1    0    0  501  502 -0.00000000000E+00 -0.00000000000E+00 -0.23325324509E+01  0.23325324509E+01  0.00000000000E+00 0. -1.
          2    1    1    2  501    0 -0.16945249958E+02 -0.17324218045E+02  0.40222831026E+03  0.40295766974E+03  0.00000000000E+00 0. -1.
         21    1    1    2  503  502  0.16945249958E+02  0.17324218045E+02  0.72640122729E+02  0.76575828151E+02  0.00000000000E+00 0. -1.
</event>
<event>
 4    1  0.2239940E+005  0.2312870E+02  0.7546771E-02  0.1490888E+00
          2   -1    0    0  502    0  0.00000000000E+00  0.00000000000E+00  0.11561827148E+04  0.11561827148E+04  0.00000000000E+00 0.  1.
         21   -1    0    0  503  502 -0.00000000000E+00 -0.00000000000E+00 -0.12920384777E+02  0.12920384777E+02  0.00000000000E+00 0. -1.
          2    1    1    2  501    0 -0.23115286177E+02  0.78771572196E+00  0.11456209921E+04  0.11458544386E+04  0.00000000000E+00 0.  1.
         21    1    1    2  503  501  0.23115286177E+02 -0.78771572196E+00 -0.23586620506E+01  0.23248660989E+02  0.00000000000E+00 0. -1.
</event>
<event>
 4    1  0.2239940E+005  0.2217604E+02  0.7546771E-02  0.1503112E+00
          2   -1    0    0  502    0  0.00000000000E+00  0.00000000000E+00  0.82816767168E+02  0.82816767168E+02  0.00000000000E+00 0. -1.
         21   -1    0    0  503  502 -0.00000000000E+00 -0.00000000000E+00 -0.12419346957E+02  0.12419346957E+02  0.00000000000E+00 0. -1.
          2    1    1    2  501    0 -0.16596723827E+02  0.14708001973E+02  0.69598091915E+02  0.73045677230E+02  0.00000000000E+00 0. -1.
         21    1    1    2  503  501  0.16596723827E+02 -0.14708001973E+02  0.79932829680E+00  0.22190436895E+02  0.00000000000E+00 0. -1.
</event>
<event>
 4    1  0.2239940E+005  0.2074094E+02  0.7546771E-02  0.1522996E+00
          2   -1    0    0  503    0  0.00000000000E+00  0.00000000000E+00  0.55328946850E+01  0.55328946850E+01  0.00000000000E+00 0. -1.
         21   -1    0    0  501  502 -0.00000000000E+00 -0.00000000000E+00 -0.20787464529E+03  0.20787464529E+03  0.00000000000E+00 0.  1.
          2    1    1    2  501    0  0.12549913860E+02 -0.16513213077E+02 -0.16748497222E+02  0.26658932897E+02  0.00000000000E+00 0. -1.
         21    1    1    2  503  502 -0.12549913860E+02  0.16513213077E+02 -0.18559325339E+03  0.18674860708E+03  0.00000000000E+00 0.  1.
</event>
<event>
 4    1  0.2239940E+005  0.2218335E+02  0.7546771E-02  0.1503016E+00
          2   -1    0    0  503    0  0.00000000000E+00  0.00000000000E+00  0.64610830214E+03  0.64610830214E+03  0.00000000000E+00 0. -1.
         21   -1    0    0  501  502 -0.00000000000E+00 -0.00000000000E+00 -0.64569162402E+01  0.64569162402E+01  0.00000000000E+00 0.  1.
          2    1    1    2  501    0  0.14922687170E+02 -0.16413853290E+02  0.62626099221E+03  0.62665375730E+03  0.00000000000E+00 0. -1.
         21    1    1    2  503  502 -0.14922687170E+02  0.16413853290E+02  0.13390393688E+02  0.25911461080E+02  0.00000000000E+00 0.  1.
</event>
<event>
 4    1  0.2239940E+005  0.2093723E+02  0.7546771E-02  0.1520163E+00
          2   -1    0    0  502    0  0.00000000000E+00  0.00000000000E+00  0.93692371800E+03  0.93692371800E+03  0.00000000000E+00 0. -1.
         21   -1    0    0  503  502 -0.00000000000E+00 -0.00000000000E+00 -0.22214303031E+01  0.22214303031E+01  0.00000000000E+00 0. -1.
          2    1    1    2  501    0 -0.19057106214E+02  0.86714591273E+01  0.88455233597E+03  0.88480009187E+03  0.00000000000E+00 0. -1.
         21    1    1    2  503  501  0.19057106214E+02 -0.86714591273E+01  0.50149951724E+02  0.54345056432E+02  0.00000000000E+00 0. -1.
</event>
<event>
 4    1  0.2239940E+005  0.3250917E+02  0.7546771E-02  0.1398974E+00
          2   -1    0    0  503    0  0.00000000000E+00  0.00000000000E+00  0.11016081018E+04  0.11016081018E+04  0.00000000000E+00 0. -1.
         21   -1    0    0  501  502 -0.00000000000E+00 -0.00000000000E+00 -0.20982896638E+01  0.20982896638E+01  0.00000000000E+00 0. -1.
          2    1    1    2  501    0 -0.31759383759E+02 -0.69417245064E+01  0.95632744252E+03  0.95687983744E+03  0.00000000000E+00 0. -1.
         21    1    1    2  503  502  0.31759383759E+02  0.69417245064E+01  0.14318236967E+03  0.14682655407E+03  0.00000000000E+00 0. -1.
</event>
<event>
 4    1  0.2239940E+005  0.2576670E+02  0.7546771E-02  0.1460406E+00
          2   -1    0    0  503    0  0.00000000000E+00  0.00000000000E+00  0.12571310605E+04  0.12571310605E+04  0.00000000000E+00 0.  1.
         21   -1    0    0  501  502 -0.00000000000E+00 -0.00000000000E+00 -0.27191613544E+01  0.27191613544E+01  0.00000000000E+00 0.  1.
          2    1    1    2  501    0 -0.23823138661E+02 -0.98173778169E+01  0.11926585215E+04  0.11929368264E+04  0.00000000000E+00 0.  1.
         21    1    1    2  503  502  0.23823138661E+02  0.98173778169E+01  0.61753377690E+02  0.66913395512E+02  0.00000000000E+00 0.  1.
</event>
<event>
 4    1  0.2239940E+005  0.2916081E+02  0.7546771E-02  0.1427032E+00
          2   -1    0    0  503    0  0.00000000000E+00  0.00000000000E+00  0.91301314779E+02  0.91301314779E+02  0.00000000000E+00 0. -1.
         21   -1    0    0  501  502 -0.00000000000E+00 -0.00000000000E+00 -0.13833365873E+03  0.13833365873E+03  0.00000000000E+00 0. -1.
          2    1    1    2  501    0 -0.12368320099E+01 -0.29134572025E+02  0.87368765048E+02  0.92106754076E+02  0.00000000000E+00 0. -1.
         21    1    1    2  503  502  0.12368320099E+01  0.29134572025E+02 -0.13440110900E+03  0.13752821943E+03  0.00000000000E+00 0. -1.
</event>
<event>
 4    1  0.2239940E+005  0.2032792E+02  0.7546771E-02  0.1529080E+00
          2   -1    0    0  503    0  0.00000000000E+00  0.00000000000E+00  0.86280940975E+02  0.86280940975E+02  0.00000000000E+00 0. -1.
         21   -1    0    0  501  502 -0.00000000000E+00 -0.00000000000E+00 -0.22939252620E+02  0.22939252620E+02  0.00000000000E+00 0.  1.
          2    1    1    2  501    0  0.17559768227E+02  0.10241046310E+02  0.80246779981E+02  0.82781460407E+02  0.00000000000E+00 0. -1.
         21    1    1    2  503  502 -0.17559768227E+02 -0.10241046310E+02 -0.16905091627E+02  0.26438733189E+02  0.00000000000E+00 0.  1.
</event>
<event>
 4    1  0.2239940E+005  0.2545253E+02  0.7546771E-02  0.1463804E+00
          2   -1    0    0  503    0  0.00000000000E+00  0.00000000000E+00  0.18849824096E+04  0.18849824096E+04  0.00000000000E+00 0.  1.
         21   -1    0    0  501  502 -0.00000000000E+00 -0.00000000000E+00 -0.20178625759E+01  0.20178625759E+01  0.00000000000E+00 0. -1.
          2    1    1    2  501    0 -0.24735882045E+02 -0.59972885969E+01  0.18008866153E+04  0.18010664708E+04  0.00000000000E+00 0.  1.
         21    1    1    2  503  502  0.24735882045E+02  0.59972885969E+01  0.82077931794E+02  0.85933801374E+02  0.00000000000E+00 0. -1.
</event>
<event>
 4    1  0.2239940E+005  0.2806639E+02  0.7546771E-02  0.1437180E+00
          2   -1    0    0  503    0  0.00000000000E+00  0.00000000000E+00  0.34176567327E+03  0.34176567327E+03  0.00000000000E+00 0.  1.
         21   -1    0    0  501  502 -0.00000000000E+00 -0.00000000000E+00 -0.23812516344E+01  0.23812516344E+01  0.00000000000E+00 0.  1.
          2    1    1    2  501    0 -0.45590825553E+01 -0.27693627713E+02  0.13887223287E+03  0.14167998910E+03  0.00000000000E+00 0.  1.
         21    1    1    2  503  502  0.45590825553E+01  0.27693627713E+02  0.20051218876E+03  0.20246693580E+03  0.00000000000E+00 0.  1.
</event>
<event>
 4    1  0.2239940E+005  0.2755406E+02  0.7546771E-02  0.1442120E+00
          2   -1    0    0  502    0  0.00000000000E+00  0.00000000000E+00  0.47605555082E+02  0.47605555082E+02  0.00000000000E+00 0.  1.
         21   -1    0    0  503  502 -0.00000000000E+00 -0.00000000000E+00 -0.43893169580E+02  0.43893169580E+02  0.00000000000E+00 0.  1.
          2    1    1    2  501    0  0.95275551052E+01  0.25854440141E+02  0.38359971897E+02  0.47230433253E+02  0.00000000000E+00 0.  1.
         21    1    1    2  503  501 -0.95275551052E+01 -0.25854440141E+02 -0.34647586395E+02  0.44268291409E+02  0.00000000000E+00 0.  1.
</event>
<event>
 4    1  0.2239940E+005  0.2235161E+02  0.7546771E-02  0.1500805E+00
          2   -1    0    0  502    0  0.00000000000E+00  0.00000000000E+00  0.42240388727E+03  0.42240388727E+03  0.00000000000E+00 0.  1.
         21   -1    0    0  503  502 -0.00000000000E+00 -0.00000000000E+00 -0.34463341557E+01  0.34463341557E+01  0.00000000000E+00 0.  1.
          2    1    1    2  501    0  0.99292625615E+01 -0.20025085443E+02  0.38204166318E+03  0.38269495255E+03  0.00000000000E+00 0.  1.
         21    1    1    2  503  501 -0.99292625615E+01  0.20025085443E+02  0.36915889930E+02  0.43155268871E+02  0.00000000000E+00 0.  1.
</event>
<event>
 4    1  0.2239940E+005  0.5299319E+02  0.7546771E-02  0.1285692E+00
          2   -1    0    0  503    0  0.00000000000E+00  0.00000000000E+00  0.16019914688E+04  0.16019914688E+04  0.00000000000E+00 0. -1.
         21   -1    0    0  501  502 -0.00000000000E+00 -0.00000000000E+00 -0.16442193418E+02  0.16442193418E+02  0.00000000000E+00 0.  1.
          2    1    1    2  501    0  0.49433643498E+02 -0.19094316522E+02  0.15576384708E+04  0.15585396638E+04  0.00000000000E+00 0. -1.
         21    1    1    2  503  502 -0.49433643498E+02  0.19094316522E+02  0.27910804630E+02  0.59893998431E+02  0.00000000000E+00 0.  1.
</event>
<event>
 4    1  0.2239940E+005  0.2137696E+02  0.7546771E-02  0.1513950E+00
          2   -1    0    0  503    0  0.00000000000E+00  0.00000000000E+00  0.39058994457E+01  0.39058994457E+01  0.00000000000E+00 0.  1.
         21   -1    0    0  501  502 -0.00000000000E+00 -0.00000000000E+00 -0.44879093110E+03  0.44879093110E+03  0.00000000000E+00 0.  1.
          2    1    1    2  501    0 -0.13258925020E+02  0.16768282943E+02 -0.27821233366E+02  0.35085544481E+02  0.00000000000E+00 0.  1.
         21    1    1    2  503  502  0.13258925020E+02 -0.16768282943E+02 -0.41706379829E+03  0.41761128606E+03  0.00000000000E+00 0.  1.
</event>
<event>
 4    1  0.2239940E+005  0.2052409E+02  0.7546771E-02  0.1526169E+00
          2   -1    0    0  503    0  0.00000000000E+00  0.00000000000E+00  0.83273725187E+03  0.83273725187E+03  0.00000000000E+00 0. -1.
         21   -1    0    0  501  502 -0.00000000000E+00 -0.00000000000E+00 -0.50385625384E+01  0.50385625384E+01  0.00000000000E+00 0. -1.
          2    1    1    2  501    0 -0.19354555157E+02  0.68293098129E+01  0.81115403490E+03  0.81141364705E+03  0.00000000000E+00 0. -1.
         21    1    1    2  503  502  0.19354555157E+02 -0.68293098129E+01  0.16544654435E+02  0.26362167366E+02  0.00000000000E+00 0. -1.
</event>
<event>
 4    1  0.2239940E+005  0.4556382E+02  0.7546771E-02  0.1318644E+00
          2   -1    0    0  503    0  0.00000000000E+00  0.00000000000E+00  0.68587020301E+03  0.68587020301E+03  0.00000000000E+00 0.  1.
         21   -1    0    0  501  502 -0.00000000000E+00 -0.00000000000E+00 -0.62930270755E+01  0.62930270755E+01  0.00000000000E+00 0. -1.
          2    1    1    2  501    0  0.42069429001E+02  0.17499279456E+02  0.58911320405E+03  0.59087259948E+03  0.00000000000E+00 0.  1.
         21    1    1    2  503  502 -0.42069429001E+02 -0.17499279456E+02  0.90463971884E+02  0.10129063060E+03  0.00000000000E+00 0. -1.
</event>
<event>
 4    1  0.2239940E+005  0.4256333E+02  0.7546771E-02  0.1334086E+00
          2   -1    0    0  503    0  0.00000000000E+00  0.00000000000E+00  0.18799853109E+04  0.18799853109E+04  0.00000000000E+00 0. -1.
         21   -1    0    0  501  502 -0.00000000000E+00 -0.00000000000E+00 -0.12985391040E+01  0.12985391040E+01  0.00000000000E+00 0. -1.
          2    1    1    2  501    0  0.39027507481E+02  0.16985006214E+02  0.14170388767E+04  0.14176779658E+04  0.00000000000E+00 0. -1.
         21    1    1    2  503  502 -0.39027507481E+02 -0.16985006214E+02  0.46164789514E+03  0.46360588420E+03  0.00000000000E+00 0. -1.
</event>
<event>
 4    1  0.2239940E+005  0.2144864E+02  0.7546771E-02  0.1512955E+00
          2   -1    0    0  502    0  0.00000000000E+00  0.00000000000E+00  0.80670018233E+03  0.80670018233E+03  0.00000000000E+00 0.  1.
         21   -1    0    0  503  502 -0.00000000000E+00 -0.00000000000E+00 -0.32481098276E+01  0.32481098276E+01  0.00000000000E+00 0.  1.
          2    1    1    2  501    0 -0.71100646034E+01 -0.20235891506E+02  0.76943439208E+03  0.76973328370E+03  0.00000000000E+00 0.  1.
         21    1    1    2  503  501  0.71100646034E+01  0.20235891506E+02  0.34017680421E+02  0.40215008454E+02  0.00000000000E+00 0.  1.
</event>
<event>
 4    1  0.2239940E+005  0.2205075E+02  0.7546771E-02  0.1504775E+00
          2   -1    0    0  502    0  0.00000000000E+00  0.00000000000E+00  0.13624631574E+04  0.13624631574E+04  0.00000000000E+00 0. -1.
         21   -1    0    0  503  502 -0.00000000000E+00 -0.00000000000E+00 -0.10908492307E+02  0.10908492307E+02  0.00000000000E+00 0.  1.
          2    1    1    2  501    0 -0.20871786733E+02 -0.71136536437E+01  0.13511370218E+04  0.13513169456E+04  0.00000000000E+00 0. -1.
         21    1    1    2  503  501  0.20871786733E+02  0.71136536437E+01  0.41764325520E+00  0.22054704158E+02  0.00000000000E+00 0.  1.
</event>
<event>
 4    1  0.2239940E+005  0.2505903E+02  0.7546771E-02  0.1468144E+00
          2   -1    0    0  503    0  0.00000000000E+00  0.00000000000E+00  0.60624856059E+02  0.60624856059E+02  0.00000000000E+00 0.  1.
         21   -1    0    0  501  502 -0.00000000000E+00 -0.00000000000E+00 -0.79369413450E+02  0.79369413450E+02  0.00000000000E+00 0. -1.
          2    1    1    2  501    0 -0.24516042591E+02  0.51882976385E+01  0.55897780747E+02  0.61257788641E+02  0.00000000000E+00 0.  1.
         21    1    1    2  503  502  0.24516042591E+02 -0.51882976385E+01 -0.74642338138E+02  0.78736480868E+02  0.00000000000E+00 0. -1.
</event>
<event>
 4    1  0.2239940E+005  0.2201683E+02  0.7546771E-02  0.1505227E+00
          2   -1    0    0  503    0  0.00000000000E+00  0.00000000000E+00  0.52541766566E+03  0.52541766566E+03  0.00000000000E+00 0. -1.
         21   -1    0    0  501  502 -0.00000000000E+00 -0.00000000000E+00 -0.56386218281E+01  0.56386218281E+01  0.00000000000E+00 0. -1.
          2    1    1    2  501    0  0.15801404351E+02 -0.15331553222E+02  0.50272537364E+03  0.50320725571E+03  0.00000000000E+00 0. -1.
         21    1    1    2  503  502 -0.15801404351E+02  0.15331553222E+02  0.17053670194E+02  0.27849031774E+02  0.00000000000E+00 0. -1.
</event>
<event>
 4    1  0.2239940E+005  0.2130981E+02  0.7546771E-02  0.1514887E+00
          2   -1    0    0  503    0  0.00000000000E+00  0.00000000000E+00  0.87470096112E+03  0.87470096112E+03  0.00000000000E+00 0.  1.
         21   -1    0    0  501  502 -0.00000000000E+00 -0.00000000000E+00 -0.18031459358E+01  0.18031459358E+01  0.00000000000E+00 0. -1.
          2    1    1    2  501    0 -0.82983707502E+01 -0.19627665215E+02  0.80626768160E+03  0.80654924374E+03  0.00000000000E+00 0.  1.
         21    1    1    2  503  502  0.82983707502E+01  0.19627665215E+02  0.66630133590E+02  0.69954863312E+02  0.00000000000E+00 0. -1.
</event>
<event>
 4    1  0.2239940E+005  0.2900036E+02  0.7546771E-02  0.1428487E+00
          2   -1    0    0  502    0  0.00000000000E+00  0.00000000000E+00  0.12444969225E+04  0.12444969225E+04  0.00000000000E+00 0. -1.
         21   -1    0    0  503  502 -0.00000000000E+00 -0.00000000000E+00 -0.45170580712E+02  0.45170580712E+02  0.00000000000E+00 0.  1.
          2    1    1    2  501    0  0.28967848484E+02 -0.13728488004E+01  0.12396551026E+04  0.12399942720E+04  0.00000000000E+00 0. -1.
         21    1    1    2  503  501 -0.28967848484E+02  0.13728488004E+01 -0.40328760812E+02  0.49673231305E+02  0.00000000000E+00 0.  1.
</event>
<event>
 4    1  0.2239940E+005  0.2252438E+02  0.7546771E-02  0.1498558E+00
          2   -1    0    0  502    0  0.00000000000E+00  0.00000000000E+00  0.89548559781E+03  0.89548559781E+03  0.00000000000E+00 0.  1.
         21   -1    0    0  503  502 -0.00000000000E+00 -0.00000000000E+00 -0.12908219861E+01  0.12908219861E+01  0.00000000000E+00 0.  1.
          2    1    1    2  501    0  0.19727421050E+02 -0.10870909094E+02  0.78296517729E+03  0.78328910158E+03  0.00000000000E+00 0.  1.
         21    1    1    2  503  501 -0.19727421050E+02  0.10870909094E+02  0.11122959854E+03  0.11348731822E+03  0.00000000000E+00 0.  1.
</event>
<event>
 4    1  0.2239940E+005  0.2360030E+02  0.7546771E-02  0.1485095E+00
          2   -1    0    0  502    0  0.00000000000E+00  0.00000000000E+00  0.48934912546E+03  0.48934912546E+03  0.00000000000E+00 0.  1.
         21   -1    0    0  503  502 -0.00000000000E+00 -0.00000000000E+00 -0.26241952576E+02  0.26241952576E+02  0.00000000000E+00 0.  1.
          2    1    1    2  501    0  0.14691367915E+02 -0.18469912116E+02  0.48369646393E+03  0.48427186906E+03  0.00000000000E+00 0.  1.
         21    1    1    2  503  501 -0.14691367915E+02  0.18469912116E+02 -0.20589291049E+02  0.31319208973E+02  0.00000000000E+00 0.  1.
</event>
<event>
 4    1  0.2239940E+005  0.3942233E+02  0.7546771E-02  0.1351905E+00
          2   -1    0    0  503    0  0.00000000000E+00  0.00000000000E+00  0.34492770872E+03  0.34492770872E+03  0.00000000000E+00 0.  1.
         21   -1    0    0  501  502 -0.00000000000E+00 -0.00000000000E+00 -0.84196431804E+01  0.84196431804E+01  0.00000000000E+00 0.  1.
          2    1    1    2  501    0  0.21719495835E+02  0.32899598876E+02  0.28871201529E+03  0.29139105662E+03  0.00000000000E+00 0.  1.
         21    1    1    2  503  502 -0.21719495835E+02 -0.32899598876E+02  0.47796050254E+02  0.61956295284E+02  0.00000000000E+00 0.  1.
</event>
<event>
 4    1  0.2239940E+005  0.2645190E+02  0.7546771E-02  0.1453193E+00
          2   -1    0    0  503    0  0.00000000000E+00  0.00000000000E+00  0.29426898910E+01  0.29426898910E+01  0.00000000000E+00 0.  1.
         21   -1    0    0  501  502 -0.00000000000E+00 -0.00000000000E+00 -0.88183472108E+03  0.88183472108E+03  0.00000000000E+00 0. -1.
          2    1    1    2  501    0  0.23220350510E+02 -0.12669591584E+02 -0.61375408921E+02  0.66832956309E+02  0.00000000000E+00 0.  1.
         21    1    1    2  503  502 -0.23220350510E+02  0.12669591584E+02 -0.81751662226E+03  0.81794445466E+03  0.00000000000E+00 0. -1.
</event>
<event>
 4    1  0.2239940E+005  0.2130531E+02  0.7546771E-02  0.1514950E+00
          2   -1    0    0  502    0  0.00000000000E+00  0.00000000000E+00  0.88011699571E+02  0.88011699571E+02  0.00000000000E+00 0. -1.
         21   -1    0    0  503  502 -0.00000000000E+00 -0.00000000000E+00 -0.40840985495E+02  0.40840985495E+02  0.00000000000E+00 0. -1.
          2    1    1    2  501    0 -0.17128774256E+02 -0.12669701798E+02  0.83806540763E+02  0.86472264489E+02  0.00000000000E+00 0. -1.
         21    1    1    2  503  501  0.17128774256E+02  0.12669701798E+02 -0.36635826687E+02  0.42380420576E+02  0.00000000000E+00 0. -1.
</event>
<event>
 4    1  0.2239940E+005  0.2129474E+02  0.7546771E-02  0.1515098E+00
          2   -1    0    0  503    0  0.00000000000E+00  0.00000000000E+00  0.89704092113E+02  0.89704092113E+02  0.00000000000E+00 0.  1.
         21   -1    0    0  501  502 -0.00000000000E+00 -0.00000000000E+00 -0.17548248761E+03  0.17548248761E+03  0.00000000000E+00 0.  1.
          2    1    1    2  501    0 -0.21274560612E+02 -0.92672703857E+00  0.87780327075E+02  0.90326361454E+02  0.00000000000E+00 0.  1.
         21    1    1    2  503  502  0.21274560612E+02  0.92672703857E+00 -0.17355872257E+03  0.17486021827E+03  0.00000000000E+00 0.  1.
</event>
<event>
 4    1  0.2239940E+005  0.2357627E+02  0.7546771E-02  0.1485386E+00
          2   -1    0    0  502    0  0.00000000000E+00  0.00000000000E+00  0.65893912307E+03  0.65893912307E+03  0.00000000000E+00 0.  1.
         21   -1    0    0  503  502 -0.00000000000E+00 -0.00000000000E+00 -0.13481708840E+01  0.13481708840E+01  0.00000000000E+00 0.  1.
          2    1    1    2  501    0 -0.22087213316E+02 -0.82459363020E+01  0.53077998917E+03  0.53130333837E+03  0.00000000000E+00 0.  1.
         21    1    1    2  503  501  0.22087213316E+02  0.82459363020E+01  0.12681096301E+03  0.12898395558E+03  0.00000000000E+00 0.  1.
</event>
<event>
 4    1  0.2239940E+005  0.2061677E+02  0.7546771E-02  0.1524807E+00
          2   -1    0    0  503    0  0.00000000000E+00  0.00000000000E+00  0.78489448961E+03  0.78489448961E+03  0.00000000000E+00 0.  1.
         21   -1    0    0  501  502 -0.00000000000E+00 -0.00000000000E+00 -0.21814203976E+02  0.21814203976E+02  0.00000000000E+00 0.  1.
          2    1    1    2  501    0 -0.13715533220E+02 -0.15392707139E+02  0.77985637292E+03  0.78012884428E+03  0.00000000000E+00 0.  1.
         21    1    1    2  503  502  0.13715533220E+02  0.15392707139E+02 -0.16776087288E+02  0.26579849309E+02  0.00000000000E+00 0.  1.
</event>
<event>
 4    1  0.2239940E+005  0.2199925E+02  0.7546771E-02  0.1505462E+00
          2   -1    0    0  502    0  0.00000000000E+00  0.00000000000E+00  0.22542775652E+03  0.22542775652E+03  0.00000000000E+00 0. -1.
         21   -1    0    0  503  502 -0.00000000000E+00 -0.00000000000E+00 -0.27998469772E+02  0.27998469772E+02  0.00000000000E+00 0.  1.
          2    1    1    2  501    0  0.17372195247E+02 -0.13497178949E+02  0.22047278642E+03  0.22156763428E+03  0.00000000000E+00 0. -1.
         21    1    1    2  503  501 -0.17372195247E+02  0.13497178949E+02 -0.23043499678E+02  0.31858592008E+02  0.00000000000E+00 0.  1.
</event>
<event>
 4    1  0.2239940E+005  0.2029962E+02  0.7546771E-02  0.1529504E+00
          2   -1    0    0  502    0  0.00000000000E+00  0.00000000000E+00  0.43475181343E+02  0.43475181343E+02  0.00000000000E+00 0. -1.
         21   -1    0    0  503  502 -0.00000000000E+00 -0.00000000000E+00 -0.67368627650E+02  0.67368627650E+02  0.00000000000E+00 0. -1.
          2    1    1    2  501    0  0.15124676655E+02  0.13539526437E+02  0.39428683271E+02  0.44347442818E+02  0.00000000000E+00 0. -1.
         21    1    1    2  503  501 -0.15124676655E+02 -0.13539526437E+02 -0.63322129578E+02  0.66496366174E+02  0.00000000000E+00 0. -1.
</event>
<event>
 4    1  0.2239940E+005  0.2322156E+02  0.7546771E-02  0.1489735E+00
          2   -1    0    0  503    0  0.00000000000E+00  0.00000000000E+00  0.81334240460E+01  0.81334240460E+01  0.00000000000E+00 0.  1.
         21   -1    0    0  501  502 -0.00000000000E+00 -0.00000000000E+00 -0.95036848543E+02  0.95036848543E+02  0.00000000000E+00 0. -1.
          2    1    1    2  501    0  0.19334315857E+02  0.12861776273E+02 -0.15085408916E+02  0.27691345593E+02  0.00000000000E+00 0.  1.
         21    1    1    2  503  502 -0.19334315857E+02 -0.12861776273E+02 -0.71818015580E+02  0.75478926996E+02  0.00000000000E+00 0. -1.
</event>
<event>
 4    1  0.2239940E+005  0.2267360E+02  0.7546771E-02  0.1496638E+00
          2   -1    0    0  502    0  0.00000000000E+00  0.00000000000E+00  0.13100767857E+04  0.13100767857E+04  0.00000000000E+00 0. -1.
         21   -1    0    0  503  502 -0.00000000000E+00 -0.00000000000E+00 -0.70802220050E+00  0.70802220050E+00  0.00000000000E+00 0. -1.
          2    1    1    2  501    0  0.19484912574E+02  0.11594403115E+02  0.10922592315E+04  0.10924945404E+04  0.00000000000E+00 0. -1.
         21    1    1    2  503  501 -0.19484912574E+02 -0.11594403115E+02  0.21710953207E+03  0.21829026757E+03  0.00000000000E+00 0. -1.
</event>
<event>
 4    1  0.2239940E+005  0.2329119E+02  0.7546771E-02  0.1488874E+00
          2   -1    0    0  502    0  0.00000000000E+00  0.00000000000E+00  0.11740472365E+02  0.11740472365E+02  0.00000000000E+00 0.  1.
         21   -1    0    0  503  502 -0.00000000000E+00 -0.00000000000E+00 -0.36535233001E+03  0.36535233001E+03  0.00000000000E+00 0. -1.
          2    1    1    2  501    0 -0.11787996271E+02  0.20087876145E+02 -0.58508713816E+00  0.23298539676E+02  0.00000000000E+00 0.  1.
         21    1    1    2  503  501  0.11787996271E+02 -0.20087876145E+02 -0.35302677050E+03  0.35379426270E+03  0.00000000000E+00 0. -1.
</event>
<event>
 4    1  0.2239940E+005  0.2064387E+02  0.7546771E-02  0.1524411E+00
          2   -1    0    0  503    0  0.00000000000E+00  0.00000000000E+00  0.10685659877E+04  0.10685659877E+04  0.00000000000E+00 0.  1.
         21   -1    0    0  501  502 -0.00000000000E+00 -0.00000000000E+00 -0.11585821871E+01  0.11585821871E+01  0.00000000000E+00 0.  1.
          2    1    1    2  501    0 -0.85288706079E+01  0.18799674909E+02  0.96683178250E+03  0.96705215219E+03  0.00000000000E+00 0.  1.
         21    1    1    2  503  502  0.85288706079E+01 -0.18799674909E+02  0.10057562300E+03  0.10267241768E+03  0.00000000000E+00 0.  1.
</event>
<event>
 4    1  0.2239940E+005  0.4808911E+02  0.7546771E-02  0.1306677E+00
          2   -1    0    0  502    0  0.00000000000E+00  0.00000000000E+00  0.92596300971E+03  0.92596300971E+03  0.00000000000E+00 0.  1.
         21   -1    0    0  503  502 -0.00000000000E+00 -0.00000000000E+00 -0.31564055394E+01  0.31564055394E+01  0.00000000000E+00 0. -1.
          2    1    1    2  501    0 -0.34439831021E+02 -0.33562790460E+02  0.67366288646E+03  0.67537711499E+03  0.00000000000E+00 0.  1.
         21    1    1    2  503  501  0.34439831021E+02  0.33562790460E+02  0.24914371771E+03  0.25374230026E+03  0.00000000000E+00 0. -1.
</event>
<event>
 4    1  0.2239940E+005  0.2454552E+02  0.7546771E-02  0.1473952E+00
          2   -1    0    0  502    0  0.00000000000E+00  0.00000000000E+00  0.87840800891E+03  0.87840800891E+03  0.00000000000E+00 0. -1.
         21   -1    0    0  503  502 -0.00000000000E+00 -0.00000000000E+00 -0.63247531708E+02  0.63247531708E+02  0.00000000000E+00 0.  1.
          2    1    1    2  501    0  0.15445035610E+01  0.24496876557E+02  0.87584813344E+03  0.87619200824E+03  0.00000000000E+00 0. -1.
         21    1    1    2  503  501 -0.15445035610E+01 -0.24496876557E+02 -0.60687656236E+02  0.65463532381E+02  0.00000000000E+00 0.  1.
</event>
<event>
 4    1  0.2239940E+005  0.2779324E+02  0.7546771E-02  0.1439799E+00
          2   -1    0    0  503    0  0.00000000000E+00  0.00000000000E+00  0.12938868314E+04  0.12938868314E+04  0.00000000000E+00 0. -1.
         21   -1    0    0  501  502 -0.00000000000E+00 -0.00000000000E+00 -0.33214861520E+01  0.33214861520E+01  0.00000000000E+00 0. -1.
          2    1    1    2  501    0  0.22871367780E+02 -0.15791285221E+02  0.12327111055E+04  0.12330243849E+04  0.00000000000E+00 0. -1.
         21    1    1    2  503  502 -0.22871367780E+02  0.15791285221E+02  0.57854239758E+02  0.64183932655E+02  0.00000000000E+00 0. -1.
</event>
<event>
 4    1  0.2239940E+005  0.3851431E+02  0.7546771E-02  0.1357419E+00
          2   -1    0    0  502    0  0.00000000000E+00  0.00000000000E+00  0.15967426933E+04  0.15967426933E+04  0.00000000000E+00 0.  1.
         21   -1    0    0  503  502 -0.00000000000E+00 -0.00000000000E+00 -0.78862717277E+01  0.78862717277E+01  0.00000000000E+00 0. -1.
          2    1    1    2  501    0 -0.29987869914E+02  0.24167744287E+02  0.15480070094E+04  0.15484860520E+04  0.00000000000E+00 0.  1.
         21    1    1    2  503  501  0.29987869914E+02 -0.24167744287E+02  0.40849412230E+02  0.56142913047E+02  0.00000000000E+00 0. -1.
</event>
<event>
 4    1  0.2239940E+005  0.3065963E+02  0.7546771E-02  0.1413949E+00
          2   -1    0    0  503    0  0.00000000000E+00  0.00000000000E+00  0.10657529359E+04  0.10657529359E+04  0.00000000000E+00 0. -1.
         21   -1    0    0  501  502 -0.00000000000E+00 -0.00000000000E+00 -0.28575311197E+01  0.28575311197E+01  0.00000000000E+00 0. -1.
          2    1    1    2  501    0 -0.24992538401E+02  0.17759108819E+02  0.97570435408E+03  0.97618594514E+03  0.00000000000E+00 0. -1.
         21    1    1    2  503  502  0.24992538401E+02 -0.17759108819E+02  0.87191050666E+02  0.92424521844E+02  0.00000000000E+00 0. -1.
</event>
<event>
 4    1  0.2239940E+005  0.2559695E+02  0.7546771E-02  0.1462235E+00
          2   -1    0    0  502    0  0.00000000000E+00  0.00000000000E+00  0.12041712880E+04  0.12041712880E+04  0.00000000000E+00 0. -1.
         21   -1    0    0  503  502 -0.00000000000E+00 -0.00000000000E+00 -0.17998003042E+01  0.17998003042E+01  0.00000000000E+00 0. -1.
          2    1    1    2  501    0 -0.23550044041E+02  0.10029913633E+02  0.11048437114E+04  0.11051401859E+04  0.00000000000E+00 0. -1.
         21    1    1    2  503  501  0.23550044041E+02 -0.10029913633E+02  0.97527776231E+02  0.10083090240E+03  0.00000000000E+00 0. -1.
</event>
<event>
 4    1  0.2239940E+005  0.2393057E+02  0.7546771E-02  0.1481132E+00
          2   -1    0    0  502    0  0.00000000000E+00  0.00000000000E+00  0.89505697578E+03  0.89505697578E+03  0.00000000000E+00 0. -1.
         21   -1    0    0  503  502 -0.00000000000E+00 -0.00000000000E+00 -0.10736813288E+01  0.10736813288E+01  0.00000000000E+00 0. -1.
          2    1    1    2  501    0  0.56733732236E+01 -0.23248334125E+02  0.73181846116E+03  0.73220962320E+03  0.00000000000E+00 0. -1.
         21    1    1    2  503  501 -0.56733732236E+01  0.23248334125E+02  0.16216483329E+03  0.16392103391E+03  0.00000000000E+00 0. -1.
</event>
<event>
 4    1  0.2239940E+005  0.2023128E+02  0.7546771E-02  0.1530529E+00
          2   -1    0    0  503    0  0.00000000000E+00  0.00000000000E+00  0.19500407419E+04  0.19500407419E+04  0.00000000000E+00 0. -1.
         21   -1    0    0  501  502 -0.00000000000E+00 -0.00000000000E+00 -0.22837402893E+00  0.22837402893E+00  0.00000000000E+00 0. -1.
          2    1    1    2  501    0  0.19806614938E+02 -0.41234319052E+01  0.69752599876E+03  0.69781933452E+03  0.00000000000E+00 0. -1.
         21    1    1    2  503  502 -0.19806614938E+02  0.41234319052E+01  0.12522863691E+04  0.12524497814E+04  0.00000000000E+00 0. -1.
</event>
<event>
 4    1  0.2239940E+005  0.2566164E+02  0.7546771E-02  0.1461536E+00
          2   -1    0    0  503    0  0.00000000000E+00  0.00000000000E+00  0.10337345716E+04  0.10337345716E+04  0.00000000000E+00 0. -1.
         21   -1    0    0  501  502 -0.00000000000E+00 -0.00000000000E+00 -0.20334864324E+01  0.20334864324E+01  0.00000000000E+00 0. -1.
          2    1    1    2  501    0  0.17999014955E+02 -0.18290851311E+02  0.94501682773E+03  0.94536518049E+03  0.00000000000E+00 0. -1.
         21    1    1    2  503  502 -0.17999014955E+02  0.18290851311E+02  0.86684257406E+02  0.90402877515E+02  0.00000000000E+00 0. -1.
</event>
<event>
 4    1  0.2239940E+005  0.2542679E+02  0.7546771E-02  0.1464085E+00
          2   -1    0    0  502    0  0.00000000000E+00  0.00000000000E+00  0.88150200351E+03  0.88150200351E+03  0.00000000000E+00 0.  1.
         21   -1    0    0  503  502 -0.00000000000E+00 -0.00000000000E+00 -0.81340283441E+00  0.81340283441E+00  0.00000000000E+00 0.  1.
          2    1    1    2  501    0  0.19965590938E+02  0.15744746707E+02  0.57867117152E+03  0.57922952845E+03  0.00000000000E+00 0.  1.
         21    1    1    2  503  501 -0.19965590938E+02 -0.15744746707E+02  0.30201742915E+03  0.30308587790E+03  0.00000000000E+00 0.  1.
</event>
<event>
 4    1  0.2239940E+005  0.3191471E+02  0.7546771E-02  0.1403656E+00
          2   -1    0    0  503    0  0.00000000000E+00  0.00000000000E+00  0.19557978239E+04  0.19557978239E+04  0.00000000000E+00 0.  1.
         21   -1    0    0  501  502 -0.00000000000E+00 -0.00000000000E+00 -0.84316391820E+01  0.84316391820E+01  0.00000000000E+00 0. -1.
          2    1    1    2  501    0  0.26117395062E+02  0.18342032928E+02  0.19249840456E+04  0.19252485877E+04  0.00000000000E+00 0.  1.
         21    1    1    2  503  502 -0.26117395062E+02 -0.18342032928E+02  0.22382139120E+02  0.38980875418E+02  0.00000000000E+00 0. -1.
</event>
<event>
 4    1  0.2239940E+005  0.2008903E+02  0.7546771E-02  0.1532679E+00
          2   -1    0    0  502    0  0.00000000000E+00  0.00000000000E+00  0.13184154323E+04  0.13184154323E+04  0.00000000000E+00 0.  1.
         21   -1    0    0  503  502 -0.00000000000E+00 -0.00000000000E+00 -0.87947105144E+01  0.87947105144E+01  0.00000000000E+00 0. -1.
          2    1    1    2  501    0  0.19925576166E+02 -0.25574415874E+01  0.13067647061E+04  0.13069191123E+04  0.00000000000E+00 0.  1.
         21    1    1    2  503  501 -0.19925576166E+02  0.25574415874E+01  0.28560157126E+01  0.20291030501E+02  0.00000000000E+00 0. -1.
</event>
<event>
 4    1  0.2239940E+005  0.2721205E+02  0.7546771E-02  0.1445490E+00
          2   -1    0    0  503    0  0.00000000000E+00  0.00000000000E+00  0.68488052257E+03  0.68488052257E+03  0.00000000000E+00 0.  1.
         21   -1    0    0  501  502 -0.00000000000E+00 -0.00000000000E+00 -0.44334572820E+01  0.44334572820E+01  0.00000000000E+00 0. -1.
          2    1    1    2  501    0  0.44976335593E+00 -0.27208331388E+02  0.63992180316E+03  0.64050012470E+03  0.00000000000E+00 0.  1.
         21    1    1    2  503  502 -0.44976335593E+00  0.27208331388E+02  0.40525262126E+02  0.48813855147E+02  0.00000000000E+00 0. -1.
</event>
<event>
 4    1  0.2239940E+005  0.5608124E+02  0.7546771E-02  0.1273762E+00
          2   -1    0    0  503    0  0.00000000000E+00  0.00000000000E+00  0.90709961600E+03  0.90709961600E+03  0.00000000000E+00 0. -1.
         21   -1    0    0  501  502 -0.00000000000E+00 -0.00000000000E+00 -0.74799210528E+01  0.74799210528E+01  0.00000000000E+00 0.  1.
          2    1    1    2  501    0  0.19953619081E+02 -0.52411435564E+02  0.78474588942E+03  0.78674723798E+03  0.00000000000E+00 0. -1.
         21    1    1    2  503  502 -0.19953619081E+02  0.52411435564E+02  0.11487380552E+03  0.12783229908E+03  0.00000000000E+00 0.  1.
</event>
<event>
 4    1  0.2239940E+005  0.2141070E+02  0.7546771E-02  0.1513481E+00
          2   -1    0    0  502    0  0.00000000000E+00  0.00000000000E+00  0.18727618844E+04  0.18727618844E+04  0.00000000000E+00 0.  1.
         21   -1    0    0  503  502 -0.00000000000E+00 -0.00000000000E+00 -0.47032314676E+00  0.47032314676E+00  0.00000000000E+00 0.  1.
          2    1    1    2  501    0 -0.20787343723E+02 -0.51287935376E+01  0.15847450394E+04  0.15848896675E+04  0.00000000000E+00 0.  1.
         21    1    1    2  503  501  0.20787343723E+02  0.51287935376E+01  0.28754652187E+03  0.28834254008E+03  0.00000000000E+00 0.  1.
</event>
<event>
 4    1  0.2239940E+005  0.2254894E+02  0.7546771E-02  0.1498241E+00
          2   -1    0    0  503    0  0.00000000000E+00  0.00000000000E+00  0.11877703678E+04  0.11877703678E+04  0.00000000000E+00 0.  1.
         21   -1    0    0  501  502 -0.00000000000E+00 -0.00000000000E+00 -0.11166021087E+02  0.11166021087E+02  0.00000000000E+00 0.  1.
          2    1    1    2  501    0  0.22413548936E+02 -0.24672983176E+01  0.11761670795E+04  0.11763832086E+04  0.00000000000E+00 0.  1.
         21    1    1    2  503  502 -0.22413548936E+02  0.24672983176E+01  0.43726724754E+00  0.22553180253E+02  0.00000000000E+00 0.  1.
</event>
<event>
 4    1  0.2239940E+005  0.2406728E+02  0.7546771E-02  0.1479514E+00
          2   -1    0    0  503    0  0.00000000000E+00  0.00000000000E+00  0.42067169883E+03  0.42067169883E+03  0.00000000000E+00 0. -1.
         21   -1    0    0  501  502 -0.00000000000E+00 -0.00000000000E+00 -0.88676541943E+02  0.88676541943E+02  0.00000000000E+00 0.  1.
          2    1    1    2  501    0  0.23031768681E+02 -0.69836815108E+01  0.41868673438E+03  0.41937789131E+03  0.00000000000E+00 0. -1.
         21    1    1    2  503  502 -0.23031768681E+02  0.69836815108E+01 -0.86691577486E+02  0.89970349467E+02  0.00000000000E+00 0.  1.
</event>
<event>
 4    1  0.2239940E+005  0.2550931E+02  0.7546771E-02  0.1463186E+00
          2   -1    0    0  503    0  0.00000000000E+00  0.00000000000E+00  0.37241362654E+03  0.37241362654E+03  0.00000000000E+00 0. -1.
         21   -1    0    0  501  502 -0.00000000000E+00 -0.00000000000E+00 -0.44943148167E+02  0.44943148167E+02  0.00000000000E+00 0.  1.
          2    1    1    2  501    0 -0.21371725492E+02 -0.13927471919E+02  0.36831687077E+03  0.36919919070E+03  0.00000000000E+00 0. -1.
         21    1    1    2  503  502  0.21371725492E+02  0.13927471919E+02 -0.40846392399E+02  0.48157583998E+02  0.00000000000E+00 0.  1.
</event>
<event>
 4    1  0.2239940E+005  0.2724486E+02  0.7546771E-02  0.1445164E+00
          2   -1    0    0  502    0  0.00000000000E+00  0.00000000000E+00  0.63120719744E+02  0.63120719744E+02  0.00000000000E+00 0. -1.
         21   -1    0    0  503  502 -0.00000000000E+00 -0.00000000000E+00 -0.11897220494E+03  0.11897220494E+03  0.00000000000E+00 0.  1.
          2    1    1    2  501    0  0.10435084352E+02  0.25167267885E+02  0.58503954244E+02  0.64536772621E+02  0.00000000000E+00 0. -1.
         21    1    1    2  503  501 -0.10435084352E+02 -0.25167267885E+02 -0.11435543944E+03  0.11755615206E+03  0.00000000000E+00 0.  1.
</event>
<event>
 4    1  0.2239940E+005  0.4506536E+02  0.7546771E-02  0.1321113E+00
          2   -1    0    0  502    0  0.00000000000E+00  0.00000000000E+00  0.62079587068E+03  0.62079587068E+03  0.00000000000E+00 0.  1.
         21   -1    0    0  503  502 -0.00000000000E+00 -0.00000000000E+00 -0.55803949665E+01  0.55803949665E+01  0.00000000000E+00 0.  1.
          2    1    1    2  501    0  0.45036125436E+02  0.16230885796E+01  0.50906456451E+03  0.51105539607E+03  0.00000000000E+00 0.  1.
         21    1    1    2  503  501 -0.45036125436E+02 -0.16230885796E+01  0.10615091120E+03  0.11532086957E+03  0.00000000000E+00 0.  1.
</event>
<event>
 4    1  0.2239940E+005  0.2678072E+02  0.7546771E-02  0.1449823E+00
          2   -1    0    0  503    0  0.00000000000E+00  0.00000000000E+00  0.46149626855E+02  0.46149626855E+02  0.00000000000E+00 0. -1.
         21   -1    0    0  501  502 -0.00000000000E+00 -0.00000000000E+00 -0.28093187413E+02  0.28093187413E+02  0.00000000000E+00 0. -1.
          2    1    1    2  501    0 -0.25259400785E+02 -0.88977434722E+01  0.33841558099E+02  0.43156207218E+02  0.00000000000E+00 0. -1.
         21    1    1    2  503  502  0.25259400785E+02  0.88977434722E+01 -0.15785118656E+02  0.31086607050E+02  0.00000000000E+00 0. -1.
</event>
<event>
 4    1  0.2239940E+005  0.6169672E+02  0.7546771E-02  0.1254174E+00
          2   -1    0    0  502    0  0.00000000000E+00  0.00000000000E+00  0.22165938042E+04  0.22165938042E+04  0.00000000000E+00 0. -1.
         21   -1    0    0  503  502 -0.00000000000E+00 -0.00000000000E+00 -0.12883365167E+02  0.12883365167E+02  0.00000000000E+00 0. -1.
          2    1    1    2  501    0 -0.86284528573E+01 -0.61090388523E+02  0.21396442488E+04  0.21405335777E+04  0.00000000000E+00 0. -1.
         21    1    1    2  503  501  0.86284528573E+01  0.61090388523E+02  0.64066190195E+02  0.88943591645E+02  0.00000000000E+00 0. -1.
</event>
<event>
 4    1  0.2239940E+005  0.2325361E+02  0.7546771E-02  0.1489338E+00
          2   -1    0    0  503    0  0.00000000000E+00  0.00000000000E+00  0.35805791355E+03  0.35805791355E+03  0.00000000000E+00 0.  1.
         21   -1    0    0  501  502 -0.00000000000E+00 -0.00000000000E+00 -0.19594637095E+01  0.19594637095E+01  0.00000000000E+00 0. -1.
          2    1    1    2  501    0 -0.20043655008E+02  0.11789081937E+02  0.26424520293E+03  0.26526639031E+03  0.00000000000E+00 0.  1.
         21    1    1    2  503  502  0.20043655008E+02 -0.11789081937E+02  0.91853246910E+02  0.94750986944E+02  0.00000000000E+00 0. -1.
</event>
<event>
 4    1  0.2593010E+005  0.2023716E+02  0.7546771E-02  0.1530441E+00
          2   -1    0    0  502    0  0.00000000000E+00  0.00000000000E+00  0.10020734780E+04  0.10020734780E+04  0.00000000000E+00 0. -1.
         21   -1    0    0  503  502 -0.00000000000E+00 -0.00000000000E+00 -0.37243892534E+02  0.37243892534E+02  0.00000000000E+00 0.  1.
          2    1    1    2  501    0  0.17356674777E+02  0.10406175956E+02  0.99921437979E+03  0.99941929110E+03  0.00000000000E+00 0. -1.
         21    1    1    2  503  501 -0.17356674777E+02 -0.10406175956E+02 -0.34384794350E+02  0.39898079401E+02  0.00000000000E+00 0.  1.
</event>
<event>
 4    1  0.2239940E+005  0.2271488E+02  0.7546771E-02  0.1496110E+00
          2   -1    0    0  503    0  0.00000000000E+00  0.00000000000E+00  0.46790097881E+03  0.46790097881E+03  0.00000000000E+00 0.  1.
         21   -1    0    0  501  502 -0.00000000000E+00 -0.00000000000E+00 -0.12784770964E+02  0.12784770964E+02  0.00000000000E+00 0. -1.
          2    1    1    2  501    0  0.23638391940E+01  0.22591546812E+02  0.45730213993E+03  0.45786593334E+03  0.00000000000E+00 0.  1.
         21    1    1    2  503  502 -0.23638391940E+01 -0.22591546812E+02 -0.21859320885E+01  0.22819816436E+02  0.00000000000E+00 0. -1.
</event>
<event>
 4    1  0.2239940E+005  0.2087620E+02  0.7546771E-02  0.1521040E+00
          2   -1    0    0  502    0  0.00000000000E+00  0.00000000000E+00  0.15047635932E+04  0.15047635932E+04  0.00000000000E+00 0. -1.
         21   -1    0    0  503  502 -0.00000000000E+00 -0.00000000000E+00 -0.78388984131E+01  0.78388984131E+01  0.00000000000E+00 0. -1.
          2    1    1    2  501    0 -0.20793074856E+02 -0.18610981377E+01  0.14906605593E+04  0.14908067342E+04  0.00000000000E+00 0. -1.
         21    1    1    2  503  501  0.20793074856E+02  0.18610981377E+01  0.62641354848E+01  0.21795757423E+02  0.00000000000E+00 0. -1.
</event>
<event>
 4    1  0.2239940E+005  0.2538000E+02  0.7546771E-02  0.1464597E+00
          2   -1    0    0  503    0  0.00000000000E+00  0.00000000000E+00  0.50834652108E+03  0.50834652108E+03  0.00000000000E+00 0. -1.
         21   -1    0    0  501  502 -0.00000000000E+00 -0.00000000000E+00 -0.19987033583E+02  0.19987033583E+02  0.00000000000E+00 0. -1.
          2    1    1    2  501    0  0.17262819420E+02  0.18604817433E+02  0.49983560941E+03  0.50047955063E+03  0.00000000000E+00 0. -1.
         21    1    1    2  503  502 -0.17262819420E+02 -0.18604817433E+02 -0.11476121917E+02  0.27854004027E+02  0.00000000000E+00 0. -1.
</event>
<event>
 4    1  0.2239940E+005  0.2166033E+02  0.7546771E-02  0.1510042E+00
          2   -1    0    0  502    0  0.00000000000E+00  0.00000000000E+00  0.18138661055E+04  0.18138661055E+04  0.00000000000E+00 0.  1.
         21   -1    0    0  503  502 -0.00000000000E+00 -0.00000000000E+00 -0.38188126399E+00  0.38188126399E+00  0.00000000000E+00 0.  1.
          2    1    1    2  501    0  0.46133140816E+01  0.21163346486E+02  0.14220299354E+04  0.14221948906E+04  0.00000000000E+00 0.  1.
         21    1    1    2  503  501 -0.46133140816E+01 -0.21163346486E+02  0.39145428886E+03  0.39205309610E+03  0.00000000000E+00 0.  1.
</event>
<event>
 4    1  0.2239940E+005  0.2251966E+02  0.7546771E-02  0.1498619E+00
          2   -1    0    0  503    0  0.00000000000E+00  0.00000000000E+00  0.44529636526E+03  0.44529636526E+03  0.00000000000E+00 0.  1.
         21   -1    0    0  501  502 -0.00000000000E+00 -0.00000000000E+00 -0.50409321997E+02  0.50409321997E+02  0.00000000000E+00 0.  1.
          2    1    1    2  501    0  0.10610892182E+02  0.19863136644E+02  0.44248056608E+03  0.44305325480E+03  0.00000000000E+00 0.  1.
         21    1    1    2  503  502 -0.10610892182E+02 -0.19863136644E+02 -0.47593522814E+02  0.52652432461E+02  0.00000000000E+00 0.  1.
</event>
<event>
 4    1  0.2239940E+005  0.3275538E+02  0.7546771E-02  0.1397070E+00
          2   -1    0    0  503    0  0.00000000000E+00  0.00000000000E+00  0.64517866667E+03  0.64517866667E+03  0.00000000000E+00 0.  1.
         21   -1    0    0  501  502 -0.00000000000E+00 -0.00000000000E+00 -0.17718982639E+01  0.17718982639E+01  0.00000000000E+00 0.  1.
          2    1    1    2  501    0 -0.65602764626E+00  0.32748806262E+02  0.40190554671E+03  0.40323812216E+03  0.00000000000E+00 0.  1.
         21    1    1    2  503  502  0.65602764626E+00 -0.32748806262E+02  0.24150122169E+03  0.24371244277E+03  0.00000000000E+00 0.  1.
</event>
<event>
 4    1  0.2239940E+005  0.5744499E+02  0.7546771E-02  0.1268770E+00
          2   -1    0    0  502    0  0.00000000000E+00  0.00000000000E+00  0.13464102500E+03  0.13464102500E+03  0.00000000000E+00 0. -1.
         21   -1    0    0  503  502 -0.00000000000E+00 -0.00000000000E+00 -0.41281440946E+02  0.41281440946E+02  0.00000000000E+00 0.  1.
          2    1    1    2  501    0  0.54644599581E+02 -0.17717056802E+02  0.10274728123E+03  0.11771546273E+03  0.00000000000E+00 0. -1.
         21    1    1    2  503  501 -0.54644599581E+02  0.17717056802E+02 -0.93876971768E+01  0.58207003216E+02  0.00000000000E+00 0.  1.
</event>
<event>
 4    1  0.2239940E+005  0.2806891E+02  0.7546771E-02  0.1437156E+00
          2   -1    0    0  503    0  0.00000000000E+00  0.00000000000E+00  0.31616214676E+02  0.31616214676E+02  0.00000000000E+00 0. -1.
         21   -1    0    0  501  502 -0.00000000000E+00 -0.00000000000E+00 -0.13891160732E+03  0.13891160732E+03  0.00000000000E+00 0. -1.
          2    1    1    2  501    0 -0.22896963994E+02  0.16235544190E+02  0.23590683619E+02  0.36665845264E+02  0.00000000000E+00 0. -1.
         21    1    1    2  503  502  0.22896963994E+02 -0.16235544190E+02 -0.13088607626E+03  0.13386197673E+03  0.00000000000E+00 0. -1.
</event>
<event>
 4    1  0.2239940E+005  0.2115186E+02  0.7546771E-02  0.1517108E+00
          2   -1    0    0  502    0  0.00000000000E+00  0.00000000000E+00  0.98832430131E+03  0.98832430131E+03  0.00000000000E+00 0.  1.
         21   -1    0    0  503  502 -0.00000000000E+00 -0.00000000000E+00 -0.70748741545E+01  0.70748741545E+01  0.00000000000E+00 0.  1.
          2    1    1    2  501    0  0.12592139626E+02 -0.16995271448E+02  0.97213842410E+03  0.97236850877E+03  0.00000000000E+00 0.  1.
         21    1    1    2  503  501 -0.12592139626E+02  0.16995271448E+02  0.91110030606E+01  0.23030666702E+02  0.00000000000E+00 0.  1.
</event>
<event>
 4    1  0.2239940E+005  0.3439169E+02  0.7546771E-02  0.1384891E+00
          2   -1    0    0  503    0  0.00000000000E+00  0.00000000000E+00  0.14696742285E+04  0.14696742285E+04  0.00000000000E+00 0. -1.
         21   -1    0    0  501  502 -0.00000000000E+00 -0.00000000000E+00 -0.40289955680E+01  0.40289955680E+01  0.00000000000E+00 0. -1.
          2    1    1    2  501    0 -0.86095576769E+01  0.33296603261E+02  0.13919852584E+04  0.13924100502E+04  0.00000000000E+00 0. -1.
         21    1    1    2  503  502  0.86095576769E+01 -0.33296603261E+02  0.73659974617E+02  0.81293173961E+02  0.00000000000E+00 0. -1.
</event>
<event>
 4    1  0.2239940E+005  0.3011512E+02  0.7546771E-02  0.1418599E+00
          2   -1    0    0  503    0  0.00000000000E+00  0.00000000000E+00  0.29017395443E+02  0.29017395443E+02  0.00000000000E+00 0.  1.
         21   -1    0    0  501  502 -0.00000000000E+00 -0.00000000000E+00 -0.31406396404E+02  0.31406396404E+02  0.00000000000E+00 0.  1.
          2    1    1    2  501    0  0.28940256554E+02 -0.83295856271E+01  0.90747107876E+00  0.30128789387E+02  0.00000000000E+00 0.  1.
         21    1    1    2  503  502 -0.28940256554E+02  0.83295856271E+01 -0.32964720405E+01  0.30295002460E+02  0.00000000000E+00 0.  1.
</event>
<event>
 4    1  0.2239940E+005  0.2180664E+02  0.7546771E-02  0.1508053E+00
          2   -1    0    0  503    0  0.00000000000E+00  0.00000000000E+00  0.53163871233E+03  0.53163871233E+03  0.00000000000E+00 0. -1.
         21   -1    0    0  501  502 -0.00000000000E+00 -0.00000000000E+00 -0.61214002376E+01  0.61214002376E+01  0.00000000000E+00 0.  1.
          2    1    1    2  501    0  0.79124228056E+01  0.20320510556E+02  0.51121893471E+03  0.51168381721E+03  0.00000000000E+00 0. -1.
         21    1    1    2  503  502 -0.79124228056E+01 -0.20320510556E+02  0.14298377377E+02  0.26076295357E+02  0.00000000000E+00 0.  1.
</event>
<event>
 4    1  0.2239940E+005  0.2237335E+02  0.7546771E-02  0.1500521E+00
          2   -1    0    0  503    0  0.00000000000E+00  0.00000000000E+00  0.10977045610E+02  0.10977045610E+02  0.00000000000E+00 0.  1.
         21   -1    0    0  501  502 -0.00000000000E+00 -0.00000000000E+00 -0.46804233787E+02  0.46804233787E+02  0.00000000000E+00 0. -1.
          2    1    1    2  501    0 -0.86100768828E+01 -0.20650262151E+02 -0.13281806964E+02  0.26018707636E+02  0.00000000000E+00 0.  1.
         21    1    1    2  503  502  0.86100768828E+01  0.20650262151E+02 -0.22545381213E+02  0.31762571761E+02  0.00000000000E+00 0. -1.
</event>
<event>
 4    1  0.2239940E+005  0.4118731E+02  0.7546771E-02  0.1341665E+00
          2   -1    0    0  502    0  0.00000000000E+00  0.00000000000E+00  0.38991876300E+02  0.38991876300E+02  0.00000000000E+00 0. -1.
         21   -1    0    0  503  502 -0.00000000000E+00 -0.00000000000E+00 -0.46050998376E+03  0.46050998376E+03  0.00000000000E+00 0.  1.
          2    1    1    2  501    0  0.89460241860E+01  0.40204021122E+02  0.26901717917E+02  0.49194482312E+02  0.00000000000E+00 0. -1.
         21    1    1    2  503  501 -0.89460241860E+01 -0.40204021122E+02 -0.44841982538E+03  0.45030737775E+03  0.00000000000E+00 0.  1.
</event>
<event>
 4    1  0.2239940E+005  0.5026920E+02  0.7546771E-02  0.1297009E+00
          2   -1    0    0  503    0  0.00000000000E+00  0.00000000000E+00  0.60520102840E+02  0.60520102840E+02  0.00000000000E+00 0. -1.
         21   -1    0    0  501  502 -0.00000000000E+00 -0.00000000000E+00 -0.16384486854E+03  0.16384486854E+03  0.00000000000E+00 0. -1.
          2    1    1    2  501    0 -0.16453320139E+02 -0.47500322739E+02  0.45176365908E+02  0.67586214870E+02  0.00000000000E+00 0. -1.
         21    1    1    2  503  502  0.16453320139E+02  0.47500322739E+02 -0.14850113161E+03  0.15677875651E+03  0.00000000000E+00 0. -1.
</event>
<event>
 4    1  0.2239940E+005  0.2264197E+02  0.7546771E-02  0.1497043E+00
          2   -1    0    0  502    0  0.00000000000E+00  0.00000000000E+00  0.11153596011E+04  0.11153596011E+04  0.00000000000E+00 0. -1.
         21   -1    0    0  503  502 -0.00000000000E+00 -0.00000000000E+00 -0.65342840034E+02  0.65342840034E+02  0.00000000000E+00 0.  1.
          2    1    1    2  501    0  0.61113470930E+01 -0.21801615014E+02  0.11132796081E+04  0.11135098315E+04  0.00000000000E+00 0. -1.
         21    1    1    2  503  501 -0.61113470930E+01  0.21801615014E+02 -0.63262847024E+02  0.67192609669E+02  0.00000000000E+00 0.  1.
</event>
<event>
 4    1  0.2239940E+005  0.2258789E+02  0.7546771E-02  0.1497739E+00
          2   -1    0    0  503    0  0.00000000000E+00  0.00000000000E+00  0.17656429933E+03  0.17656429933E+03  0.00000000000E+00 0. -1.
         21   -1    0    0  501  502 -0.00000000000E+00 -0.00000000000E+00 -0.19662474106E+02  0.19662474106E+02  0.00000000000E+00 0. -1.
          2    1    1    2  501    0 -0.12814646287E+02 -0.18601007680E+02  0.16906840005E+03  0.17057062039E+03  0.00000000000E+00 0. -1.
         21    1    1    2  503  502  0.12814646287E+02  0.18601007680E+02 -0.12166574822E+02  0.25656153046E+02  0.00000000000E+00 0. -1.
</event>
<event>
 4    1  0.2239940E+005  0.2814770E+02  0.7546771E-02  0.1436408E+00
          2   -1    0    0  503    0  0.00000000000E+00  0.00000000000E+00  0.69264761103E+02  0.69264761103E+02  0.00000000000E+00 0.  1.
         21   -1    0    0  501  502 -0.00000000000E+00 -0.00000000000E+00 -0.63928233417E+02  0.63928233417E+02  0.00000000000E+00 0.  1.
          2    1    1    2  501    0  0.14879757374E+02  0.23893217615E+02  0.63013325870E+02  0.69014290293E+02  0.00000000000E+00 0.  1.
         21    1    1    2  503  502 -0.14879757374E+02 -0.23893217615E+02 -0.57676798184E+02  0.64178704227E+02  0.00000000000E+00 0.  1.
</event>
<event>
 4    1  0.2239940E+005  0.4981488E+02  0.7546771E-02  0.1298977E+00
          2   -1    0    0  503    0  0.00000000000E+00  0.00000000000E+00  0.10593367884E+04  0.10593367884E+04  0.00000000000E+00 0.  1.
         21   -1    0    0  501  502 -0.00000000000E+00 -0.00000000000E+00 -0.49772516777E+01  0.49772516777E+01  0.00000000000E+00 0. -1.
          2    1    1    2  501    0 -0.19065097811E+02 -0.46022213909E+02  0.91435970112E+03  0.91571566830E+03  0.00000000000E+00 0.  1.
         21    1    1    2  503  502  0.19065097811E+02  0.46022213909E+02  0.13999983558E+03  0.14859837177E+03  0.00000000000E+00 0. -1.
</event>
<event>
 4    1  0.2239940E+005  0.2272442E+02  0.7546771E-02  0.1495988E+00
          2   -1    0    0  503    0  0.00000000000E+00  0.00000000000E+00  0.48182827724E+02  0.48182827724E+02  0.00000000000E+00 0.  1.
         21   -1    0    0  501  502 -0.00000000000E+00 -0.00000000000E+00 -0.65347958748E+03  0.65347958748E+03  0.00000000000E+00 0. -1.
          2    1    1    2  501    0 -0.22513301422E+02 -0.30904137935E+01  0.45294001805E+02  0.50674905011E+02  0.00000000000E+00 0.  1.
         21    1    1    2  503  502  0.22513301422E+02  0.30904137935E+01 -0.65059076156E+03  0.65098751019E+03  0.00000000000E+00 0. -1.
</event>
<event>
 4    1  0.2239940E+005  0.2280599E+02  0.7546771E-02  0.1494949E+00
          2   -1    0    0  503    0  0.00000000000E+00  0.00000000000E+00  0.16749639367E+04  0.16749639367E+04  0.00000000000E+00 0. -1.
         21   -1    0    0  501  502 -0.00000000000E+00 -0.00000000000E+00 -0.40124218075E+00  0.40124218075E+00  0.00000000000E+00 0. -1.
          2    1    1    2  501    0  0.14938808907E+02  0.17232091097E+02  0.12355979447E+04  0.12358083970E+04  0.00000000000E+00 0. -1.
         21    1    1    2  503  502 -0.14938808907E+02 -0.17232091097E+02  0.43896474972E+03  0.43955678186E+03  0.00000000000E+00 0. -1.
</event>
<event>
 4    1  0.2239940E+005  0.4697873E+02  0.7546771E-02  0.1311831E+00
          2   -1    0    0  503    0  0.00000000000E+00  0.00000000000E+00  0.23334827854E+04  0.23334827854E+04  0.00000000000E+00 0. -1.
         21   -1    0    0  501  502 -0.00000000000E+00 -0.00000000000E+00 -0.16171144960E+01  0.16171144960E+01  0.00000000000E+00 0.  1.
          2    1    1    2  501    0 -0.28734680389E+02 -0.37166103517E+02  0.19181947155E+04  0.19187699100E+04  0.00000000000E+00 0. -1.
         21    1    1    2  503  502  0.28734680389E+02  0.37166103517E+02  0.41367095544E+03  0.41632998989E+03  0.00000000000E+00 0.  1.
</event>
<event>
 4    1  0.2239940E+005  0.3214487E+02  0.7546771E-02  0.1401829E+00
          2   -1    0    0  503    0  0.00000000000E+00  0.00000000000E+00  0.10873961190E+04  0.10873961190E+04  0.00000000000E+00 0.  1.
         21   -1    0    0  501  502 -0.00000000000E+00 -0.00000000000E+00 -0.10492422025E+01  0.10492422025E+01  0.00000000000E+00 0.  1.
          2    1    1    2  501    0  0.26880730366E+02 -0.17627216284E+02  0.71034055074E+03  0.71106750062E+03  0.00000000000E+00 0.  1.
         21    1    1    2  503  502 -0.26880730366E+02  0.17627216284E+02  0.37600632603E+03  0.37737786055E+03  0.00000000000E+00 0.  1.
</event>
<event>
 4    1  0.2239940E+005  0.2109615E+02  0.7546771E-02  0.1517896E+00
          2   -1    0    0  503    0  0.00000000000E+00  0.00000000000E+00  0.48021704134E+03  0.48021704134E+03  0.00000000000E+00 0. -1.
         21   -1    0    0  501  502 -0.00000000000E+00 -0.00000000000E+00 -0.28005871859E+01  0.28005871859E+01  0.00000000000E+00 0.  1.
          2    1    1    2  501    0  0.13762485854E+02  0.15988799412E+02  0.43625629004E+03  0.43676606819E+03  0.00000000000E+00 0. -1.
         21    1    1    2  503  502 -0.13762485854E+02 -0.15988799412E+02  0.41160164113E+02  0.46251560334E+02  0.00000000000E+00 0.  1.
</event>
<event>
 4    1  0.2239940E+005  0.2467096E+02  0.7546771E-02  0.1472518E+00
          2   -1    0    0  503    0  0.00000000000E+00  0.00000000000E+00  0.80689604610E+03  0.80689604610E+03  0.00000000000E+00 0. -1.
         21   -1    0    0  501  502 -0.00000000000E+00 -0.00000000000E+00 -0.10530484051E+01  0.10530484051E+01  0.00000000000E+00 0.  1.
          2    1    1    2  501    0 -0.20218881567E+02  0.14136943659E+02  0.61808540836E+03  0.61857758476E+03  0.00000000000E+00 0. -1.
         21    1    1    2  503  502  0.20218881567E+02 -0.14136943659E+02  0.18775758933E+03  0.18937150974E+03  0.00000000000E+00 0.  1.
</event>
<event>
 4    1  0.2239940E+005  0.2113628E+02  0.7546771E-02  0.1517328E+00
          2   -1    0    0  502    0  0.00000000000E+00  0.00000000000E+00  0.21265153468E+02  0.21265153468E+02  0.00000000000E+00 0. -1.
         21   -1    0    0  503  502 -0.00000000000E+00 -0.00000000000E+00 -0.18212059051E+03  0.18212059051E+03  0.00000000000E+00 0.  1.
          2    1    1    2  501    0  0.20607812349E+02 -0.46968497813E+01  0.15220189498E+02  0.26046045689E+02  0.00000000000E+00 0. -1.
         21    1    1    2  503  501 -0.20607812349E+02  0.46968497813E+01 -0.17607562654E+03  0.17733969829E+03  0.00000000000E+00 0.  1.
</event>
<event>
 4    1  0.2239940E+005  0.2501429E+02  0.7546771E-02  0.1468644E+00
          2   -1    0    0  503    0  0.00000000000E+00  0.00000000000E+00  0.33106171034E+03  0.33106171034E+03  0.00000000000E+00 0.  1.
         21   -1    0    0  501  502 -0.00000000000E+00 -0.00000000000E+00 -0.24192946712E+01  0.24192946712E+01  0.00000000000E+00 0.  1.
          2    1    1    2  501    0 -0.16446737840E+02  0.18847273761E+02  0.86331872350E+02  0.89882740819E+02  0.00000000000E+00 0.  1.
         21    1    1    2  503  502  0.16446737840E+02 -0.18847273761E+02  0.24231054332E+03  0.24359826420E+03  0.00000000000E+00 0.  1.
</event>
<event>
 4    1  0.2239940E+005  0.4766804E+02  0.7546771E-02  0.1308612E+00
          2   -1    0    0  503    0  0.00000000000E+00  0.00000000000E+00  0.53008839866E+03  0.53008839866E+03  0.00000000000E+00 0.  1.
         21   -1    0    0  501  502 -0.00000000000E+00 -0.00000000000E+00 -0.57817966100E+01  0.57817966100E+01  0.00000000000E+00 0. -1.
          2    1    1    2  501    0 -0.21481044150E+01 -0.47619618610E+02  0.39840966819E+03  0.40125117587E+03  0.00000000000E+00 0.  1.
         21    1    1    2  503  502  0.21481044150E+01  0.47619618610E+02  0.12589693386E+03  0.13461901940E+03  0.00000000000E+00 0. -1.
</event>
<event>
 4    1  0.2239940E+005  0.3887985E+02  0.7546771E-02  0.1355178E+00
          2   -1    0    0  503    0  0.00000000000E+00  0.00000000000E+00  0.35979493558E+03  0.35979493558E+03  0.00000000000E+00 0.  1.
         21   -1    0    0  501  502 -0.00000000000E+00 -0.00000000000E+00 -0.83226681663E+03  0.83226681663E+03  0.00000000000E+00 0.  1.
          2    1    1    2  501    0  0.27783367196E+00 -0.38878854871E+02  0.35828860817E+03  0.36039196618E+03  0.00000000000E+00 0.  1.
         21    1    1    2  503  502 -0.27783367196E+00  0.38878854871E+02 -0.83076048922E+03  0.83166978603E+03  0.00000000000E+00 0.  1.
</event>
<event>
 4    1  0.2239940E+005  0.3007110E+02  0.7546771E-02  0.1418980E+00
          2   -1    0    0  503    0  0.00000000000E+00  0.00000000000E+00  0.35185008576E+02  0.35185008576E+02  0.00000000000E+00 0. -1.
         21   -1    0    0  501  502 -0.00000000000E+00 -0.00000000000E+00 -0.42621658987E+03  0.42621658987E+03  0.00000000000E+00 0. -1.
          2    1    1    2  501    0 -0.16516229646E+02 -0.25129365982E+02  0.28121349554E+02  0.41171363557E+02  0.00000000000E+00 0. -1.
         21    1    1    2  503  502  0.16516229646E+02  0.25129365982E+02 -0.41915293085E+03  0.42023023489E+03  0.00000000000E+00 0. -1.
</event>
<event>
 4    1  0.2239940E+005  0.3330414E+02  0.7546771E-02  0.1392894E+00
          2   -1    0    0  503    0  0.00000000000E+00  0.00000000000E+00  0.16973852332E+02  0.16973852332E+02  0.00000000000E+00 0. -1.
         21   -1    0    0  501  502 -0.00000000000E+00 -0.00000000000E+00 -0.84783236153E+02  0.84783236153E+02  0.00000000000E+00 0.  1.
          2    1    1    2  501    0  0.98442973081E+00 -0.33289583595E+02 -0.95432987031E+01  0.34644480483E+02  0.00000000000E+00 0. -1.
         21    1    1    2  503  502 -0.98442973081E+00  0.33289583595E+02 -0.58266085118E+02  0.67112608002E+02  0.00000000000E+00 0.  1.
</event>
<event>
 4    1  0.2239940E+005  0.2064382E+02  0.7546771E-02  0.1524411E+00
          2   -1    0    0  503    0  0.00000000000E+00  0.00000000000E+00  0.13066559199E+03  0.13066559199E+03  0.00000000000E+00 0.  1.
         21   -1    0    0  501  502 -0.00000000000E+00 -0.00000000000E+00 -0.35264279006E+01  0.35264279006E+01  0.00000000000E+00 0. -1.
          2    1    1    2  501    0 -0.11948152067E+02  0.16834757388E+02  0.81959645014E+02  0.84519529133E+02  0.00000000000E+00 0.  1.
         21    1    1    2  503  502  0.11948152067E+02 -0.16834757388E+02  0.45179519071E+02  0.49672490753E+02  0.00000000000E+00 0. -1.
</event>
<event>
 4    1  0.2239940E+005  0.4780264E+02  0.7546771E-02  0.1307991E+00
          2   -1    0    0  502    0  0.00000000000E+00  0.00000000000E+00  0.12182784097E+04  0.12182784097E+04  0.00000000000E+00 0.  1.
         21   -1    0    0  503  502 -0.00000000000E+00 -0.00000000000E+00 -0.29036184884E+03  0.29036184884E+03  0.00000000000E+00 0. -1.
          2    1    1    2  501    0  0.24261723736E+02 -0.41188115257E+02  0.12158380920E+04  0.12167774481E+04  0.00000000000E+00 0.  1.
         21    1    1    2  503  501 -0.24261723736E+02  0.41188115257E+02 -0.28792153113E+03  0.29186281052E+03  0.00000000000E+00 0. -1.
</event>
<event>
 4    1  0.2239940E+005  0.2208508E+02  0.7546771E-02  0.1504318E+00
          2   -1    0    0  503    0  0.00000000000E+00  0.00000000000E+00  0.11940288198E+04  0.11940288198E+04  0.00000000000E+00 0. -1.
         21   -1    0    0  501  502 -0.00000000000E+00 -0.00000000000E+00 -0.44554347117E+00  0.44554347117E+00  0.00000000000E+00 0. -1.
          2    1    1    2  501    0 -0.16308258311E+02 -0.14892668708E+02  0.76902062351E+03  0.76933768286E+03  0.00000000000E+00 0. -1.
         21    1    1    2  503  502  0.16308258311E+02  0.14892668708E+02  0.42456265283E+03  0.42513668043E+03  0.00000000000E+00 0. -1.
</event>
<event>
 4    1  0.2239940E+005  0.2166558E+02  0.7546771E-02  0.1509971E+00
          2   -1    0    0  503    0  0.00000000000E+00  0.00000000000E+00  0.26606488253E+04  0.26606488253E+04  0.00000000000E+00 0.  1.
         21   -1    0    0  501  502 -0.00000000000E+00 -0.00000000000E+00 -0.17835354221E+00  0.17835354221E+00  0.00000000000E+00 0.  1.
          2    1    1    2  501    0  0.21617439810E+02  0.14434510124E+01  0.11917872661E+04  0.11919841798E+04  0.00000000000E+00 0.  1.
         21    1    1    2  503  502 -0.21617439810E+02 -0.14434510124E+01  0.14686832056E+04  0.14688429990E+04  0.00000000000E+00 0.  1.
</event>
<event>
 4    1  0.2239940E+005  0.4769627E+02  0.7546771E-02  0.1308482E+00
          2   -1    0    0  502    0  0.00000000000E+00  0.00000000000E+00  0.12420398644E+03  0.12420398644E+03  0.00000000000E+00 0.  1.
         21   -1    0    0  503  502 -0.00000000000E+00 -0.00000000000E+00 -0.54795381849E+02  0.54795381849E+02  0.00000000000E+00 0.  1.
          2    1    1    2  501    0  0.12261903747E+02  0.46093170292E+02  0.10772947087E+03  0.11781584581E+03  0.00000000000E+00 0.  1.
         21    1    1    2  503  501 -0.12261903747E+02 -0.46093170292E+02 -0.38320866274E+02  0.61183522480E+02  0.00000000000E+00 0.  1.
</event>
<event>
 4    1  0.2239940E+005  0.3670093E+02  0.7546771E-02  0.1368984E+00
          2   -1    0    0  503    0  0.00000000000E+00  0.00000000000E+00  0.13503416032E+04  0.13503416032E+04  0.00000000000E+00 0. -1.
         21   -1    0    0  501  502 -0.00000000000E+00 -0.00000000000E+00 -0.10345819442E+01  0.10345819442E+01  0.00000000000E+00 0.  1.
          2    1    1    2  501    0  0.33874243585E+02 -0.14124219630E+02  0.54672161112E+03  0.54795207639E+03  0.00000000000E+00 0. -1.
         21    1    1    2  503  502 -0.33874243585E+02  0.14124219630E+02  0.80258541017E+03  0.80342410879E+03  0.00000000000E+00 0.  1.
</event>
<event>
 4    1  0.2239940E+005  0.3163620E+02  0.7546771E-02  0.1405891E+00
          2   -1    0    0  503    0  0.00000000000E+00  0.00000000000E+00  0.29400950249E+04  0.29400950249E+04  0.00000000000E+00 0. -1.
         21   -1    0    0  501  502 -0.00000000000E+00 -0.00000000000E+00 -0.34050829414E+00  0.34050829414E+00  0.00000000000E+00 0.  1.
          2    1    1    2  501    0  0.20821943406E+02 -0.23817979009E+02  0.14943455953E+04  0.14946804367E+04  0.00000000000E+00 0. -1.
         21    1    1    2  503  502 -0.20821943406E+02  0.23817979009E+02  0.14454089213E+04  0.14457550966E+04  0.00000000000E+00 0.  1.
</event>
<event>
 4    1  0.2239940E+005  0.2020662E+02  0.7546771E-02  0.1530900E+00
          2   -1    0    0  503    0  0.00000000000E+00  0.00000000000E+00  0.26856892537E+01  0.26856892537E+01  0.00000000000E+00 0.  1.
         21   -1    0    0  501  502 -0.00000000000E+00 -0.00000000000E+00 -0.16424508734E+03  0.16424508734E+03  0.00000000000E+00 0.  1.
          2    1    1    2  501    0 -0.67514920690E+01  0.19045334077E+02 -0.10354088513E+03  0.10549418130E+03  0.00000000000E+00 0.  1.
         21    1    1    2  503  502  0.67514920690E+01 -0.19045334077E+02 -0.58018512954E+02  0.61436595288E+02  0.00000000000E+00 0.  1.
</event>
<event>
 4    1  0.2239940E+005  0.8033261E+02  0.7546771E-02  0.1203078E+00
          2   -1    0    0  502    0  0.00000000000E+00  0.00000000000E+00  0.14155574217E+04  0.14155574217E+04  0.00000000000E+00 0. -1.
         21   -1    0    0  503  502 -0.00000000000E+00 -0.00000000000E+00 -0.13038881250E+02  0.13038881250E+02  0.00000000000E+00 0. -1.
          2    1    1    2  501    0  0.69424917271E+02  0.40416698780E+02  0.12773061402E+04  0.12798297951E+04  0.00000000000E+00 0. -1.
         21    1    1    2  503  501 -0.69424917271E+02 -0.40416698780E+02  0.12521240029E+03  0.14876650787E+03  0.00000000000E+00 0. -1.
</event>
<event>
 4    1  0.2239940E+005  0.2164835E+02  0.7546771E-02  0.1510206E+00
          2   -1    0    0  503    0  0.00000000000E+00  0.00000000000E+00  0.31607932980E+03  0.31607932980E+03  0.00000000000E+00 0. -1.
         21   -1    0    0  501  502 -0.00000000000E+00 -0.00000000000E+00 -0.16433225371E+02  0.16433225371E+02  0.00000000000E+00 0.  1.
          2    1    1    2  501    0 -0.19115171735E+02  0.10161753585E+02  0.30840175639E+03  0.30916062875E+03  0.00000000000E+00 0. -1.
         21    1    1    2  503  502  0.19115171735E+02 -0.10161753585E+02 -0.87556519580E+01  0.23351926421E+02  0.00000000000E+00 0.  1.
</event>
<event>
 4    1  0.2239940E+005  0.2126032E+02  0.7546771E-02  0.1515580E+00
          2   -1    0    0  503    0  0.00000000000E+00  0.00000000000E+00  0.77873653278E+03  0.77873653278E+03  0.00000000000E+00 0.  1.
         21   -1    0    0  501  502 -0.00000000000E+00 -0.00000000000E+00 -0.79868452555E+01  0.79868452555E+01  0.00000000000E+00 0. -1.
          2    1    1    2  501    0  0.13636663877E+02  0.16310807970E+02  0.76417355362E+03  0.76446924144E+03  0.00000000000E+00 0.  1.
         21    1    1    2  503  502 -0.13636663877E+02 -0.16310807970E+02  0.65761339022E+01  0.22254136591E+02  0.00000000000E+00 0. -1.
</event>
<event>
 4    1  0.2239940E+005  0.2619643E+02  0.7546771E-02  0.1455851E+00
          2   -1    0    0  502    0  0.00000000000E+00  0.00000000000E+00  0.81931434344E+03  0.81931434344E+03  0.00000000000E+00 0. -1.
         21   -1    0    0  503  502 -0.00000000000E+00 -0.00000000000E+00 -0.12348853558E+01  0.12348853558E+01  0.00000000000E+00 0. -1.
          2    1    1    2  501    0  0.26099853705E+02  0.22473267360E+01  0.64175015539E+03  0.64228460575E+03  0.00000000000E+00 0. -1.
         21    1    1    2  503  501 -0.26099853705E+02 -0.22473267360E+01  0.17632930269E+03  0.17826462305E+03  0.00000000000E+00 0. -1.
</event>
<event>
 4    1  0.2239940E+005  0.2070179E+02  0.7546771E-02  0.1523565E+00
          2   -1    0    0  503    0  0.00000000000E+00  0.00000000000E+00  0.21140433312E+02  0.21140433312E+02  0.00000000000E+00 0. -1.
         21   -1    0    0  501  502 -0.00000000000E+00 -0.00000000000E+00 -0.47046197551E+02  0.47046197551E+02  0.00000000000E+00 0. -1.
          2    1    1    2  501    0 -0.30622855497E+01 -0.20474048636E+02  0.12766654168E+02  0.24321836258E+02  0.00000000000E+00 0. -1.
         21    1    1    2  503  502  0.30622855497E+01  0.20474048636E+02 -0.38672418407E+02  0.43864794606E+02  0.00000000000E+00 0. -1.
</event>
<event>
 4    1  0.2239940E+005  0.2034363E+02  0.7546771E-02  0.1528846E+00
          2   -1    0    0  503    0  0.00000000000E+00  0.00000000000E+00  0.67018883427E+02  0.67018883427E+02  0.00000000000E+00 0. -1.
         21   -1    0    0  501  502 -0.00000000000E+00 -0.00000000000E+00 -0.14756357408E+02  0.14756357408E+02  0.00000000000E+00 0. -1.
          2    1    1    2  501    0  0.17833218427E+02 -0.97897639288E+01  0.57310975841E+02  0.60814563297E+02  0.00000000000E+00 0. -1.
         21    1    1    2  503  502 -0.17833218427E+02  0.97897639288E+01 -0.50484498222E+01  0.20960677538E+02  0.00000000000E+00 0. -1.
</event>
<event>
 4    1  0.2239940E+005  0.2367663E+02  0.7546771E-02  0.1484172E+00
          2   -1    0    0  503    0  0.00000000000E+00  0.00000000000E+00  0.11210430330E+04  0.11210430330E+04  0.00000000000E+00 0.  1.
         21   -1    0    0  501  502 -0.00000000000E+00 -0.00000000000E+00 -0.10450256809E+02  0.10450256809E+02  0.00000000000E+00 0. -1.
          2    1    1    2  501    0 -0.21023300334E+02  0.10890525282E+02  0.11073413610E+04  0.11075944531E+04  0.00000000000E+00 0.  1.
         21    1    1    2  503  502  0.21023300334E+02 -0.10890525282E+02  0.32514152235E+01  0.23898836767E+02  0.00000000000E+00 0. -1.
</event>
<event>
 4    1  0.2239940E+005  0.2883622E+02  0.7546771E-02  0.1429986E+00
          2   -1    0    0  502    0  0.00000000000E+00  0.00000000000E+00  0.64867504742E+03  0.64867504742E+03  0.00000000000E+00 0.  1.
         21   -1    0    0  503  502 -0.00000000000E+00 -0.00000000000E+00 -0.17085089059E+02  0.17085089059E+02  0.00000000000E+00 0.  1.
          2    1    1    2  501    0 -0.24184172945E+02  0.15705201713E+02  0.63594366692E+03  0.63659710577E+03  0.00000000000E+00 0.  1.
         21    1    1    2  503  501  0.24184172945E+02 -0.15705201713E+02 -0.43537085576E+01  0.29163030708E+02  0.00000000000E+00 0.  1.
</event>
<event>
 4    1  0.2239940E+005  0.2170251E+02  0.7546771E-02  0.1509467E+00
          2   -1    0    0  503    0  0.00000000000E+00  0.00000000000E+00  0.74026826357E+01  0.74026826357E+01  0.00000000000E+00 0.  1.
         21   -1    0    0  501  502 -0.00000000000E+00 -0.00000000000E+00 -0.40988526430E+03  0.40988526430E+03  0.00000000000E+00 0. -1.
          2    1    1    2  501    0 -0.71207499703E+01  0.20501067430E+02 -0.94734615031E+01  0.23680061629E+02  0.00000000000E+00 0.  1.
         21    1    1    2  503  502  0.71207499703E+01 -0.20501067430E+02 -0.39300912016E+03  0.39360788531E+03  0.00000000000E+00 0. -1.
</event>
<event>
 4    1  0.2239940E+005  0.2026850E+02  0.7546771E-02  0.1529970E+00
          2   -1    0    0  502    0  0.00000000000E+00  0.00000000000E+00  0.41221515559E+03  0.41221515559E+03  0.00000000000E+00 0. -1.
         21   -1    0    0  503  502 -0.00000000000E+00 -0.00000000000E+00 -0.10198681097E+02  0.10198681097E+02  0.00000000000E+00 0. -1.
          2    1    1    2  501    0 -0.19748262030E+02 -0.45627016731E+01  0.40163055774E+03  0.40214166287E+03  0.00000000000E+00 0. -1.
         21    1    1    2  503  501  0.19748262030E+02  0.45627016731E+01  0.38591675316E+00  0.20272173823E+02  0.00000000000E+00 0. -1.
</event>
<event>
 4    1  0.2239940E+005  0.2503751E+02  0.7546771E-02  0.1468384E+00
          2   -1    0    0  502    0  0.00000000000E+00  0.00000000000E+00  0.79490353674E+03  0.79490353674E+03  0.00000000000E+00 0.  1.
         21   -1    0    0  503  502 -0.00000000000E+00 -0.00000000000E+00 -0.11904477838E+01  0.11904477838E+01  0.00000000000E+00 0.  1.
          2    1    1    2  501    0  0.24960274416E+02 -0.19651317056E+01  0.62811573786E+03  0.62861455375E+03  0.00000000000E+00 0.  1.
         21    1    1    2  503  501 -0.24960274416E+02  0.19651317056E+01  0.16559735110E+03  0.16747943077E+03  0.00000000000E+00 0.  1.
</event>
<event>
 4    1  0.2239940E+005  0.3039080E+02  0.7546771E-02  0.1416230E+00
          2   -1    0    0  503    0  0.00000000000E+00  0.00000000000E+00  0.64938878497E+03  0.64938878497E+03  0.00000000000E+00 0.  1.
         21   -1    0    0  501  502 -0.00000000000E+00 -0.00000000000E+00 -0.23522040925E+02  0.23522040925E+02  0.00000000000E+00 0.  1.
          2    1    1    2  501    0  0.21212395691E+02 -0.21763149882E+02  0.63905829706E+03  0.63978051507E+03  0.00000000000E+00 0.  1.
         21    1    1    2  503  502 -0.21212395691E+02  0.21763149882E+02 -0.13191553021E+02  0.33130310817E+02  0.00000000000E+00 0.  1.
</event>
<event>
 4    1  0.2239940E+005  0.4239668E+02  0.7546771E-02  0.1334986E+00
          2   -1    0    0  502    0  0.00000000000E+00  0.00000000000E+00  0.59649301137E+03  0.59649301137E+03  0.00000000000E+00 0.  1.
         21   -1    0    0  503  502 -0.00000000000E+00 -0.00000000000E+00 -0.14584691358E+02  0.14584691358E+02  0.00000000000E+00 0.  1.
          2    1    1    2  501    0  0.29681407878E+02  0.30273626172E+02  0.56310428246E+03  0.56469807095E+03  0.00000000000E+00 0.  1.
         21    1    1    2  503  501 -0.29681407878E+02 -0.30273626172E+02  0.18804037554E+02  0.46379631775E+02  0.00000000000E+00 0.  1.
</event>
<event>
 4    1  0.2239940E+005  0.3326428E+02  0.7546771E-02  0.1393194E+00
          2   -1    0    0  503    0  0.00000000000E+00  0.00000000000E+00  0.64853463732E+03  0.64853463732E+03  0.00000000000E+00 0. -1.
         21   -1    0    0  501  502 -0.00000000000E+00 -0.00000000000E+00 -0.26794224083E+02  0.26794224083E+02  0.00000000000E+00 0. -1.
          2    1    1    2  501    0 -0.32665450380E+02 -0.62833726005E+01  0.63760710579E+03  0.63847422326E+03  0.00000000000E+00 0. -1.
         21    1    1    2  503  502  0.32665450380E+02  0.62833726005E+01 -0.15866692553E+02  0.36854638139E+02  0.00000000000E+00 0. -1.
</event>
<event>
 4    1  0.2239940E+005  0.2083863E+02  0.7546771E-02  0.1521581E+00
          2   -1    0    0  502    0  0.00000000000E+00  0.00000000000E+00  0.15088422498E+04  0.15088422498E+04  0.00000000000E+00 0.  1.
         21   -1    0    0  503  502 -0.00000000000E+00 -0.00000000000E+00 -0.92309727551E+00  0.92309727551E+00  0.00000000000E+00 0.  1.
          2    1    1    2  501    0 -0.31887830525E+01 -0.20593207044E+02  0.13802032876E+04  0.13803605919E+04  0.00000000000E+00 0.  1.
         21    1    1    2  503  501  0.31887830525E+01  0.20593207044E+02  0.12771586490E+03  0.12940475517E+03  0.00000000000E+00 0.  1.
</event>
<event>
 4    1  0.2239940E+005  0.2260875E+02  0.7546771E-02  0.1497470E+00
          2   -1    0    0  503    0  0.00000000000E+00  0.00000000000E+00  0.27254538047E+03  0.27254538047E+03  0.00000000000E+00 0.  1.
         21   -1    0    0  501  502 -0.00000000000E+00 -0.00000000000E+00 -0.19661179118E+01  0.19661179118E+01  0.00000000000E+00 0.  1.
          2    1    1    2  501    0  0.22131321680E+02  0.46217122385E+01  0.10582091243E+03  0.10820915456E+03  0.00000000000E+00 0.  1.
         21    1    1    2  503  502 -0.22131321680E+02 -0.46217122385E+01  0.16475835012E+03  0.16630234381E+03  0.00000000000E+00 0.  1.
</event>
<event>
 4    1  0.2239940E+005  0.2847212E+02  0.7546771E-02  0.1433356E+00
          2   -1    0    0  502    0  0.00000000000E+00  0.00000000000E+00  0.20385423389E+04  0.20385423389E+04  0.00000000000E+00 0. -1.
         21   -1    0    0  503  502 -0.00000000000E+00 -0.00000000000E+00 -0.50221136677E+00  0.50221136677E+00  0.00000000000E+00 0.  1.
          2    1    1    2  501    0 -0.14262264953E+02  0.24642425659E+02  0.14841812124E+04  0.14844542878E+04  0.00000000000E+00 0. -1.
         21    1    1    2  503  501  0.14262264953E+02 -0.24642425659E+02  0.55385891513E+03  0.55459026246E+03  0.00000000000E+00 0.  1.
</event>
<event>
 4    1  0.2239940E+005  0.2653695E+02  0.7546771E-02  0.1452316E+00
          2   -1    0    0  503    0  0.00000000000E+00  0.00000000000E+00  0.76872246881E+03  0.76872246881E+03  0.00000000000E+00 0.  1.
         21   -1    0    0  501  502 -0.00000000000E+00 -0.00000000000E+00 -0.11215795454E+01  0.11215795454E+01  0.00000000000E+00 0.  1.
          2    1    1    2  501    0 -0.12268777938E+02  0.23530549002E+02  0.54856560871E+03  0.54920709819E+03  0.00000000000E+00 0.  1.
         21    1    1    2  503  502  0.12268777938E+02 -0.23530549002E+02  0.21903528056E+03  0.22063695016E+03  0.00000000000E+00 0.  1.
</event>
<event>
 4    1  0.2239940E+005  0.4058332E+02  0.7546771E-02  0.1345101E+00
          2   -1    0    0  503    0  0.00000000000E+00  0.00000000000E+00  0.25394796684E+02  0.25394796684E+02  0.00000000000E+00 0.  1.
         21   -1    0    0  501  502 -0.00000000000E+00 -0.00000000000E+00 -0.97038289812E+02  0.97038289812E+02  0.00000000000E+00 0.  1.
          2    1    1    2  501    0  0.16534109712E+01  0.40549625746E+02 -0.56798643787E+00  0.40587295113E+02  0.00000000000E+00 0.  1.
         21    1    1    2  503  502 -0.16534109712E+01 -0.40549625746E+02 -0.71075506690E+02  0.81845791383E+02  0.00000000000E+00 0.  1.
</event>
<event>
 4    1  0.2239940E+005  0.2866606E+02  0.7546771E-02  0.1431554E+00
          2   -1    0    0  502    0  0.00000000000E+00  0.00000000000E+00  0.17093839601E+04  0.17093839601E+04  0.00000000000E+00 0.  1.
         21   -1    0    0  503  502 -0.00000000000E+00 -0.00000000000E+00 -0.67720675848E+01  0.67720675848E+01  0.00000000000E+00 0.  1.
          2    1    1    2  501    0 -0.25722006655E+02  0.12653905018E+02  0.16783674625E+04  0.16786122489E+04  0.00000000000E+00 0.  1.
         21    1    1    2  503  501  0.25722006655E+02 -0.12653905018E+02  0.24244429976E+02  0.37543778758E+02  0.00000000000E+00 0.  1.
</event>
<event>
 4    1  0.2239940E+005  0.3157936E+02  0.7546771E-02  0.1406351E+00
          2   -1    0    0  502    0  0.00000000000E+00  0.00000000000E+00  0.33213729106E+03  0.33213729106E+03  0.00000000000E+00 0.  1.
         21   -1    0    0  503  502 -0.00000000000E+00 -0.00000000000E+00 -0.35082849721E+01  0.35082849721E+01  0.00000000000E+00 0.  1.
          2    1    1    2  501    0  0.31519767236E+02 -0.19390570691E+01  0.22803352061E+03  0.23020977866E+03  0.00000000000E+00 0.  1.
         21    1    1    2  503  501 -0.31519767236E+02  0.19390570691E+01  0.10059548548E+03  0.10543579737E+03  0.00000000000E+00 0.  1.
</event>
<event>
 4    1  0.2239940E+005  0.3154670E+02  0.7546771E-02  0.1406615E+00
          2   -1    0    0  502    0  0.00000000000E+00  0.00000000000E+00  0.75171085290E+02  0.75171085290E+02  0.00000000000E+00 0. -1.
         21   -1    0    0  503  502 -0.00000000000E+00 -0.00000000000E+00 -0.35312831953E+02  0.35312831953E+02  0.00000000000E+00 0. -1.
          2    1    1    2  501    0  0.59009650560E+01  0.30989886805E+02  0.63604947404E+02  0.70998477498E+02  0.00000000000E+00 0. -1.
         21    1    1    2  503  501 -0.59009650560E+01 -0.30989886805E+02 -0.23746694067E+02  0.39485439746E+02  0.00000000000E+00 0. -1.
</event>
<event>
 4    1  0.2239940E+005  0.2081678E+02  0.7546771E-02  0.1521897E+00
          2   -1    0    0  503    0  0.00000000000E+00  0.00000000000E+00  0.10197752095E+02  0.10197752095E+02  0.00000000000E+00 0.  1.
         21   -1    0    0  501  502 -0.00000000000E+00 -0.00000000000E+00 -0.19499927063E+03  0.19499927063E+03  0.00000000000E+00 0.  1.
          2    1    1    2  501    0 -0.55967760683E+01 -0.20050298956E+02 -0.16672569447E+01  0.20883441678E+02  0.00000000000E+00 0.  1.
         21    1    1    2  503  502  0.55967760683E+01  0.20050298956E+02 -0.18313426159E+03  0.18431358105E+03  0.00000000000E+00 0.  1.
</event>
<event>
 4    1  0.2239940E+005  0.2140831E+02  0.7546771E-02  0.1513514E+00
          2   -1    0    0  502    0  0.00000000000E+00  0.00000000000E+00  0.44812126442E+01  0.44812126442E+01  0.00000000000E+00 0. -1.
         21   -1    0    0  503  502 -0.00000000000E+00 -0.00000000000E+00 -0.11772870407E+03  0.11772870407E+03  0.00000000000E+00 0. -1.
          2    1    1    2  501    0  0.19966876602E+02  0.77226772373E+01 -0.34485054785E+02  0.40589837502E+02  0.00000000000E+00 0. -1.
         21    1    1    2  503  501 -0.19966876602E+02 -0.77226772373E+01 -0.78762436638E+02  0.81620079209E+02  0.00000000000E+00 0. -1.
</event>
<event>
 4    1  0.2239940E+005  0.2094909E+02  0.7546771E-02  0.1519993E+00
          2   -1    0    0  502    0  0.00000000000E+00  0.00000000000E+00  0.13914163002E+03  0.13914163002E+03  0.00000000000E+00 0. -1.
         21   -1    0    0  503  502 -0.00000000000E+00 -0.00000000000E+00 -0.35095201843E+01  0.35095201843E+01  0.00000000000E+00 0.  1.
          2    1    1    2  501    0  0.11682385108E+02  0.17389253735E+02  0.90514847862E+02  0.92907491359E+02  0.00000000000E+00 0. -1.
         21    1    1    2  503  501 -0.11682385108E+02 -0.17389253735E+02  0.45117261973E+02  0.49743658844E+02  0.00000000000E+00 0.  1.
</event>
<event>
 4    1  0.2239940E+005  0.3225022E+02  0.7546771E-02  0.1400999E+00
          2   -1    0    0  503    0  0.00000000000E+00  0.00000000000E+00  0.19000009478E+04  0.19000009478E+04  0.00000000000E+00 0. -1.
         21   -1    0    0  501  502 -0.00000000000E+00 -0.00000000000E+00 -0.77762817168E+02  0.77762817168E+02  0.00000000000E+00 0.  1.
          2    1    1    2  501    0 -0.16037192105E+02  0.27980085973E+02  0.18965142017E+04  0.18967883893E+04  0.00000000000E+00 0. -1.
         21    1    1    2  503  502  0.16037192105E+02 -0.27980085973E+02 -0.74276071006E+02  0.80975375676E+02  0.00000000000E+00 0.  1.
</event>
<event>
 4    1  0.2239940E+005  0.2472543E+02  0.7546771E-02  0.1471899E+00
          2   -1    0    0  503    0  0.00000000000E+00  0.00000000000E+00  0.16078551022E+03  0.16078551022E+03  0.00000000000E+00 0. -1.
         21   -1    0    0  501  502 -0.00000000000E+00 -0.00000000000E+00 -0.71751907492E+01  0.71751907492E+01  0.00000000000E+00 0. -1.
          2    1    1    2  501    0 -0.45286448799E+01  0.24307165504E+02  0.13438430690E+03  0.13663999730E+03  0.00000000000E+00 0. -1.
         21    1    1    2  503  502  0.45286448799E+01 -0.24307165504E+02  0.19226012567E+02  0.31320703672E+02  0.00000000000E+00 0. -1.
</event>
<event>
 4    1  0.2239940E+005  0.2916926E+02  0.7546771E-02  0.1426956E+00
          2   -1    0    0  503    0  0.00000000000E+00  0.00000000000E+00  0.89272375109E+03  0.89272375109E+03  0.00000000000E+00 0. -1.
         21   -1    0    0  501  502 -0.00000000000E+00 -0.00000000000E+00 -0.21335072963E+01  0.21335072963E+01  0.00000000000E+00 0.  1.
          2    1    1    2  501    0  0.29106615436E+02 -0.19106102442E+01  0.77810377251E+03  0.77865032350E+03  0.00000000000E+00 0. -1.
         21    1    1    2  503  502 -0.29106615436E+02  0.19106102442E+01  0.11248647129E+03  0.11620693489E+03  0.00000000000E+00 0.  1.
</event>
<event>
 4    1  0.2239940E+005  0.2281305E+02  0.7546771E-02  0.1494859E+00
          2   -1    0    0  502    0  0.00000000000E+00  0.00000000000E+00  0.56401995116E+03  0.56401995116E+03  0.00000000000E+00 0. -1.
         21   -1    0    0  503  502 -0.00000000000E+00 -0.00000000000E+00 -0.27630789287E+03  0.27630789287E+03  0.00000000000E+00 0.  1.
          2    1    1    2  501    0 -0.15539809873E+02  0.16701788885E+02  0.56331779954E+03  0.56377954798E+03  0.00000000000E+00 0. -1.
         21    1    1    2  503  501  0.15539809873E+02 -0.16701788885E+02 -0.27560574125E+03  0.27654829606E+03  0.00000000000E+00 0.  1.
</event>
<event>
 4    1  0.2239940E+005  0.2271410E+02  0.7546771E-02  0.1496120E+00
          2   -1    0    0  502    0  0.00000000000E+00  0.00000000000E+00  0.45521352073E+03  0.45521352073E+03  0.00000000000E+00 0. -1.
         21   -1    0    0  503  502 -0.00000000000E+00 -0.00000000000E+00 -0.38114863875E+01  0.38114863875E+01  0.00000000000E+00 0. -1.
          2    1    1    2  501    0 -0.22410373918E+02  0.37021216966E+01  0.41808679262E+03  0.41870335171E+03  0.00000000000E+00 0. -1.
         21    1    1    2  503  501  0.22410373918E+02 -0.37021216966E+01  0.33315241713E+02  0.40321655405E+02  0.00000000000E+00 0. -1.
</event>
<event>
 4    1  0.2239940E+005  0.2856059E+02  0.7546771E-02  0.1432532E+00
          2   -1    0    0  502    0  0.00000000000E+00  0.00000000000E+00  0.44792952346E+03  0.44792952346E+03  0.00000000000E+00 0. -1.
         21   -1    0    0  503  502 -0.00000000000E+00 -0.00000000000E+00 -0.17182643926E+02  0.17182643926E+02  0.00000000000E+00 0.  1.
          2    1    1    2  501    0 -0.10564929621E+02  0.26534690531E+02  0.43526100849E+03  0.43619703467E+03  0.00000000000E+00 0. -1.
         21    1    1    2  503  501  0.10564929621E+02 -0.26534690531E+02 -0.45141289629E+01  0.28915132712E+02  0.00000000000E+00 0.  1.
</event>
<event>
 4    1  0.2239940E+005  0.5523954E+02  0.7546771E-02  0.1276925E+00
          2   -1    0    0  503    0  0.00000000000E+00  0.00000000000E+00  0.10716964556E+03  0.10716964556E+03  0.00000000000E+00 0. -1.
         21   -1    0    0  501  502 -0.00000000000E+00 -0.00000000000E+00 -0.89984034662E+03  0.89984034662E+03  0.00000000000E+00 0. -1.
          2    1    1    2  501    0 -0.16182245593E+02 -0.52816110659E+02  0.99139681709E+02  0.11349045381E+03  0.00000000000E+00 0. -1.
         21    1    1    2  503  502  0.16182245593E+02  0.52816110659E+02 -0.89181038277E+03  0.89351953836E+03  0.00000000000E+00 0. -1.
</event>
<event>
 4    1  0.2239940E+005  0.2111163E+02  0.7546771E-02  0.1517677E+00
          2   -1    0    0  502    0  0.00000000000E+00  0.00000000000E+00  0.23193213298E+03  0.23193213298E+03  0.00000000000E+00 0. -1.
         21   -1    0    0  503  502 -0.00000000000E+00 -0.00000000000E+00 -0.87689395508E+02  0.87689395508E+02  0.00000000000E+00 0. -1.
          2    1    1    2  501    0  0.11823681800E+02 -0.17490044573E+02  0.23017132943E+03  0.23113749588E+03  0.00000000000E+00 0. -1.
         21    1    1    2  503  501 -0.11823681800E+02  0.17490044573E+02 -0.85928591959E+02  0.88484032607E+02  0.00000000000E+00 0. -1.
</event>
<event>
 4    1  0.2239940E+005  0.2086079E+02  0.7546771E-02  0.1521262E+00
          2   -1    0    0  503    0  0.00000000000E+00  0.00000000000E+00  0.81055646882E+02  0.81055646882E+02  0.00000000000E+00 0.  1.
         21   -1    0    0  501  502 -0.00000000000E+00 -0.00000000000E+00 -0.53880234610E+01  0.53880234610E+01  0.00000000000E+00 0.  1.
          2    1    1    2  501    0  0.20186235883E+02  0.52619757880E+01  0.40414714432E+02  0.45481003187E+02  0.00000000000E+00 0.  1.
         21    1    1    2  503  502 -0.20186235883E+02 -0.52619757880E+01  0.35252908989E+02  0.40962667156E+02  0.00000000000E+00 0.  1.
</event>
<event>
 4    1  0.2239940E+005  0.5861921E+02  0.7546771E-02  0.1264598E+00
          2   -1    0    0  502    0  0.00000000000E+00  0.00000000000E+00  0.48842784306E+03  0.48842784306E+03  0.00000000000E+00 0. -1.
         21   -1    0    0  503  502 -0.00000000000E+00 -0.00000000000E+00 -0.15976429642E+02  0.15976429642E+02  0.00000000000E+00 0. -1.
          2    1    1    2  501    0 -0.56790945682E+02  0.14525859751E+02  0.42489720544E+03  0.42892172632E+03  0.00000000000E+00 0. -1.
         21    1    1    2  503  501  0.56790945682E+02 -0.14525859751E+02  0.47554207979E+02  0.75482546390E+02  0.00000000000E+00 0. -1.
</event>
<event>
 4    1  0.2239940E+005  0.4845392E+02  0.7546771E-02  0.1305019E+00
          2   -1    0    0  502    0  0.00000000000E+00  0.00000000000E+00  0.17192385751E+04  0.17192385751E+04  0.00000000000E+00 0.  1.
         21   -1    0    0  503  502 -0.00000000000E+00 -0.00000000000E+00 -0.26203843471E+01  0.26203843471E+01  0.00000000000E+00 0.  1.
          2    1    1    2  501    0  0.47290206652E+02 -0.10555493830E+02  0.14540681394E+04  0.14548752304E+04  0.00000000000E+00 0.  1.
         21    1    1    2  503  501 -0.47290206652E+02  0.10555493830E+02  0.26255005132E+03  0.26698372899E+03  0.00000000000E+00 0.  1.
</event>
<event>
 4    1  0.2239940E+005  0.2134526E+02  0.7546771E-02  0.1514392E+00
          2   -1    0    0  502    0  0.00000000000E+00  0.00000000000E+00  0.29665562864E+02  0.29665562864E+02  0.00000000000E+00 0.  1.
         21   -1    0    0  503  502 -0.00000000000E+00 -0.00000000000E+00 -0.26027846936E+02  0.26027846936E+02  0.00000000000E+00 0. -1.
          2    1    1    2  501    0  0.19744583085E+02  0.81099766827E+01  0.19647670489E+02  0.29011226080E+02  0.00000000000E+00 0.  1.
         21    1    1    2  503  501 -0.19744583085E+02 -0.81099766827E+01 -0.16009954562E+02  0.26682183720E+02  0.00000000000E+00 0. -1.
</event>
<event>
 4    1  0.2239940E+005  0.2345456E+02  0.7546771E-02  0.1486868E+00
          2   -1    0    0  502    0  0.00000000000E+00  0.00000000000E+00  0.30412208083E+03  0.30412208083E+03  0.00000000000E+00 0. -1.
         21   -1    0    0  503  502 -0.00000000000E+00 -0.00000000000E+00 -0.37397466138E+01  0.37397466138E+01  0.00000000000E+00 0.  1.
          2    1    1    2  501    0 -0.13698093024E+02 -0.19038875767E+02  0.26079808809E+03  0.26185064310E+03  0.00000000000E+00 0. -1.
         21    1    1    2  503  501  0.13698093024E+02  0.19038875767E+02  0.39584246132E+02  0.46011184345E+02  0.00000000000E+00 0.  1.
</event>
<event>
 4    1  0.2239940E+005  0.2313808E+02  0.7546771E-02  0.1490772E+00
          2   -1    0    0  502    0  0.00000000000E+00  0.00000000000E+00  0.14909917304E+04  0.14909917304E+04  0.00000000000E+00 0.  1.
         21   -1    0    0  503  502 -0.00000000000E+00 -0.00000000000E+00 -0.11025693504E+01  0.11025693504E+01  0.00000000000E+00 0.  1.
          2    1    1    2  501    0  0.45101042746E+01 -0.22694264005E+02  0.13575820622E+04  0.13577792259E+04  0.00000000000E+00 0.  1.
         21    1    1    2  503  501 -0.45101042746E+01  0.22694264005E+02  0.13230709885E+03  0.13431507385E+03  0.00000000000E+00 0.  1.
</event>
<event>
 4    1  0.2239940E+005  0.2493514E+02  0.7546771E-02  0.1469530E+00
          2   -1    0    0  503    0  0.00000000000E+00  0.00000000000E+00  0.77739943857E+03  0.77739943857E+03  0.00000000000E+00 0. -1.
         21   -1    0    0  501  502 -0.00000000000E+00 -0.00000000000E+00 -0.20170408899E+02  0.20170408899E+02  0.00000000000E+00 0. -1.
          2    1    1    2  501    0  0.19250559886E+02 -0.15848570464E+02  0.76941316693E+03  0.76981710990E+03  0.00000000000E+00 0. -1.
         21    1    1    2  503  502 -0.19250559886E+02  0.15848570464E+02 -0.12184137264E+02  0.27752737568E+02  0.00000000000E+00 0. -1.
</event>
<event>
 4    1  0.2239940E+005  0.2319268E+02  0.7546771E-02  0.1490093E+00
          2   -1    0    0  503    0  0.00000000000E+00  0.00000000000E+00  0.25470343517E+02  0.25470343517E+02  0.00000000000E+00 0.  1.
         21   -1    0    0  501  502 -0.00000000000E+00 -0.00000000000E+00 -0.55424579915E+02  0.55424579915E+02  0.00000000000E+00 0.  1.
          2    1    1    2  501    0 -0.84143951966E+01  0.21612458611E+02  0.16844655387E+02  0.28664312810E+02  0.00000000000E+00 0.  1.
         21    1    1    2  503  502  0.84143951966E+01 -0.21612458611E+02 -0.46798891784E+02  0.52230610622E+02  0.00000000000E+00 0.  1.
</event>
<event>
 4    1  0.2239940E+005  0.3062818E+02  0.7546771E-02  0.1414215E+00
          2   -1    0    0  503    0  0.00000000000E+00  0.00000000000E+00  0.48900910310E+01  0.48900910310E+01  0.00000000000E+00 0. -1.
         21   -1    0    0  501  502 -0.00000000000E+00 -0.00000000000E+00 -0.11037976808E+04  0.11037976808E+04  0.00000000000E+00 0. -1.
          2    1    1    2  501    0  0.29541422764E+02  0.80864017607E+01 -0.45578224297E+02  0.54913204991E+02  0.00000000000E+00 0. -1.
         21    1    1    2  503  502 -0.29541422764E+02 -0.80864017607E+01 -0.10533293655E+04  0.10537745668E+04  0.00000000000E+00 0. -1.
</event>
<event>
 4    1  0.2239940E+005  0.2115376E+02  0.7546771E-02  0.1517081E+00
          2   -1    0    0  502    0  0.00000000000E+00  0.00000000000E+00  0.32634276595E+01  0.32634276595E+01  0.00000000000E+00 0. -1.
         21   -1    0    0  503  502 -0.00000000000E+00 -0.00000000000E+00 -0.17143164437E+03  0.17143164437E+03  0.00000000000E+00 0. -1.
          2    1    1    2  501    0  0.19572209718E+02 -0.80255956222E+01 -0.45006750087E+02  0.49730163199E+02  0.00000000000E+00 0. -1.
         21    1    1    2  503  501 -0.19572209718E+02  0.80255956222E+01 -0.12316146662E+03  0.12496490883E+03  0.00000000000E+00 0. -1.
</event>
<event>
 4    1  0.2239940E+005  0.2536993E+02  0.7546771E-02  0.1464707E+00
          2   -1    0    0  502    0  0.00000000000E+00  0.00000000000E+00  0.13364678127E+03  0.13364678127E+03  0.00000000000E+00 0.  1.
         21   -1    0    0  503  502 -0.00000000000E+00 -0.00000000000E+00 -0.27048013634E+02  0.27048013634E+02  0.00000000000E+00 0.  1.
          2    1    1    2  501    0  0.25324322039E+02  0.15205482870E+01  0.12614345721E+03  0.12866936369E+03  0.00000000000E+00 0.  1.
         21    1    1    2  503  501 -0.25324322039E+02 -0.15205482870E+01 -0.19544689579E+02  0.32025431216E+02  0.00000000000E+00 0.  1.
</event>
<event>
 4    1  0.2239940E+005  0.3058371E+02  0.7546771E-02  0.1414591E+00
          2   -1    0    0  503    0  0.00000000000E+00  0.00000000000E+00  0.72139111684E+03  0.72139111684E+03  0.00000000000E+00 0.  1.
         21   -1    0    0  501  502 -0.00000000000E+00 -0.00000000000E+00 -0.12086425624E+03  0.12086425624E+03  0.00000000000E+00 0. -1.
          2    1    1    2  501    0  0.36098154802E+01 -0.30369933120E+02  0.71912613322E+03  0.71977618680E+03  0.00000000000E+00 0.  1.
         21    1    1    2  503  502 -0.36098154802E+01  0.30369933120E+02 -0.11859927262E+03  0.12247918628E+03  0.00000000000E+00 0. -1.
</event>
<event>
 4    1  0.2239940E+005  0.2378562E+02  0.7546771E-02  0.1482862E+00
          2   -1    0    0  503    0  0.00000000000E+00  0.00000000000E+00  0.14921453228E+03  0.14921453228E+03  0.00000000000E+00 0.  1.
         21   -1    0    0  501  502 -0.00000000000E+00 -0.00000000000E+00 -0.70483053469E+01  0.70483053469E+01  0.00000000000E+00 0.  1.
          2    1    1    2  501    0 -0.13282016960E+02  0.19731791790E+02  0.12419300044E+03  0.12645021526E+03  0.00000000000E+00 0.  1.
         21    1    1    2  503  502  0.13282016960E+02 -0.19731791790E+02  0.17973226498E+02  0.29812622369E+02  0.00000000000E+00 0.  1.
</event>
<event>
 4    1  0.2239940E+005  0.2848209E+02  0.7546771E-02  0.1433263E+00
          2   -1    0    0  502    0  0.00000000000E+00  0.00000000000E+00  0.68379705406E+03  0.68379705406E+03  0.00000000000E+00 0. -1.
         21   -1    0    0  503  502 -0.00000000000E+00 -0.00000000000E+00 -0.14326058777E+02  0.14326058777E+02  0.00000000000E+00 0.  1.
          2    1    1    2  501    0  0.21892946931E+02  0.18218906670E+02  0.66903163304E+03  0.66963763013E+03  0.00000000000E+00 0. -1.
         21    1    1    2  503  501 -0.21892946931E+02 -0.18218906670E+02  0.43936224253E+00  0.28485482702E+02  0.00000000000E+00 0.  1.
</event>
<event>
 4    1  0.2239940E+005  0.2603805E+02  0.7546771E-02  0.1457518E+00
          2   -1    0    0  502    0  0.00000000000E+00  0.00000000000E+00  0.72991118936E+03  0.72991118936E+03  0.00000000000E+00 0. -1.
         21   -1    0    0  503  502 -0.00000000000E+00 -0.00000000000E+00 -0.93374878716E+01  0.93374878716E+01  0.00000000000E+00 0.  1.
          2    1    1    2  501    0  0.23889673199E+02 -0.10356815244E+02  0.71104541645E+03  0.71152200554E+03  0.00000000000E+00 0. -1.
         21    1    1    2  503  501 -0.23889673199E+02  0.10356815244E+02  0.95282850384E+01  0.27726671696E+02  0.00000000000E+00 0.  1.
</event>
<event>
 4    1  0.2239940E+005  0.7013442E+02  0.7546771E-02  0.1228812E+00
          2   -1    0    0  502    0  0.00000000000E+00  0.00000000000E+00  0.13369056579E+04  0.13369056579E+04  0.00000000000E+00 0. -1.
         21   -1    0    0  503  502 -0.00000000000E+00 -0.00000000000E+00 -0.24717207936E+02  0.24717207936E+02  0.00000000000E+00 0. -1.
          2    1    1    2  501    0  0.69530921580E+02 -0.91808486026E+01  0.12841941164E+04  0.12861078359E+04  0.00000000000E+00 0. -1.
         21    1    1    2  503  501 -0.69530921580E+02  0.91808486026E+01  0.27994333632E+02  0.75515029976E+02  0.00000000000E+00 0. -1.
</event>
<event>
 4    1  0.2239940E+005  0.4332534E+02  0.7546771E-02  0.1330029E+00
          2   -1    0    0  503    0  0.00000000000E+00  0.00000000000E+00  0.98445525885E+03  0.98445525885E+03  0.00000000000E+00 0. -1.
         21   -1    0    0  501  502 -0.00000000000E+00 -0.00000000000E+00 -0.21289994852E+01  0.21289994852E+01  0.00000000000E+00 0.  1.
          2    1    1    2  501    0  0.64636603023E+01 -0.42840472361E+02  0.65055335609E+03  0.65199444330E+03  0.00000000000E+00 0. -1.
         21    1    1    2  503  502 -0.64636603023E+01  0.42840472361E+02  0.33177290327E+03  0.33458981503E+03  0.00000000000E+00 0.  1.
</event>
<event>
 4    1  0.2239940E+005  0.2083924E+02  0.7546771E-02  0.1521573E+00
          2   -1    0    0  503    0  0.00000000000E+00  0.00000000000E+00  0.15813255578E+03  0.15813255578E+03  0.00000000000E+00 0.  1.
         21   -1    0    0  501  502 -0.00000000000E+00 -0.00000000000E+00 -0.38813874699E+02  0.38813874699E+02  0.00000000000E+00 0. -1.
          2    1    1    2  501    0 -0.17432952245E+02  0.11417795540E+02  0.15458492944E+03  0.15598325003E+03  0.00000000000E+00 0.  1.
         21    1    1    2  503  502  0.17432952245E+02 -0.11417795540E+02 -0.35266248362E+02  0.40963180450E+02  0.00000000000E+00 0. -1.
</event>
<event>
 4    1  0.2239940E+005  0.2853449E+02  0.7546771E-02  0.1432774E+00
          2   -1    0    0  502    0  0.00000000000E+00  0.00000000000E+00  0.11363370904E+04  0.11363370904E+04  0.00000000000E+00 0.  1.
         21   -1    0    0  503  502 -0.00000000000E+00 -0.00000000000E+00 -0.98438794315E+01  0.98438794315E+01  0.00000000000E+00 0. -1.
          2    1    1    2  501    0 -0.27742285752E+02 -0.66770344751E+01  0.11150856742E+04  0.11154507062E+04  0.00000000000E+00 0.  1.
         21    1    1    2  503  501  0.27742285752E+02  0.66770344751E+01  0.11407536815E+02  0.30730263655E+02  0.00000000000E+00 0. -1.
</event>
<event>
 4    1  0.2239940E+005  0.2826652E+02  0.7546771E-02  0.1435284E+00
          2   -1    0    0  502    0  0.00000000000E+00  0.00000000000E+00  0.85373543541E+02  0.85373543541E+02  0.00000000000E+00 0. -1.
         21   -1    0    0  503  502 -0.00000000000E+00 -0.00000000000E+00 -0.77112852125E+02  0.77112852125E+02  0.00000000000E+00 0. -1.
          2    1    1    2  501    0 -0.26524262727E+02 -0.97703578323E+01  0.80284073951E+02  0.85114798570E+02  0.00000000000E+00 0. -1.
         21    1    1    2  503  501  0.26524262727E+02  0.97703578323E+01 -0.72023382535E+02  0.77371597096E+02  0.00000000000E+00 0. -1.
</event>
<event>
 4    1  0.2239940E+005  0.2065388E+02  0.7546771E-02  0.1524264E+00
          2   -1    0    0  503    0  0.00000000000E+00  0.00000000000E+00  0.28607663271E+03  0.28607663271E+03  0.00000000000E+00 0.  1.
         21   -1    0    0  501  502 -0.00000000000E+00 -0.00000000000E+00 -0.42540585991E+01  0.42540585991E+01  0.00000000000E+00 0. -1.
          2    1    1    2  501    0 -0.10519153943E+02 -0.17774423843E+02  0.25790017029E+03  0.25872587922E+03  0.00000000000E+00 0.  1.
         21    1    1    2  503  502  0.10519153943E+02  0.17774423843E+02  0.23922403821E+02  0.31604812089E+02  0.00000000000E+00 0. -1.
</event>
<event>
 4    1  0.2239940E+005  0.3166339E+02  0.7546771E-02  0.1405672E+00
          2   -1    0    0  503    0  0.00000000000E+00  0.00000000000E+00  0.19437427545E+03  0.19437427545E+03  0.00000000000E+00 0. -1.
         21   -1    0    0  501  502 -0.00000000000E+00 -0.00000000000E+00 -0.51581241669E+01  0.51581241669E+01  0.00000000000E+00 0. -1.
          2    1    1    2  501    0  0.21473447904E+02 -0.23269315248E+02  0.94004878932E+02  0.99194189648E+02  0.00000000000E+00 0. -1.
         21    1    1    2  503  502 -0.21473447904E+02  0.23269315248E+02  0.95211272350E+02  0.10033820997E+03  0.00000000000E+00 0. -1.
</event>
<event>
 4    1  0.2239940E+005  0.2863271E+02  0.7546771E-02  0.1431862E+00
          2   -1    0    0  502    0  0.00000000000E+00  0.00000000000E+00  0.89833812146E+02  0.89833812146E+02  0.00000000000E+00 0. -1.
         21   -1    0    0  503  502 -0.00000000000E+00 -0.00000000000E+00 -0.33285490350E+03  0.33285490350E+03  0.00000000000E+00 0.  1.
          2    1    1    2  501    0  0.25333809113E+02  0.13342801044E+02  0.86916393376E+02  0.91511155939E+02  0.00000000000E+00 0. -1.
         21    1    1    2  503  501 -0.25333809113E+02 -0.13342801044E+02 -0.32993748473E+03  0.33117755970E+03  0.00000000000E+00 0.  1.
</event>
<event>
 4    1  0.2239940E+005  0.4971830E+02  0.7546771E-02  0.1299398E+00
          2   -1    0    0  502    0  0.00000000000E+00  0.00000000000E+00  0.39594917759E+04  0.39594917759E+04  0.00000000000E+00 0. -1.
         21   -1    0    0  503  502 -0.00000000000E+00 -0.00000000000E+00 -0.14345577479E+01  0.14345577479E+01  0.00000000000E+00 0.  1.
          2    1    1    2  501    0 -0.24621558667E+02 -0.43193616005E+02  0.34674277915E+04  0.34677842203E+04  0.00000000000E+00 0. -1.
         21    1    1    2  503  501  0.24621558667E+02  0.43193616005E+02  0.49062942665E+03  0.49314211330E+03  0.00000000000E+00 0.  1.
</event>
<event>
 4    1  0.2239940E+005  0.2526731E+02  0.7546771E-02  0.1465835E+00
          2   -1    0    0  502    0  0.00000000000E+00  0.00000000000E+00  0.13684863521E+04  0.13684863521E+04  0.00000000000E+00 0. -1.
         21   -1    0    0  503  502 -0.00000000000E+00 -0.00000000000E+00 -0.66944671314E+02  0.66944671314E+02  0.00000000000E+00 0. -1.
          2    1    1    2  501    0 -0.56476906517E+01  0.24628041126E+02  0.13659811522E+04  0.13662148239E+04  0.00000000000E+00 0. -1.
         21    1    1    2  503  501  0.56476906517E+01 -0.24628041126E+02 -0.64439471349E+02  0.69216199601E+02  0.00000000000E+00 0. -1.
</event>
<event>
 4    1  0.2239940E+005  0.2231698E+02  0.7546771E-02  0.1501258E+00
          2   -1    0    0  503    0  0.00000000000E+00  0.00000000000E+00  0.67757949803E+02  0.67757949803E+02  0.00000000000E+00 0.  1.
         21   -1    0    0  501  502 -0.00000000000E+00 -0.00000000000E+00 -0.81154779880E+01  0.81154779880E+01  0.00000000000E+00 0.  1.
          2    1    1    2  501    0  0.21365975351E+02  0.64453686793E+01  0.41469386967E+02  0.47093075240E+02  0.00000000000E+00 0.  1.
         21    1    1    2  503  502 -0.21365975351E+02 -0.64453686793E+01  0.18173084848E+02  0.28780352551E+02  0.00000000000E+00 0.  1.
</event>
<event>
 4    1  0.2239940E+005  0.7850377E+02  0.7546771E-02  0.1207364E+00
          2   -1    0    0  503    0  0.00000000000E+00  0.00000000000E+00  0.48505448655E+02  0.48505448655E+02  0.00000000000E+00 0.  1.
         21   -1    0    0  501  502 -0.00000000000E+00 -0.00000000000E+00 -0.13294204435E+03  0.13294204435E+03  0.00000000000E+00 0.  1.
          2    1    1    2  501    0  0.45320636368E+02 -0.64100557432E+02 -0.23126258537E+02  0.81839265501E+02  0.00000000000E+00 0.  1.
         21    1    1    2  503  502 -0.45320636368E+02  0.64100557432E+02 -0.61310337154E+02  0.99608227500E+02  0.00000000000E+00 0.  1.
</event>
<event>
 4    1  0.2239940E+005  0.2211225E+02  0.7546771E-02  0.1503957E+00
          2   -1    0    0  503    0  0.00000000000E+00  0.00000000000E+00  0.94798643690E+02  0.94798643690E+02  0.00000000000E+00 0.  1.
         21   -1    0    0  501  502 -0.00000000000E+00 -0.00000000000E+00 -0.52743914145E+01  0.52743914145E+01  0.00000000000E+00 0. -1.
          2    1    1    2  501    0  0.44058585886E+01  0.21668866976E+02  0.37322433758E+02  0.43381049406E+02  0.00000000000E+00 0.  1.
         21    1    1    2  503  502 -0.44058585886E+01 -0.21668866976E+02  0.52201818517E+02  0.56691985699E+02  0.00000000000E+00 0. -1.
</event>
<event>
 4    1  0.2239940E+005  0.2091316E+02  0.7546771E-02  0.1520508E+00
          2   -1    0    0  503    0  0.00000000000E+00  0.00000000000E+00  0.19816218902E+02  0.19816218902E+02  0.00000000000E+00 0.  1.
         21   -1    0    0  501  502 -0.00000000000E+00 -0.00000000000E+00 -0.71869872043E+02  0.71869872043E+02  0.00000000000E+00 0.  1.
          2    1    1    2  501    0  0.33630968565E+00  0.20910456177E+02  0.12133364924E+02  0.24178064979E+02  0.00000000000E+00 0.  1.
         21    1    1    2  503  502 -0.33630968565E+00 -0.20910456177E+02 -0.64187018065E+02  0.67508025966E+02  0.00000000000E+00 0.  1.
</event>
<event>
 4    1  0.2239940E+005  0.2795212E+02  0.7546771E-02  0.1438271E+00
          2   -1    0    0  502    0  0.00000000000E+00  0.00000000000E+00  0.72363565140E+03  0.72363565140E+03  0.00000000000E+00 0.  1.
         21   -1    0    0  503  502 -0.00000000000E+00 -0.00000000000E+00 -0.21193702646E+02  0.21193702646E+02  0.00000000000E+00 0.  1.
          2    1    1    2  501    0  0.26316075960E+02  0.94225880915E+01  0.71402529323E+03  0.71457220796E+03  0.00000000000E+00 0.  1.
         21    1    1    2  503  501 -0.26316075960E+02 -0.94225880915E+01 -0.11583344470E+02  0.30257146088E+02  0.00000000000E+00 0.  1.
</event>
<event>
 4    1  0.2239940E+005  0.3720677E+02  0.7546771E-02  0.1365680E+00
          2   -1    0    0  502    0  0.00000000000E+00  0.00000000000E+00  0.18421843196E+03  0.18421843196E+03  0.00000000000E+00 0.  1.
         21   -1    0    0  503  502 -0.00000000000E+00 -0.00000000000E+00 -0.20055092461E+02  0.20055092461E+02  0.00000000000E+00 0.  1.
          2    1    1    2  501    0 -0.15157826900E+02  0.33979166749E+02  0.16284711205E+03  0.16704348354E+03  0.00000000000E+00 0.  1.
         21    1    1    2  503  501  0.15157826900E+02 -0.33979166749E+02  0.13162274456E+01  0.37230040880E+02  0.00000000000E+00 0.  1.
</event>
<event>
 4    1  0.2239940E+005  0.2550855E+02  0.7546771E-02  0.1463194E+00
          2   -1    0    0  502    0  0.00000000000E+00  0.00000000000E+00  0.22679473705E+02  0.22679473705E+02  0.00000000000E+00 0.  1.
         21   -1    0    0  503  502 -0.00000000000E+00 -0.00000000000E+00 -0.13893027742E+03  0.13893027742E+03  0.00000000000E+00 0.  1.
          2    1    1    2  501    0  0.21239034141E+02  0.14127613867E+02  0.13853998724E+02  0.29027905978E+02  0.00000000000E+00 0.  1.
         21    1    1    2  503  501 -0.21239034141E+02 -0.14127613867E+02 -0.13010480243E+03  0.13258184514E+03  0.00000000000E+00 0.  1.
</event>
<event>
 4    1  0.2239940E+005  0.3943206E+02  0.7546771E-02  0.1351846E+00
          2   -1    0    0  502    0  0.00000000000E+00  0.00000000000E+00  0.91424056785E+03  0.91424056785E+03  0.00000000000E+00 0. -1.
         21   -1    0    0  503  502 -0.00000000000E+00 -0.00000000000E+00 -0.54246129045E+01  0.54246129045E+01  0.00000000000E+00 0.  1.
          2    1    1    2  501    0  0.22233316042E+01 -0.39369325456E+02  0.83539721033E+03  0.83632731990E+03  0.00000000000E+00 0. -1.
         21    1    1    2  503  501 -0.22233316042E+01  0.39369325456E+02  0.73418744619E+02  0.83337860854E+02  0.00000000000E+00 0.  1.
</event>
<event>
 4    1  0.2239940E+005  0.3951683E+02  0.7546771E-02  0.1351341E+00
          2   -1    0    0  503    0  0.00000000000E+00  0.00000000000E+00  0.11913981345E+04  0.11913981345E+04  0.00000000000E+00 0.  1.
         21   -1    0    0  501  502 -0.00000000000E+00 -0.00000000000E+00 -0.29125761614E+01  0.29125761614E+01  0.00000000000E+00 0. -1.
          2    1    1    2  501    0 -0.25813936408E+02 -0.29920234051E+02  0.10370977680E+04  0.10378503554E+04  0.00000000000E+00 0.  1.
         21    1    1    2  503  502  0.25813936408E+02  0.29920234051E+02  0.15138779027E+03  0.15646035524E+03  0.00000000000E+00 0. -1.
</event>
<event>
 4    1  0.2239940E+005  0.2179211E+02  0.7546771E-02  0.1508249E+00
          2   -1    0    0  502    0  0.00000000000E+00  0.00000000000E+00  0.21781639305E+02  0.21781639305E+02  0.00000000000E+00 0.  1.
         21   -1    0    0  503  502 -0.00000000000E+00 -0.00000000000E+00 -0.37925936618E+02  0.37925936618E+02  0.00000000000E+00 0. -1.
          2    1    1    2  501    0 -0.19193137642E+02 -0.10320837610E+02  0.11393049906E+02  0.24590604052E+02  0.00000000000E+00 0.  1.
         21    1    1    2  503  501  0.19193137642E+02  0.10320837610E+02 -0.27537347220E+02  0.35116971871E+02  0.00000000000E+00 0. -1.
</event>
<event>
 4    1  0.2239940E+005  0.2285864E+02  0.7546771E-02  0.1494281E+00
          2   -1    0    0  503    0  0.00000000000E+00  0.00000000000E+00  0.12589451467E+04  0.12589451467E+04  0.00000000000E+00 0.  1.
         21   -1    0    0  501  502 -0.00000000000E+00 -0.00000000000E+00 -0.39756898321E+01  0.39756898321E+01  0.00000000000E+00 0.  1.
          2    1    1    2  501    0  0.62932243006E+00  0.22849972217E+02  0.12250760630E+04  0.12252893035E+04  0.00000000000E+00 0.  1.
         21    1    1    2  503  502 -0.62932243006E+00 -0.22849972217E+02  0.29893393865E+02  0.37631532972E+02  0.00000000000E+00 0.  1.
</event>
<event>
 4    1  0.2239940E+005  0.2859639E+02  0.7546771E-02  0.1432199E+00
          2   -1    0    0  503    0  0.00000000000E+00  0.00000000000E+00  0.26316956219E+02  0.26316956219E+02  0.00000000000E+00 0. -1.
         21   -1    0    0  501  502 -0.00000000000E+00 -0.00000000000E+00 -0.11979641771E+04  0.11979641771E+04  0.00000000000E+00 0.  1.
          2    1    1    2  501    0 -0.18443674527E+02  0.21853698141E+02  0.18325830295E+02  0.33964530152E+02  0.00000000000E+00 0. -1.
         21    1    1    2  503  502  0.18443674527E+02 -0.21853698141E+02 -0.11899730512E+04  0.11903166032E+04  0.00000000000E+00 0.  1.
</event>
<event>
 4    1  0.2239940E+005  0.3484208E+02  0.7546771E-02  0.1381677E+00
          2   -1    0    0  503    0  0.00000000000E+00  0.00000000000E+00  0.11755164214E+04  0.11755164214E+04  0.00000000000E+00 0.  1.
         21   -1    0    0  501  502 -0.00000000000E+00 -0.00000000000E+00 -0.15492579406E+01  0.15492579406E+01  0.00000000000E+00 0.  1.
          2    1    1    2  501    0 -0.19082930792E+02  0.29151537276E+02  0.92681470280E+03  0.92746938693E+03  0.00000000000E+00 0.  1.
         21    1    1    2  503  502  0.19082930792E+02 -0.29151537276E+02  0.24715246064E+03  0.24959629239E+03  0.00000000000E+00 0.  1.
</event>
<event>
 4    1  0.2239940E+005  0.4278136E+02  0.7546771E-02  0.1332915E+00
          2   -1    0    0  503    0  0.00000000000E+00  0.00000000000E+00  0.36654156305E+01  0.36654156305E+01  0.00000000000E+00 0.  1.
         21   -1    0    0  501  502 -0.00000000000E+00 -0.00000000000E+00 -0.51044417865E+03  0.51044417865E+03  0.00000000000E+00 0.  1.
          2    1    1    2  501    0  0.34505243591E+02 -0.25290964882E+02 -0.21545535908E+03  0.21966168645E+03  0.00000000000E+00 0.  1.
         21    1    1    2  503  502 -0.34505243591E+02  0.25290964882E+02 -0.29132340394E+03  0.29444790783E+03  0.00000000000E+00 0.  1.
</event>
<event>
 4    1  0.2239940E+005  0.2226110E+02  0.7546771E-02  0.1501991E+00
          2   -1    0    0  503    0  0.00000000000E+00  0.00000000000E+00  0.60493974174E+02  0.60493974174E+02  0.00000000000E+00 0. -1.
         21   -1    0    0  501  502 -0.00000000000E+00 -0.00000000000E+00 -0.30878048797E+02  0.30878048797E+02  0.00000000000E+00 0. -1.
          2    1    1    2  501    0  0.14519914562E+02 -0.16873907787E+02  0.53967659970E+02  0.58378634838E+02  0.00000000000E+00 0. -1.
         21    1    1    2  503  502 -0.14519914562E+02  0.16873907787E+02 -0.24351734592E+02  0.32993388133E+02  0.00000000000E+00 0. -1.
</event>
<event>
 4    1  0.2239940E+005  0.2530291E+02  0.7546771E-02  0.1465443E+00
          2   -1    0    0  502    0  0.00000000000E+00  0.00000000000E+00  0.62131829651E+03  0.62131829651E+03  0.00000000000E+00 0. -1.
         21   -1    0    0  503  502 -0.00000000000E+00 -0.00000000000E+00 -0.25344212729E+01  0.25344212729E+01  0.00000000000E+00 0. -1.
          2    1    1    2  501    0 -0.25276861223E+02 -0.11479087688E+01  0.54968014130E+03  0.55026220581E+03  0.00000000000E+00 0. -1.
         21    1    1    2  503  501  0.25276861223E+02  0.11479087688E+01  0.69103733940E+02  0.73590511972E+02  0.00000000000E+00 0. -1.
</event>
<event>
 4    1  0.2239940E+005  0.8054709E+02  0.7546771E-02  0.1202583E+00
          2   -1    0    0  503    0  0.00000000000E+00  0.00000000000E+00  0.56174609523E+03  0.56174609523E+03  0.00000000000E+00 0.  1.
         21   -1    0    0  501  502 -0.00000000000E+00 -0.00000000000E+00 -0.11432393017E+03  0.11432393017E+03  0.00000000000E+00 0. -1.
          2    1    1    2  501    0 -0.30712713498E+02 -0.74461822256E+02  0.54421685064E+03  0.55014526651E+03  0.00000000000E+00 0.  1.
         21    1    1    2  503  502  0.30712713498E+02  0.74461822256E+02 -0.96794685578E+02  0.12592475888E+03  0.00000000000E+00 0. -1.
</event>
<event>
 4    1  0.2239940E+005  0.3369239E+02  0.7546771E-02  0.1389997E+00
          2   -1    0    0  503    0  0.00000000000E+00  0.00000000000E+00  0.50498414244E+03  0.50498414244E+03  0.00000000000E+00 0. -1.
         21   -1    0    0  501  502 -0.00000000000E+00 -0.00000000000E+00 -0.23301925064E+01  0.23301925064E+01  0.00000000000E+00 0. -1.
          2    1    1    2  501    0  0.23411562933E+02  0.24229645385E+02  0.29898218971E+03  0.30087460305E+03  0.00000000000E+00 0. -1.
         21    1    1    2  503  502 -0.23411562933E+02 -0.24229645385E+02  0.20367176022E+03  0.20643973189E+03  0.00000000000E+00 0. -1.
</event>
<event>
 4    1  0.2239940E+005  0.2241580E+02  0.7546771E-02  0.1499967E+00
          2   -1    0    0  503    0  0.00000000000E+00  0.00000000000E+00  0.24746258206E+03  0.24746258206E+03  0.00000000000E+00 0. -1.
         21   -1    0    0  501  502 -0.00000000000E+00 -0.00000000000E+00 -0.20543068016E+01  0.20543068016E+01  0.00000000000E+00 0.  1.
          2    1    1    2  501    0 -0.18138227185E+02 -0.13170912545E+02  0.13613968843E+03  0.13797276176E+03  0.00000000000E+00 0. -1.
         21    1    1    2  503  502  0.18138227185E+02  0.13170912545E+02  0.10926858682E+03  0.11154412709E+03  0.00000000000E+00 0.  1.
</event>
<event>
 4    1  0.2239940E+005  0.2225028E+02  0.7546771E-02  0.1502133E+00
          2   -1    0    0  503    0  0.00000000000E+00  0.00000000000E+00  0.28131441561E+03  0.28131441561E+03  0.00000000000E+00 0. -1.
         21   -1    0    0  501  502 -0.00000000000E+00 -0.00000000000E+00 -0.31511904109E+01  0.31511904109E+01  0.00000000000E+00 0. -1.
          2    1    1    2  501    0  0.93966875353E+01 -0.20168716470E+02  0.23359146832E+03  0.23464877782E+03  0.00000000000E+00 0. -1.
         21    1    1    2  503  502 -0.93966875353E+01  0.20168716470E+02  0.44571756878E+02  0.49816828199E+02  0.00000000000E+00 0. -1.
</event>
<event>
 4    1  0.2239940E+005  0.2957515E+02  0.7546771E-02  0.1423325E+00
          2   -1    0    0  503    0  0.00000000000E+00  0.00000000000E+00  0.17319114867E+04  0.17319114867E+04  0.00000000000E+00 0. -1.
         21   -1    0    0  501  502 -0.00000000000E+00 -0.00000000000E+00 -0.12105086568E+01  0.12105086568E+01  0.00000000000E+00 0.  1.
          2    1    1    2  501    0  0.17056710176E+02 -0.24161082526E+02  0.15268860825E+04  0.15271724847E+04  0.00000000000E+00 0. -1.
         21    1    1    2  503  502 -0.17056710176E+02  0.24161082526E+02  0.20381489563E+03  0.20594951068E+03  0.00000000000E+00 0.  1.
</event>
<event>
 4    1  0.2239940E+005  0.2305641E+02  0.7546771E-02  0.1491791E+00
          2   -1    0    0  503    0  0.00000000000E+00  0.00000000000E+00  0.98368902863E+03  0.98368902863E+03  0.00000000000E+00 0.  1.
         21   -1    0    0  501  502 -0.00000000000E+00 -0.00000000000E+00 -0.16026456105E+01  0.16026456105E+01  0.00000000000E+00 0. -1.
          2    1    1    2  501    0 -0.22800363691E+02 -0.34265521058E+01  0.89211855532E+03  0.89241644684E+03  0.00000000000E+00 0.  1.
         21    1    1    2  503  502  0.22800363691E+02  0.34265521058E+01  0.89967827696E+02  0.92875227397E+02  0.00000000000E+00 0. -1.
</event>
<event>
 4    1  0.2239940E+005  0.3193179E+02  0.7546771E-02  0.1403520E+00
          2   -1    0    0  502    0  0.00000000000E+00  0.00000000000E+00  0.89761165310E+03  0.89761165310E+03  0.00000000000E+00 0.  1.
         21   -1    0    0  503  502 -0.00000000000E+00 -0.00000000000E+00 -0.29944349437E+01  0.29944349437E+01  0.00000000000E+00 0.  1.
          2    1    1    2  501    0 -0.10907007707E+02 -0.30011266590E+02  0.80206265568E+03  0.80269803948E+03  0.00000000000E+00 0.  1.
         21    1    1    2  503  501  0.10907007707E+02  0.30011266590E+02  0.92554562472E+02  0.97908048565E+02  0.00000000000E+00 0.  1.
</event>
<event>
 4    1  0.2239940E+005  0.2074816E+02  0.7546771E-02  0.1522891E+00
          2   -1    0    0  502    0  0.00000000000E+00  0.00000000000E+00  0.59517135639E+02  0.59517135639E+02  0.00000000000E+00 0. -1.
         21   -1    0    0  503  502 -0.00000000000E+00 -0.00000000000E+00 -0.10822989658E+02  0.10822989658E+02  0.00000000000E+00 0. -1.
          2    1    1    2  501    0 -0.86976686394E+01  0.18837109591E+02  0.44602781784E+02  0.49192420965E+02  0.00000000000E+00 0. -1.
         21    1    1    2  503  501  0.86976686394E+01 -0.18837109591E+02  0.40913641961E+01  0.21147704332E+02  0.00000000000E+00 0. -1.
</event>
<event>
 4    1  0.2239940E+005  0.2087831E+02  0.7546771E-02  0.1521009E+00
          2   -1    0    0  503    0  0.00000000000E+00  0.00000000000E+00  0.10362656622E+03  0.10362656622E+03  0.00000000000E+00 0. -1.
         21   -1    0    0  501  502 -0.00000000000E+00 -0.00000000000E+00 -0.56767128150E+01  0.56767128150E+01  0.00000000000E+00 0. -1.
          2    1    1    2  501    0  0.18851055439E+02  0.89744894822E+01  0.76787862153E+02  0.79575621434E+02  0.00000000000E+00 0. -1.
         21    1    1    2  503  502 -0.18851055439E+02 -0.89744894822E+01  0.21161991248E+02  0.29727657597E+02  0.00000000000E+00 0. -1.
</event>
<event>
 4    1  0.2239940E+005  0.2700442E+02  0.7546771E-02  0.1447564E+00
          2   -1    0    0  503    0  0.00000000000E+00  0.00000000000E+00  0.85703756022E+02  0.85703756022E+02  0.00000000000E+00 0.  1.
         21   -1    0    0  501  502 -0.00000000000E+00 -0.00000000000E+00 -0.88807139502E+01  0.88807139502E+01  0.00000000000E+00 0.  1.
          2    1    1    2  501    0 -0.24449281735E+02 -0.11466103649E+02  0.48089131064E+02  0.55152546965E+02  0.00000000000E+00 0.  1.
         21    1    1    2  503  502  0.24449281735E+02  0.11466103649E+02  0.28733911007E+02  0.39431923007E+02  0.00000000000E+00 0.  1.
</event>
<event>
 4    1  0.2239940E+005  0.2837334E+02  0.7546771E-02  0.1434280E+00
          2   -1    0    0  503    0  0.00000000000E+00  0.00000000000E+00  0.19163225662E+04  0.19163225662E+04  0.00000000000E+00 0.  1.
         21   -1    0    0  501  502 -0.00000000000E+00 -0.00000000000E+00 -0.44162596671E+01  0.44162596671E+01  0.00000000000E+00 0.  1.
          2    1    1    2  501    0  0.15664594261E+02 -0.23657279414E+02  0.18695034349E+04  0.18697187327E+04  0.00000000000E+00 0.  1.
         21    1    1    2  503  502 -0.15664594261E+02  0.23657279414E+02  0.42402871671E+02  0.51020093184E+02  0.00000000000E+00 0.  1.
</event>
<event>
 4    1  0.2239940E+005  0.3874761E+02  0.7546771E-02  0.1355985E+00
          2   -1    0    0  502    0  0.00000000000E+00  0.00000000000E+00  0.17740940287E+04  0.17740940287E+04  0.00000000000E+00 0.  1.
         21   -1    0    0  503  502 -0.00000000000E+00 -0.00000000000E+00 -0.34848732851E+02  0.34848732851E+02  0.00000000000E+00 0.  1.
          2    1    1    2  501    0  0.34036340265E+02  0.18517699424E+02  0.17630442868E+04  0.17634700267E+04  0.00000000000E+00 0.  1.
         21    1    1    2  503  501 -0.34036340265E+02 -0.18517699424E+02 -0.23798990945E+02  0.45472734914E+02  0.00000000000E+00 0.  1.
</event>
<event>
 4    1  0.2239940E+005  0.2237188E+02  0.7546771E-02  0.1500540E+00
          2   -1    0    0  503    0  0.00000000000E+00  0.00000000000E+00  0.84889076184E+03  0.84889076184E+03  0.00000000000E+00 0.  1.
         21   -1    0    0  501  502 -0.00000000000E+00 -0.00000000000E+00 -0.22472471409E+02  0.22472471409E+02  0.00000000000E+00 0.  1.
          2    1    1    2  501    0  0.19119761027E+02  0.11616181479E+02  0.84313744227E+03  0.84343419867E+03  0.00000000000E+00 0.  1.
         21    1    1    2  503  502 -0.19119761027E+02 -0.11616181479E+02 -0.16719151842E+02  0.27929034573E+02  0.00000000000E+00 0.  1.
</event>
<event>
 4    1  0.2239940E+005  0.3409430E+02  0.7546771E-02  0.1387045E+00
          2   -1    0    0  502    0  0.00000000000E+00  0.00000000000E+00  0.53688412702E+02  0.53688412702E+02  0.00000000000E+00 0.  1.
         21   -1    0    0  503  502 -0.00000000000E+00 -0.00000000000E+00 -0.16871800568E+03  0.16871800568E+03  0.00000000000E+00 0. -1.
          2    1    1    2  501    0 -0.34021238687E+02 -0.22308663325E+01  0.46308270605E+02  0.57505455157E+02  0.00000000000E+00 0.  1.
         21    1    1    2  503  501  0.34021238687E+02  0.22308663325E+01 -0.16133786358E+03  0.16490096322E+03  0.00000000000E+00 0. -1.
</event>
<event>
 4    1  0.2239940E+005  0.3067721E+02  0.7546771E-02  0.1413801E+00
          2   -1    0    0  502    0  0.00000000000E+00  0.00000000000E+00  0.99204934476E+01  0.99204934476E+01  0.00000000000E+00 0.  1.
         21   -1    0    0  503  502 -0.00000000000E+00 -0.00000000000E+00 -0.95893372427E+02  0.95893372427E+02  0.00000000000E+00 0.  1.
          2    1    1    2  501    0  0.54093223436E+01  0.30196525355E+02 -0.37503055613E+02  0.48451729505E+02  0.00000000000E+00 0.  1.
         21    1    1    2  503  501 -0.54093223436E+01 -0.30196525355E+02 -0.48469823367E+02  0.57362136370E+02  0.00000000000E+00 0.  1.
</event>
<event>
 4    1  0.2239940E+005  0.2364348E+02  0.7546771E-02  0.1484572E+00
          2   -1    0    0  503    0  0.00000000000E+00  0.00000000000E+00  0.24859186245E+04  0.24859186245E+04  0.00000000000E+00 0.  1.
         21   -1    0    0  501  502 -0.00000000000E+00 -0.00000000000E+00 -0.23586800787E+00  0.23586800787E+00  0.00000000000E+00 0.  1.
          2    1    1    2  501    0  0.23422166771E+02  0.32274038391E+01  0.97444488454E+03  0.97473167951E+03  0.00000000000E+00 0.  1.
         21    1    1    2  503  502 -0.23422166771E+02 -0.32274038391E+01  0.15112378719E+04  0.15114228130E+04  0.00000000000E+00 0.  1.
</event>
<event>
 4    1  0.2239940E+005  0.3940675E+02  0.7546771E-02  0.1351998E+00
          2   -1    0    0  503    0  0.00000000000E+00  0.00000000000E+00  0.21050366163E+04  0.21050366163E+04  0.00000000000E+00 0.  1.
         21   -1    0    0  501  502 -0.00000000000E+00 -0.00000000000E+00 -0.35719745544E+01  0.35719745544E+01  0.00000000000E+00 0.  1.
          2    1    1    2  501    0  0.36574414054E+02  0.14669845148E+02  0.19898770298E+04  0.19902671895E+04  0.00000000000E+00 0.  1.
         21    1    1    2  503  502 -0.36574414054E+02 -0.14669845148E+02  0.11158761194E+03  0.11834140128E+03  0.00000000000E+00 0.  1.
</event>
<event>
 4    1  0.2239940E+005  0.2927418E+02  0.7546771E-02  0.1426010E+00
          2   -1    0    0  503    0  0.00000000000E+00  0.00000000000E+00  0.67069871261E+03  0.67069871261E+03  0.00000000000E+00 0.  1.
         21   -1    0    0  501  502 -0.00000000000E+00 -0.00000000000E+00 -0.14669194619E+01  0.14669194619E+01  0.00000000000E+00 0. -1.
          2    1    1    2  501    0  0.26859211773E+02  0.11643039899E+02  0.45530880980E+03  0.45624893416E+03  0.00000000000E+00 0.  1.
         21    1    1    2  503  502 -0.26859211773E+02 -0.11643039899E+02  0.21392298334E+03  0.21591669791E+03  0.00000000000E+00 0. -1.
</event>
<event>
 4    1  0.2239940E+005  0.3582829E+02  0.7546771E-02  0.1374832E+00
          2   -1    0    0  502    0  0.00000000000E+00  0.00000000000E+00  0.21689420191E+04  0.21689420191E+04  0.00000000000E+00 0. -1.
         21   -1    0    0  503  502 -0.00000000000E+00 -0.00000000000E+00 -0.25447133356E+01  0.25447133356E+01  0.00000000000E+00 0.  1.
          2    1    1    2  501    0  0.18381900258E+02 -0.30753407907E+02  0.20343394372E+04  0.20346549123E+04  0.00000000000E+00 0. -1.
         21    1    1    2  503  501 -0.18381900258E+02  0.30753407907E+02  0.13205786858E+03  0.13683182017E+03  0.00000000000E+00 0.  1.
</event>
<event>
 4    1  0.2239940E+005  0.2316128E+02  0.7546771E-02  0.1490483E+00
          2   -1    0    0  503    0  0.00000000000E+00  0.00000000000E+00  0.11445383979E+02  0.11445383979E+02  0.00000000000E+00 0.  1.
         21   -1    0    0  501  502 -0.00000000000E+00 -0.00000000000E+00 -0.47055708992E+02  0.47055708992E+02  0.00000000000E+00 0.  1.
          2    1    1    2  501    0  0.19326372247E+02 -0.12764651438E+02 -0.15967523157E+02  0.28131953120E+02  0.00000000000E+00 0.  1.
         21    1    1    2  503  502 -0.19326372247E+02  0.12764651438E+02 -0.19642801856E+02  0.30369139852E+02  0.00000000000E+00 0.  1.
</event>
<event>
 4    1  0.2239940E+005  0.2008410E+02  0.7546771E-02  0.1532754E+00
          2   -1    0    0  503    0  0.00000000000E+00  0.00000000000E+00  0.67126886005E+02  0.67126886005E+02  0.00000000000E+00 0.  1.
         21   -1    0    0  501  502 -0.00000000000E+00 -0.00000000000E+00 -0.71700046342E+01  0.71700046342E+01  0.00000000000E+00 0. -1.
          2    1    1    2  501    0 -0.19056239934E+02 -0.63427596541E+01  0.44926430476E+02  0.49211330359E+02  0.00000000000E+00 0.  1.
         21    1    1    2  503  502  0.19056239934E+02  0.63427596541E+01  0.15030450896E+02  0.25085560280E+02  0.00000000000E+00 0. -1.
</event>
<event>
 4    1  0.2239940E+005  0.4431853E+02  0.7546771E-02  0.1324882E+00
          2   -1    0    0  503    0  0.00000000000E+00  0.00000000000E+00  0.11561282516E+03  0.11561282516E+03  0.00000000000E+00 0. -1.
         21   -1    0    0  501  502 -0.00000000000E+00 -0.00000000000E+00 -0.17719384689E+02  0.17719384689E+02  0.00000000000E+00 0. -1.
          2    1    1    2  501    0 -0.20300055380E+02 -0.39395940007E+02  0.62482786185E+02  0.76604379162E+02  0.00000000000E+00 0. -1.
         21    1    1    2  503  502  0.20300055380E+02  0.39395940007E+02  0.35410654288E+02  0.56727830688E+02  0.00000000000E+00 0. -1.
</event>
<event>
 4    1  0.2239940E+005  0.2016814E+02  0.7546771E-02  0.1531481E+00
          2   -1    0    0  502    0  0.00000000000E+00  0.00000000000E+00  0.37351650641E+01  0.37351650641E+01  0.00000000000E+00 0. -1.
         21   -1    0    0  503  502 -0.00000000000E+00 -0.00000000000E+00 -0.62552639025E+03  0.62552639025E+03  0.00000000000E+00 0. -1.
          2    1    1    2  501    0  0.19659405575E+02 -0.45013021346E+01 -0.24960624360E+02  0.32090290072E+02  0.00000000000E+00 0. -1.
         21    1    1    2  503  501 -0.19659405575E+02  0.45013021346E+01 -0.59683060082E+03  0.59717126524E+03  0.00000000000E+00 0. -1.
</event>
<event>
 4    1  0.2239940E+005  0.3206586E+02  0.7546771E-02  0.1402454E+00
          2   -1    0    0  502    0  0.00000000000E+00  0.00000000000E+00  0.12109860902E+04  0.12109860902E+04  0.00000000000E+00 0.  1.
         21   -1    0    0  503  502 -0.00000000000E+00 -0.00000000000E+00 -0.18411965035E+01  0.18411965035E+01  0.00000000000E+00 0.  1.
          2    1    1    2  501    0 -0.25652571326E+02 -0.19239669524E+02  0.10497170293E+04  0.10502066753E+04  0.00000000000E+00 0.  1.
         21    1    1    2  503  501  0.25652571326E+02  0.19239669524E+02  0.15942786448E+03  0.16262061146E+03  0.00000000000E+00 0.  1.
</event>
<event>
 4    1  0.2239940E+005  0.3614413E+02  0.7546771E-02  0.1372693E+00
          2   -1    0    0  503    0  0.00000000000E+00  0.00000000000E+00  0.74236392856E+03  0.74236392856E+03  0.00000000000E+00 0. -1.
         21   -1    0    0  501  502 -0.00000000000E+00 -0.00000000000E+00 -0.22944496279E+02  0.22944496279E+02  0.00000000000E+00 0.  1.
          2    1    1    2  501    0  0.23860531785E+02 -0.27149087927E+02  0.72739694907E+03  0.72829439066E+03  0.00000000000E+00 0. -1.
         21    1    1    2  503  502 -0.23860531785E+02  0.27149087927E+02 -0.79775167860E+01  0.37014034181E+02  0.00000000000E+00 0.  1.
</event>
<event>
 4    1  0.2239940E+005  0.2256284E+02  0.7546771E-02  0.1498062E+00
          2   -1    0    0  502    0  0.00000000000E+00  0.00000000000E+00  0.13345764487E+04  0.13345764487E+04  0.00000000000E+00 0. -1.
         21   -1    0    0  503  502 -0.00000000000E+00 -0.00000000000E+00 -0.68203767921E+01  0.68203767921E+01  0.00000000000E+00 0. -1.
          2    1    1    2  501    0  0.21045733665E+02 -0.81338074882E+01  0.13155509158E+04  0.13157443877E+04  0.00000000000E+00 0. -1.
         21    1    1    2  503  501 -0.21045733665E+02  0.81338074882E+01  0.12205156154E+02  0.25652437827E+02  0.00000000000E+00 0. -1.
</event>
<event>
 4    1  0.2239940E+005  0.5957562E+02  0.7546771E-02  0.1261281E+00
          2   -1    0    0  503    0  0.00000000000E+00  0.00000000000E+00  0.28944112770E+04  0.28944112770E+04  0.00000000000E+00 0.  1.
         21   -1    0    0  501  502 -0.00000000000E+00 -0.00000000000E+00 -0.23914494781E+01  0.23914494781E+01  0.00000000000E+00 0. -1.
          2    1    1    2  501    0  0.51780315045E+02 -0.29462755088E+02  0.24570294468E+04  0.24577516061E+04  0.00000000000E+00 0.  1.
         21    1    1    2  503  502 -0.51780315045E+02  0.29462755088E+02  0.43499038074E+03  0.43905112037E+03  0.00000000000E+00 0. -1.
</event>
<event>
 4    1  0.2239940E+005  0.4660043E+02  0.7546771E-02  0.1313625E+00
          2   -1    0    0  502    0  0.00000000000E+00  0.00000000000E+00  0.19104146785E+03  0.19104146785E+03  0.00000000000E+00 0.  1.
         21   -1    0    0  503  502 -0.00000000000E+00 -0.00000000000E+00 -0.29577890403E+02  0.29577890403E+02  0.00000000000E+00 0. -1.
          2    1    1    2  501    0  0.44441583594E+02 -0.14019464317E+02  0.16728708677E+03  0.17365646873E+03  0.00000000000E+00 0.  1.
         21    1    1    2  503  501 -0.44441583594E+02  0.14019464317E+02 -0.58235093173E+01  0.46962889528E+02  0.00000000000E+00 0. -1.
</event>
<event>
 4    1  0.2239940E+005  0.3020108E+02  0.7546771E-02  0.1417857E+00
          2   -1    0    0  503    0  0.00000000000E+00  0.00000000000E+00  0.74747422098E+02  0.74747422098E+02  0.00000000000E+00 0. -1.
         21   -1    0    0  501  502 -0.00000000000E+00 -0.00000000000E+00 -0.11072404913E+03  0.11072404913E+03  0.00000000000E+00 0. -1.
          2    1    1    2  501    0  0.15295521903E+02 -0.26041360812E+02  0.69488258594E+02  0.75767562622E+02  0.00000000000E+00 0. -1.
         21    1    1    2  503  502 -0.15295521903E+02  0.26041360812E+02 -0.10546488563E+03  0.10970390861E+03  0.00000000000E+00 0. -1.
</event>
<event>
 4    1  0.2239940E+005  0.2705927E+02  0.7546771E-02  0.1447014E+00
          2   -1    0    0  503    0  0.00000000000E+00  0.00000000000E+00  0.25422567330E+03  0.25422567330E+03  0.00000000000E+00 0. -1.
         21   -1    0    0  501  502 -0.00000000000E+00 -0.00000000000E+00 -0.39702252766E+01  0.39702252766E+01  0.00000000000E+00 0. -1.
          2    1    1    2  501    0  0.24483938561E+02  0.11521310040E+02  0.19277391325E+03  0.19466377542E+03  0.00000000000E+00 0. -1.
         21    1    1    2  503  502 -0.24483938561E+02 -0.11521310040E+02  0.57481534782E+02  0.63532123161E+02  0.00000000000E+00 0. -1.
</event>
<event>
 4    1  0.2239940E+005  0.3686639E+02  0.7546771E-02  0.1367896E+00
          2   -1    0    0  503    0  0.00000000000E+00  0.00000000000E+00  0.12235600503E+03  0.12235600503E+03  0.00000000000E+00 0.  1.
         21   -1    0    0  501  502 -0.00000000000E+00 -0.00000000000E+00 -0.99437211550E+03  0.99437211550E+03  0.00000000000E+00 0.  1.
          2    1    1    2  501    0 -0.20061728820E+02  0.30929878674E+02  0.11922854101E+03  0.12479813840E+03  0.00000000000E+00 0.  1.
         21    1    1    2  503  502  0.20061728820E+02 -0.30929878674E+02 -0.99124465148E+03  0.99192998212E+03  0.00000000000E+00 0.  1.
</event>
<event>
 4    1  0.2239940E+005  0.2048202E+02  0.7546771E-02  0.1526790E+00
          2   -1    0    0  502    0  0.00000000000E+00  0.00000000000E+00  0.14900068334E+04  0.14900068334E+04  0.00000000000E+00 0.  1.
         21   -1    0    0  503  502 -0.00000000000E+00 -0.00000000000E+00 -0.92919210718E+00  0.92919210718E+00  0.00000000000E+00 0. -1.
          2    1    1    2  501    0  0.12027172099E+02  0.16578911944E+02  0.13669012941E+04  0.13670547396E+04  0.00000000000E+00 0.  1.
         21    1    1    2  503  501 -0.12027172099E+02 -0.16578911944E+02  0.12217634714E+03  0.12388128587E+03  0.00000000000E+00 0. -1.
</event>
<event>
 4    1  0.2239940E+005  0.2114041E+02  0.7546771E-02  0.1517270E+00
          2   -1    0    0  502    0  0.00000000000E+00  0.00000000000E+00  0.19225339896E+03  0.19225339896E+03  0.00000000000E+00 0. -1.
         21   -1    0    0  503  502 -0.00000000000E+00 -0.00000000000E+00 -0.26507759762E+03  0.26507759762E+03  0.00000000000E+00 0.  1.
          2    1    1    2  501    0 -0.90555914903E+01 -0.19102701763E+02  0.19124853859E+03  0.19241341031E+03  0.00000000000E+00 0. -1.
         21    1    1    2  503  501  0.90555914903E+01  0.19102701763E+02 -0.26407273726E+03  0.26491758627E+03  0.00000000000E+00 0.  1.
</event>
<event>
 4    1  0.2239940E+005  0.2647961E+02  0.7546771E-02  0.1452907E+00
          2   -1    0    0  502    0  0.00000000000E+00  0.00000000000E+00  0.13746534260E+03  0.13746534260E+03  0.00000000000E+00 0.  1.
         21   -1    0    0  503  502 -0.00000000000E+00 -0.00000000000E+00 -0.94865074009E+02  0.94865074009E+02  0.00000000000E+00 0. -1.
          2    1    1    2  501    0 -0.20739938607E+02  0.16462824159E+02  0.13429921259E+03  0.13688479878E+03  0.00000000000E+00 0.  1.
         21    1    1    2  503  501  0.20739938607E+02 -0.16462824159E+02 -0.91698944001E+02  0.95445617834E+02  0.00000000000E+00 0. -1.
</event>
<event>
 4    1  0.2239940E+005  0.2321042E+02  0.7546771E-02  0.1489873E+00
          2   -1    0    0  502    0  0.00000000000E+00  0.00000000000E+00  0.10456800718E+04  0.10456800718E+04  0.00000000000E+00 0. -1.
         21   -1    0    0  503  502 -0.00000000000E+00 -0.00000000000E+00 -0.78607683430E+00  0.78607683430E+00  0.00000000000E+00 0.  1.
          2    1    1    2  501    0  0.19542615041E+02  0.12522371426E+02  0.82960150260E+03  0.82992612726E+03  0.00000000000E+00 0. -1.
         21    1    1    2  503  501 -0.19542615041E+02 -0.12522371426E+02  0.21529249237E+03  0.21654002138E+03  0.00000000000E+00 0.  1.
</event>
<event>
 4    1  0.2239940E+005  0.2444368E+02  0.7546771E-02  0.1475124E+00
          2   -1    0    0  503    0  0.00000000000E+00  0.00000000000E+00  0.10705947107E+02  0.10705947107E+02  0.00000000000E+00 0. -1.
         21   -1    0    0  501  502 -0.00000000000E+00 -0.00000000000E+00 -0.90995616078E+02  0.90995616078E+02  0.00000000000E+00 0. -1.
          2    1    1    2  501    0  0.23804817746E+02 -0.55519599459E+01 -0.85240213865E+01  0.25887304761E+02  0.00000000000E+00 0. -1.
         21    1    1    2  503  502 -0.23804817746E+02  0.55519599459E+01 -0.71765647585E+02  0.75814258424E+02  0.00000000000E+00 0. -1.
</event>
<event>
 4    1  0.2239940E+005  0.2220778E+02  0.7546771E-02  0.1502693E+00
          2   -1    0    0  503    0  0.00000000000E+00  0.00000000000E+00  0.29060406317E+03  0.29060406317E+03  0.00000000000E+00 0. -1.
         21   -1    0    0  501  502 -0.00000000000E+00 -0.00000000000E+00 -0.29000507792E+01  0.29000507792E+01  0.00000000000E+00 0.  1.
          2    1    1    2  501    0  0.21838870943E+02 -0.40310424909E+01  0.23836781073E+03  0.23940008100E+03  0.00000000000E+00 0. -1.
         21    1    1    2  503  502 -0.21838870943E+02  0.40310424909E+01  0.49336201654E+02  0.54104032948E+02  0.00000000000E+00 0.  1.
</event>
<event>
 4    1  0.2239940E+005  0.2018704E+02  0.7546771E-02  0.1531195E+00
          2   -1    0    0  503    0  0.00000000000E+00  0.00000000000E+00  0.11886488094E+04  0.11886488094E+04  0.00000000000E+00 0.  1.
         21   -1    0    0  501  502 -0.00000000000E+00 -0.00000000000E+00 -0.85529116775E+00  0.85529116775E+00  0.00000000000E+00 0.  1.
          2    1    1    2  501    0  0.71243165223E+00 -0.20174464066E+02  0.10542647566E+04  0.10544580094E+04  0.00000000000E+00 0.  1.
         21    1    1    2  503  502 -0.71243165223E+00  0.20174464066E+02  0.13352876164E+03  0.13504609119E+03  0.00000000000E+00 0.  1.
</event>
<event>
 4    1  0.2239940E+005  0.2421381E+02  0.7546771E-02  0.1477794E+00
          2   -1    0    0  502    0  0.00000000000E+00  0.00000000000E+00  0.35591914182E+03  0.35591914182E+03  0.00000000000E+00 0. -1.
         21   -1    0    0  503  502 -0.00000000000E+00 -0.00000000000E+00 -0.12870495142E+02  0.12870495142E+02  0.00000000000E+00 0. -1.
          2    1    1    2  501    0  0.17453709660E+01  0.24150823294E+02  0.34371482075E+03  0.34456666494E+03  0.00000000000E+00 0. -1.
         21    1    1    2  503  501 -0.17453709660E+01 -0.24150823294E+02 -0.66617407302E+00  0.24222972020E+02  0.00000000000E+00 0. -1.
</event>
<event>
 4    1  0.2239940E+005  0.2784741E+02  0.7546771E-02  0.1439277E+00
          2   -1    0    0  503    0  0.00000000000E+00  0.00000000000E+00  0.32820701660E+03  0.32820701660E+03  0.00000000000E+00 0.  1.
         21   -1    0    0  501  502 -0.00000000000E+00 -0.00000000000E+00 -0.27728176032E+02  0.27728176032E+02  0.00000000000E+00 0.  1.
          2    1    1    2  501    0  0.18592066158E+02  0.20731938310E+02  0.32045573355E+03  0.32166341936E+03  0.00000000000E+00 0.  1.
         21    1    1    2  503  502 -0.18592066158E+02 -0.20731938310E+02 -0.19976892980E+02  0.34271773272E+02  0.00000000000E+00 0.  1.
</event>
<event>
 4    1  0.2239940E+005  0.2747025E+02  0.7546771E-02  0.1442941E+00
          2   -1    0    0  503    0  0.00000000000E+00  0.00000000000E+00  0.10217899133E+02  0.10217899133E+02  0.00000000000E+00 0. -1.
         21   -1    0    0  501  502 -0.00000000000E+00 -0.00000000000E+00 -0.74581740584E+02  0.74581740584E+02  0.00000000000E+00 0. -1.
          2    1    1    2  501    0  0.18435254008E+02  0.20365565707E+02 -0.27988609058E+02  0.39217051061E+02  0.00000000000E+00 0. -1.
         21    1    1    2  503  502 -0.18435254008E+02 -0.20365565707E+02 -0.36375232393E+02  0.45582588656E+02  0.00000000000E+00 0. -1.
</event>
<event>
 4    1  0.2239940E+005  0.2054133E+02  0.7546771E-02  0.1525915E+00
          2   -1    0    0  503    0  0.00000000000E+00  0.00000000000E+00  0.24298874616E+03  0.24298874616E+03  0.00000000000E+00 0. -1.
         21   -1    0    0  501  502 -0.00000000000E+00 -0.00000000000E+00 -0.17991465730E+02  0.17991465730E+02  0.00000000000E+00 0. -1.
          2    1    1    2  501    0 -0.18363772989E+02 -0.92042491734E+01  0.23653172288E+03  0.23742199201E+03  0.00000000000E+00 0. -1.
         21    1    1    2  503  502  0.18363772989E+02  0.92042491734E+01 -0.11534442450E+02  0.23558219879E+02  0.00000000000E+00 0. -1.
</event>
<event>
 4    1  0.2239940E+005  0.2460383E+02  0.7546771E-02  0.1473284E+00
          2   -1    0    0  503    0  0.00000000000E+00  0.00000000000E+00  0.10089376215E+04  0.10089376215E+04  0.00000000000E+00 0. -1.
         21   -1    0    0  501  502 -0.00000000000E+00 -0.00000000000E+00 -0.12859633569E+02  0.12859633569E+02  0.00000000000E+00 0.  1.
          2    1    1    2  501    0 -0.17533933336E+02 -0.17260060993E+02  0.99687688064E+03  0.99718045693E+03  0.00000000000E+00 0. -1.
         21    1    1    2  503  502  0.17533933336E+02  0.17260060993E+02 -0.79889265899E+00  0.24616798191E+02  0.00000000000E+00 0.  1.
</event>
<event>
 4    1  0.2239940E+005  0.2156030E+02  0.7546771E-02  0.1511414E+00
          2   -1    0    0  503    0  0.00000000000E+00  0.00000000000E+00  0.39308124562E+03  0.39308124562E+03  0.00000000000E+00 0. -1.
         21   -1    0    0  501  502 -0.00000000000E+00 -0.00000000000E+00 -0.15588990952E+01  0.15588990952E+01  0.00000000000E+00 0. -1.
          2    1    1    2  501    0 -0.19855411634E+02  0.84029179027E+01  0.29271070237E+03  0.29350366554E+03  0.00000000000E+00 0. -1.
         21    1    1    2  503  502  0.19855411634E+02 -0.84029179027E+01  0.98811644157E+02  0.10113647918E+03  0.00000000000E+00 0. -1.
</event>
<event>
 4    1  0.2239940E+005  0.2163479E+02  0.7546771E-02  0.1510392E+00
          2   -1    0    0  502    0  0.00000000000E+00  0.00000000000E+00  0.48375764650E+02  0.48375764650E+02  0.00000000000E+00 0. -1.
         21   -1    0    0  503  502 -0.00000000000E+00 -0.00000000000E+00 -0.29040785818E+02  0.29040785818E+02  0.00000000000E+00 0. -1.
          2    1    1    2  501    0 -0.12885400522E+02 -0.17379021643E+02  0.41276479038E+02  0.46602700154E+02  0.00000000000E+00 0. -1.
         21    1    1    2  503  501  0.12885400522E+02  0.17379021643E+02 -0.21941500206E+02  0.30813850314E+02  0.00000000000E+00 0. -1.
</event>
<event>
 4    1  0.2239940E+005  0.3665813E+02  0.7546771E-02  0.1369266E+00
          2   -1    0    0  502    0  0.00000000000E+00  0.00000000000E+00  0.17683689698E+03  0.17683689698E+03  0.00000000000E+00 0. -1.
         21   -1    0    0  503  502 -0.00000000000E+00 -0.00000000000E+00 -0.12590887657E+02  0.12590887657E+02  0.00000000000E+00 0.  1.
          2    1    1    2  501    0  0.11203203504E+02  0.34904248464E+02  0.14175912239E+03  0.14642222205E+03  0.00000000000E+00 0. -1.
         21    1    1    2  503  501 -0.11203203504E+02 -0.34904248464E+02  0.22486886938E+02  0.43005562591E+02  0.00000000000E+00 0.  1.
</event>
<event>
 4    1  0.2239940E+005  0.4068370E+02  0.7546771E-02  0.1344525E+00
          2   -1    0    0  503    0  0.00000000000E+00  0.00000000000E+00  0.16510508659E+03  0.16510508659E+03  0.00000000000E+00 0.  1.
         21   -1    0    0  501  502 -0.00000000000E+00 -0.00000000000E+00 -0.16077126633E+02  0.16077126633E+02  0.00000000000E+00 0. -1.
          2    1    1    2  501    0 -0.42053117879E+01  0.40465773402E+02  0.13009654923E+03  0.13630948458E+03  0.00000000000E+00 0.  1.
         21    1    1    2  503  502  0.42053117879E+01 -0.40465773402E+02  0.18931410733E+02  0.44872728651E+02  0.00000000000E+00 0. -1.
</event>
<event>
 4    1  0.2239940E+005  0.2501033E+02  0.7546771E-02  0.1468688E+00
          2   -1    0    0  503    0  0.00000000000E+00  0.00000000000E+00  0.46923537945E+02  0.46923537945E+02  0.00000000000E+00 0.  1.
         21   -1    0    0  501  502 -0.00000000000E+00 -0.00000000000E+00 -0.29075631405E+03  0.29075631405E+03  0.00000000000E+00 0. -1.
          2    1    1    2  501    0 -0.15528845710E+02  0.19605394360E+02  0.43007654586E+02  0.49751129536E+02  0.00000000000E+00 0.  1.
         21    1    1    2  503  502  0.15528845710E+02 -0.19605394360E+02 -0.28684043069E+03  0.28792872246E+03  0.00000000000E+00 0. -1.
</event>
<event>
 4    1  0.2239940E+005  0.2851761E+02  0.7546771E-02  0.1432931E+00
          2   -1    0    0  502    0  0.00000000000E+00  0.00000000000E+00  0.16508684881E+02  0.16508684881E+02  0.00000000000E+00 0. -1.
         21   -1    0    0  503  502 -0.00000000000E+00 -0.00000000000E+00 -0.72509260370E+02  0.72509260370E+02  0.00000000000E+00 0. -1.
          2    1    1    2  501    0 -0.11920865726E+02  0.25906510420E+02 -0.27983027279E+01  0.28654577644E+02  0.00000000000E+00 0. -1.
         21    1    1    2  503  501  0.11920865726E+02 -0.25906510420E+02 -0.53202272762E+02  0.60363367607E+02  0.00000000000E+00 0. -1.
</event>
<event>
 4    1  0.2239940E+005  0.2378804E+02  0.7546771E-02  0.1482833E+00
          2   -1    0    0  503    0  0.00000000000E+00  0.00000000000E+00  0.64053655743E+02  0.64053655743E+02  0.00000000000E+00 0.  1.
         21   -1    0    0  501  502 -0.00000000000E+00 -0.00000000000E+00 -0.36221647977E+02  0.36221647977E+02  0.00000000000E+00 0.  1.
          2    1    1    2  501    0  0.23468416970E+02  0.38864023299E+01  0.57512811687E+02  0.62238205519E+02  0.00000000000E+00 0.  1.
         21    1    1    2  503  502 -0.23468416970E+02 -0.38864023299E+01 -0.29680803920E+02  0.38037098200E+02  0.00000000000E+00 0.  1.
</event>
<event>
 4    1  0.2239940E+005  0.2357601E+02  0.7546771E-02  0.1485389E+00
          2   -1    0    0  503    0  0.00000000000E+00  0.00000000000E+00  0.23820293347E+02  0.23820293347E+02  0.00000000000E+00 0. -1.
         21   -1    0    0  501  502 -0.00000000000E+00 -0.00000000000E+00 -0.38790261247E+02  0.38790261247E+02  0.00000000000E+00 0.  1.
          2    1    1    2  501    0  0.31377663079E+01 -0.23366276697E+02  0.12275839712E+02  0.26580532438E+02  0.00000000000E+00 0. -1.
         21    1    1    2  503  502 -0.31377663079E+01  0.23366276697E+02 -0.27245807613E+02  0.36030022156E+02  0.00000000000E+00 0.  1.
</event>
<event>
 4    1  0.2239940E+005  0.3240477E+02  0.7546771E-02  0.1399788E+00
          2   -1    0    0  503    0  0.00000000000E+00  0.00000000000E+00  0.22671683267E+02  0.22671683267E+02  0.00000000000E+00 0.  1.
         21   -1    0    0  501  502 -0.00000000000E+00 -0.00000000000E+00 -0.44623656158E+03  0.44623656158E+03  0.00000000000E+00 0.  1.
          2    1    1    2  501    0  0.28734216591E+02 -0.14980452879E+02  0.10171054558E+02  0.33963502799E+02  0.00000000000E+00 0.  1.
         21    1    1    2  503  502 -0.28734216591E+02  0.14980452879E+02 -0.43373593288E+03  0.43494474205E+03  0.00000000000E+00 0.  1.
</event>
<event>
 4    1  0.2239940E+005  0.2636864E+02  0.7546771E-02  0.1454055E+00
          2   -1    0    0  502    0  0.00000000000E+00  0.00000000000E+00  0.19269102076E+04  0.19269102076E+04  0.00000000000E+00 0. -1.
         21   -1    0    0  503  502 -0.00000000000E+00 -0.00000000000E+00 -0.19095201282E+02  0.19095201282E+02  0.00000000000E+00 0.  1.
          2    1    1    2  501    0  0.22042672765E+02  0.14471552569E+02  0.19176730098E+04  0.19178542901E+04  0.00000000000E+00 0. -1.
         21    1    1    2  503  501 -0.22042672765E+02 -0.14471552569E+02 -0.98580035312E+01  0.28151118806E+02  0.00000000000E+00 0.  1.
</event>
<event>
 4    1  0.2239940E+005  0.2751114E+02  0.7546771E-02  0.1442540E+00
          2   -1    0    0  502    0  0.00000000000E+00  0.00000000000E+00  0.68066744863E+01  0.68066744863E+01  0.00000000000E+00 0.  1.
         21   -1    0    0  503  502 -0.00000000000E+00 -0.00000000000E+00 -0.39416387713E+03  0.39416387713E+03  0.00000000000E+00 0. -1.
          2    1    1    2  501    0 -0.27377843907E+02  0.27048518775E+01 -0.23809636651E+02  0.36383531414E+02  0.00000000000E+00 0.  1.
         21    1    1    2  503  501  0.27377843907E+02 -0.27048518775E+01 -0.36354756599E+03  0.36458702020E+03  0.00000000000E+00 0. -1.
</event>
<event>
 4    1  0.2239940E+005  0.2069894E+02  0.7546771E-02  0.1523607E+00
          2   -1    0    0  503    0  0.00000000000E+00  0.00000000000E+00  0.71065614251E+03  0.71065614251E+03  0.00000000000E+00 0. -1.
         21   -1    0    0  501  502 -0.00000000000E+00 -0.00000000000E+00 -0.68035950253E+00  0.68035950253E+00  0.00000000000E+00 0. -1.
          2    1    1    2  501    0 -0.19041131004E+02 -0.81167430453E+01  0.47500588447E+03  0.47545666097E+03  0.00000000000E+00 0. -1.
         21    1    1    2  503  502  0.19041131004E+02  0.81167430453E+01  0.23496989854E+03  0.23587984104E+03  0.00000000000E+00 0. -1.
</event>
<event>
 4    1  0.2239940E+005  0.2064781E+02  0.7546771E-02  0.1524353E+00
          2   -1    0    0  503    0  0.00000000000E+00  0.00000000000E+00  0.78837937024E+03  0.78837937024E+03  0.00000000000E+00 0.  1.
         21   -1    0    0  501  502 -0.00000000000E+00 -0.00000000000E+00 -0.76720551679E+00  0.76720551679E+00  0.00000000000E+00 0.  1.
          2    1    1    2  501    0  0.20035492901E+02  0.49910872983E+01  0.60816624425E+03  0.60851664938E+03  0.00000000000E+00 0.  1.
         21    1    1    2  503  502 -0.20035492901E+02 -0.49910872983E+01  0.17944592048E+03  0.18062992638E+03  0.00000000000E+00 0.  1.
</event>
<event>
 4    1  0.2239940E+005  0.2642924E+02  0.7546771E-02  0.1453427E+00
          2   -1    0    0  503    0  0.00000000000E+00  0.00000000000E+00  0.99036913418E+03  0.99036913418E+03  0.00000000000E+00 0. -1.
         21   -1    0    0  501  502 -0.00000000000E+00 -0.00000000000E+00 -0.42868768633E+01  0.42868768633E+01  0.00000000000E+00 0.  1.
          2    1    1    2  501    0  0.11817801848E+02  0.23639884741E+02  0.94762049432E+03  0.94798897981E+03  0.00000000000E+00 0. -1.
         21    1    1    2  503  502 -0.11817801848E+02 -0.23639884741E+02  0.38461762998E+02  0.46667031232E+02  0.00000000000E+00 0.  1.
</event>
<event>
 4    1  0.2239940E+005  0.2017359E+02  0.7546771E-02  0.1531398E+00
          2   -1    0    0  503    0  0.00000000000E+00  0.00000000000E+00  0.25427213920E+02  0.25427213920E+02  0.00000000000E+00 0.  1.
         21   -1    0    0  501  502 -0.00000000000E+00 -0.00000000000E+00 -0.16114332454E+02  0.16114332454E+02  0.00000000000E+00 0.  1.
          2    1    1    2  501    0  0.51530742388E+01  0.19504345597E+02  0.63639037934E+01  0.21153556268E+02  0.00000000000E+00 0.  1.
         21    1    1    2  503  502 -0.51530742388E+01 -0.19504345597E+02  0.29489776724E+01  0.20387990107E+02  0.00000000000E+00 0.  1.
</event>
<event>
 4    1  0.2239940E+005  0.2042172E+02  0.7546771E-02  0.1527684E+00
          2   -1    0    0  503    0  0.00000000000E+00  0.00000000000E+00  0.14540109445E+04  0.14540109445E+04  0.00000000000E+00 0.  1.
         21   -1    0    0  501  502 -0.00000000000E+00 -0.00000000000E+00 -0.31396249738E+00  0.31396249738E+00  0.00000000000E+00 0.  1.
          2    1    1    2  501    0  0.11877451160E+02 -0.16612430558E+02  0.51306339587E+03  0.51346966305E+03  0.00000000000E+00 0.  1.
         21    1    1    2  503  502 -0.11877451160E+02  0.16612430558E+02  0.94063358613E+03  0.94085524394E+03  0.00000000000E+00 0.  1.
</event>
<event>
 4    1  0.2239940E+005  0.2444018E+02  0.7546771E-02  0.1475164E+00
          2   -1    0    0  503    0  0.00000000000E+00  0.00000000000E+00  0.19773924632E+03  0.19773924632E+03  0.00000000000E+00 0.  1.
         21   -1    0    0  501  502 -0.00000000000E+00 -0.00000000000E+00 -0.72153601538E+02  0.72153601538E+02  0.00000000000E+00 0.  1.
          2    1    1    2  501    0 -0.59279786452E+01  0.23710366815E+02  0.19488423462E+03  0.19641076175E+03  0.00000000000E+00 0.  1.
         21    1    1    2  503  502  0.59279786452E+01 -0.23710366815E+02 -0.69298589841E+02  0.73482086111E+02  0.00000000000E+00 0.  1.
</event>
<event>
 4    1  0.2239940E+005  0.4963649E+02  0.7546771E-02  0.1299756E+00
          2   -1    0    0  503    0  0.00000000000E+00  0.00000000000E+00  0.10468890878E+04  0.10468890878E+04  0.00000000000E+00 0. -1.
         21   -1    0    0  501  502 -0.00000000000E+00 -0.00000000000E+00 -0.37378268099E+01  0.37378268099E+01  0.00000000000E+00 0.  1.
          2    1    1    2  501    0 -0.49626721196E+02  0.98481380284E+00  0.84127300157E+03  0.84273604674E+03  0.00000000000E+00 0. -1.
         21    1    1    2  503  502  0.49626721196E+02 -0.98481380284E+00  0.20187825945E+03  0.20789086789E+03  0.00000000000E+00 0.  1.
</event>
<event>
 4    1  0.2239940E+005  0.2982874E+02  0.7546771E-02  0.1421091E+00
          2   -1    0    0  502    0  0.00000000000E+00  0.00000000000E+00  0.36670065046E+03  0.36670065046E+03  0.00000000000E+00 0. -1.
         21   -1    0    0  503  502 -0.00000000000E+00 -0.00000000000E+00 -0.10617794855E+02  0.10617794855E+02  0.00000000000E+00 0.  1.
          2    1    1    2  501    0  0.17518617408E+02 -0.24142325905E+02  0.34374826493E+03  0.34504003174E+03  0.00000000000E+00 0. -1.
         21    1    1    2  503  501 -0.17518617408E+02  0.24142325905E+02  0.12334590668E+02  0.32278413575E+02  0.00000000000E+00 0.  1.
</event>
<event>
 4    1  0.2239940E+005  0.2459283E+02  0.7546771E-02  0.1473410E+00
          2   -1    0    0  503    0  0.00000000000E+00  0.00000000000E+00  0.11066644676E+02  0.11066644676E+02  0.00000000000E+00 0. -1.
         21   -1    0    0  501  502 -0.00000000000E+00 -0.00000000000E+00 -0.59492648006E+02  0.59492648006E+02  0.00000000000E+00 0.  1.
          2    1    1    2  501    0 -0.18465770044E+02  0.16242623577E+02 -0.14148974284E+02  0.28372538788E+02  0.00000000000E+00 0. -1.
         21    1    1    2  503  502  0.18465770044E+02 -0.16242623577E+02 -0.34277029046E+02  0.42186753895E+02  0.00000000000E+00 0.  1.
</event>
<event>
 4    1  0.2239940E+005  0.2311275E+02  0.7546771E-02  0.1491087E+00
          2   -1    0    0  503    0  0.00000000000E+00  0.00000000000E+00  0.81855071194E+03  0.81855071194E+03  0.00000000000E+00 0. -1.
         21   -1    0    0  501  502 -0.00000000000E+00 -0.00000000000E+00 -0.10211531877E+02  0.10211531877E+02  0.00000000000E+00 0.  1.
          2    1    1    2  501    0 -0.15929060017E+02 -0.16747067675E+02  0.80509061756E+03  0.80542231265E+03  0.00000000000E+00 0. -1.
         21    1    1    2  503  502  0.15929060017E+02  0.16747067675E+02  0.32485625055E+01  0.23339931171E+02  0.00000000000E+00 0.  1.
</event>
<event>
 4    1  0.2239940E+005  0.2537605E+02  0.7546771E-02  0.1464640E+00
          2   -1    0    0  502    0  0.00000000000E+00  0.00000000000E+00  0.90274801575E+03  0.90274801575E+03  0.00000000000E+00 0. -1.
         21   -1    0    0  503  502 -0.00000000000E+00 -0.00000000000E+00 -0.33019147388E+01  0.33019147388E+01  0.00000000000E+00 0.  1.
          2    1    1    2  501    0 -0.16063833995E+02 -0.19644268395E+02  0.85084056726E+03  0.85121889954E+03  0.00000000000E+00 0. -1.
         21    1    1    2  503  501  0.16063833995E+02  0.19644268395E+02  0.48605533751E+02  0.54831030946E+02  0.00000000000E+00 0.  1.
</event>
<event>
 4    1  0.2239940E+005  0.4633652E+02  0.7546771E-02  0.1314888E+00
          2   -1    0    0  502    0  0.00000000000E+00  0.00000000000E+00  0.31870282613E+02  0.31870282613E+02  0.00000000000E+00 0. -1.
         21   -1    0    0  503  502 -0.00000000000E+00 -0.00000000000E+00 -0.95673683802E+02  0.95673683802E+02  0.00000000000E+00 0. -1.
          2    1    1    2  501    0 -0.36534449372E+02 -0.28500998416E+02  0.27849133113E+01  0.46420131880E+02  0.00000000000E+00 0. -1.
         21    1    1    2  503  501  0.36534449372E+02  0.28500998416E+02 -0.66588314500E+02  0.81123834535E+02  0.00000000000E+00 0. -1.
</event>
<event>
 4    1  0.2239940E+005  0.2310068E+02  0.7546771E-02  0.1491238E+00
          2   -1    0    0  503    0  0.00000000000E+00  0.00000000000E+00  0.18171450912E+02  0.18171450912E+02  0.00000000000E+00 0. -1.
         21   -1    0    0  501  502 -0.00000000000E+00 -0.00000000000E+00 -0.52361542818E+03  0.52361542818E+03  0.00000000000E+00 0.  1.
          2    1    1    2  501    0  0.17112212539E+02 -0.15518174254E+02  0.10465297200E+02  0.25360678139E+02  0.00000000000E+00 0. -1.
         21    1    1    2  503  502 -0.17112212539E+02  0.15518174254E+02 -0.51590927446E+03  0.51642620095E+03  0.00000000000E+00 0.  1.
</event>
<event>
 4    1  0.2239940E+005  0.2902423E+02  0.7546771E-02  0.1428270E+00
          2   -1    0    0  503    0  0.00000000000E+00  0.00000000000E+00  0.56787734960E+03  0.56787734960E+03  0.00000000000E+00 0.  1.
         21   -1    0    0  501  502 -0.00000000000E+00 -0.00000000000E+00 -0.59610363491E+01  0.59610363491E+01  0.00000000000E+00 0. -1.
          2    1    1    2  501    0  0.43766102821E+01 -0.28692351719E+02  0.52962719555E+03  0.53042188117E+03  0.00000000000E+00 0.  1.
         21    1    1    2  503  502 -0.43766102821E+01  0.28692351719E+02  0.32289117700E+02  0.43416504772E+02  0.00000000000E+00 0. -1.
</event>
<event>
 4    1  0.2239940E+005  0.4004698E+02  0.7546771E-02  0.1348211E+00
          2   -1    0    0  503    0  0.00000000000E+00  0.00000000000E+00  0.67810696058E+01  0.67810696058E+01  0.00000000000E+00 0. -1.
         21   -1    0    0  501  502 -0.00000000000E+00 -0.00000000000E+00 -0.37863531490E+03  0.37863531490E+03  0.00000000000E+00 0. -1.
          2    1    1    2  501    0  0.28765930969E+02  0.27861830968E+02 -0.67859129990E+02  0.78794809045E+02  0.00000000000E+00 0. -1.
         21    1    1    2  503  502 -0.28765930969E+02 -0.27861830968E+02 -0.30399511530E+03  0.30662157546E+03  0.00000000000E+00 0. -1.
</event>
<event>
 4    1  0.2239940E+005  0.4167936E+02  0.7546771E-02  0.1338916E+00
          2   -1    0    0  503    0  0.00000000000E+00  0.00000000000E+00  0.27376312657E+02  0.27376312657E+02  0.00000000000E+00 0.  1.
         21   -1    0    0  501  502 -0.00000000000E+00 -0.00000000000E+00 -0.63726346879E+02  0.63726346879E+02  0.00000000000E+00 0.  1.
          2    1    1    2  501    0 -0.22419036186E+01 -0.41619020322E+02 -0.15203653080E+02  0.44365753137E+02  0.00000000000E+00 0.  1.
         21    1    1    2  503  502  0.22419036186E+01  0.41619020322E+02 -0.21146381142E+02  0.46736906400E+02  0.00000000000E+00 0.  1.
</event>
<event>
 4    1  0.2239940E+005  0.2170193E+02  0.7546771E-02  0.1509475E+00
          2   -1    0    0  502    0  0.00000000000E+00  0.00000000000E+00  0.10668421709E+04  0.10668421709E+04  0.00000000000E+00 0.  1.
         21   -1    0    0  503  502 -0.00000000000E+00 -0.00000000000E+00 -0.85246755330E+02  0.85246755330E+02  0.00000000000E+00 0.  1.
          2    1    1    2  501    0 -0.10725143113E+02 -0.18866505105E+02  0.10653486614E+04  0.10655696805E+04  0.00000000000E+00 0.  1.
         21    1    1    2  503  501  0.10725143113E+02  0.18866505105E+02 -0.83753245773E+02  0.86519245761E+02  0.00000000000E+00 0.  1.
</event>
<event>
 4    1  0.2239940E+005  0.2160532E+02  0.7546771E-02  0.1510795E+00
          2   -1    0    0  503    0  0.00000000000E+00  0.00000000000E+00  0.15312500312E+04  0.15312500312E+04  0.00000000000E+00 0. -1.
         21   -1    0    0  501  502 -0.00000000000E+00 -0.00000000000E+00 -0.52589185346E+00  0.52589185346E+00  0.00000000000E+00 0. -1.
          2    1    1    2  501    0 -0.20157263794E+02  0.77765268387E+01  0.12619108559E+04  0.12620957959E+04  0.00000000000E+00 0. -1.
         21    1    1    2  503  502  0.20157263794E+02 -0.77765268387E+01  0.26881328339E+03  0.26968012715E+03  0.00000000000E+00 0. -1.
</event>
<event>
 4    1  0.2239940E+005  0.2301773E+02  0.7546771E-02  0.1492276E+00
          2   -1    0    0  502    0  0.00000000000E+00  0.00000000000E+00  0.17041519654E+03  0.17041519654E+03  0.00000000000E+00 0.  1.
         21   -1    0    0  503  502 -0.00000000000E+00 -0.00000000000E+00 -0.31570290981E+01  0.31570290981E+01  0.00000000000E+00 0. -1.
          2    1    1    2  501    0 -0.36609966963E+01 -0.22724725672E+02  0.94336637541E+02  0.97104156637E+02  0.00000000000E+00 0.  1.
         21    1    1    2  503  501  0.36609966963E+01  0.22724725672E+02  0.72921529901E+02  0.76468069001E+02  0.00000000000E+00 0. -1.
</event>
<event>
 4    1  0.2239940E+005  0.2074555E+02  0.7546771E-02  0.1522929E+00
          2   -1    0    0  503    0  0.00000000000E+00  0.00000000000E+00  0.59568729199E+03  0.59568729199E+03  0.00000000000E+00 0.  1.
         21   -1    0    0  501  502 -0.00000000000E+00 -0.00000000000E+00 -0.31160843750E+01  0.31160843750E+01  0.00000000000E+00 0. -1.
          2    1    1    2  501    0 -0.22827591107E+01 -0.20619576416E+02  0.55869232053E+03  0.55907735327E+03  0.00000000000E+00 0.  1.
         21    1    1    2  503  502  0.22827591107E+01  0.20619576416E+02  0.33878887082E+02  0.39726023092E+02  0.00000000000E+00 0. -1.
</event>
<event>
 4    1  0.2239940E+005  0.3244364E+02  0.7546771E-02  0.1399485E+00
          2   -1    0    0  502    0  0.00000000000E+00  0.00000000000E+00  0.97500584952E+02  0.97500584952E+02  0.00000000000E+00 0. -1.
         21   -1    0    0  503  502 -0.00000000000E+00 -0.00000000000E+00 -0.14745027531E+02  0.14745027531E+02  0.00000000000E+00 0. -1.
          2    1    1    2  501    0  0.20629930741E+02  0.25039885212E+02  0.70423125463E+02  0.77537129776E+02  0.00000000000E+00 0. -1.
         21    1    1    2  503  501 -0.20629930741E+02 -0.25039885212E+02  0.12332431958E+02  0.34708482707E+02  0.00000000000E+00 0. -1.
</event>
<event>
 4    1  0.2239940E+005  0.3062060E+02  0.7546771E-02  0.1414279E+00
          2   -1    0    0  502    0  0.00000000000E+00  0.00000000000E+00  0.43642975422E+03  0.43642975422E+03  0.00000000000E+00 0.  1.
         21   -1    0    0  503  502 -0.00000000000E+00 -0.00000000000E+00 -0.19098833220E+02  0.19098833220E+02  0.00000000000E+00 0.  1.
          2    1    1    2  501    0 -0.29924124007E+01 -0.30474035024E+02  0.42323731358E+03  0.42434354590E+03  0.00000000000E+00 0.  1.
         21    1    1    2  503  501  0.29924124007E+01  0.30474035024E+02 -0.59063925759E+01  0.31185041541E+02  0.00000000000E+00 0.  1.
</event>
<event>
 4    1  0.2239940E+005  0.2165059E+02  0.7546771E-02  0.1510175E+00
          2   -1    0    0  502    0  0.00000000000E+00  0.00000000000E+00  0.17980173774E+03  0.17980173774E+03  0.00000000000E+00 0. -1.
         21   -1    0    0  503  502 -0.00000000000E+00 -0.00000000000E+00 -0.38573043168E+01  0.38573043168E+01  0.00000000000E+00 0. -1.
          2    1    1    2  501    0  0.10998758239E+01  0.21622634158E+02  0.14025316969E+03  0.14191440957E+03  0.00000000000E+00 0. -1.
         21    1    1    2  503  501 -0.10998758239E+01 -0.21622634158E+02  0.35691263727E+02  0.41744632483E+02  0.00000000000E+00 0. -1.
</event>
<event>
 4    1  0.2239940E+005  0.2451361E+02  0.7546771E-02  0.1474319E+00
          2   -1    0    0  503    0  0.00000000000E+00  0.00000000000E+00  0.99248078043E+03  0.99248078043E+03  0.00000000000E+00 0. -1.
         21   -1    0    0  501  502 -0.00000000000E+00 -0.00000000000E+00 -0.95335928219E+01  0.95335928219E+01  0.00000000000E+00 0. -1.
          2    1    1    2  501    0  0.11119071626E+02  0.21846816330E+02  0.97631057547E+03  0.97661827595E+03  0.00000000000E+00 0. -1.
         21    1    1    2  503  502 -0.11119071626E+02 -0.21846816330E+02  0.66366121348E+01  0.25396097302E+02  0.00000000000E+00 0. -1.
</event>
<event>
 4    1  0.2239940E+005  0.2111633E+02  0.7546771E-02  0.1517610E+00
          2   -1    0    0  503    0  0.00000000000E+00  0.00000000000E+00  0.24584667425E+03  0.24584667425E+03  0.00000000000E+00 0.  1.
         21   -1    0    0  501  502 -0.00000000000E+00 -0.00000000000E+00 -0.66901430887E+01  0.66901430887E+01  0.00000000000E+00 0. -1.
          2    1    1    2  501    0  0.25113993831E+01  0.20966457105E+02  0.22738037400E+03  0.22835878334E+03  0.00000000000E+00 0.  1.
         21    1    1    2  503  502 -0.25113993831E+01 -0.20966457105E+02  0.11776157165E+02  0.24178033998E+02  0.00000000000E+00 0. -1.
</event>
<event>
 4    1  0.3587337E+005  0.2325583E+02  0.7546771E-02  0.1489310E+00
          2   -1    0    0  503    0  0.00000000000E+00  0.00000000000E+00  0.90349251124E+03  0.90349251124E+03  0.00000000000E+00 0. -1.
         21   -1    0    0  501  502 -0.00000000000E+00 -0.00000000000E+00 -0.32160654117E+03  0.32160654117E+03  0.00000000000E+00 0. -1.
          2    1    1    2  501    0  0.64520776817E+00 -0.23246875420E+02  0.90292217942E+03  0.90322162042E+03  0.00000000000E+00 0. -1.
         21    1    1    2  503  502 -0.64520776817E+00  0.23246875420E+02 -0.32103620935E+03  0.32187743198E+03  0.00000000000E+00 0. -1.
</event>
<event>
 4    1  0.2239940E+005  0.4079218E+02  0.7546771E-02  0.1343905E+00
          2   -1    0    0  502    0  0.00000000000E+00  0.00000000000E+00  0.69790533296E+03  0.69790533296E+03  0.00000000000E+00 0. -1.
         21   -1    0    0  503  502 -0.00000000000E+00 -0.00000000000E+00 -0.13158357103E+03  0.13158357103E+03  0.00000000000E+00 0. -1.
          2    1    1    2  501    0  0.47317491302E+01  0.40516813494E+02  0.69413059337E+03  0.69532818314E+03  0.00000000000E+00 0. -1.
         21    1    1    2  503  501 -0.47317491302E+01 -0.40516813494E+02 -0.12780883144E+03  0.13416072085E+03  0.00000000000E+00 0. -1.
</event>
<event>
 4    1  0.2239940E+005  0.2721451E+02  0.7546771E-02  0.1445465E+00
          2   -1    0    0  502    0  0.00000000000E+00  0.00000000000E+00  0.25303059222E+03  0.25303059222E+03  0.00000000000E+00 0.  1.
         21   -1    0    0  503  502 -0.00000000000E+00 -0.00000000000E+00 -0.59472838154E+02  0.59472838154E+02  0.00000000000E+00 0.  1.
          2    1    1    2  501    0  0.25478111258E+02  0.95653208246E+01  0.24913701205E+03  0.25061899427E+03  0.00000000000E+00 0.  1.
         21    1    1    2  503  501 -0.25478111258E+02 -0.95653208246E+01 -0.55579257976E+02  0.61884436112E+02  0.00000000000E+00 0.  1.
</event>
<event>
 4    1  0.2239940E+005  0.2266994E+02  0.7546771E-02  0.1496685E+00
          2   -1    0    0  503    0  0.00000000000E+00  0.00000000000E+00  0.59488047442E+02  0.59488047442E+02  0.00000000000E+00 0.  1.
         21   -1    0    0  501  502 -0.00000000000E+00 -0.00000000000E+00 -0.19475191689E+02  0.19475191689E+02  0.00000000000E+00 0.  1.
          2    1    1    2  501    0  0.20493331375E+02 -0.96927590913E+01  0.49456706473E+02  0.54404889714E+02  0.00000000000E+00 0.  1.
         21    1    1    2  503  502 -0.20493331375E+02  0.96927590913E+01 -0.94438507200E+01  0.24558349417E+02  0.00000000000E+00 0.  1.
</event>
<event>
 4    1  0.2239940E+005  0.3080001E+02  0.7546771E-02  0.1412769E+00
          2   -1    0    0  503    0  0.00000000000E+00  0.00000000000E+00  0.16098899577E+03  0.16098899577E+03  0.00000000000E+00 0. -1.
         21   -1    0    0  501  502 -0.00000000000E+00 -0.00000000000E+00 -0.60930002944E+01  0.60930002944E+01  0.00000000000E+00 0. -1.
          2    1    1    2  501    0  0.20448498543E+02 -0.23032580511E+02  0.92599397171E+02  0.97587341464E+02  0.00000000000E+00 0. -1.
         21    1    1    2  503  502 -0.20448498543E+02  0.23032580511E+02  0.62296598302E+02  0.69494654598E+02  0.00000000000E+00 0. -1.
</event>
<event>
 4    1  0.2239940E+005  0.2385629E+02  0.7546771E-02  0.1482017E+00
          2   -1    0    0  502    0  0.00000000000E+00  0.00000000000E+00  0.43052928175E+02  0.43052928175E+02  0.00000000000E+00 0. -1.
         21   -1    0    0  503  502 -0.00000000000E+00 -0.00000000000E+00 -0.82152947183E+02  0.82152947183E+02  0.00000000000E+00 0. -1.
          2    1    1    2  501    0  0.23654691294E+02  0.30948273248E+01  0.37795483963E+02  0.44694753433E+02  0.00000000000E+00 0. -1.
         21    1    1    2  503  501 -0.23654691294E+02 -0.30948273248E+01 -0.76895502971E+02  0.80511121925E+02  0.00000000000E+00 0. -1.
</event>
<event>
 4    1  0.2239940E+005  0.1081078E+03  0.7546771E-02  0.1150454E+00
          2   -1    0    0  502    0  0.00000000000E+00  0.00000000000E+00  0.26102682571E+04  0.26102682571E+04  0.00000000000E+00 0.  1.
         21   -1    0    0  503  502 -0.00000000000E+00 -0.00000000000E+00 -0.32566588339E+02  0.32566588339E+02  0.00000000000E+00 0.  1.
          2    1    1    2  501    0  0.10305922529E+03  0.32650988950E+02  0.25160732145E+04  0.25183946696E+04  0.00000000000E+00 0.  1.
         21    1    1    2  503  501 -0.10305922529E+03 -0.32650988950E+02  0.61628454270E+02  0.12444017588E+03  0.00000000000E+00 0.  1.
</event>
<event>
 4    1  0.2239940E+005  0.2942579E+02  0.7546771E-02  0.1424653E+00
          2   -1    0    0  502    0  0.00000000000E+00  0.00000000000E+00  0.53584167917E+02  0.53584167917E+02  0.00000000000E+00 0.  1.
         21   -1    0    0  503  502 -0.00000000000E+00 -0.00000000000E+00 -0.26296798650E+02  0.26296798650E+02  0.00000000000E+00 0. -1.
          2    1    1    2  501    0  0.28871055282E+02 -0.56867489476E+01  0.38442421331E+02  0.48411741391E+02  0.00000000000E+00 0.  1.
         21    1    1    2  503  501 -0.28871055282E+02  0.56867489476E+01 -0.11155052065E+02  0.31469225177E+02  0.00000000000E+00 0. -1.
</event>
<event>
 4    1  0.2239940E+005  0.2461464E+02  0.7546771E-02  0.1473161E+00
          2   -1    0    0  503    0  0.00000000000E+00  0.00000000000E+00  0.37638594199E+02  0.37638594199E+02  0.00000000000E+00 0.  1.
         21   -1    0    0  501  502 -0.00000000000E+00 -0.00000000000E+00 -0.40067253508E+03  0.40067253508E+03  0.00000000000E+00 0. -1.
          2    1    1    2  501    0 -0.51912491334E+01  0.24060994504E+02  0.33191095982E+02  0.41322262481E+02  0.00000000000E+00 0.  1.
         21    1    1    2  503  502  0.51912491334E+01 -0.24060994504E+02 -0.39622503686E+03  0.39698886679E+03  0.00000000000E+00 0. -1.
</event>
<event>
 4    1  0.2239940E+005  0.2387262E+02  0.7546771E-02  0.1481822E+00
          2   -1    0    0  503    0  0.00000000000E+00  0.00000000000E+00  0.76878386298E+03  0.76878386298E+03  0.00000000000E+00 0.  1.
         21   -1    0    0  501  502 -0.00000000000E+00 -0.00000000000E+00 -0.21142098752E+02  0.21142098752E+02  0.00000000000E+00 0. -1.
          2    1    1    2  501    0  0.23538800195E+02 -0.39783108106E+01  0.76179780420E+03  0.76217176315E+03  0.00000000000E+00 0.  1.
         21    1    1    2  503  502 -0.23538800195E+02  0.39783108106E+01 -0.14156039963E+02  0.27754198582E+02  0.00000000000E+00 0. -1.
</event>
<event>
 4    1  0.2239940E+005  0.2412399E+02  0.7546771E-02  0.1478847E+00
          2   -1    0    0  503    0  0.00000000000E+00  0.00000000000E+00  0.85285986985E+02  0.85285986985E+02  0.00000000000E+00 0. -1.
         21   -1    0    0  501  502 -0.00000000000E+00 -0.00000000000E+00 -0.16199827435E+02  0.16199827435E+02  0.00000000000E+00 0.  1.
          2    1    1    2  501    0 -0.68518234621E+01  0.23130489249E+02  0.73147018970E+02  0.77022421423E+02  0.00000000000E+00 0. -1.
         21    1    1    2  503  502  0.68518234621E+01 -0.23130489249E+02 -0.40608594207E+01  0.24463392996E+02  0.00000000000E+00 0.  1.
</event>
<event>
 4    1  0.2239940E+005  0.2177518E+02  0.7546771E-02  0.1508479E+00
          2   -1    0    0  503    0  0.00000000000E+00  0.00000000000E+00  0.68904514456E+03  0.68904514456E+03  0.00000000000E+00 0. -1.
         21   -1    0    0  501  502 -0.00000000000E+00 -0.00000000000E+00 -0.70661077027E+01  0.70661077027E+01  0.00000000000E+00 0. -1.
          2    1    1    2  501    0  0.89349109039E+01  0.19857638955E+02  0.67166328520E+03  0.67201616583E+03  0.00000000000E+00 0. -1.
         21    1    1    2  503  502 -0.89349109039E+01 -0.19857638955E+02  0.10315751658E+02  0.24095086428E+02  0.00000000000E+00 0. -1.
</event>
<event>
 4    1  0.2239940E+005  0.4169632E+02  0.7546771E-02  0.1338822E+00
          2   -1    0    0  502    0  0.00000000000E+00  0.00000000000E+00  0.35462076256E+02  0.35462076256E+02  0.00000000000E+00 0. -1.
         21   -1    0    0  503  502 -0.00000000000E+00 -0.00000000000E+00 -0.67766826069E+02  0.67766826069E+02  0.00000000000E+00 0. -1.
          2    1    1    2  501    0  0.27580428823E+02  0.31271444061E+02  0.10990180238E+02  0.43120381833E+02  0.00000000000E+00 0. -1.
         21    1    1    2  503  501 -0.27580428823E+02 -0.31271444061E+02 -0.43294930051E+02  0.60108520493E+02  0.00000000000E+00 0. -1.
</event>
<event>
 4    1  0.2239940E+005  0.2253793E+02  0.7546771E-02  0.1498383E+00
          2   -1    0    0  502    0  0.00000000000E+00  0.00000000000E+00  0.23498939158E+03  0.23498939158E+03  0.00000000000E+00 0.  1.
         21   -1    0    0  503  502 -0.00000000000E+00 -0.00000000000E+00 -0.39358332814E+01  0.39358332814E+01  0.00000000000E+00 0.  1.
          2    1    1    2  501    0 -0.14122966571E+02  0.17564168597E+02  0.19573453170E+03  0.19702782825E+03  0.00000000000E+00 0.  1.
         21    1    1    2  503  501  0.14122966571E+02 -0.17564168597E+02  0.35319026593E+02  0.41897396611E+02  0.00000000000E+00 0.  1.
</event>
<event>
 4    1  0.2239940E+005  0.2323806E+02  0.7546771E-02  0.1489530E+00
          2   -1    0    0  502    0  0.00000000000E+00  0.00000000000E+00  0.14793748466E+04  0.14793748466E+04  0.00000000000E+00 0.  1.
         21   -1    0    0  503  502 -0.00000000000E+00 -0.00000000000E+00 -0.12341234215E+01  0.12341234215E+01  0.00000000000E+00 0.  1.
          2    1    1    2  501    0  0.18632318497E+02 -0.13886825365E+02  0.13603195475E+04  0.13605180185E+04  0.00000000000E+00 0.  1.
         21    1    1    2  503  501 -0.18632318497E+02  0.13886825365E+02  0.11782117563E+03  0.12009095153E+03  0.00000000000E+00 0.  1.
</event>
<event>
 4    1  0.2239940E+005  0.3158223E+02  0.7546771E-02  0.1406328E+00
          2   -1    0    0  503    0  0.00000000000E+00  0.00000000000E+00  0.15612000053E+03  0.15612000053E+03  0.00000000000E+00 0.  1.
         21   -1    0    0  501  502 -0.00000000000E+00 -0.00000000000E+00 -0.72389421584E+01  0.72389421584E+01  0.00000000000E+00 0.  1.
          2    1    1    2  501    0 -0.30173427259E+02 -0.93274453671E+01  0.46451197785E+02  0.56170728367E+02  0.00000000000E+00 0.  1.
         21    1    1    2  503  502  0.30173427259E+02  0.93274453671E+01  0.10242986059E+03  0.10718821432E+03  0.00000000000E+00 0.  1.
</event>
<event>
 4    1  0.2239940E+005  0.2650602E+02  0.7546771E-02  0.1452634E+00
          2   -1    0    0  503    0  0.00000000000E+00  0.00000000000E+00  0.57278395625E+02  0.57278395625E+02  0.00000000000E+00 0.  1.
         21   -1    0    0  501  502 -0.00000000000E+00 -0.00000000000E+00 -0.25498202016E+03  0.25498202016E+03  0.00000000000E+00 0.  1.
          2    1    1    2  501    0  0.23958522430E+02  0.11338356279E+02  0.53476805152E+02  0.59685323233E+02  0.00000000000E+00 0.  1.
         21    1    1    2  503  502 -0.23958522430E+02 -0.11338356279E+02 -0.25118042969E+03  0.25257509256E+03  0.00000000000E+00 0.  1.
</event>
<event>
 4    1  0.2239940E+005  0.3179796E+02  0.7546771E-02  0.1404590E+00
          2   -1    0    0  503    0  0.00000000000E+00  0.00000000000E+00  0.65430715091E+03  0.65430715091E+03  0.00000000000E+00 0. -1.
         21   -1    0    0  501  502 -0.00000000000E+00 -0.00000000000E+00 -0.25978171167E+01  0.25978171167E+01  0.00000000000E+00 0.  1.
          2    1    1    2  501    0 -0.31711005073E+02  0.23499445344E+01  0.53491899320E+03  0.53586326555E+03  0.00000000000E+00 0. -1.
         21    1    1    2  503  502  0.31711005073E+02 -0.23499445344E+01  0.11679034060E+03  0.12104170248E+03  0.00000000000E+00 0.  1.
</event>
<event>
 4    1  0.2239940E+005  0.2443848E+02  0.7546771E-02  0.1475184E+00
          2   -1    0    0  502    0  0.00000000000E+00  0.00000000000E+00  0.33231726476E+03  0.33231726476E+03  0.00000000000E+00 0.  1.
         21   -1    0    0  503  502 -0.00000000000E+00 -0.00000000000E+00 -0.84341340337E+01  0.84341340337E+01  0.00000000000E+00 0.  1.
          2    1    1    2  501    0 -0.94161465243E+00 -0.24420331592E+02  0.31307873552E+03  0.31403110334E+03  0.00000000000E+00 0.  1.
         21    1    1    2  503  501  0.94161465243E+00  0.24420331592E+02  0.10804395211E+02  0.26720295453E+02  0.00000000000E+00 0.  1.
</event>
<event>
 4    1  0.2239940E+005  0.2036121E+02  0.7546771E-02  0.1528584E+00
          2   -1    0    0  503    0  0.00000000000E+00  0.00000000000E+00  0.46347927020E+02  0.46347927020E+02  0.00000000000E+00 0. -1.
         21   -1    0    0  501  502 -0.00000000000E+00 -0.00000000000E+00 -0.12537436559E+02  0.12537436559E+02  0.00000000000E+00 0.  1.
          2    1    1    2  501    0 -0.16718784287E+02  0.11621574171E+02  0.32665820810E+02  0.38492006747E+02  0.00000000000E+00 0. -1.
         21    1    1    2  503  502  0.16718784287E+02 -0.11621574171E+02  0.11446696512E+01  0.20393356831E+02  0.00000000000E+00 0.  1.
</event>
<event>
 4    1  0.2239940E+005  0.2037772E+02  0.7546771E-02  0.1528338E+00
          2   -1    0    0  503    0  0.00000000000E+00  0.00000000000E+00  0.17392963232E+03  0.17392963232E+03  0.00000000000E+00 0. -1.
         21   -1    0    0  501  502 -0.00000000000E+00 -0.00000000000E+00 -0.26397596359E+02  0.26397596359E+02  0.00000000000E+00 0. -1.
          2    1    1    2  501    0 -0.19119675791E+02  0.70490693049E+01  0.16929277602E+03  0.17051479523E+03  0.00000000000E+00 0. -1.
         21    1    1    2  503  502  0.19119675791E+02 -0.70490693049E+01 -0.21760740056E+02  0.29812433449E+02  0.00000000000E+00 0. -1.
</event>
<event>
 4    1  0.2239940E+005  0.2737225E+02  0.7546771E-02  0.1443904E+00
          2   -1    0    0  503    0  0.00000000000E+00  0.00000000000E+00  0.27377505651E+04  0.27377505651E+04  0.00000000000E+00 0. -1.
         21   -1    0    0  501  502 -0.00000000000E+00 -0.00000000000E+00 -0.34590291741E+00  0.34590291741E+00  0.00000000000E+00 0.  1.
          2    1    1    2  501    0 -0.26686452251E+02  0.60887664996E+01  0.19943209116E+04  0.19945087461E+04  0.00000000000E+00 0. -1.
         21    1    1    2  503  502  0.26686452251E+02 -0.60887664996E+01  0.74308375049E+03  0.74358772183E+03  0.00000000000E+00 0.  1.
</event>
<event>
 4    1  0.2239940E+005  0.2957240E+02  0.7546771E-02  0.1423349E+00
          2   -1    0    0  503    0  0.00000000000E+00  0.00000000000E+00  0.11925162928E+04  0.11925162928E+04  0.00000000000E+00 0. -1.
         21   -1    0    0  501  502 -0.00000000000E+00 -0.00000000000E+00 -0.49404095996E+01  0.49404095996E+01  0.00000000000E+00 0. -1.
          2    1    1    2  501    0 -0.88764011778E+01  0.28208798814E+02  0.11462950800E+04  0.11466764745E+04  0.00000000000E+00 0. -1.
         21    1    1    2  503  502  0.88764011778E+01 -0.28208798814E+02  0.41280803183E+02  0.50780227844E+02  0.00000000000E+00 0. -1.
</event>
<event>
 4    1  0.2239940E+005  0.3929353E+02  0.7546771E-02  0.1352676E+00
          2   -1    0    0  503    0  0.00000000000E+00  0.00000000000E+00  0.83828145189E+01  0.83828145189E+01  0.00000000000E+00 0.  1.
         21   -1    0    0  501  502 -0.00000000000E+00 -0.00000000000E+00 -0.28595622172E+03  0.28595622172E+03  0.00000000000E+00 0.  1.
          2    1    1    2  501    0  0.39237202904E+02 -0.21032401526E+01 -0.50989160331E+02  0.64372946042E+02  0.00000000000E+00 0.  1.
         21    1    1    2  503  502 -0.39237202904E+02  0.21032401526E+01 -0.22658424687E+03  0.22996609020E+03  0.00000000000E+00 0.  1.
</event>
<event>
 4    1  0.2239940E+005  0.2177778E+02  0.7546771E-02  0.1508444E+00
          2   -1    0    0  503    0  0.00000000000E+00  0.00000000000E+00  0.23779802570E+03  0.23779802570E+03  0.00000000000E+00 0.  1.
         21   -1    0    0  501  502 -0.00000000000E+00 -0.00000000000E+00 -0.23603748250E+01  0.23603748250E+01  0.00000000000E+00 0.  1.
          2    1    1    2  501    0 -0.11598739135E+02  0.18432068509E+02  0.70438097972E+02  0.73727861389E+02  0.00000000000E+00 0.  1.
         21    1    1    2  503  502  0.11598739135E+02 -0.18432068509E+02  0.16499955291E+03  0.16643053914E+03  0.00000000000E+00 0.  1.
</event>
<event>
 4    1  0.2239940E+005  0.2873214E+02  0.7546771E-02  0.1430944E+00
          2   -1    0    0  502    0  0.00000000000E+00  0.00000000000E+00  0.10038927851E+04  0.10038927851E+04  0.00000000000E+00 0.  1.
         21   -1    0    0  503  502 -0.00000000000E+00 -0.00000000000E+00 -0.22927191940E+01  0.22927191940E+01  0.00000000000E+00 0.  1.
          2    1    1    2  501    0  0.28341671920E+02 -0.47207430471E+01  0.90369152617E+03  0.90414816830E+03  0.00000000000E+00 0.  1.
         21    1    1    2  503  501 -0.28341671920E+02  0.47207430471E+01  0.97908539751E+02  0.10203733600E+03  0.00000000000E+00 0.  1.
</event>
<event>
 4    1  0.2239940E+005  0.2384915E+02  0.7546771E-02  0.1482102E+00
          2   -1    0    0  503    0  0.00000000000E+00  0.00000000000E+00  0.43000244914E+01  0.43000244914E+01  0.00000000000E+00 0.  1.
         21   -1    0    0  501  502 -0.00000000000E+00 -0.00000000000E+00 -0.14956537362E+03  0.14956537362E+03  0.00000000000E+00 0. -1.
          2    1    1    2  501    0  0.23072308858E+02 -0.60374206618E+01 -0.46474412421E+02  0.52236509207E+02  0.00000000000E+00 0.  1.
         21    1    1    2  503  502 -0.23072308858E+02  0.60374206618E+01 -0.98790936711E+02  0.10162888891E+03  0.00000000000E+00 0. -1.
</event>
<event>
 4    1  0.2878161E+005  0.2119202E+02  0.7546771E-02  0.1516541E+00
          2   -1    0    0  503    0  0.00000000000E+00  0.00000000000E+00  0.10581038855E+04  0.10581038855E+04  0.00000000000E+00 0. -1.
         21   -1    0    0  501  502 -0.00000000000E+00 -0.00000000000E+00 -0.18207041104E+03  0.18207041104E+03  0.00000000000E+00 0. -1.
          2    1    1    2  501    0  0.75023372430E+01  0.19819606896E+02  0.10573806941E+04  0.10575930380E+04  0.00000000000E+00 0. -1.
         21    1    1    2  503  502 -0.75023372430E+01 -0.19819606896E+02 -0.18134721964E+03  0.18258125849E+03  0.00000000000E+00 0. -1.
</event>
<event>
 4    1  0.2239940E+005  0.2514421E+02  0.7546771E-02  0.1467196E+00
          2   -1    0    0  503    0  0.00000000000E+00  0.00000000000E+00  0.78230058735E+03  0.78230058735E+03  0.00000000000E+00 0.  1.
         21   -1    0    0  501  502 -0.00000000000E+00 -0.00000000000E+00 -0.16272228738E+01  0.16272228738E+01  0.00000000000E+00 0. -1.
          2    1    1    2  501    0  0.21661704895E+01  0.25050730847E+02  0.66842239656E+03  0.66889515743E+03  0.00000000000E+00 0.  1.
         21    1    1    2  503  502 -0.21661704895E+01 -0.25050730847E+02  0.11225096791E+03  0.11503265279E+03  0.00000000000E+00 0. -1.
</event>
<event>
 4    1  0.2239940E+005  0.2475129E+02  0.7546771E-02  0.1471605E+00
          2   -1    0    0  503    0  0.00000000000E+00  0.00000000000E+00  0.76350187280E+03  0.76350187280E+03  0.00000000000E+00 0. -1.
         21   -1    0    0  501  502 -0.00000000000E+00 -0.00000000000E+00 -0.32282664223E+02  0.32282664223E+02  0.00000000000E+00 0. -1.
          2    1    1    2  501    0 -0.20791919470E+02  0.13428414415E+02  0.75852592594E+03  0.75892964533E+03  0.00000000000E+00 0. -1.
         21    1    1    2  503  502  0.20791919470E+02 -0.13428414415E+02 -0.27306717363E+02  0.36854891698E+02  0.00000000000E+00 0. -1.
</event>
<event>
 4    1  0.2239940E+005  0.2057948E+02  0.7546771E-02  0.1525354E+00
          2   -1    0    0  502    0  0.00000000000E+00  0.00000000000E+00  0.23736351088E+03  0.23736351088E+03  0.00000000000E+00 0.  1.
         21   -1    0    0  503  502 -0.00000000000E+00 -0.00000000000E+00 -0.17951204736E+02  0.17951204736E+02  0.00000000000E+00 0.  1.
          2    1    1    2  501    0  0.16556456639E+02  0.12222883456E+02  0.23085330329E+03  0.23176877006E+03  0.00000000000E+00 0.  1.
         21    1    1    2  503  501 -0.16556456639E+02 -0.12222883456E+02 -0.11440997144E+02  0.23545945555E+02  0.00000000000E+00 0.  1.
</event>
<event>
 4    1  0.2239940E+005  0.2419390E+02  0.7546771E-02  0.1478027E+00
          2   -1    0    0  502    0  0.00000000000E+00  0.00000000000E+00  0.30523855231E+03  0.30523855231E+03  0.00000000000E+00 0. -1.
         21   -1    0    0  503  502 -0.00000000000E+00 -0.00000000000E+00 -0.25604392727E+03  0.25604392727E+03  0.00000000000E+00 0. -1.
          2    1    1    2  501    0 -0.15493562740E+02 -0.18582090054E+02  0.30418563400E+03  0.30514626737E+03  0.00000000000E+00 0. -1.
         21    1    1    2  503  501  0.15493562740E+02  0.18582090054E+02 -0.25499100896E+03  0.25613621222E+03  0.00000000000E+00 0. -1.
</event>
<event>
 4    1  0.2239940E+005  0.2190400E+02  0.7546771E-02  0.1506739E+00
          2   -1    0    0  503    0  0.00000000000E+00  0.00000000000E+00  0.21389064318E+03  0.21389064318E+03  0.00000000000E+00 0.  1.
         21   -1    0    0  501  502 -0.00000000000E+00 -0.00000000000E+00 -0.54093540837E+01  0.54093540837E+01  0.00000000000E+00 0.  1.
          2    1    1    2  501    0  0.21048092875E+02 -0.60632578988E+01  0.18812993008E+03  0.18940078116E+03  0.00000000000E+00 0.  1.
         21    1    1    2  503  502 -0.21048092875E+02  0.60632578988E+01  0.20351359009E+02  0.29899216102E+02  0.00000000000E+00 0.  1.
</event>
<event>
 4    1  0.2239940E+005  0.3597996E+02  0.7546771E-02  0.1373802E+00
          2   -1    0    0  502    0  0.00000000000E+00  0.00000000000E+00  0.22325012744E+01  0.22325012744E+01  0.00000000000E+00 0. -1.
         21   -1    0    0  503  502 -0.00000000000E+00 -0.00000000000E+00 -0.10113677961E+04  0.10113677961E+04  0.00000000000E+00 0. -1.
          2    1    1    2  501    0  0.33570993902E+02  0.12943946131E+02 -0.17353397486E+03  0.17722470991E+03  0.00000000000E+00 0. -1.
         21    1    1    2  503  501 -0.33570993902E+02 -0.12943946131E+02 -0.83560131994E+03  0.83637558743E+03  0.00000000000E+00 0. -1.
</event>
<event>
 4    1  0.2239940E+005  0.2130749E+02  0.7546771E-02  0.1514920E+00
          2   -1    0    0  502    0  0.00000000000E+00  0.00000000000E+00  0.96899921388E+03  0.96899921388E+03  0.00000000000E+00 0.  1.
         21   -1    0    0  503  502 -0.00000000000E+00 -0.00000000000E+00 -0.10870216052E+02  0.10870216052E+02  0.00000000000E+00 0.  1.
          2    1    1    2  501    0 -0.10556347744E+02  0.18508718476E+02  0.95832419833E+03  0.95856104565E+03  0.00000000000E+00 0.  1.
         21    1    1    2  503  501  0.10556347744E+02 -0.18508718476E+02 -0.19520050208E+00  0.21308384279E+02  0.00000000000E+00 0.  1.
</event>
<event>
 4    1  0.2239940E+005  0.2923624E+02  0.7546771E-02  0.1426352E+00
          2   -1    0    0  503    0  0.00000000000E+00  0.00000000000E+00  0.93348589684E+03  0.93348589684E+03  0.00000000000E+00 0.  1.
         21   -1    0    0  501  502 -0.00000000000E+00 -0.00000000000E+00 -0.10993141798E+03  0.10993141798E+03  0.00000000000E+00 0. -1.
          2    1    1    2  501    0 -0.27484030754E+02  0.99692476261E+01  0.93130859448E+03  0.93176738298E+03  0.00000000000E+00 0.  1.
         21    1    1    2  503  502  0.27484030754E+02 -0.99692476261E+01 -0.10775411562E+03  0.11164993183E+03  0.00000000000E+00 0. -1.
</event>
<event>
 4    1  0.2239940E+005  0.3172760E+02  0.7546771E-02  0.1405155E+00
          2   -1    0    0  502    0  0.00000000000E+00  0.00000000000E+00  0.22338623687E+03  0.22338623687E+03  0.00000000000E+00 0.  1.
         21   -1    0    0  503  502 -0.00000000000E+00 -0.00000000000E+00 -0.59519304750E+01  0.59519304750E+01  0.00000000000E+00 0.  1.
          2    1    1    2  501    0  0.19694506509E+02 -0.24875029379E+02  0.16523026772E+03  0.16824886937E+03  0.00000000000E+00 0.  1.
         21    1    1    2  503  501 -0.19694506509E+02  0.24875029379E+02  0.52204038677E+02  0.61089297978E+02  0.00000000000E+00 0.  1.
</event>
<event>
 4    1  0.2239940E+005  0.2734800E+02  0.7546771E-02  0.1444143E+00
          2   -1    0    0  503    0  0.00000000000E+00  0.00000000000E+00  0.17021267099E+04  0.17021267099E+04  0.00000000000E+00 0. -1.
         21   -1    0    0  501  502 -0.00000000000E+00 -0.00000000000E+00 -0.12781829739E+01  0.12781829739E+01  0.00000000000E+00 0. -1.
          2    1    1    2  501    0 -0.27347992051E+02 -0.15798247887E-01  0.15403723598E+04  0.15406151108E+04  0.00000000000E+00 0. -1.
         21    1    1    2  503  502  0.27347992051E+02  0.15798247887E-01  0.16047616720E+03  0.16278978210E+03  0.00000000000E+00 0. -1.
</event>
<event>
 4    1  0.2239940E+005  0.2124067E+02  0.7546771E-02  0.1515856E+00
          2   -1    0    0  503    0  0.00000000000E+00  0.00000000000E+00  0.89374716499E+01  0.89374716499E+01  0.00000000000E+00 0.  1.
         21   -1    0    0  501  502 -0.00000000000E+00 -0.00000000000E+00 -0.25124345136E+03  0.25124345136E+03  0.00000000000E+00 0.  1.
          2    1    1    2  501    0  0.19364105364E+02 -0.87291117057E+01 -0.48635937370E+01  0.21790376586E+02  0.00000000000E+00 0.  1.
         21    1    1    2  503  502 -0.19364105364E+02  0.87291117057E+01 -0.23744238598E+03  0.23839054643E+03  0.00000000000E+00 0.  1.
</event>
<event>
 4    1  0.2239940E+005  0.2631381E+02  0.7546771E-02  0.1454625E+00
          2   -1    0    0  503    0  0.00000000000E+00  0.00000000000E+00  0.23359647093E+03  0.23359647093E+03  0.00000000000E+00 0. -1.
         21   -1    0    0  501  502 -0.00000000000E+00 -0.00000000000E+00 -0.75744266201E+01  0.75744266201E+01  0.00000000000E+00 0. -1.
          2    1    1    2  501    0 -0.24230096833E+02 -0.10262506378E+02  0.20708796198E+03  0.20875306136E+03  0.00000000000E+00 0. -1.
         21    1    1    2  503  502  0.24230096833E+02  0.10262506378E+02  0.18934082331E+02  0.32417836192E+02  0.00000000000E+00 0. -1.
</event>
<event>
 4    1  0.2239940E+005  0.2938937E+02  0.7546771E-02  0.1424978E+00
          2   -1    0    0  502    0  0.00000000000E+00  0.00000000000E+00  0.61893037393E+03  0.61893037393E+03  0.00000000000E+00 0. -1.
         21   -1    0    0  503  502 -0.00000000000E+00 -0.00000000000E+00 -0.65795321474E+01  0.65795321474E+01  0.00000000000E+00 0.  1.
          2    1    1    2  501    0 -0.43145752954E+01  0.29070937197E+02  0.58378812773E+03  0.58452742709E+03  0.00000000000E+00 0. -1.
         21    1    1    2  503  501  0.43145752954E+01 -0.29070937197E+02  0.28562714057E+02  0.40982478985E+02  0.00000000000E+00 0.  1.
</event>
<event>
 4    1  0.2239940E+005  0.2073974E+02  0.7546771E-02  0.1523013E+00
          2   -1    0    0  502    0  0.00000000000E+00  0.00000000000E+00  0.44570042831E+03  0.44570042831E+03  0.00000000000E+00 0.  1.
         21   -1    0    0  503  502 -0.00000000000E+00 -0.00000000000E+00 -0.35890808395E+02  0.35890808395E+02  0.00000000000E+00 0.  1.
          2    1    1    2  501    0  0.20227619026E+02  0.45804070771E+01  0.44244094958E+03  0.44292677788E+03  0.00000000000E+00 0.  1.
         21    1    1    2  503  501 -0.20227619026E+02 -0.45804070771E+01 -0.32631329664E+02  0.38664458824E+02  0.00000000000E+00 0.  1.
</event>
<event>
 4    1  0.2239940E+005  0.2137169E+02  0.7546771E-02  0.1514024E+00
          2   -1    0    0  502    0  0.00000000000E+00  0.00000000000E+00  0.57603053468E+03  0.57603053468E+03  0.00000000000E+00 0.  1.
         21   -1    0    0  503  502 -0.00000000000E+00 -0.00000000000E+00 -0.16418191420E+02  0.16418191420E+02  0.00000000000E+00 0. -1.
          2    1    1    2  501    0 -0.20434679002E+02  0.62588338370E+01  0.56878886213E+03  0.56919023076E+03  0.00000000000E+00 0.  1.
         21    1    1    2  503  501  0.20434679002E+02 -0.62588338370E+01 -0.91765188722E+01  0.23258495341E+02  0.00000000000E+00 0. -1.
</event>
<event>
 4    1  0.2239940E+005  0.3844953E+02  0.7546771E-02  0.1357819E+00
          2   -1    0    0  502    0  0.00000000000E+00  0.00000000000E+00  0.40624295328E+03  0.40624295328E+03  0.00000000000E+00 0. -1.
         21   -1    0    0  503  502 -0.00000000000E+00 -0.00000000000E+00 -0.24688739600E+02  0.24688739600E+02  0.00000000000E+00 0. -1.
          2    1    1    2  501    0 -0.27961250259E+02 -0.26391948907E+02  0.38973039244E+03  0.39162245246E+03  0.00000000000E+00 0. -1.
         21    1    1    2  503  501  0.27961250259E+02  0.26391948907E+02 -0.81761787568E+01  0.39309240418E+02  0.00000000000E+00 0. -1.
</event>
<event>
 4    1  0.2239940E+005  0.2767517E+02  0.7546771E-02  0.1440941E+00
          2   -1    0    0  503    0  0.00000000000E+00  0.00000000000E+00  0.21154656195E+04  0.21154656195E+04  0.00000000000E+00 0.  1.
         21   -1    0    0  501  502 -0.00000000000E+00 -0.00000000000E+00 -0.75983657230E+00  0.75983657230E+00  0.00000000000E+00 0.  1.
          2    1    1    2  501    0  0.15898575669E+02 -0.22652816358E+02  0.18229392736E+04  0.18231493383E+04  0.00000000000E+00 0.  1.
         21    1    1    2  503  502 -0.15898575669E+02  0.22652816358E+02  0.29176650938E+03  0.29307611775E+03  0.00000000000E+00 0.  1.
</event>
<event>
 4    1  0.2239940E+005  0.3462808E+02  0.7546771E-02  0.1383197E+00
          2   -1    0    0  503    0  0.00000000000E+00  0.00000000000E+00  0.10207295528E+04  0.10207295528E+04  0.00000000000E+00 0.  1.
         21   -1    0    0  501  502 -0.00000000000E+00 -0.00000000000E+00 -0.11760029603E+01  0.11760029603E+01  0.00000000000E+00 0.  1.
          2    1    1    2  501    0 -0.34044690567E+02  0.63295243573E+01  0.49311041682E+03  0.49432477888E+03  0.00000000000E+00 0.  1.
         21    1    1    2  503  502  0.34044690567E+02 -0.63295243573E+01  0.52644313302E+03  0.52758077688E+03  0.00000000000E+00 0.  1.
</event>
<event>
 4    1  0.2239940E+005  0.2714405E+02  0.7546771E-02  0.1446166E+00
          2   -1    0    0  502    0  0.00000000000E+00  0.00000000000E+00  0.15561414979E+04  0.15561414979E+04  0.00000000000E+00 0.  1.
         21   -1    0    0  503  502 -0.00000000000E+00 -0.00000000000E+00 -0.60859340184E+00  0.60859340184E+00  0.00000000000E+00 0. -1.
          2    1    1    2  501    0 -0.54702301701E+01 -0.26587139128E+02  0.11445223207E+04  0.11448441562E+04  0.00000000000E+00 0.  1.
         21    1    1    2  503  501  0.54702301701E+01  0.26587139128E+02  0.41101058383E+03  0.41190593514E+03  0.00000000000E+00 0. -1.
</event>
<event>
 4    1  0.2239940E+005  0.2063432E+02  0.7546771E-02  0.1524550E+00
          2   -1    0    0  503    0  0.00000000000E+00  0.00000000000E+00  0.86757706121E+03  0.86757706121E+03  0.00000000000E+00 0. -1.
         21   -1    0    0  501  502 -0.00000000000E+00 -0.00000000000E+00 -0.49779381934E+01  0.49779381934E+01  0.00000000000E+00 0. -1.
          2    1    1    2  501    0 -0.14634602318E+02 -0.14546600685E+02  0.84551335135E+03  0.84576509888E+03  0.00000000000E+00 0. -1.
         21    1    1    2  503  502  0.14634602318E+02  0.14546600685E+02  0.17085771668E+02  0.26789900523E+02  0.00000000000E+00 0. -1.
</event>
<event>
 4    1  0.2239940E+005  0.6601982E+02  0.7546771E-02  0.1240646E+00
          2   -1    0    0  503    0  0.00000000000E+00  0.00000000000E+00  0.10692594479E+02  0.10692594479E+02  0.00000000000E+00 0.  1.
         21   -1    0    0  501  502 -0.00000000000E+00 -0.00000000000E+00 -0.69340516826E+03  0.69340516826E+03  0.00000000000E+00 0.  1.
          2    1    1    2  501    0 -0.27571163416E+02 -0.59987064606E+02 -0.11534920191E+03  0.13290619005E+03  0.00000000000E+00 0.  1.
         21    1    1    2  503  502  0.27571163416E+02  0.59987064606E+02 -0.56736337187E+03  0.57119157269E+03  0.00000000000E+00 0.  1.
</event>
<event>
 4    1  0.2239940E+005  0.2534916E+02  0.7546771E-02  0.1464935E+00
          2   -1    0    0  503    0  0.00000000000E+00  0.00000000000E+00  0.13626526477E+04  0.13626526477E+04  0.00000000000E+00 0. -1.
         21   -1    0    0  501  502 -0.00000000000E+00 -0.00000000000E+00 -0.25121871079E+02  0.25121871079E+02  0.00000000000E+00 0. -1.
          2    1    1    2  501    0  0.25334137261E+02 -0.87266123421E+00  0.13561092766E+04  0.13563461764E+04  0.00000000000E+00 0. -1.
         21    1    1    2  503  502 -0.25334137261E+02  0.87266123421E+00 -0.18578499951E+02  0.31428342445E+02  0.00000000000E+00 0. -1.
</event>
<event>
 4    1  0.2239940E+005  0.2431419E+02  0.7546771E-02  0.1476624E+00
          2   -1    0    0  503    0  0.00000000000E+00  0.00000000000E+00  0.17278308269E+04  0.17278308269E+04  0.00000000000E+00 0. -1.
         21   -1    0    0  501  502 -0.00000000000E+00 -0.00000000000E+00 -0.13243621778E+01  0.13243621778E+01  0.00000000000E+00 0.  1.
          2    1    1    2  501    0 -0.24308264147E+02  0.53660336391E+00  0.16078188041E+04  0.16080026388E+04  0.00000000000E+00 0. -1.
         21    1    1    2  503  502  0.24308264147E+02 -0.53660336391E+00  0.11868766065E+03  0.12115255028E+03  0.00000000000E+00 0.  1.
</event>
<event>
 4    1  0.2239940E+005  0.2561532E+02  0.7546771E-02  0.1462036E+00
          2   -1    0    0  502    0  0.00000000000E+00  0.00000000000E+00  0.50072079238E+03  0.50072079238E+03  0.00000000000E+00 0.  1.
         21   -1    0    0  503  502 -0.00000000000E+00 -0.00000000000E+00 -0.14990258396E+03  0.14990258396E+03  0.00000000000E+00 0.  1.
          2    1    1    2  501    0  0.11022090483E+02  0.23122677565E+02  0.49929578606E+03  0.49995242441E+03  0.00000000000E+00 0.  1.
         21    1    1    2  503  501 -0.11022090483E+02 -0.23122677565E+02 -0.14847757764E+03  0.15067095193E+03  0.00000000000E+00 0.  1.
</event>
<event>
 4    1  0.2239940E+005  0.3912403E+02  0.7546771E-02  0.1353697E+00
          2   -1    0    0  503    0  0.00000000000E+00  0.00000000000E+00  0.94023873900E+02  0.94023873900E+02  0.00000000000E+00 0. -1.
         21   -1    0    0  501  502 -0.00000000000E+00 -0.00000000000E+00 -0.16615207085E+02  0.16615207085E+02  0.00000000000E+00 0.  1.
          2    1    1    2  501    0  0.36842170794E+02  0.13166012633E+02  0.46564191885E+02  0.60818692877E+02  0.00000000000E+00 0. -1.
         21    1    1    2  503  502 -0.36842170794E+02 -0.13166012633E+02  0.30844474931E+02  0.49820388108E+02  0.00000000000E+00 0.  1.
</event>
<event>
 4    1  0.2239940E+005  0.7267725E+02  0.7546771E-02  0.1221951E+00
          2   -1    0    0  503    0  0.00000000000E+00  0.00000000000E+00  0.37788791320E+03  0.37788791320E+03  0.00000000000E+00 0. -1.
         21   -1    0    0  501  502 -0.00000000000E+00 -0.00000000000E+00 -0.14025437323E+02  0.14025437323E+02  0.00000000000E+00 0. -1.
          2    1    1    2  501    0  0.19900828420E+02 -0.69899497123E+02  0.19337018637E+03  0.20657689040E+03  0.00000000000E+00 0. -1.
         21    1    1    2  503  502 -0.19900828420E+02  0.69899497123E+02  0.17049228950E+03  0.18533646012E+03  0.00000000000E+00 0. -1.
</event>
<event>
 4    1  0.2239940E+005  0.2164312E+02  0.7546771E-02  0.1510278E+00
          2   -1    0    0  503    0  0.00000000000E+00  0.00000000000E+00  0.18006538087E+02  0.18006538087E+02  0.00000000000E+00 0.  1.
         21   -1    0    0  501  502 -0.00000000000E+00 -0.00000000000E+00 -0.19043818410E+03  0.19043818410E+03  0.00000000000E+00 0.  1.
          2    1    1    2  501    0  0.17007619704E+02  0.13385272330E+02  0.10626801731E+02  0.24111274507E+02  0.00000000000E+00 0.  1.
         21    1    1    2  503  502 -0.17007619704E+02 -0.13385272330E+02 -0.18305844774E+03  0.18433344768E+03  0.00000000000E+00 0.  1.
</event>
<event>
 4    1  0.2239940E+005  0.5068842E+02  0.7546771E-02  0.1295215E+00
          2   -1    0    0  503    0  0.00000000000E+00  0.00000000000E+00  0.98456254365E+03  0.98456254365E+03  0.00000000000E+00 0. -1.
         21   -1    0    0  501  502 -0.00000000000E+00 -0.00000000000E+00 -0.39161707699E+02  0.39161707699E+02  0.00000000000E+00 0.  1.
          2    1    1    2  501    0  0.39201762305E+02  0.32133130474E+02  0.96721418476E+03  0.96854147843E+03  0.00000000000E+00 0. -1.
         21    1    1    2  503  502 -0.39201762305E+02 -0.32133130474E+02 -0.21813348800E+02  0.55182772926E+02  0.00000000000E+00 0.  1.
</event>
<event>
 4    1  0.2239940E+005  0.2131063E+02  0.7546771E-02  0.1514876E+00
          2   -1    0    0  502    0  0.00000000000E+00  0.00000000000E+00  0.46466840577E+03  0.46466840577E+03  0.00000000000E+00 0. -1.
         21   -1    0    0  503  502 -0.00000000000E+00 -0.00000000000E+00 -0.13260243635E+01  0.13260243635E+01  0.00000000000E+00 0. -1.
          2    1    1    2  501    0 -0.59650533969E+01 -0.20458767196E+02  0.35114861645E+03  0.35179467570E+03  0.00000000000E+00 0. -1.
         21    1    1    2  503  501  0.59650533969E+01  0.20458767196E+02  0.11219376495E+03  0.11419975443E+03  0.00000000000E+00 0. -1.
</event>
<event>
 4    1  0.2239940E+005  0.2019829E+02  0.7546771E-02  0.1531026E+00
          2   -1    0    0  502    0  0.00000000000E+00  0.00000000000E+00  0.16664034754E+03  0.16664034754E+03  0.00000000000E+00 0.  1.
         21   -1    0    0  503  502 -0.00000000000E+00 -0.00000000000E+00 -0.59426938197E+01  0.59426938197E+01  0.00000000000E+00 0. -1.
          2    1    1    2  501    0  0.49663518774E+01  0.19578209086E+02  0.14651984682E+03  0.14790549832E+03  0.00000000000E+00 0.  1.
         21    1    1    2  503  501 -0.49663518774E+01 -0.19578209086E+02  0.14177806907E+02  0.24677543044E+02  0.00000000000E+00 0. -1.
</event>
<event>
 4    1  0.2239940E+005  0.3767553E+02  0.7546771E-02  0.1362673E+00
          2   -1    0    0  503    0  0.00000000000E+00  0.00000000000E+00  0.19077695012E+04  0.19077695012E+04  0.00000000000E+00 0. -1.
         21   -1    0    0  501  502 -0.00000000000E+00 -0.00000000000E+00 -0.23224332308E+02  0.23224332308E+02  0.00000000000E+00 0. -1.
          2    1    1    2  501    0 -0.17992205093E+02  0.33101754498E+02  0.18921778751E+04  0.18925529205E+04  0.00000000000E+00 0. -1.
         21    1    1    2  503  502  0.17992205093E+02 -0.33101754498E+02 -0.76327062040E+01  0.38440913087E+02  0.00000000000E+00 0. -1.
</event>
<event>
 4    1  0.2239940E+005  0.3917575E+02  0.7546771E-02  0.1353385E+00
          2   -1    0    0  502    0  0.00000000000E+00  0.00000000000E+00  0.19853619166E+04  0.19853619166E+04  0.00000000000E+00 0. -1.
         21   -1    0    0  503  502 -0.00000000000E+00 -0.00000000000E+00 -0.37805158212E+01  0.37805158212E+01  0.00000000000E+00 0. -1.
          2    1    1    2  501    0 -0.39103642178E+02 -0.23757552001E+01  0.18778697908E+04  0.18782783846E+04  0.00000000000E+00 0. -1.
         21    1    1    2  503  501  0.39103642178E+02  0.23757552001E+01  0.10371161002E+03  0.11086404781E+03  0.00000000000E+00 0. -1.
</event>
<event>
 4    1  0.2239940E+005  0.2795081E+02  0.7546771E-02  0.1438284E+00
          2   -1    0    0  502    0  0.00000000000E+00  0.00000000000E+00  0.16304607744E+03  0.16304607744E+03  0.00000000000E+00 0.  1.
         21   -1    0    0  503  502 -0.00000000000E+00 -0.00000000000E+00 -0.33079513428E+02  0.33079513428E+02  0.00000000000E+00 0.  1.
          2    1    1    2  501    0 -0.20114531111E+02  0.19407564457E+02  0.15566616997E+03  0.15815563345E+03  0.00000000000E+00 0.  1.
         21    1    1    2  503  501  0.20114531111E+02 -0.19407564457E+02 -0.25699605955E+02  0.37969957417E+02  0.00000000000E+00 0.  1.
</event>
<event>
 4    1  0.2239940E+005  0.3188039E+02  0.7546771E-02  0.1403930E+00
          2   -1    0    0  502    0  0.00000000000E+00  0.00000000000E+00  0.18402607255E+04  0.18402607255E+04  0.00000000000E+00 0. -1.
         21   -1    0    0  503  502 -0.00000000000E+00 -0.00000000000E+00 -0.19910891477E+01  0.19910891477E+01  0.00000000000E+00 0. -1.
          2    1    1    2  501    0  0.31519977806E+02  0.47802266259E+01  0.17021561054E+04  0.17024546298E+04  0.00000000000E+00 0. -1.
         21    1    1    2  503  501 -0.31519977806E+02 -0.47802266259E+01  0.13611353097E+03  0.13979718481E+03  0.00000000000E+00 0. -1.
</event>
<event>
 4    1  0.2239940E+005  0.3247597E+02  0.7546771E-02  0.1399233E+00
          2   -1    0    0  502    0  0.00000000000E+00  0.00000000000E+00  0.11220668925E+04  0.11220668925E+04  0.00000000000E+00 0.  1.
         21   -1    0    0  503  502 -0.00000000000E+00 -0.00000000000E+00 -0.38359960554E+01  0.38359960554E+01  0.00000000000E+00 0.  1.
          2    1    1    2  501    0  0.32341934391E+02  0.29475255234E+01  0.10482569021E+04  0.10487598493E+04  0.00000000000E+00 0.  1.
         21    1    1    2  503  501 -0.32341934391E+02 -0.29475255234E+01  0.69973994359E+02  0.77143039306E+02  0.00000000000E+00 0.  1.
</event>
<event>
 4    1  0.2239940E+005  0.3057451E+02  0.7546771E-02  0.1414668E+00
          2   -1    0    0  503    0  0.00000000000E+00  0.00000000000E+00  0.29886565031E+02  0.29886565031E+02  0.00000000000E+00 0.  1.
         21   -1    0    0  501  502 -0.00000000000E+00 -0.00000000000E+00 -0.37505261776E+02  0.37505261776E+02  0.00000000000E+00 0.  1.
          2    1    1    2  501    0 -0.29772087857E+02  0.69587014805E+01  0.99206179637E+01  0.32143730375E+02  0.00000000000E+00 0.  1.
         21    1    1    2  503  502  0.29772087857E+02 -0.69587014805E+01 -0.17539314708E+02  0.35248096432E+02  0.00000000000E+00 0.  1.
</event>
<event>
 4    1  0.2239940E+005  0.4586385E+02  0.7546771E-02  0.1317175E+00
          2   -1    0    0  503    0  0.00000000000E+00  0.00000000000E+00  0.41743874835E+03  0.41743874835E+03  0.00000000000E+00 0. -1.
         21   -1    0    0  501  502 -0.00000000000E+00 -0.00000000000E+00 -0.19448180233E+02  0.19448180233E+02  0.00000000000E+00 0. -1.
          2    1    1    2  501    0  0.36466651660E+02 -0.27815029014E+02  0.38702155499E+03  0.38972961980E+03  0.00000000000E+00 0. -1.
         21    1    1    2  503  502 -0.36466651660E+02  0.27815029014E+02  0.10969013123E+02  0.47157308779E+02  0.00000000000E+00 0. -1.
</event>
<event>
 4    1  0.2239940E+005  0.2786478E+02  0.7546771E-02  0.1439109E+00
          2   -1    0    0  503    0  0.00000000000E+00  0.00000000000E+00  0.23562804497E+02  0.23562804497E+02  0.00000000000E+00 0. -1.
         21   -1    0    0  501  502 -0.00000000000E+00 -0.00000000000E+00 -0.11927713212E+03  0.11927713212E+03  0.00000000000E+00 0. -1.
          2    1    1    2  501    0  0.26291892644E+02  0.92294324848E+01  0.12901638362E+02  0.30706649365E+02  0.00000000000E+00 0. -1.
         21    1    1    2  503  502 -0.26291892644E+02 -0.92294324848E+01 -0.10861596599E+03  0.11213328725E+03  0.00000000000E+00 0. -1.
</event>
<event>
 4    1  0.2239940E+005  0.2298831E+02  0.7546771E-02  0.1492645E+00
          2   -1    0    0  502    0  0.00000000000E+00  0.00000000000E+00  0.21818826812E+04  0.21818826812E+04  0.00000000000E+00 0.  1.
         21   -1    0    0  503  502 -0.00000000000E+00 -0.00000000000E+00 -0.30703430721E+00  0.30703430721E+00  0.00000000000E+00 0.  1.
          2    1    1    2  501    0  0.21757908987E+02 -0.74199743546E+01  0.15921541525E+04  0.15923201023E+04  0.00000000000E+00 0.  1.
         21    1    1    2  503  501 -0.21757908987E+02  0.74199743546E+01  0.58942149439E+03  0.58986961328E+03  0.00000000000E+00 0.  1.
</event>
<event>
 4    1  0.2239940E+005  0.2689604E+02  0.7546771E-02  0.1448655E+00
          2   -1    0    0  503    0  0.00000000000E+00  0.00000000000E+00  0.13316934087E+04  0.13316934087E+04  0.00000000000E+00 0. -1.
         21   -1    0    0  501  502 -0.00000000000E+00 -0.00000000000E+00 -0.62558686653E+00  0.62558686653E+00  0.00000000000E+00 0. -1.
          2    1    1    2  501    0 -0.26882592767E+02  0.85041049830E+00  0.90725891505E+03  0.90765749924E+03  0.00000000000E+00 0. -1.
         21    1    1    2  503  502  0.26882592767E+02 -0.85041049830E+00  0.42380890679E+03  0.42466149633E+03  0.00000000000E+00 0. -1.
</event>
<event>
 4    1  0.2239940E+005  0.4445786E+02  0.7546771E-02  0.1324173E+00
          2   -1    0    0  503    0  0.00000000000E+00  0.00000000000E+00  0.95499656048E+03  0.95499656048E+03  0.00000000000E+00 0. -1.
         21   -1    0    0  501  502 -0.00000000000E+00 -0.00000000000E+00 -0.10338512204E+02  0.10338512204E+02  0.00000000000E+00 0.  1.
          2    1    1    2  501    0  0.16470381760E+02  0.41294404325E+02  0.90398936181E+03  0.90508191208E+03  0.00000000000E+00 0. -1.
         21    1    1    2  503  502 -0.16470381760E+02 -0.41294404325E+02  0.40668686460E+02  0.60253160600E+02  0.00000000000E+00 0.  1.
</event>
<event>
 4    1  0.2239940E+005  0.4260315E+02  0.7546771E-02  0.1333871E+00
          2   -1    0    0  502    0  0.00000000000E+00  0.00000000000E+00  0.39951008558E+03  0.39951008558E+03  0.00000000000E+00 0. -1.
         21   -1    0    0  503  502 -0.00000000000E+00 -0.00000000000E+00 -0.23205829763E+02  0.23205829763E+02  0.00000000000E+00 0. -1.
          2    1    1    2  501    0  0.42451836395E+02 -0.35874325043E+01  0.37769490271E+03  0.38009007830E+03  0.00000000000E+00 0. -1.
         21    1    1    2  503  501 -0.42451836395E+02  0.35874325043E+01 -0.13906468927E+01  0.42625837048E+02  0.00000000000E+00 0. -1.
</event>
<event>
 4    1  0.2239940E+005  0.2351747E+02  0.7546771E-02  0.1486100E+00
          2   -1    0    0  503    0  0.00000000000E+00  0.00000000000E+00  0.32897378536E+02  0.32897378536E+02  0.00000000000E+00 0. -1.
         21   -1    0    0  501  502 -0.00000000000E+00 -0.00000000000E+00 -0.28063512160E+02  0.28063512160E+02  0.00000000000E+00 0. -1.
          2    1    1    2  501    0  0.19498828344E+02  0.13147894622E+02  0.21716845081E+02  0.32010823170E+02  0.00000000000E+00 0. -1.
         21    1    1    2  503  502 -0.19498828344E+02 -0.13147894622E+02 -0.16882978706E+02  0.28950067526E+02  0.00000000000E+00 0. -1.
</event>
<event>
 4    1  0.2239940E+005  0.2148234E+02  0.7546771E-02  0.1512488E+00
          2   -1    0    0  503    0  0.00000000000E+00  0.00000000000E+00  0.87030433198E+03  0.87030433198E+03  0.00000000000E+00 0.  1.
         21   -1    0    0  501  502 -0.00000000000E+00 -0.00000000000E+00 -0.12985641121E+01  0.12985641121E+01  0.00000000000E+00 0.  1.
          2    1    1    2  501    0 -0.11727666681E+02 -0.17998691975E+02  0.76971708730E+03  0.77001680862E+03  0.00000000000E+00 0.  1.
         21    1    1    2  503  502  0.11727666681E+02  0.17998691975E+02  0.99288680570E+02  0.10158608747E+03  0.00000000000E+00 0.  1.
</event>
<event>
 4    1  0.2239940E+005  0.2553661E+02  0.7546771E-02  0.1462889E+00
          2   -1    0    0  502    0  0.00000000000E+00  0.00000000000E+00  0.10812248159E+04  0.10812248159E+04  0.00000000000E+00 0.  1.
         21   -1    0    0  503  502 -0.00000000000E+00 -0.00000000000E+00 -0.51317958305E+01  0.51317958305E+01  0.00000000000E+00 0.  1.
          2    1    1    2  501    0  0.51507849076E+01 -0.25011759253E+02  0.10483081124E+04  0.10486191001E+04  0.00000000000E+00 0.  1.
         21    1    1    2  503  501 -0.51507849076E+01  0.25011759253E+02  0.27784907689E+02  0.37737511595E+02  0.00000000000E+00 0.  1.
</event>
<event>
 4    1  0.2239940E+005  0.2109934E+02  0.7546771E-02  0.1517851E+00
          2   -1    0    0  503    0  0.00000000000E+00  0.00000000000E+00  0.17637870758E+03  0.17637870758E+03  0.00000000000E+00 0.  1.
         21   -1    0    0  501  502 -0.00000000000E+00 -0.00000000000E+00 -0.42942216915E+02  0.42942216915E+02  0.00000000000E+00 0. -1.
          2    1    1    2  501    0 -0.18625911190E+02 -0.99124988923E+01  0.17310715188E+03  0.17438826863E+03  0.00000000000E+00 0.  1.
         21    1    1    2  503  502  0.18625911190E+02  0.99124988923E+01 -0.39670661217E+02  0.44932655868E+02  0.00000000000E+00 0. -1.
</event>
<event>
 4    1  0.2239940E+005  0.3305029E+02  0.7546771E-02  0.1394814E+00
          2   -1    0    0  502    0  0.00000000000E+00  0.00000000000E+00  0.38351396663E+03  0.38351396663E+03  0.00000000000E+00 0. -1.
         21   -1    0    0  503  502 -0.00000000000E+00 -0.00000000000E+00 -0.10466112593E+03  0.10466112593E+03  0.00000000000E+00 0.  1.
          2    1    1    2  501    0 -0.32923492137E+02 -0.28922704700E+01  0.38016982372E+03  0.38160374269E+03  0.00000000000E+00 0. -1.
         21    1    1    2  503  501  0.32923492137E+02  0.28922704700E+01 -0.10131698303E+03  0.10657134987E+03  0.00000000000E+00 0.  1.
</event>
<event>
 4    1  0.2239940E+005  0.2554696E+02  0.7546771E-02  0.1462777E+00
          2   -1    0    0  502    0  0.00000000000E+00  0.00000000000E+00  0.73277763624E+03  0.73277763624E+03  0.00000000000E+00 0. -1.
         21   -1    0    0  503  502 -0.00000000000E+00 -0.00000000000E+00 -0.17760572684E+01  0.17760572684E+01  0.00000000000E+00 0. -1.
          2    1    1    2  501    0 -0.19133312656E+02 -0.16928181221E+02  0.62482143152E+03  0.62534348023E+03  0.00000000000E+00 0. -1.
         21    1    1    2  503  501  0.19133312656E+02  0.16928181221E+02  0.10618014745E+03  0.10921021328E+03  0.00000000000E+00 0. -1.
</event>
<event>
 4    1  0.2239940E+005  0.2166847E+02  0.7546771E-02  0.1509931E+00
          2   -1    0    0  502    0  0.00000000000E+00  0.00000000000E+00  0.13578978872E+02  0.13578978872E+02  0.00000000000E+00 0. -1.
         21   -1    0    0  503  502 -0.00000000000E+00 -0.00000000000E+00 -0.46904803366E+03  0.46904803366E+03  0.00000000000E+00 0.  1.
          2    1    1    2  501    0 -0.21470757956E+02  0.29204512112E+01  0.45141798742E+01  0.22133691567E+02  0.00000000000E+00 0. -1.
         21    1    1    2  503  501  0.21470757956E+02 -0.29204512112E+01 -0.45998323466E+03  0.46049332096E+03  0.00000000000E+00 0.  1.
</event>
<event>
 4    1  0.2239940E+005  0.4719065E+02  0.7546771E-02  0.1310835E+00
          2   -1    0    0  503    0  0.00000000000E+00  0.00000000000E+00  0.10154480937E+03  0.10154480937E+03  0.00000000000E+00 0.  1.
         21   -1    0    0  501  502 -0.00000000000E+00 -0.00000000000E+00 -0.30819001836E+02  0.30819001836E+02  0.00000000000E+00 0.  1.
          2    1    1    2  501    0 -0.98547633761E+01 -0.46150196285E+02  0.70904538658E+02  0.85172827714E+02  0.00000000000E+00 0.  1.
         21    1    1    2  503  502  0.98547633761E+01  0.46150196285E+02 -0.17873112195E+00  0.47190983495E+02  0.00000000000E+00 0.  1.
</event>
<event>
 4    1  0.2239940E+005  0.2138344E+02  0.7546771E-02  0.1513860E+00
          2   -1    0    0  503    0  0.00000000000E+00  0.00000000000E+00  0.15568754015E+04  0.15568754015E+04  0.00000000000E+00 0. -1.
         21   -1    0    0  501  502 -0.00000000000E+00 -0.00000000000E+00 -0.29758602830E+00  0.29758602830E+00  0.00000000000E+00 0. -1.
          2    1    1    2  501    0 -0.21753301272E+01 -0.21272507982E+02  0.86728042519E+03  0.86754399749E+03  0.00000000000E+00 0. -1.
         21    1    1    2  503  502  0.21753301272E+01  0.21272507982E+02  0.68929739028E+03  0.68962899004E+03  0.00000000000E+00 0. -1.
</event>
<event>
 4    1  0.2239940E+005  0.3043451E+02  0.7546771E-02  0.1415857E+00
          2   -1    0    0  502    0  0.00000000000E+00  0.00000000000E+00  0.50187824016E+03  0.50187824016E+03  0.00000000000E+00 0. -1.
         21   -1    0    0  503  502 -0.00000000000E+00 -0.00000000000E+00 -0.35704584493E+01  0.35704584493E+01  0.00000000000E+00 0. -1.
          2    1    1    2  501    0  0.75694536732E+00 -0.30425095150E+02  0.42481014055E+03  0.42589894916E+03  0.00000000000E+00 0. -1.
         21    1    1    2  503  501 -0.75694536732E+00  0.30425095150E+02  0.73497641151E+02  0.79549749440E+02  0.00000000000E+00 0. -1.
</event>
<event>
 4    1  0.2239940E+005  0.2160108E+02  0.7546771E-02  0.1510853E+00
          2   -1    0    0  502    0  0.00000000000E+00  0.00000000000E+00  0.40249852745E+03  0.40249852745E+03  0.00000000000E+00 0.  1.
         21   -1    0    0  503  502 -0.00000000000E+00 -0.00000000000E+00 -0.66180758874E+01  0.66180758874E+01  0.00000000000E+00 0.  1.
          2    1    1    2  501    0 -0.21334074908E+02  0.33858073397E+01  0.38372061496E+03  0.38432813687E+03  0.00000000000E+00 0.  1.
         21    1    1    2  503  501  0.21334074908E+02 -0.33858073397E+01  0.12159836597E+02  0.24788466463E+02  0.00000000000E+00 0.  1.
</event>
<event>
 4    1  0.2239940E+005  0.2179164E+02  0.7546771E-02  0.1508256E+00
          2   -1    0    0  502    0  0.00000000000E+00  0.00000000000E+00  0.11449389145E+04  0.11449389145E+04  0.00000000000E+00 0.  1.
         21   -1    0    0  503  502 -0.00000000000E+00 -0.00000000000E+00 -0.99170592006E+00  0.99170592006E+00  0.00000000000E+00 0.  1.
          2    1    1    2  501    0 -0.19643985738E+02  0.94334098826E+01  0.10089965638E+04  0.10092318569E+04  0.00000000000E+00 0.  1.
         21    1    1    2  503  501  0.19643985738E+02 -0.94334098826E+01  0.13495064482E+03  0.13669876348E+03  0.00000000000E+00 0.  1.
</event>
<event>
 4    1  0.2239940E+005  0.2119899E+02  0.7546771E-02  0.1516443E+00
          2   -1    0    0  502    0  0.00000000000E+00  0.00000000000E+00  0.27698072966E+03  0.27698072966E+03  0.00000000000E+00 0.  1.
         21   -1    0    0  503  502 -0.00000000000E+00 -0.00000000000E+00 -0.17922594099E+02  0.17922594099E+02  0.00000000000E+00 0.  1.
          2    1    1    2  501    0  0.17178298345E+02 -0.12421887111E+02  0.27014822355E+03  0.27097870747E+03  0.00000000000E+00 0.  1.
         21    1    1    2  503  501 -0.17178298345E+02  0.12421887111E+02 -0.11090087985E+02  0.23924616296E+02  0.00000000000E+00 0.  1.
</event>
<event>
 4    1  0.2239940E+005  0.3044305E+02  0.7546771E-02  0.1415785E+00
          2   -1    0    0  502    0  0.00000000000E+00  0.00000000000E+00  0.60091933599E+03  0.60091933599E+03  0.00000000000E+00 0. -1.
         21   -1    0    0  503  502 -0.00000000000E+00 -0.00000000000E+00 -0.45614586209E+01  0.45614586209E+01  0.00000000000E+00 0. -1.
          2    1    1    2  501    0  0.27618001591E+02  0.12807237742E+02  0.54447853003E+03  0.54532893653E+03  0.00000000000E+00 0. -1.
         21    1    1    2  503  501 -0.27618001591E+02 -0.12807237742E+02  0.51879347334E+02  0.60151858078E+02  0.00000000000E+00 0. -1.
</event>
<event>
 4    1  0.2239940E+005  0.2262370E+02  0.7546771E-02  0.1497278E+00
          2   -1    0    0  503    0  0.00000000000E+00  0.00000000000E+00  0.97687455881E+01  0.97687455881E+01  0.00000000000E+00 0.  1.
         21   -1    0    0  501  502 -0.00000000000E+00 -0.00000000000E+00 -0.91657539368E+02  0.91657539368E+02  0.00000000000E+00 0.  1.
          2    1    1    2  501    0  0.10418933588E+02 -0.20081767914E+02 -0.77529134466E+01  0.23915251339E+02  0.00000000000E+00 0.  1.
         21    1    1    2  503  502 -0.10418933588E+02  0.20081767914E+02 -0.74135880333E+02  0.77511033617E+02  0.00000000000E+00 0.  1.
</event>
<event>
 4    1  0.2239940E+005  0.2022220E+02  0.7546771E-02  0.1530666E+00
          2   -1    0    0  503    0  0.00000000000E+00  0.00000000000E+00  0.12242498644E+02  0.12242498644E+02  0.00000000000E+00 0. -1.
         21   -1    0    0  501  502 -0.00000000000E+00 -0.00000000000E+00 -0.38459063486E+03  0.38459063486E+03  0.00000000000E+00 0. -1.
          2    1    1    2  501    0 -0.80775891825E+01  0.18538871569E+02  0.34302111043E+01  0.20511059317E+02  0.00000000000E+00 0. -1.
         21    1    1    2  503  502  0.80775891825E+01 -0.18538871569E+02 -0.37577834732E+03  0.37632207419E+03  0.00000000000E+00 0. -1.
</event>
<event>
 4    1  0.2239940E+005  0.2148492E+02  0.7546771E-02  0.1512453E+00
          2   -1    0    0  502    0  0.00000000000E+00  0.00000000000E+00  0.12842603451E+03  0.12842603451E+03  0.00000000000E+00 0.  1.
         21   -1    0    0  503  502 -0.00000000000E+00 -0.00000000000E+00 -0.80202580750E+02  0.80202580750E+02  0.00000000000E+00 0.  1.
          2    1    1    2  501    0 -0.95478461219E+01 -0.19246833292E+02  0.12606180443E+03  0.12787955463E+03  0.00000000000E+00 0.  1.
         21    1    1    2  503  501  0.95478461219E+01  0.19246833292E+02 -0.77838350669E+02  0.80749060627E+02  0.00000000000E+00 0.  1.
</event>
<event>
 4    1  0.2239940E+005  0.2484721E+02  0.7546771E-02  0.1470520E+00
          2   -1    0    0  503    0  0.00000000000E+00  0.00000000000E+00  0.31442035228E+03  0.31442035228E+03  0.00000000000E+00 0.  1.
         21   -1    0    0  501  502 -0.00000000000E+00 -0.00000000000E+00 -0.34694907520E+02  0.34694907520E+02  0.00000000000E+00 0. -1.
          2    1    1    2  501    0  0.19095544995E+02  0.15897926271E+02  0.30940885889E+03  0.31040493852E+03  0.00000000000E+00 0.  1.
         21    1    1    2  503  502 -0.19095544995E+02 -0.15897926271E+02 -0.29683414136E+02  0.38710321274E+02  0.00000000000E+00 0. -1.
</event>
<event>
 4    1  0.2239940E+005  0.3671862E+02  0.7546771E-02  0.1368867E+00
          2   -1    0    0  503    0  0.00000000000E+00  0.00000000000E+00  0.15826273634E+04  0.15826273634E+04  0.00000000000E+00 0. -1.
         21   -1    0    0  501  502 -0.00000000000E+00 -0.00000000000E+00 -0.14844270326E+01  0.14844270326E+01  0.00000000000E+00 0.  1.
          2    1    1    2  501    0  0.27713465578E+02 -0.24087771514E+02  0.13075974108E+04  0.13081128566E+04  0.00000000000E+00 0. -1.
         21    1    1    2  503  502 -0.27713465578E+02  0.24087771514E+02  0.27354552564E+03  0.27599893389E+03  0.00000000000E+00 0.  1.
</event>
<event>
 4    1  0.2239940E+005  0.2109474E+02  0.7546771E-02  0.1517916E+00
          2   -1    0    0  503    0  0.00000000000E+00  0.00000000000E+00  0.36000244220E+03  0.36000244220E+03  0.00000000000E+00 0.  1.
         21   -1    0    0  501  502 -0.00000000000E+00 -0.00000000000E+00 -0.18990052366E+03  0.18990052366E+03  0.00000000000E+00 0. -1.
          2    1    1    2  501    0  0.19236673757E+02  0.86566955496E+01  0.35910614674E+03  0.35972519042E+03  0.00000000000E+00 0.  1.
         21    1    1    2  503  502 -0.19236673757E+02 -0.86566955496E+01 -0.18900422820E+03  0.19017777544E+03  0.00000000000E+00 0. -1.
</event>
<event>
 4    1  0.2239940E+005  0.1134087E+03  0.7546771E-02  0.1142406E+00
          2   -1    0    0  503    0  0.00000000000E+00  0.00000000000E+00  0.15915631920E+04  0.15915631920E+04  0.00000000000E+00 0. -1.
         21   -1    0    0  501  502 -0.00000000000E+00 -0.00000000000E+00 -0.46754864968E+02  0.46754864968E+02  0.00000000000E+00 0.  1.
          2    1    1    2  501    0  0.86342588922E+00 -0.11340538884E+03  0.15174161061E+04  0.15216481744E+04  0.00000000000E+00 0. -1.
         21    1    1    2  503  502 -0.86342588922E+00  0.11340538884E+03  0.27392220940E+02  0.11666988254E+03  0.00000000000E+00 0.  1.
</event>
<event>
 4    1  0.2239940E+005  0.2800936E+02  0.7546771E-02  0.1437724E+00
          2   -1    0    0  503    0  0.00000000000E+00  0.00000000000E+00  0.93822282722E+03  0.93822282722E+03  0.00000000000E+00 0. -1.
         21   -1    0    0  501  502 -0.00000000000E+00 -0.00000000000E+00 -0.10158492550E+01  0.10158492550E+01  0.00000000000E+00 0. -1.
          2    1    1    2  501    0  0.83076617642E+00  0.27997033247E+02  0.66610348430E+03  0.66669211473E+03  0.00000000000E+00 0. -1.
         21    1    1    2  503  502 -0.83076617642E+00 -0.27997033247E+02  0.27110349366E+03  0.27254656175E+03  0.00000000000E+00 0. -1.
</event>
<event>
 4    1  0.2239940E+005  0.2566983E+02  0.7546771E-02  0.1461448E+00
          2   -1    0    0  502    0  0.00000000000E+00  0.00000000000E+00  0.71596255055E+02  0.71596255055E+02  0.00000000000E+00 0.  1.
         21   -1    0    0  503  502 -0.00000000000E+00 -0.00000000000E+00 -0.10204409267E+03  0.10204409267E+03  0.00000000000E+00 0.  1.
          2    1    1    2  501    0  0.19647982223E+02 -0.16519588012E+02  0.67588513948E+02  0.72299012520E+02  0.00000000000E+00 0.  1.
         21    1    1    2  503  501 -0.19647982223E+02  0.16519588012E+02 -0.98036351568E+02  0.10134133521E+03  0.00000000000E+00 0.  1.
</event>
<event>
 4    1  0.2239940E+005  0.2582061E+02  0.7546771E-02  0.1459829E+00
          2   -1    0    0  503    0  0.00000000000E+00  0.00000000000E+00  0.99844004284E+03  0.99844004284E+03  0.00000000000E+00 0.  1.
         21   -1    0    0  501  502 -0.00000000000E+00 -0.00000000000E+00 -0.10275206826E+03  0.10275206826E+03  0.00000000000E+00 0.  1.
          2    1    1    2  501    0  0.18619422825E+02  0.17889128153E+02  0.99664807266E+03  0.99698248959E+03  0.00000000000E+00 0.  1.
         21    1    1    2  503  502 -0.18619422825E+02 -0.17889128153E+02 -0.10096009807E+03  0.10420962151E+03  0.00000000000E+00 0.  1.
</event>
<event>
 4    1  0.2239940E+005  0.3932927E+02  0.7546771E-02  0.1352462E+00
          2   -1    0    0  502    0  0.00000000000E+00  0.00000000000E+00  0.82447351284E+02  0.82447351284E+02  0.00000000000E+00 0.  1.
         21   -1    0    0  503  502 -0.00000000000E+00 -0.00000000000E+00 -0.13740884033E+03  0.13740884033E+03  0.00000000000E+00 0. -1.
          2    1    1    2  501    0 -0.38872876089E+02 -0.59741950355E+01  0.74667606192E+02  0.84392197010E+02  0.00000000000E+00 0.  1.
         21    1    1    2  503  501  0.38872876089E+02  0.59741950355E+01 -0.12962909524E+03  0.13546399461E+03  0.00000000000E+00 0. -1.
</event>
<event>
 4    1  0.2239940E+005  0.3490945E+02  0.7546771E-02  0.1381201E+00
          2   -1    0    0  502    0  0.00000000000E+00  0.00000000000E+00  0.17561103108E+04  0.17561103108E+04  0.00000000000E+00 0.  1.
         21   -1    0    0  503  502 -0.00000000000E+00 -0.00000000000E+00 -0.61306241366E+01  0.61306241366E+01  0.00000000000E+00 0.  1.
          2    1    1    2  501    0  0.28243216286E+02 -0.20518049053E+02  0.17047435715E+04  0.17051009689E+04  0.00000000000E+00 0.  1.
         21    1    1    2  503  501 -0.28243216286E+02  0.20518049053E+02  0.45236115184E+02  0.57139966049E+02  0.00000000000E+00 0.  1.
</event>
<event>
 4    1  0.2239940E+005  0.2665030E+02  0.7546771E-02  0.1451153E+00
          2   -1    0    0  503    0  0.00000000000E+00  0.00000000000E+00  0.14941599132E+04  0.14941599132E+04  0.00000000000E+00 0. -1.
         21   -1    0    0  501  502 -0.00000000000E+00 -0.00000000000E+00 -0.47896231094E+00  0.47896231094E+00  0.00000000000E+00 0. -1.
          2    1    1    2  501    0  0.14488287640E+02  0.22368010592E+02  0.81180432166E+03  0.81224164818E+03  0.00000000000E+00 0. -1.
         21    1    1    2  503  502 -0.14488287640E+02 -0.22368010592E+02  0.68187662927E+03  0.68239722737E+03  0.00000000000E+00 0. -1.
</event>
<event>
 4    1  0.2239940E+005  0.2376492E+02  0.7546771E-02  0.1483110E+00
          2   -1    0    0  502    0  0.00000000000E+00  0.00000000000E+00  0.11830592973E+04  0.11830592973E+04  0.00000000000E+00 0. -1.
         21   -1    0    0  503  502 -0.00000000000E+00 -0.00000000000E+00 -0.15117598458E+01  0.15117598458E+01  0.00000000000E+00 0. -1.
          2    1    1    2  501    0 -0.43796626483E+01  0.23357871685E+02  0.10806983754E+04  0.10809596432E+04  0.00000000000E+00 0. -1.
         21    1    1    2  503  501  0.43796626483E+01 -0.23357871685E+02  0.10084916203E+03  0.10361141393E+03  0.00000000000E+00 0. -1.
</event>
<event>
 4    1  0.2239940E+005  0.3549573E+02  0.7546771E-02  0.1377111E+00
          2   -1    0    0  503    0  0.00000000000E+00  0.00000000000E+00  0.37003486701E+03  0.37003486701E+03  0.00000000000E+00 0. -1.
         21   -1    0    0  501  502 -0.00000000000E+00 -0.00000000000E+00 -0.84400572428E+01  0.84400572428E+01  0.00000000000E+00 0. -1.
          2    1    1    2  501    0 -0.15052969436E+01  0.35463793128E+02  0.32696099785E+03  0.32888210754E+03  0.00000000000E+00 0. -1.
         21    1    1    2  503  502  0.15052969436E+01 -0.35463793128E+02  0.34633811913E+02  0.49592816713E+02  0.00000000000E+00 0. -1.
</event>
<event>
 4    1  0.2239940E+005  0.7715658E+02  0.7546771E-02  0.1210607E+00
          2   -1    0    0  502    0  0.00000000000E+00  0.00000000000E+00  0.96910195514E+03  0.96910195514E+03  0.00000000000E+00 0.  1.
         21   -1    0    0  503  502 -0.00000000000E+00 -0.00000000000E+00 -0.33069871866E+02  0.33069871866E+02  0.00000000000E+00 0. -1.
          2    1    1    2  501    0  0.72916697434E+02 -0.25224837136E+02  0.92017314395E+03  0.92340226988E+03  0.00000000000E+00 0.  1.
         21    1    1    2  503  501 -0.72916697434E+02  0.25224837136E+02  0.15858939324E+02  0.78769557125E+02  0.00000000000E+00 0. -1.
</event>
<event>
 4    1  0.2239940E+005  0.2235953E+02  0.7546771E-02  0.1500701E+00
          2   -1    0    0  502    0  0.00000000000E+00  0.00000000000E+00  0.11554941709E+04  0.11554941709E+04  0.00000000000E+00 0. -1.
         21   -1    0    0  503  502 -0.00000000000E+00 -0.00000000000E+00 -0.53130670431E+00  0.53130670431E+00  0.00000000000E+00 0. -1.
          2    1    1    2  501    0  0.52426748015E+00 -0.22353385750E+02  0.82652884905E+03  0.82683123249E+03  0.00000000000E+00 0. -1.
         21    1    1    2  503  501 -0.52426748015E+00  0.22353385750E+02  0.32843401513E+03  0.32919424510E+03  0.00000000000E+00 0. -1.
</event>
<event>
 4    1  0.2419500E+005  0.2358561E+02  0.7546771E-02  0.1485273E+00
          2   -1    0    0  503    0  0.00000000000E+00  0.00000000000E+00  0.13193094851E+04  0.13193094851E+04  0.00000000000E+00 0. -1.
         21   -1    0    0  501  502 -0.00000000000E+00 -0.00000000000E+00 -0.12605018395E+03  0.12605018395E+03  0.00000000000E+00 0. -1.
          2    1    1    2  501    0  0.21892493409E+02  0.87749469499E+01  0.13180997686E+04  0.13183107680E+04  0.00000000000E+00 0. -1.
         21    1    1    2  503  502 -0.21892493409E+02 -0.87749469499E+01 -0.12484046743E+03  0.12704890110E+03  0.00000000000E+00 0. -1.
</event>
<event>
 4    1  0.2239940E+005  0.2012999E+02  0.7546771E-02  0.1532058E+00
          2   -1    0    0  503    0  0.00000000000E+00  0.00000000000E+00  0.36162509885E+03  0.36162509885E+03  0.00000000000E+00 0. -1.
         21   -1    0    0  501  502 -0.00000000000E+00 -0.00000000000E+00 -0.16062092494E+01  0.16062092494E+01  0.00000000000E+00 0.  1.
          2    1    1    2  501    0  0.14553957506E+02  0.13906785299E+02  0.27987628848E+03  0.28059927514E+03  0.00000000000E+00 0. -1.
         21    1    1    2  503  502 -0.14553957506E+02 -0.13906785299E+02  0.80142601126E+02  0.82632032964E+02  0.00000000000E+00 0.  1.
</event>
<event>
 4    1  0.2239940E+005  0.2252343E+02  0.7546771E-02  0.1498571E+00
          2   -1    0    0  502    0  0.00000000000E+00  0.00000000000E+00  0.31973336313E+03  0.31973336313E+03  0.00000000000E+00 0. -1.
         21   -1    0    0  503  502 -0.00000000000E+00 -0.00000000000E+00 -0.30210499606E+02  0.30210499606E+02  0.00000000000E+00 0.  1.
          2    1    1    2  501    0  0.61833693263E+01  0.21658045313E+02  0.31507664852E+03  0.31588067277E+03  0.00000000000E+00 0. -1.
         21    1    1    2  503  501 -0.61833693263E+01 -0.21658045313E+02 -0.25553785000E+02  0.34063189968E+02  0.00000000000E+00 0.  1.
</event>
<event>
 4    1  0.2239940E+005  0.3031410E+02  0.7546771E-02  0.1416886E+00
          2   -1    0    0  503    0  0.00000000000E+00  0.00000000000E+00  0.61683396861E+02  0.61683396861E+02  0.00000000000E+00 0. -1.
         21   -1    0    0  501  502 -0.00000000000E+00 -0.00000000000E+00 -0.28365711434E+02  0.28365711434E+02  0.00000000000E+00 0.  1.
          2    1    1    2  501    0 -0.49418263230E+01 -0.29908573350E+02  0.47683240540E+02  0.56503414371E+02  0.00000000000E+00 0. -1.
         21    1    1    2  503  502  0.49418263230E+01  0.29908573350E+02 -0.14365555112E+02  0.33545693925E+02  0.00000000000E+00 0.  1.
</event>
<event>
 4    1  0.2239940E+005  0.3856247E+02  0.7546771E-02  0.1357122E+00
          2   -1    0    0  502    0  0.00000000000E+00  0.00000000000E+00  0.22970245270E+03  0.22970245270E+03  0.00000000000E+00 0.  1.
         21   -1    0    0  503  502 -0.00000000000E+00 -0.00000000000E+00 -0.76039527222E+02  0.76039527222E+02  0.00000000000E+00 0. -1.
          2    1    1    2  501    0  0.35139659588E+02  0.15882962570E+02  0.22305012807E+03  0.22635905948E+03  0.00000000000E+00 0.  1.
         21    1    1    2  503  501 -0.35139659588E+02 -0.15882962570E+02 -0.69387202587E+02  0.79382920448E+02  0.00000000000E+00 0. -1.
</event>
<event>
 4    1  0.2239940E+005  0.2837420E+02  0.7546771E-02  0.1434272E+00
          2   -1    0    0  502    0  0.00000000000E+00  0.00000000000E+00  0.54040653652E+02  0.54040653652E+02  0.00000000000E+00 0. -1.
         21   -1    0    0  503  502 -0.00000000000E+00 -0.00000000000E+00 -0.10742803814E+03  0.10742803814E+03  0.00000000000E+00 0. -1.
          2    1    1    2  501    0 -0.51315965710E+00  0.28369558243E+02  0.48233763770E+02  0.55960621290E+02  0.00000000000E+00 0. -1.
         21    1    1    2  503  501  0.51315965710E+00 -0.28369558243E+02 -0.10162114826E+03  0.10550807050E+03  0.00000000000E+00 0. -1.
</event>
<event>
 4    1  0.2239940E+005  0.2194603E+02  0.7546771E-02  0.1506175E+00
          2   -1    0    0  502    0  0.00000000000E+00  0.00000000000E+00  0.19677040734E+03  0.19677040734E+03  0.00000000000E+00 0. -1.
         21   -1    0    0  503  502 -0.00000000000E+00 -0.00000000000E+00 -0.27006660359E+01  0.27006660359E+01  0.00000000000E+00 0. -1.
          2    1    1    2  501    0 -0.16416817523E+02 -0.14564219106E+02  0.12756117071E+03  0.12943523728E+03  0.00000000000E+00 0. -1.
         21    1    1    2  503  501  0.16416817523E+02  0.14564219106E+02  0.66508570596E+02  0.70035836102E+02  0.00000000000E+00 0. -1.
</event>
<event>
 4    1  0.2239940E+005  0.2514387E+02  0.7546771E-02  0.1467200E+00
          2   -1    0    0  503    0  0.00000000000E+00  0.00000000000E+00  0.72745476503E+02  0.72745476503E+02  0.00000000000E+00 0. -1.
         21   -1    0    0  501  502 -0.00000000000E+00 -0.00000000000E+00 -0.10897914041E+02  0.10897914041E+02  0.00000000000E+00 0.  1.
          2    1    1    2  501    0 -0.24918425063E+02  0.33594807141E+01  0.49744904317E+02  0.55738402595E+02  0.00000000000E+00 0. -1.
         21    1    1    2  503  502  0.24918425063E+02 -0.33594807141E+01  0.12102658144E+02  0.27904987950E+02  0.00000000000E+00 0.  1.
</event>
<event>
 4    1  0.2239940E+005  0.2312341E+02  0.7546771E-02  0.1490954E+00
          2   -1    0    0  503    0  0.00000000000E+00  0.00000000000E+00  0.12996656403E+01  0.12996656403E+01  0.00000000000E+00 0. -1.
         21   -1    0    0  501  502 -0.00000000000E+00 -0.00000000000E+00 -0.71340242121E+03  0.71340242121E+03  0.00000000000E+00 0. -1.
          2    1    1    2  501    0 -0.65210827993E+01  0.22184847000E+02 -0.12354883096E+03  0.12569409528E+03  0.00000000000E+00 0. -1.
         21    1    1    2  503  502  0.65210827993E+01 -0.22184847000E+02 -0.58855392461E+03  0.58900799157E+03  0.00000000000E+00 0. -1.
</event>
<event>
 4    1  0.2239940E+005  0.3049719E+02  0.7546771E-02  0.1415324E+00
          2   -1    0    0  503    0  0.00000000000E+00  0.00000000000E+00  0.15069391308E+02  0.15069391308E+02  0.00000000000E+00 0. -1.
         21   -1    0    0  501  502 -0.00000000000E+00 -0.00000000000E+00 -0.94202291049E+02  0.94202291049E+02  0.00000000000E+00 0.  1.
          2    1    1    2  501    0 -0.23933270251E+02 -0.18901771894E+02 -0.74836552290E+01  0.31401966518E+02  0.00000000000E+00 0. -1.
         21    1    1    2  503  502  0.23933270251E+02  0.18901771894E+02 -0.71649244512E+02  0.77869715838E+02  0.00000000000E+00 0.  1.
</event>
<event>
 4    1  0.2239940E+005  0.3593192E+02  0.7546771E-02  0.1374127E+00
          2   -1    0    0  503    0  0.00000000000E+00  0.00000000000E+00  0.62981480539E+03  0.62981480539E+03  0.00000000000E+00 0.  1.
         21   -1    0    0  501  502 -0.00000000000E+00 -0.00000000000E+00 -0.22392257769E+01  0.22392257769E+01  0.00000000000E+00 0.  1.
          2    1    1    2  501    0  0.24775661184E+02  0.26024401096E+02  0.22191279648E+03  0.22480300727E+03  0.00000000000E+00 0.  1.
         21    1    1    2  503  502 -0.24775661184E+02 -0.26024401096E+02  0.40566278314E+03  0.40725102390E+03  0.00000000000E+00 0.  1.
</event>
<event>
 4    1  0.2239940E+005  0.2186125E+02  0.7546771E-02  0.1507315E+00
          2   -1    0    0  503    0  0.00000000000E+00  0.00000000000E+00  0.38033894362E+03  0.38033894362E+03  0.00000000000E+00 0.  1.
         21   -1    0    0  501  502 -0.00000000000E+00 -0.00000000000E+00 -0.51151511019E+01  0.51151511019E+01  0.00000000000E+00 0. -1.
          2    1    1    2  501    0 -0.17729150540E+02  0.12790291888E+02  0.35500149113E+03  0.35567397016E+03  0.00000000000E+00 0.  1.
         21    1    1    2  503  502  0.17729150540E+02 -0.12790291888E+02  0.20222301389E+02  0.29780124562E+02  0.00000000000E+00 0. -1.
</event>
<event>
 4    1  0.2239940E+005  0.2078035E+02  0.7546771E-02  0.1522424E+00
          2   -1    0    0  503    0  0.00000000000E+00  0.00000000000E+00  0.29352832112E+02  0.29352832112E+02  0.00000000000E+00 0.  1.
         21   -1    0    0  501  502 -0.00000000000E+00 -0.00000000000E+00 -0.24549262604E+03  0.24549262604E+03  0.00000000000E+00 0.  1.
          2    1    1    2  501    0 -0.18905337587E+02 -0.86261802306E+01  0.25171608960E+02  0.32640966166E+02  0.00000000000E+00 0.  1.
         21    1    1    2  503  502  0.18905337587E+02  0.86261802306E+01 -0.24131140288E+03  0.24220449198E+03  0.00000000000E+00 0.  1.
</event>
<event>
 4    1  0.2239940E+005  0.2334532E+02  0.7546771E-02  0.1488207E+00
          2   -1    0    0  502    0  0.00000000000E+00  0.00000000000E+00  0.86798151122E+03  0.86798151122E+03  0.00000000000E+00 0. -1.
         21   -1    0    0  503  502 -0.00000000000E+00 -0.00000000000E+00 -0.72814267776E+00  0.72814267776E+00  0.00000000000E+00 0.  1.
          2    1    1    2  501    0  0.12170308702E+02 -0.19922031230E+02  0.59479042987E+03  0.59524840126E+03  0.00000000000E+00 0. -1.
         21    1    1    2  503  501 -0.12170308702E+02  0.19922031230E+02  0.27246293868E+03  0.27346125264E+03  0.00000000000E+00 0.  1.
</event>
<event>
 4    1  0.2239940E+005  0.4655600E+02  0.7546771E-02  0.1313837E+00
          2   -1    0    0  502    0  0.00000000000E+00  0.00000000000E+00  0.75341421430E+03  0.75341421430E+03  0.00000000000E+00 0.  1.
         21   -1    0    0  503  502 -0.00000000000E+00 -0.00000000000E+00 -0.20824821689E+02  0.20824821689E+02  0.00000000000E+00 0. -1.
          2    1    1    2  501    0  0.46254201333E+02 -0.52924358142E+01  0.72568146926E+03  0.72717333274E+03  0.00000000000E+00 0.  1.
         21    1    1    2  503  501 -0.46254201333E+02  0.52924358142E+01  0.69079233552E+01  0.47065703255E+02  0.00000000000E+00 0. -1.
</event>
<event>
 4    1  0.2239940E+005  0.2089160E+02  0.7546771E-02  0.1520818E+00
          2   -1    0    0  502    0  0.00000000000E+00  0.00000000000E+00  0.57429497236E+03  0.57429497236E+03  0.00000000000E+00 0. -1.
         21   -1    0    0  503  502 -0.00000000000E+00 -0.00000000000E+00 -0.78388649225E+02  0.78388649225E+02  0.00000000000E+00 0. -1.
          2    1    1    2  501    0  0.43934413725E+01  0.20424409592E+02  0.57270915085E+03  0.57309007172E+03  0.00000000000E+00 0. -1.
         21    1    1    2  503  501 -0.43934413725E+01 -0.20424409592E+02 -0.76802827719E+02  0.79593549864E+02  0.00000000000E+00 0. -1.
</event>
<event>
 4    1  0.2239940E+005  0.3251939E+02  0.7546771E-02  0.1398895E+00
          2   -1    0    0  503    0  0.00000000000E+00  0.00000000000E+00  0.39753143592E+02  0.39753143592E+02  0.00000000000E+00 0. -1.
         21   -1    0    0  501  502 -0.00000000000E+00 -0.00000000000E+00 -0.46701017603E+02  0.46701017603E+02  0.00000000000E+00 0.  1.
          2    1    1    2  501    0 -0.98868979949E+01  0.30979996927E+02  0.24884398569E+02  0.40948067765E+02  0.00000000000E+00 0. -1.
         21    1    1    2  503  502  0.98868979949E+01 -0.30979996927E+02 -0.31832272581E+02  0.45506093429E+02  0.00000000000E+00 0.  1.
</event>
<event>
 4    1  0.2239940E+005  0.2116280E+02  0.7546771E-02  0.1516953E+00
          2   -1    0    0  503    0  0.00000000000E+00  0.00000000000E+00  0.19830807063E+03  0.19830807063E+03  0.00000000000E+00 0. -1.
         21   -1    0    0  501  502 -0.00000000000E+00 -0.00000000000E+00 -0.22606319093E+01  0.22606319093E+01  0.00000000000E+00 0. -1.
          2    1    1    2  501    0  0.20967874594E+02 -0.28657192482E+01  0.10115633814E+03  0.10334635386E+03  0.00000000000E+00 0. -1.
         21    1    1    2  503  502 -0.20967874594E+02  0.28657192482E+01  0.94891100581E+02  0.97222348672E+02  0.00000000000E+00 0. -1.
</event>
<event>
 4    1  0.2239940E+005  0.2310203E+02  0.7546771E-02  0.1491221E+00
          2   -1    0    0  502    0  0.00000000000E+00  0.00000000000E+00  0.72429305415E+03  0.72429305415E+03  0.00000000000E+00 0. -1.
         21   -1    0    0  503  502 -0.00000000000E+00 -0.00000000000E+00 -0.16764613012E+02  0.16764613012E+02  0.00000000000E+00 0.  1.
          2    1    1    2  501    0  0.18141072673E+02 -0.14304037944E+02  0.71605855004E+03  0.71643112098E+03  0.00000000000E+00 0. -1.
         21    1    1    2  503  501 -0.18141072673E+02  0.14304037944E+02 -0.85301089008E+01  0.24626546187E+02  0.00000000000E+00 0.  1.
</event>
<event>
 4    1  0.2239940E+005  0.2426099E+02  0.7546771E-02  0.1477243E+00
          2   -1    0    0  503    0  0.00000000000E+00  0.00000000000E+00  0.13490168219E+04  0.13490168219E+04  0.00000000000E+00 0.  1.
         21   -1    0    0  501  502 -0.00000000000E+00 -0.00000000000E+00 -0.12369617445E+02  0.12369617445E+02  0.00000000000E+00 0.  1.
          2    1    1    2  501    0 -0.95873783101E+01  0.22286267349E+02  0.13369039769E+04  0.13371240926E+04  0.00000000000E+00 0.  1.
         21    1    1    2  503  502  0.95873783101E+01 -0.22286267349E+02 -0.25677249950E+00  0.24262346699E+02  0.00000000000E+00 0.  1.
</event>
<event>
 4    1  0.2239940E+005  0.4580035E+02  0.7546771E-02  0.1317485E+00
          2   -1    0    0  503    0  0.00000000000E+00  0.00000000000E+00  0.18704436934E+04  0.18704436934E+04  0.00000000000E+00 0. -1.
         21   -1    0    0  501  502 -0.00000000000E+00 -0.00000000000E+00 -0.15943071698E+01  0.15943071698E+01  0.00000000000E+00 0.  1.
          2    1    1    2  501    0  0.44560875457E+02  0.10583017538E+02  0.14441641300E+04  0.14448902056E+04  0.00000000000E+00 0. -1.
         21    1    1    2  503  502 -0.44560875457E+02 -0.10583017538E+02  0.42468525620E+03  0.42714779494E+03  0.00000000000E+00 0.  1.
</event>
<event>
 4    1  0.2239940E+005  0.2152721E+02  0.7546771E-02  0.1511869E+00
          2   -1    0    0  503    0  0.00000000000E+00  0.00000000000E+00  0.20585125512E+01  0.20585125512E+01  0.00000000000E+00 0.  1.
         21   -1    0    0  501  502 -0.00000000000E+00 -0.00000000000E+00 -0.23525200352E+03  0.23525200352E+03  0.00000000000E+00 0.  1.
          2    1    1    2  501    0 -0.18598555148E+01 -0.21446713392E+02 -0.91977073486E+02  0.94462704942E+02  0.00000000000E+00 0.  1.
         21    1    1    2  503  502  0.18598555148E+01  0.21446713392E+02 -0.14121641748E+03  0.14284781113E+03  0.00000000000E+00 0.  1.
</event>
<event>
 4    1  0.2239940E+005  0.2290262E+02  0.7546771E-02  0.1493725E+00
          2   -1    0    0  502    0  0.00000000000E+00  0.00000000000E+00  0.49892025543E+02  0.49892025543E+02  0.00000000000E+00 0. -1.
         21   -1    0    0  503  502 -0.00000000000E+00 -0.00000000000E+00 -0.27823080785E+02  0.27823080785E+02  0.00000000000E+00 0. -1.
          2    1    1    2  501    0 -0.13421576974E+02  0.18557777290E+02  0.41683635947E+02  0.47561069502E+02  0.00000000000E+00 0. -1.
         21    1    1    2  503  501  0.13421576974E+02 -0.18557777290E+02 -0.19614691190E+02  0.30154036826E+02  0.00000000000E+00 0. -1.
</event>
<event>
 4    1  0.2239940E+005  0.2252938E+02  0.7546771E-02  0.1498494E+00
          2   -1    0    0  503    0  0.00000000000E+00  0.00000000000E+00  0.27889897381E+02  0.27889897381E+02  0.00000000000E+00 0.  1.
         21   -1    0    0  501  502 -0.00000000000E+00 -0.00000000000E+00 -0.19778899233E+02  0.19778899233E+02  0.00000000000E+00 0. -1.
          2    1    1    2  501    0  0.45473678011E+01  0.22065688072E+02 -0.26803705271E+01  0.22688268559E+02  0.00000000000E+00 0.  1.
         21    1    1    2  503  502 -0.45473678011E+01 -0.22065688072E+02  0.10791368676E+02  0.24980528055E+02  0.00000000000E+00 0. -1.
</event>
<event>
 4    1  0.2239940E+005  0.2415180E+02  0.7546771E-02  0.1478520E+00
          2   -1    0    0  502    0  0.00000000000E+00  0.00000000000E+00  0.45283856394E+03  0.45283856394E+03  0.00000000000E+00 0.  1.
         21   -1    0    0  503  502 -0.00000000000E+00 -0.00000000000E+00 -0.10076912248E+03  0.10076912248E+03  0.00000000000E+00 0. -1.
          2    1    1    2  501    0 -0.10712421690E+02  0.21646092094E+02  0.45106370147E+03  0.45170983171E+03  0.00000000000E+00 0.  1.
         21    1    1    2  503  501  0.10712421690E+02 -0.21646092094E+02 -0.98994260001E+02  0.10189785471E+03  0.00000000000E+00 0. -1.
</event>
<event>
 4    1  0.2239940E+005  0.2663598E+02  0.7546771E-02  0.1451299E+00
          2   -1    0    0  502    0  0.00000000000E+00  0.00000000000E+00  0.23257064479E+03  0.23257064479E+03  0.00000000000E+00 0.  1.
         21   -1    0    0  503  502 -0.00000000000E+00 -0.00000000000E+00 -0.98165099135E+01  0.98165099135E+01  0.00000000000E+00 0.  1.
          2    1    1    2  501    0  0.37273245367E+01  0.26373893035E+02  0.21199255172E+03  0.21365934841E+03  0.00000000000E+00 0.  1.
         21    1    1    2  503  501 -0.37273245367E+01 -0.26373893035E+02  0.10761583160E+02  0.28727806288E+02  0.00000000000E+00 0.  1.
</event>
<event>
 4    1  0.2239940E+005  0.2462033E+02  0.7546771E-02  0.1473096E+00
          2   -1    0    0  503    0  0.00000000000E+00  0.00000000000E+00  0.28572949441E+03  0.28572949441E+03  0.00000000000E+00 0. -1.
         21   -1    0    0  501  502 -0.00000000000E+00 -0.00000000000E+00 -0.14097368905E+02  0.14097368905E+02  0.00000000000E+00 0.  1.
          2    1    1    2  501    0 -0.21741522812E+02 -0.11552775452E+02  0.27398994564E+03  0.27509389442E+03  0.00000000000E+00 0. -1.
         21    1    1    2  503  502  0.21741522812E+02  0.11552775452E+02 -0.23578201302E+01  0.24732968900E+02  0.00000000000E+00 0.  1.
</event>
<event>
 4    1  0.2239940E+005  0.2069514E+02  0.7546771E-02  0.1523662E+00
          2   -1    0    0  503    0  0.00000000000E+00  0.00000000000E+00  0.24010328308E+01  0.24010328308E+01  0.00000000000E+00 0.  1.
         21   -1    0    0  501  502 -0.00000000000E+00 -0.00000000000E+00 -0.21387755760E+03  0.21387755760E+03  0.00000000000E+00 0. -1.
          2    1    1    2  501    0 -0.19023000827E+02  0.81494851895E+01 -0.61680803848E+02  0.65060050974E+02  0.00000000000E+00 0.  1.
         21    1    1    2  503  502  0.19023000827E+02 -0.81494851895E+01 -0.14979572092E+03  0.15121853945E+03  0.00000000000E+00 0. -1.
</event>
<event>
 4    1  0.2239940E+005  0.2055449E+02  0.7546771E-02  0.1525722E+00
          2   -1    0    0  503    0  0.00000000000E+00  0.00000000000E+00  0.27990986697E+02  0.27990986697E+02  0.00000000000E+00 0.  1.
         21   -1    0    0  501  502 -0.00000000000E+00 -0.00000000000E+00 -0.22028833500E+03  0.22028833500E+03  0.00000000000E+00 0.  1.
          2    1    1    2  501    0 -0.83854516953E+01 -0.18766224712E+02  0.23662638554E+02  0.31343379738E+02  0.00000000000E+00 0.  1.
         21    1    1    2  503  502  0.83854516953E+01  0.18766224712E+02 -0.21595998686E+03  0.21693594196E+03  0.00000000000E+00 0.  1.
</event>
<event>
 4    1  0.2239940E+005  0.3796892E+02  0.7546771E-02  0.1360817E+00
          2   -1    0    0  503    0  0.00000000000E+00  0.00000000000E+00  0.13027119144E+04  0.13027119144E+04  0.00000000000E+00 0.  1.
         21   -1    0    0  501  502 -0.00000000000E+00 -0.00000000000E+00 -0.13729943431E+02  0.13729943431E+02  0.00000000000E+00 0. -1.
          2    1    1    2  501    0 -0.30110927852E+02 -0.23129436400E+02  0.12756281419E+04  0.12761930870E+04  0.00000000000E+00 0.  1.
         21    1    1    2  503  502  0.30110927852E+02  0.23129436400E+02  0.13353829043E+02  0.40248770843E+02  0.00000000000E+00 0. -1.
</event>
<event>
 4    1  0.2239940E+005  0.2879803E+02  0.7546771E-02  0.1430337E+00
          2   -1    0    0  503    0  0.00000000000E+00  0.00000000000E+00  0.62153823702E+03  0.62153823702E+03  0.00000000000E+00 0.  1.
         21   -1    0    0  501  502 -0.00000000000E+00 -0.00000000000E+00 -0.21079177954E+02  0.21079177954E+02  0.00000000000E+00 0.  1.
          2    1    1    2  501    0 -0.22538889397E+02  0.17925534445E+02  0.61120257575E+03  0.61188063781E+03  0.00000000000E+00 0.  1.
         21    1    1    2  503  502  0.22538889397E+02 -0.17925534445E+02 -0.10743516678E+02  0.30736777173E+02  0.00000000000E+00 0.  1.
</event>
<event>
 4    1  0.2239940E+005  0.3001021E+02  0.7546771E-02  0.1419508E+00
          2   -1    0    0  503    0  0.00000000000E+00  0.00000000000E+00  0.63907176281E+03  0.63907176281E+03  0.00000000000E+00 0.  1.
         21   -1    0    0  501  502 -0.00000000000E+00 -0.00000000000E+00 -0.14792934840E+01  0.14792934840E+01  0.00000000000E+00 0. -1.
          2    1    1    2  501    0  0.33804243481E+01 -0.29819212723E+02  0.38848718807E+03  0.38964459192E+03  0.00000000000E+00 0.  1.
         21    1    1    2  503  502 -0.33804243481E+01  0.29819212723E+02  0.24910528125E+03  0.25090646437E+03  0.00000000000E+00 0. -1.
</event>
<event>
 4    1  0.2239940E+005  0.2009724E+02  0.7546771E-02  0.1532554E+00
          2   -1    0    0  503    0  0.00000000000E+00  0.00000000000E+00  0.26704337867E+02  0.26704337867E+02  0.00000000000E+00 0. -1.
         21   -1    0    0  501  502 -0.00000000000E+00 -0.00000000000E+00 -0.26423401153E+02  0.26423401153E+02  0.00000000000E+00 0. -1.
          2    1    1    2  501    0  0.63003444876E+01 -0.19084151657E+02  0.17510807557E+02  0.26655722958E+02  0.00000000000E+00 0. -1.
         21    1    1    2  503  502 -0.63003444876E+01  0.19084151657E+02 -0.17229870842E+02  0.26472016062E+02  0.00000000000E+00 0. -1.
</event>
<event>
 4    1  0.2239940E+005  0.2350164E+02  0.7546771E-02  0.1486293E+00
          2   -1    0    0  503    0  0.00000000000E+00  0.00000000000E+00  0.93753708749E+03  0.93753708749E+03  0.00000000000E+00 0.  1.
         21   -1    0    0  501  502 -0.00000000000E+00 -0.00000000000E+00 -0.71818177261E+01  0.71818177261E+01  0.00000000000E+00 0.  1.
          2    1    1    2  501    0  0.20367357201E+02  0.11725957097E+02  0.91774872851E+03  0.91804959342E+03  0.00000000000E+00 0.  1.
         21    1    1    2  503  502 -0.20367357201E+02 -0.11725957097E+02  0.12606541263E+02  0.26669311798E+02  0.00000000000E+00 0.  1.
</event>
<event>
 4    1  0.2239940E+005  0.2204827E+02  0.7546771E-02  0.1504808E+00
          2   -1    0    0  503    0  0.00000000000E+00  0.00000000000E+00  0.94604585041E+02  0.94604585041E+02  0.00000000000E+00 0.  1.
         21   -1    0    0  501  502 -0.00000000000E+00 -0.00000000000E+00 -0.94943067378E+01  0.94943067378E+01  0.00000000000E+00 0. -1.
          2    1    1    2  501    0  0.22042547881E+02  0.50244388542E+00  0.77809951705E+02  0.80873450225E+02  0.00000000000E+00 0.  1.
         21    1    1    2  503  502 -0.22042547881E+02 -0.50244388542E+00  0.73003265985E+01  0.23225441554E+02  0.00000000000E+00 0. -1.
</event>
<event>
 4    1  0.2239940E+005  0.2519211E+02  0.7546771E-02  0.1466666E+00
          2   -1    0    0  502    0  0.00000000000E+00  0.00000000000E+00  0.28920834750E+01  0.28920834750E+01  0.00000000000E+00 0. -1.
         21   -1    0    0  503  502 -0.00000000000E+00 -0.00000000000E+00 -0.92321429709E+03  0.92321429709E+03  0.00000000000E+00 0. -1.
          2    1    1    2  501    0  0.25117793936E+02  0.19336031073E+01 -0.55868371853E+02  0.61285539622E+02  0.00000000000E+00 0. -1.
         21    1    1    2  503  501 -0.25117793936E+02 -0.19336031073E+01 -0.86445384176E+03  0.86482084094E+03  0.00000000000E+00 0. -1.
</event>
<event>
 4    1  0.2239940E+005  0.2408903E+02  0.7546771E-02  0.1479258E+00
          2   -1    0    0  503    0  0.00000000000E+00  0.00000000000E+00  0.18031618849E+03  0.18031618849E+03  0.00000000000E+00 0.  1.
         21   -1    0    0  501  502 -0.00000000000E+00 -0.00000000000E+00 -0.20729755613E+02  0.20729755613E+02  0.00000000000E+00 0.  1.
          2    1    1    2  501    0  0.24044209434E+02 -0.14688296090E+01  0.17218459019E+03  0.17386148097E+03  0.00000000000E+00 0.  1.
         21    1    1    2  503  502 -0.24044209434E+02  0.14688296090E+01 -0.12598157315E+02  0.27184463126E+02  0.00000000000E+00 0.  1.
</event>
<event>
 4    1  0.2239940E+005  0.2013562E+02  0.7546771E-02  0.1531973E+00
          2   -1    0    0  503    0  0.00000000000E+00  0.00000000000E+00  0.17763281464E+02  0.17763281464E+02  0.00000000000E+00 0.  1.
         21   -1    0    0  501  502 -0.00000000000E+00 -0.00000000000E+00 -0.35719591871E+02  0.35719591871E+02  0.00000000000E+00 0. -1.
          2    1    1    2  501    0  0.20106339653E+02  0.10854355738E+01  0.70889977343E+01  0.21347059598E+02  0.00000000000E+00 0.  1.
         21    1    1    2  503  502 -0.20106339653E+02 -0.10854355738E+01 -0.25045308141E+02  0.32135813737E+02  0.00000000000E+00 0. -1.
</event>
<event>
 4    1  0.2239940E+005  0.2272269E+02  0.7546771E-02  0.1496010E+00
          2   -1    0    0  503    0  0.00000000000E+00  0.00000000000E+00  0.14729962571E+04  0.14729962571E+04  0.00000000000E+00 0. -1.
         21   -1    0    0  501  502 -0.00000000000E+00 -0.00000000000E+00 -0.50257679924E+00  0.50257679924E+00  0.00000000000E+00 0.  1.
          2    1    1    2  501    0  0.17194815286E+02 -0.14854599641E+02  0.11414898548E+04  0.11417159934E+04  0.00000000000E+00 0. -1.
         21    1    1    2  503  502 -0.17194815286E+02  0.14854599641E+02  0.33100382548E+03  0.33178284055E+03  0.00000000000E+00 0.  1.
</event>
<event>
 4    1  0.2239940E+005  0.2852835E+02  0.7546771E-02  0.1432831E+00
          2   -1    0    0  502    0  0.00000000000E+00  0.00000000000E+00  0.19774915536E+04  0.19774915536E+04  0.00000000000E+00 0. -1.
         21   -1    0    0  503  502 -0.00000000000E+00 -0.00000000000E+00 -0.13112843271E+01  0.13112843271E+01  0.00000000000E+00 0.  1.
          2    1    1    2  501    0 -0.28219758874E+01  0.28388434872E+02  0.18076441097E+04  0.18078692137E+04  0.00000000000E+00 0. -1.
         21    1    1    2  503  501  0.28219758874E+01 -0.28388434872E+02  0.16853615960E+03  0.17093362418E+03  0.00000000000E+00 0.  1.
</event>
<event>
 4    1  0.2239940E+005  0.2808579E+02  0.7546771E-02  0.1436996E+00
          2   -1    0    0  502    0  0.00000000000E+00  0.00000000000E+00  0.14142704962E+03  0.14142704962E+03  0.00000000000E+00 0.  1.
         21   -1    0    0  503  502 -0.00000000000E+00 -0.00000000000E+00 -0.20113207593E+02  0.20113207593E+02  0.00000000000E+00 0. -1.
          2    1    1    2  501    0  0.20975156630E+02  0.18677645025E+02  0.12932074048E+03  0.13233542813E+03  0.00000000000E+00 0.  1.
         21    1    1    2  503  501 -0.20975156630E+02 -0.18677645025E+02 -0.80068984489E+01  0.29204829089E+02  0.00000000000E+00 0. -1.
</event>
