<event>
 4    1  0.8391192E+003  0.2424011E+02  0.7546771E-02  0.1477487E+00
          2   -1    0    0  501    0  0.00000000000E+00  0.00000000000E+00  0.12227109918E+03  0.12227109918E+03  0.00000000000E+00 0. -1.
          2   -1    0    0  502    0 -0.00000000000E+00 -0.00000000000E+00 -0.94790098884E+01  0.94790098884E+01  0.00000000000E+00 0. -1.
          2    1    1    2  501    0 -0.10726117120E+02 -0.21737828124E+02  0.10141153293E+02  0.26275953839E+02  0.00000000000E+00 0. -1.
          2    1    1    2  502    0  0.10726117120E+02  0.21737828124E+02  0.10265093600E+03  0.10547415523E+03  0.00000000000E+00 0. -1.
</event>
<event>
 4    1  0.8391192E+003  0.2086535E+02  0.7546771E-02  0.1521196E+00
          2   -1    0    0  502    0  0.00000000000E+00  0.00000000000E+00  0.91681140138E+02  0.91681140138E+02  0.00000000000E+00 0.  1.
          2   -1    0    0  501    0 -0.00000000000E+00 -0.00000000000E+00 -0.48339780831E+01  0.48339780831E+01  0.00000000000E+00 0.  1.
          2    1    1    2  501    0 -0.51523342841E+01  0.20219203807E+02  0.49834618738E+02  0.54026400731E+02  0.00000000000E+00 0.  1.
          2    1    1    2  502    0  0.51523342841E+01 -0.20219203807E+02  0.37012543316E+02  0.42488717490E+02  0.00000000000E+00 0.  1.
</event>
<event>
 4    1  0.8391192E+003  0.4393544E+02  0.7546771E-02  0.1326849E+00
          2   -1    0    0  502    0  0.00000000000E+00  0.00000000000E+00  0.16734063757E+02  0.16734063757E+02  0.00000000000E+00 0.  1.
          2   -1    0    0  501    0 -0.00000000000E+00 -0.00000000000E+00 -0.11326880487E+04  0.11326880487E+04  0.00000000000E+00 0. -1.
          2    1    1    2  501    0 -0.38260961539E+02 -0.21596795731E+02 -0.13315818196E+02  0.45908972739E+02  0.00000000000E+00 0.  1.
          2    1    1    2  502    0  0.38260961539E+02  0.21596795731E+02 -0.11026381667E+04  0.11035131397E+04  0.00000000000E+00 0. -1.
</event>
<event>
 4    1  0.8391192E+003  0.2160275E+02  0.7546771E-02  0.1510830E+00
          2   -1    0    0  502    0  0.00000000000E+00  0.00000000000E+00  0.18865603314E+02  0.18865603314E+02  0.00000000000E+00 0.  1.
          2   -1    0    0  501    0 -0.00000000000E+00 -0.00000000000E+00 -0.10717044375E+04  0.10717044375E+04  0.00000000000E+00 0.  1.
          2    1    1    2  501    0 -0.77626792920E+01 -0.20159856431E+02  0.12535742368E+02  0.24976465679E+02  0.00000000000E+00 0.  1.
          2    1    1    2  502    0  0.77626792920E+01  0.20159856431E+02 -0.10653745766E+04  0.10655935752E+04  0.00000000000E+00 0.  1.
</event>
<event>
 4    1  0.8391192E+003  0.2054517E+02  0.7546771E-02  0.1525859E+00
          2   -1    0    0  501    0  0.00000000000E+00  0.00000000000E+00  0.60886641277E+03  0.60886641277E+03  0.00000000000E+00 0. -1.
          2   -1    0    0  502    0 -0.00000000000E+00 -0.00000000000E+00 -0.30985976689E+03  0.30985976689E+03  0.00000000000E+00 0. -1.
          2    1    1    2  501    0  0.16046382469E+02 -0.12830343035E+02 -0.30934560299E+03  0.31002710556E+03  0.00000000000E+00 0. -1.
          2    1    1    2  502    0 -0.16046382469E+02  0.12830343035E+02  0.60835224888E+03  0.60869907410E+03  0.00000000000E+00 0. -1.
</event>
<event>
 4    1  0.8391192E+003  0.2101692E+02  0.7546771E-02  0.1519023E+00
          2   -1    0    0  502    0  0.00000000000E+00  0.00000000000E+00  0.31462468359E+01  0.31462468359E+01  0.00000000000E+00 0. -1.
          2   -1    0    0  501    0 -0.00000000000E+00 -0.00000000000E+00 -0.37897868750E+03  0.37897868750E+03  0.00000000000E+00 0. -1.
          2    1    1    2  501    0  0.10743626620E+02  0.18063374250E+02 -0.36319365890E+02  0.41961974940E+02  0.00000000000E+00 0. -1.
          2    1    1    2  502    0 -0.10743626620E+02 -0.18063374250E+02 -0.33951307477E+03  0.34016295939E+03  0.00000000000E+00 0. -1.
</event>
<event>
 4    1  0.8391192E+003  0.7156286E+02  0.7546771E-02  0.1224918E+00
          2   -1    0    0  502    0  0.00000000000E+00  0.00000000000E+00  0.20845415838E+03  0.20845415838E+03  0.00000000000E+00 0.  1.
          2   -1    0    0  501    0 -0.00000000000E+00 -0.00000000000E+00 -0.11203880084E+03  0.11203880084E+03  0.00000000000E+00 0. -1.
          2    1    1    2  501    0 -0.55027138972E+02 -0.45752120019E+02  0.18979896552E+03  0.20284203169E+03  0.00000000000E+00 0.  1.
          2    1    1    2  502    0  0.55027138972E+02  0.45752120019E+02 -0.93383607976E+02  0.11765092753E+03  0.00000000000E+00 0. -1.
</event>
<event>
 4    1  0.8391192E+003  0.2187551E+02  0.7546771E-02  0.1507123E+00
          2   -1    0    0  502    0  0.00000000000E+00  0.00000000000E+00  0.32472144426E+03  0.32472144426E+03  0.00000000000E+00 0. -1.
          2   -1    0    0  501    0 -0.00000000000E+00 -0.00000000000E+00 -0.94937610108E+01  0.94937610108E+01  0.00000000000E+00 0. -1.
          2    1    1    2  501    0  0.21487678899E+02  0.41009179970E+01  0.31120500885E+03  0.31197290813E+03  0.00000000000E+00 0. -1.
          2    1    1    2  502    0 -0.21487678899E+02 -0.41009179970E+01  0.40226744002E+01  0.22242297143E+02  0.00000000000E+00 0. -1.
</event>
<event>
 4    1  0.8391192E+003  0.3494383E+02  0.7546771E-02  0.1380958E+00
          2   -1    0    0  502    0  0.00000000000E+00  0.00000000000E+00  0.47298418084E+02  0.47298418084E+02  0.00000000000E+00 0. -1.
          2   -1    0    0  501    0 -0.00000000000E+00 -0.00000000000E+00 -0.59773423655E+02  0.59773423655E+02  0.00000000000E+00 0. -1.
          2    1    1    2  501    0  0.16323566644E+02  0.30896805228E+02  0.34113700542E+02  0.48834577565E+02  0.00000000000E+00 0. -1.
          2    1    1    2  502    0 -0.16323566644E+02 -0.30896805228E+02 -0.46588706113E+02  0.58237264175E+02  0.00000000000E+00 0. -1.
</event>
<event>
 4    1  0.8391192E+003  0.3418792E+02  0.7546771E-02  0.1386364E+00
          2   -1    0    0  502    0  0.00000000000E+00  0.00000000000E+00  0.40393377922E+01  0.40393377922E+01  0.00000000000E+00 0.  1.
          2   -1    0    0  501    0 -0.00000000000E+00 -0.00000000000E+00 -0.35503402068E+03  0.35503402068E+03  0.00000000000E+00 0.  1.
          2    1    1    2  501    0  0.17962755379E+01  0.34140697563E+02 -0.98278669255E+02  0.10405532503E+03  0.00000000000E+00 0.  1.
          2    1    1    2  502    0 -0.17962755379E+01 -0.34140697563E+02 -0.25271601363E+03  0.25501803344E+03  0.00000000000E+00 0.  1.
</event>
<event>
 4    1  0.8391192E+003  0.5082687E+02  0.7546771E-02  0.1294627E+00
          2   -1    0    0  502    0  0.00000000000E+00  0.00000000000E+00  0.19270537499E+02  0.19270537499E+02  0.00000000000E+00 0. -1.
          2   -1    0    0  501    0 -0.00000000000E+00 -0.00000000000E+00 -0.13903042609E+04  0.13903042609E+04  0.00000000000E+00 0.  1.
          2    1    1    2  501    0 -0.48132461334E+02  0.16329013034E+02 -0.15569643848E+02  0.53158106722E+02  0.00000000000E+00 0. -1.
          2    1    1    2  502    0  0.48132461334E+02 -0.16329013034E+02 -0.13554640796E+04  0.13564166917E+04  0.00000000000E+00 0.  1.
</event>
<event>
 4    1  0.8391192E+003  0.2441022E+02  0.7546771E-02  0.1475511E+00
          2   -1    0    0  502    0  0.00000000000E+00  0.00000000000E+00  0.12584414910E+01  0.12584414910E+01  0.00000000000E+00 0.  1.
          2   -1    0    0  501    0 -0.00000000000E+00 -0.00000000000E+00 -0.14386146001E+04  0.14386146001E+04  0.00000000000E+00 0.  1.
          2    1    1    2  501    0 -0.15533142233E+02  0.18830299309E+02 -0.12900159933E+03  0.13129078913E+03  0.00000000000E+00 0.  1.
          2    1    1    2  502    0  0.15533142233E+02 -0.18830299309E+02 -0.13083545593E+04  0.13085822525E+04  0.00000000000E+00 0.  1.
</event>
<event>
 4    1  0.8391192E+003  0.2501795E+02  0.7546771E-02  0.1468603E+00
          2   -1    0    0  501    0  0.00000000000E+00  0.00000000000E+00  0.15301828110E+01  0.15301828110E+01  0.00000000000E+00 0. -1.
          2   -1    0    0  502    0 -0.00000000000E+00 -0.00000000000E+00 -0.13594588210E+04  0.13594588210E+04  0.00000000000E+00 0.  1.
          2    1    1    2  501    0  0.17265115333E+02  0.18105621557E+02 -0.12479486885E+04  0.12481994340E+04  0.00000000000E+00 0.  1.
          2    1    1    2  502    0 -0.17265115333E+02 -0.18105621557E+02 -0.10997994960E+03  0.11278956979E+03  0.00000000000E+00 0. -1.
</event>
<event>
 4    1  0.8391192E+003  0.2946378E+02  0.7546771E-02  0.1424314E+00
          2   -1    0    0  501    0  0.00000000000E+00  0.00000000000E+00  0.83672107593E+03  0.83672107593E+03  0.00000000000E+00 0. -1.
          2   -1    0    0  502    0 -0.00000000000E+00 -0.00000000000E+00 -0.14057443060E+03  0.14057443060E+03  0.00000000000E+00 0. -1.
          2    1    1    2  501    0 -0.55566719066E+01 -0.28935060581E+02 -0.13876784161E+03  0.14186129916E+03  0.00000000000E+00 0. -1.
          2    1    1    2  502    0  0.55566719066E+01  0.28935060581E+02  0.83491448695E+03  0.83543420737E+03  0.00000000000E+00 0. -1.
</event>
<event>
 4    1  0.8391192E+003  0.2435466E+02  0.7546771E-02  0.1476154E+00
          2   -1    0    0  502    0  0.00000000000E+00  0.00000000000E+00  0.24190946256E+03  0.24190946256E+03  0.00000000000E+00 0. -1.
          2   -1    0    0  501    0 -0.00000000000E+00 -0.00000000000E+00 -0.72442461177E+01  0.72442461177E+01  0.00000000000E+00 0. -1.
          2    1    1    2  501    0  0.24351683041E+02  0.38078709087E+00  0.21865668781E+03  0.22000885571E+03  0.00000000000E+00 0. -1.
          2    1    1    2  502    0 -0.24351683041E+02 -0.38078709087E+00  0.16008528634E+02  0.29144852972E+02  0.00000000000E+00 0. -1.
</event>
<event>
 4    1  0.8391192E+003  0.2000531E+02  0.7546771E-02  0.1533954E+00
          2   -1    0    0  502    0  0.00000000000E+00  0.00000000000E+00  0.20456698375E+02  0.20456698375E+02  0.00000000000E+00 0. -1.
          2   -1    0    0  501    0 -0.00000000000E+00 -0.00000000000E+00 -0.14106002454E+03  0.14106002454E+03  0.00000000000E+00 0.  1.
          2    1    1    2  501    0 -0.83768038040E+00 -0.19987768097E+02  0.14647494010E+02  0.24794387725E+02  0.00000000000E+00 0. -1.
          2    1    1    2  502    0  0.83768038040E+00  0.19987768097E+02 -0.13525082017E+03  0.13672233519E+03  0.00000000000E+00 0.  1.
</event>
<event>
 4    1  0.8391192E+003  0.2503646E+02  0.7546771E-02  0.1468396E+00
          2   -1    0    0  501    0  0.00000000000E+00  0.00000000000E+00  0.58189068174E+02  0.58189068174E+02  0.00000000000E+00 0. -1.
          2   -1    0    0  502    0 -0.00000000000E+00 -0.00000000000E+00 -0.19313132820E+02  0.19313132820E+02  0.00000000000E+00 0.  1.
          2    1    1    2  501    0 -0.23293873370E+02 -0.91771438542E+01 -0.63317838619E+01  0.25824716703E+02  0.00000000000E+00 0.  1.
          2    1    1    2  502    0  0.23293873370E+02  0.91771438542E+01  0.45207719216E+02  0.51677484291E+02  0.00000000000E+00 0. -1.
</event>
<event>
 4    1  0.8391192E+003  0.2356285E+02  0.7546771E-02  0.1485549E+00
          2   -1    0    0  501    0  0.00000000000E+00  0.00000000000E+00  0.28826001703E+03  0.28826001703E+03  0.00000000000E+00 0.  1.
          2   -1    0    0  502    0 -0.00000000000E+00 -0.00000000000E+00 -0.15422112789E+03  0.15422112789E+03  0.00000000000E+00 0.  1.
          2    1    1    2  501    0 -0.20916384798E+02  0.10849547659E+02 -0.15283525163E+03  0.15464094535E+03  0.00000000000E+00 0.  1.
          2    1    1    2  502    0  0.20916384798E+02 -0.10849547659E+02  0.28687414078E+03  0.28784019957E+03  0.00000000000E+00 0.  1.
</event>
<event>
 4    1  0.8391192E+003  0.2971126E+02  0.7546771E-02  0.1422122E+00
          2   -1    0    0  502    0  0.00000000000E+00  0.00000000000E+00  0.72815622457E+02  0.72815622457E+02  0.00000000000E+00 0.  1.
          2   -1    0    0  501    0 -0.00000000000E+00 -0.00000000000E+00 -0.12725636708E+04  0.12725636708E+04  0.00000000000E+00 0. -1.
          2    1    1    2  501    0  0.66724850165E+01  0.28952322845E+02  0.69603730750E+02  0.75679841363E+02  0.00000000000E+00 0.  1.
          2    1    1    2  502    0 -0.66724850165E+01 -0.28952322845E+02 -0.12693517791E+04  0.12696994519E+04  0.00000000000E+00 0. -1.
</event>
<event>
 4    1  0.8391192E+003  0.7476033E+02  0.7546771E-02  0.1216564E+00
          2   -1    0    0  502    0  0.00000000000E+00  0.00000000000E+00  0.32126969941E+02  0.32126969941E+02  0.00000000000E+00 0.  1.
          2   -1    0    0  501    0 -0.00000000000E+00 -0.00000000000E+00 -0.20185752422E+04  0.20185752422E+04  0.00000000000E+00 0.  1.
          2    1    1    2  501    0 -0.74445840635E+02 -0.68500888356E+01 -0.13052946284E+02  0.75891279550E+02  0.00000000000E+00 0.  1.
          2    1    1    2  502    0  0.74445840635E+02  0.68500888356E+01 -0.19733953260E+04  0.19748109326E+04  0.00000000000E+00 0.  1.
</event>
<event>
 4    1  0.8391192E+003  0.2023278E+02  0.7546771E-02  0.1530507E+00
          2   -1    0    0  502    0  0.00000000000E+00  0.00000000000E+00  0.10066796026E+03  0.10066796026E+03  0.00000000000E+00 0.  1.
          2   -1    0    0  501    0 -0.00000000000E+00 -0.00000000000E+00 -0.82471716825E+01  0.82471716825E+01  0.00000000000E+00 0.  1.
          2    1    1    2  501    0  0.19901876052E+02 -0.36442660907E+01  0.84983377037E+02  0.87358684275E+02  0.00000000000E+00 0.  1.
          2    1    1    2  502    0 -0.19901876052E+02  0.36442660907E+01  0.74374115458E+01  0.21556447672E+02  0.00000000000E+00 0.  1.
</event>
<event>
 4    1  0.8391192E+003  0.2241437E+02  0.7546771E-02  0.1499986E+00
          2   -1    0    0  502    0  0.00000000000E+00  0.00000000000E+00  0.44487832949E+00  0.44487832949E+00  0.00000000000E+00 0. -1.
          2   -1    0    0  501    0 -0.00000000000E+00 -0.00000000000E+00 -0.11768264915E+04  0.11768264915E+04  0.00000000000E+00 0.  1.
          2    1    1    2  501    0 -0.15380364634E+01 -0.22361539415E+02 -0.46990614737E+03  0.47044042273E+03  0.00000000000E+00 0.  1.
          2    1    1    2  502    0  0.15380364634E+01  0.22361539415E+02 -0.70647546582E+03  0.70683094712E+03  0.00000000000E+00 0. -1.
</event>
<event>
 4    1  0.8391192E+003  0.2235657E+02  0.7546771E-02  0.1500740E+00
          2   -1    0    0  501    0  0.00000000000E+00  0.00000000000E+00  0.85754250499E+03  0.85754250499E+03  0.00000000000E+00 0. -1.
          2   -1    0    0  502    0 -0.00000000000E+00 -0.00000000000E+00 -0.58285368077E+00  0.58285368077E+00  0.00000000000E+00 0. -1.
          2    1    1    2  501    0 -0.39863655012E+01 -0.21998302177E+02  0.42706993986E+03  0.42765470878E+03  0.00000000000E+00 0. -1.
          2    1    1    2  502    0  0.39863655012E+01  0.21998302177E+02  0.42988971145E+03  0.43047064989E+03  0.00000000000E+00 0. -1.
</event>
<event>
 4    1  0.8391192E+003  0.2459740E+02  0.7546771E-02  0.1473358E+00
          2   -1    0    0  502    0  0.00000000000E+00  0.00000000000E+00  0.69144794019E+02  0.69144794019E+02  0.00000000000E+00 0. -1.
          2   -1    0    0  501    0 -0.00000000000E+00 -0.00000000000E+00 -0.10104113272E+02  0.10104113272E+02  0.00000000000E+00 0. -1.
          2    1    1    2  501    0 -0.18472176207E+02  0.16242260535E+02  0.44024949311E+02  0.50430432111E+02  0.00000000000E+00 0. -1.
          2    1    1    2  502    0  0.18472176207E+02 -0.16242260535E+02  0.15015731436E+02  0.28818475179E+02  0.00000000000E+00 0. -1.
</event>
<event>
 4    1  0.8391192E+003  0.2824867E+02  0.7546771E-02  0.1435453E+00
          2   -1    0    0  502    0  0.00000000000E+00  0.00000000000E+00  0.66926878788E+03  0.66926878788E+03  0.00000000000E+00 0. -1.
          2   -1    0    0  501    0 -0.00000000000E+00 -0.00000000000E+00 -0.18617207343E+02  0.18617207343E+02  0.00000000000E+00 0. -1.
          2    1    1    2  501    0  0.27985500640E+02  0.38469833827E+01  0.65807275395E+03  0.65867878136E+03  0.00000000000E+00 0. -1.
          2    1    1    2  502    0 -0.27985500640E+02 -0.38469833827E+01 -0.74211734039E+01  0.29207213868E+02  0.00000000000E+00 0. -1.
</event>
<event>
 4    1  0.8391192E+003  0.2717179E+02  0.7546771E-02  0.1445890E+00
          2   -1    0    0  501    0  0.00000000000E+00  0.00000000000E+00  0.63099230482E+01  0.63099230482E+01  0.00000000000E+00 0.  1.
          2   -1    0    0  502    0 -0.00000000000E+00 -0.00000000000E+00 -0.11445346706E+04  0.11445346706E+04  0.00000000000E+00 0.  1.
          2    1    1    2  501    0  0.27069905062E+02 -0.23508725050E+01 -0.11143288012E+04  0.11146600304E+04  0.00000000000E+00 0.  1.
          2    1    1    2  502    0 -0.27069905062E+02  0.23508725050E+01 -0.23895946426E+02  0.36184563244E+02  0.00000000000E+00 0.  1.
</event>
<event>
 4    1  0.8391192E+003  0.2411759E+02  0.7546771E-02  0.1478922E+00
          2   -1    0    0  502    0  0.00000000000E+00  0.00000000000E+00  0.43737923020E+03  0.43737923020E+03  0.00000000000E+00 0. -1.
          2   -1    0    0  501    0 -0.00000000000E+00 -0.00000000000E+00 -0.38664930110E+03  0.38664930110E+03  0.00000000000E+00 0. -1.
          2    1    1    2  501    0  0.16204167601E+02  0.17862901625E+02  0.43667006287E+03  0.43733557151E+03  0.00000000000E+00 0. -1.
          2    1    1    2  502    0 -0.16204167601E+02 -0.17862901625E+02 -0.38594013376E+03  0.38669295979E+03  0.00000000000E+00 0. -1.
</event>
<event>
 4    1  0.8391192E+003  0.2375427E+02  0.7546771E-02  0.1483238E+00
          2   -1    0    0  501    0  0.00000000000E+00  0.00000000000E+00  0.84631208555E+03  0.84631208555E+03  0.00000000000E+00 0.  1.
          2   -1    0    0  502    0 -0.00000000000E+00 -0.00000000000E+00 -0.11450546084E+01  0.11450546084E+01  0.00000000000E+00 0.  1.
          2    1    1    2  501    0  0.20298172087E+02  0.12338937714E+02  0.14872003473E+03  0.15060515896E+03  0.00000000000E+00 0.  1.
          2    1    1    2  502    0 -0.20298172087E+02 -0.12338937714E+02  0.69644699621E+03  0.69685198120E+03  0.00000000000E+00 0.  1.
</event>
<event>
 4    1  0.8391192E+003  0.4847916E+02  0.7546771E-02  0.1304904E+00
          2   -1    0    0  502    0  0.00000000000E+00  0.00000000000E+00  0.99081660389E+03  0.99081660389E+03  0.00000000000E+00 0. -1.
          2   -1    0    0  501    0 -0.00000000000E+00 -0.00000000000E+00 -0.99565249957E+02  0.99565249957E+02  0.00000000000E+00 0. -1.
          2    1    1    2  501    0 -0.48037174276E+02 -0.65313772930E+01  0.98428322590E+03  0.98547638114E+03  0.00000000000E+00 0. -1.
          2    1    1    2  502    0  0.48037174276E+02  0.65313772930E+01 -0.93031871967E+02  0.10490547270E+03  0.00000000000E+00 0. -1.
</event>
<event>
 4    1  0.8391192E+003  0.2012893E+02  0.7546771E-02  0.1532074E+00
          2   -1    0    0  502    0  0.00000000000E+00  0.00000000000E+00  0.74618658650E+01  0.74618658650E+01  0.00000000000E+00 0. -1.
          2   -1    0    0  501    0 -0.00000000000E+00 -0.00000000000E+00 -0.84617537807E+03  0.84617537807E+03  0.00000000000E+00 0. -1.
          2    1    1    2  501    0  0.86310732658E+01 -0.18184564629E+02 -0.64596974094E+01  0.21140045106E+02  0.00000000000E+00 0. -1.
          2    1    1    2  502    0 -0.86310732658E+01  0.18184564629E+02 -0.83225381480E+03  0.83249719883E+03  0.00000000000E+00 0. -1.
</event>
<event>
 4    1  0.8391192E+003  0.2812975E+02  0.7546771E-02  0.1436578E+00
          2   -1    0    0  502    0  0.00000000000E+00  0.00000000000E+00  0.18297306977E+03  0.18297306977E+03  0.00000000000E+00 0.  1.
          2   -1    0    0  501    0 -0.00000000000E+00 -0.00000000000E+00 -0.13590188067E+04  0.13590188067E+04  0.00000000000E+00 0. -1.
          2    1    1    2  501    0  0.15548275320E+02 -0.23442138115E+02  0.18174538453E+03  0.18390940025E+03  0.00000000000E+00 0.  1.
          2    1    1    2  502    0 -0.15548275320E+02  0.23442138115E+02 -0.13577911215E+04  0.13580824762E+04  0.00000000000E+00 0. -1.
</event>
<event>
 4    1  0.8391192E+003  0.3076216E+02  0.7546771E-02  0.1413087E+00
          2   -1    0    0  501    0  0.00000000000E+00  0.00000000000E+00  0.31837544222E+02  0.31837544222E+02  0.00000000000E+00 0.  1.
          2   -1    0    0  502    0 -0.00000000000E+00 -0.00000000000E+00 -0.65319454883E+03  0.65319454883E+03  0.00000000000E+00 0. -1.
          2    1    1    2  501    0 -0.10651126582E+02  0.28859383364E+02 -0.64531085890E+03  0.64604366347E+03  0.00000000000E+00 0. -1.
          2    1    1    2  502    0  0.10651126582E+02 -0.28859383364E+02  0.23953854290E+02  0.38988429577E+02  0.00000000000E+00 0.  1.
</event>
<event>
 4    1  0.8391192E+003  0.2109724E+02  0.7546771E-02  0.1517881E+00
          2   -1    0    0  502    0  0.00000000000E+00  0.00000000000E+00  0.10556254909E+03  0.10556254909E+03  0.00000000000E+00 0.  1.
          2   -1    0    0  501    0 -0.00000000000E+00 -0.00000000000E+00 -0.24722096486E+02  0.24722096486E+02  0.00000000000E+00 0.  1.
          2    1    1    2  501    0  0.13774405568E+02 -0.15979965222E+02  0.99747978439E+02  0.10195466022E+03  0.00000000000E+00 0.  1.
          2    1    1    2  502    0 -0.13774405568E+02  0.15979965222E+02 -0.18907525835E+02  0.28329985359E+02  0.00000000000E+00 0.  1.
</event>
<event>
 4    1  0.8391192E+003  0.2370985E+02  0.7546771E-02  0.1483772E+00
          2   -1    0    0  501    0  0.00000000000E+00  0.00000000000E+00  0.82519786760E+02  0.82519786760E+02  0.00000000000E+00 0.  1.
          2   -1    0    0  502    0 -0.00000000000E+00 -0.00000000000E+00 -0.93687452174E+02  0.93687452174E+02  0.00000000000E+00 0. -1.
          2    1    1    2  501    0  0.10890606588E+02 -0.21060670978E+02 -0.90423819888E+02  0.93480609631E+02  0.00000000000E+00 0. -1.
          2    1    1    2  502    0 -0.10890606588E+02  0.21060670978E+02  0.79256154474E+02  0.82726629303E+02  0.00000000000E+00 0.  1.
</event>
<event>
 4    1  0.8391192E+003  0.2486870E+02  0.7546771E-02  0.1470278E+00
          2   -1    0    0  502    0  0.00000000000E+00  0.00000000000E+00  0.51090919352E+03  0.51090919352E+03  0.00000000000E+00 0. -1.
          2   -1    0    0  501    0 -0.00000000000E+00 -0.00000000000E+00 -0.30509284303E+03  0.30509284303E+03  0.00000000000E+00 0. -1.
          2    1    1    2  501    0  0.22695216216E+02  0.10167573762E+02  0.51009899170E+03  0.51070484013E+03  0.00000000000E+00 0. -1.
          2    1    1    2  502    0 -0.22695216216E+02 -0.10167573762E+02 -0.30428264122E+03  0.30529719642E+03  0.00000000000E+00 0. -1.
</event>
<event>
 4    1  0.8391192E+003  0.4436146E+02  0.7546771E-02  0.1324663E+00
          2   -1    0    0  502    0  0.00000000000E+00  0.00000000000E+00  0.20002568164E+03  0.20002568164E+03  0.00000000000E+00 0. -1.
          2   -1    0    0  501    0 -0.00000000000E+00 -0.00000000000E+00 -0.74379595317E+02  0.74379595317E+02  0.00000000000E+00 0. -1.
          2    1    1    2  501    0  0.43061134779E+02 -0.10661973991E+02  0.19062984073E+03  0.19572346613E+03  0.00000000000E+00 0. -1.
          2    1    1    2  502    0 -0.43061134779E+02  0.10661973991E+02 -0.64983754408E+02  0.78681810825E+02  0.00000000000E+00 0. -1.
</event>
<event>
 4    1  0.8391192E+003  0.3043538E+02  0.7546771E-02  0.1415850E+00
          2   -1    0    0  502    0  0.00000000000E+00  0.00000000000E+00  0.33877018675E+02  0.33877018675E+02  0.00000000000E+00 0.  1.
          2   -1    0    0  501    0 -0.00000000000E+00 -0.00000000000E+00 -0.43391998171E+03  0.43391998171E+03  0.00000000000E+00 0.  1.
          2    1    1    2  501    0  0.27825940520E+02  0.12330025178E+02  0.26387576827E+02  0.40281716666E+02  0.00000000000E+00 0.  1.
          2    1    1    2  502    0 -0.27825940520E+02 -0.12330025178E+02 -0.42643053986E+03  0.42751528372E+03  0.00000000000E+00 0.  1.
</event>
<event>
 4    1  0.8391192E+003  0.4910684E+02  0.7546771E-02  0.1302092E+00
          2   -1    0    0  502    0  0.00000000000E+00  0.00000000000E+00  0.37838759293E+03  0.37838759293E+03  0.00000000000E+00 0.  1.
          2   -1    0    0  501    0 -0.00000000000E+00 -0.00000000000E+00 -0.42932596601E+02  0.42932596601E+02  0.00000000000E+00 0.  1.
          2    1    1    2  501    0  0.48656731399E+02  0.66335973820E+01  0.36212429850E+03  0.36543876325E+03  0.00000000000E+00 0.  1.
          2    1    1    2  502    0 -0.48656731399E+02 -0.66335973820E+01 -0.26669302169E+02  0.55881426278E+02  0.00000000000E+00 0.  1.
</event>
<event>
 4    1  0.8391192E+003  0.6772514E+02  0.7546771E-02  0.1235626E+00
          2   -1    0    0  501    0  0.00000000000E+00  0.00000000000E+00  0.59668637190E+02  0.59668637190E+02  0.00000000000E+00 0.  1.
          2   -1    0    0  502    0 -0.00000000000E+00 -0.00000000000E+00 -0.79964937267E+02  0.79964937267E+02  0.00000000000E+00 0.  1.
          2    1    1    2  501    0  0.21136034069E+02 -0.64342536297E+02  0.35883543070E+01  0.67820131229E+02  0.00000000000E+00 0.  1.
          2    1    1    2  502    0 -0.21136034069E+02  0.64342536297E+02 -0.23884654384E+02  0.71813443229E+02  0.00000000000E+00 0.  1.
</event>
<event>
 4    1  0.8391192E+003  0.2572256E+02  0.7546771E-02  0.1460880E+00
          2   -1    0    0  501    0  0.00000000000E+00  0.00000000000E+00  0.77633649018E+03  0.77633649018E+03  0.00000000000E+00 0.  1.
          2   -1    0    0  502    0 -0.00000000000E+00 -0.00000000000E+00 -0.73100622583E+01  0.73100622583E+01  0.00000000000E+00 0. -1.
          2    1    1    2  501    0 -0.14637225009E+02  0.21151871483E+02  0.16238709213E+02  0.30419495395E+02  0.00000000000E+00 0. -1.
          2    1    1    2  502    0  0.14637225009E+02 -0.21151871483E+02  0.75278771871E+03  0.75322705704E+03  0.00000000000E+00 0.  1.
</event>
<event>
 4    1  0.8391192E+003  0.3033204E+02  0.7546771E-02  0.1416732E+00
          2   -1    0    0  501    0  0.00000000000E+00  0.00000000000E+00  0.86477833710E+03  0.86477833710E+03  0.00000000000E+00 0.  1.
          2   -1    0    0  502    0 -0.00000000000E+00 -0.00000000000E+00 -0.16522787624E+01  0.16522787624E+01  0.00000000000E+00 0.  1.
          2    1    1    2  501    0  0.23564801643E+02  0.19097985149E+02  0.17304391483E+03  0.17568218285E+03  0.00000000000E+00 0.  1.
          2    1    1    2  502    0 -0.23564801643E+02 -0.19097985149E+02  0.69008214351E+03  0.69074843301E+03  0.00000000000E+00 0.  1.
</event>
<event>
 4    1  0.8391192E+003  0.2202976E+02  0.7546771E-02  0.1505055E+00
          2   -1    0    0  501    0  0.00000000000E+00  0.00000000000E+00  0.73876328219E+03  0.73876328219E+03  0.00000000000E+00 0.  1.
          2   -1    0    0  502    0 -0.00000000000E+00 -0.00000000000E+00 -0.47015693894E+03  0.47015693894E+03  0.00000000000E+00 0. -1.
          2    1    1    2  501    0  0.99569861312E+00  0.22007245081E+02 -0.46973450311E+03  0.47025079869E+03  0.00000000000E+00 0. -1.
          2    1    1    2  502    0 -0.99569861312E+00 -0.22007245081E+02  0.73834084636E+03  0.73866942245E+03  0.00000000000E+00 0.  1.
</event>
<event>
 4    1  0.8391192E+003  0.2852507E+02  0.7546771E-02  0.1432862E+00
          2   -1    0    0  501    0  0.00000000000E+00  0.00000000000E+00  0.10541662558E+03  0.10541662558E+03  0.00000000000E+00 0.  1.
          2   -1    0    0  502    0 -0.00000000000E+00 -0.00000000000E+00 -0.11363116258E+02  0.11363116258E+02  0.00000000000E+00 0.  1.
          2    1    1    2  501    0 -0.19468631953E+02 -0.20848313912E+02  0.13959169048E+02  0.31757490827E+02  0.00000000000E+00 0.  1.
          2    1    1    2  502    0  0.19468631953E+02  0.20848313912E+02  0.80094340270E+02  0.85022251008E+02  0.00000000000E+00 0.  1.
</event>
<event>
 4    1  0.8391192E+003  0.2319138E+02  0.7546771E-02  0.1490109E+00
          2   -1    0    0  501    0  0.00000000000E+00  0.00000000000E+00  0.68900705584E+03  0.68900705584E+03  0.00000000000E+00 0. -1.
          2   -1    0    0  502    0 -0.00000000000E+00 -0.00000000000E+00 -0.81896172449E+00  0.81896172449E+00  0.00000000000E+00 0. -1.
          2    1    1    2  501    0  0.20360529498E+02  0.11103562139E+02  0.26944645960E+03  0.27044266461E+03  0.00000000000E+00 0. -1.
          2    1    1    2  502    0 -0.20360529498E+02 -0.11103562139E+02  0.41874163452E+03  0.41938335295E+03  0.00000000000E+00 0. -1.
</event>
<event>
 4    1  0.8391192E+003  0.3457427E+02  0.7546771E-02  0.1383581E+00
          2   -1    0    0  501    0  0.00000000000E+00  0.00000000000E+00  0.20461424727E+02  0.20461424727E+02  0.00000000000E+00 0. -1.
          2   -1    0    0  502    0 -0.00000000000E+00 -0.00000000000E+00 -0.34417447424E+03  0.34417447424E+03  0.00000000000E+00 0. -1.
          2    1    1    2  501    0  0.33346021429E+02  0.91336092978E+01 -0.32798181187E+03  0.32979910382E+03  0.00000000000E+00 0. -1.
          2    1    1    2  502    0 -0.33346021429E+02 -0.91336092978E+01  0.42687623579E+01  0.34836795145E+02  0.00000000000E+00 0. -1.
</event>
<event>
 4    1  0.8391192E+003  0.2403511E+02  0.7546771E-02  0.1479894E+00
          2   -1    0    0  502    0  0.00000000000E+00  0.00000000000E+00  0.94275057543E+02  0.94275057543E+02  0.00000000000E+00 0. -1.
          2   -1    0    0  501    0 -0.00000000000E+00 -0.00000000000E+00 -0.52728542882E+02  0.52728542882E+02  0.00000000000E+00 0.  1.
          2    1    1    2  501    0  0.23803785708E+02 -0.33265988932E+01  0.89872313466E+02  0.93030743316E+02  0.00000000000E+00 0. -1.
          2    1    1    2  502    0 -0.23803785708E+02  0.33265988932E+01 -0.48325798805E+02  0.53972857108E+02  0.00000000000E+00 0.  1.
</event>
<event>
 4    1  0.8391192E+003  0.2341054E+02  0.7546771E-02  0.1487406E+00
          2   -1    0    0  502    0  0.00000000000E+00  0.00000000000E+00  0.25741410157E+03  0.25741410157E+03  0.00000000000E+00 0.  1.
          2   -1    0    0  501    0 -0.00000000000E+00 -0.00000000000E+00 -0.41071503601E+01  0.41071503601E+01  0.00000000000E+00 0.  1.
          2    1    1    2  501    0  0.55897019036E+01  0.22733429779E+02  0.21739963374E+03  0.21865647566E+03  0.00000000000E+00 0.  1.
          2    1    1    2  502    0 -0.55897019036E+01 -0.22733429779E+02  0.35907317464E+02  0.42864776266E+02  0.00000000000E+00 0.  1.
</event>
<event>
 4    1  0.8391192E+003  0.2104235E+02  0.7546771E-02  0.1518661E+00
          2   -1    0    0  502    0  0.00000000000E+00  0.00000000000E+00  0.31365151364E+02  0.31365151364E+02  0.00000000000E+00 0.  1.
          2   -1    0    0  501    0 -0.00000000000E+00 -0.00000000000E+00 -0.26687701127E+03  0.26687701127E+03  0.00000000000E+00 0.  1.
          2    1    1    2  501    0  0.17361449449E+02 -0.11889518253E+02  0.27367548481E+02  0.34521924644E+02  0.00000000000E+00 0.  1.
          2    1    1    2  502    0 -0.17361449449E+02  0.11889518253E+02 -0.26287940838E+03  0.26372023799E+03  0.00000000000E+00 0.  1.
</event>
<event>
 4    1  0.8391192E+003  0.9381987E+02  0.7546771E-02  0.1174970E+00
          2   -1    0    0  501    0  0.00000000000E+00  0.00000000000E+00  0.23029636720E+03  0.23029636720E+03  0.00000000000E+00 0. -1.
          2   -1    0    0  502    0 -0.00000000000E+00 -0.00000000000E+00 -0.18592610869E+03  0.18592610869E+03  0.00000000000E+00 0.  1.
          2    1    1    2  501    0 -0.72111999383E+02  0.60016895645E+02 -0.16330595175E+03  0.18833746865E+03  0.00000000000E+00 0.  1.
          2    1    1    2  502    0  0.72111999383E+02 -0.60016895645E+02  0.20767621027E+03  0.22788500725E+03  0.00000000000E+00 0. -1.
</event>
<event>
 4    1  0.8391192E+003  0.2907196E+02  0.7546771E-02  0.1427836E+00
          2   -1    0    0  502    0  0.00000000000E+00  0.00000000000E+00  0.37015588465E+02  0.37015588465E+02  0.00000000000E+00 0. -1.
          2   -1    0    0  501    0 -0.00000000000E+00 -0.00000000000E+00 -0.24474734382E+02  0.24474734382E+02  0.00000000000E+00 0. -1.
          2    1    1    2  501    0 -0.14805648214E+02  0.25019420870E+02  0.14233177880E+02  0.32369151862E+02  0.00000000000E+00 0. -1.
          2    1    1    2  502    0  0.14805648214E+02 -0.25019420870E+02 -0.16923237973E+01  0.29121170985E+02  0.00000000000E+00 0. -1.
</event>
<event>
 4    1  0.8391192E+003  0.2309608E+02  0.7546771E-02  0.1491295E+00
          2   -1    0    0  501    0  0.00000000000E+00  0.00000000000E+00  0.10106291418E+03  0.10106291418E+03  0.00000000000E+00 0. -1.
          2   -1    0    0  502    0 -0.00000000000E+00 -0.00000000000E+00 -0.17450429234E+02  0.17450429234E+02  0.00000000000E+00 0. -1.
          2    1    1    2  501    0 -0.26000049728E+01  0.22949266976E+02 -0.76839912583E+01  0.24340760100E+02  0.00000000000E+00 0. -1.
          2    1    1    2  502    0  0.26000049728E+01 -0.22949266976E+02  0.91296476202E+02  0.94172583311E+02  0.00000000000E+00 0. -1.
</event>
<event>
 4    1  0.8391192E+003  0.2223568E+02  0.7546771E-02  0.1502325E+00
          2   -1    0    0  502    0  0.00000000000E+00  0.00000000000E+00  0.10214777020E+04  0.10214777020E+04  0.00000000000E+00 0.  1.
          2   -1    0    0  501    0 -0.00000000000E+00 -0.00000000000E+00 -0.66175531228E+01  0.66175531228E+01  0.00000000000E+00 0. -1.
          2    1    1    2  501    0  0.50065690179E+01  0.21664713805E+02  0.10023211869E+04  0.10025677969E+04  0.00000000000E+00 0.  1.
          2    1    1    2  502    0 -0.50065690179E+01 -0.21664713805E+02  0.12538961931E+02  0.25527458234E+02  0.00000000000E+00 0. -1.
</event>
<event>
 4    1  0.8391192E+003  0.2645453E+02  0.7546771E-02  0.1453166E+00
          2   -1    0    0  501    0  0.00000000000E+00  0.00000000000E+00  0.52105918635E+01  0.52105918635E+01  0.00000000000E+00 0.  1.
          2   -1    0    0  502    0 -0.00000000000E+00 -0.00000000000E+00 -0.35440200373E+03  0.35440200373E+03  0.00000000000E+00 0. -1.
          2    1    1    2  501    0 -0.14845983074E+02 -0.21896099914E+02 -0.31629166586E+03  0.31739606219E+03  0.00000000000E+00 0. -1.
          2    1    1    2  502    0  0.14845983074E+02  0.21896099914E+02 -0.32899746010E+02  0.42216533402E+02  0.00000000000E+00 0.  1.
</event>
<event>
 4    1  0.8391192E+003  0.2999708E+02  0.7546771E-02  0.1419622E+00
          2   -1    0    0  502    0  0.00000000000E+00  0.00000000000E+00  0.54505931046E+03  0.54505931046E+03  0.00000000000E+00 0. -1.
          2   -1    0    0  501    0 -0.00000000000E+00 -0.00000000000E+00 -0.61117732493E+02  0.61117732493E+02  0.00000000000E+00 0.  1.
          2    1    1    2  501    0  0.17005677449E+02  0.24710968955E+02  0.54093786589E+03  0.54176895427E+03  0.00000000000E+00 0. -1.
          2    1    1    2  502    0 -0.17005677449E+02 -0.24710968955E+02 -0.56996287920E+02  0.64408088691E+02  0.00000000000E+00 0.  1.
</event>
<event>
 4    1  0.8391192E+003  0.3229543E+02  0.7546771E-02  0.1400644E+00
          2   -1    0    0  501    0  0.00000000000E+00  0.00000000000E+00  0.22247836169E+03  0.22247836169E+03  0.00000000000E+00 0. -1.
          2   -1    0    0  502    0 -0.00000000000E+00 -0.00000000000E+00 -0.68913356927E+02  0.68913356927E+02  0.00000000000E+00 0.  1.
          2    1    1    2  501    0 -0.32251097122E+02  0.16915373511E+01 -0.63870344307E+02  0.71571051732E+02  0.00000000000E+00 0.  1.
          2    1    1    2  502    0  0.32251097122E+02 -0.16915373511E+01  0.21743534907E+03  0.21982066688E+03  0.00000000000E+00 0. -1.
</event>
<event>
 4    1  0.8391192E+003  0.2193818E+02  0.7546771E-02  0.1506280E+00
          2   -1    0    0  501    0  0.00000000000E+00  0.00000000000E+00  0.79355181542E+01  0.79355181542E+01  0.00000000000E+00 0.  1.
          2   -1    0    0  502    0 -0.00000000000E+00 -0.00000000000E+00 -0.24307932764E+03  0.24307932764E+03  0.00000000000E+00 0.  1.
          2    1    1    2  501    0  0.20482734649E+02 -0.78575651965E+01 -0.22630044104E+03  0.22736132777E+03  0.00000000000E+00 0.  1.
          2    1    1    2  502    0 -0.20482734649E+02  0.78575651965E+01 -0.88433684447E+01  0.23653518025E+02  0.00000000000E+00 0.  1.
</event>
<event>
 4    1  0.8391192E+003  0.2104168E+02  0.7546771E-02  0.1518670E+00
          2   -1    0    0  502    0  0.00000000000E+00  0.00000000000E+00  0.67356400964E+03  0.67356400964E+03  0.00000000000E+00 0. -1.
          2   -1    0    0  501    0 -0.00000000000E+00 -0.00000000000E+00 -0.40420872386E+03  0.40420872386E+03  0.00000000000E+00 0.  1.
          2    1    1    2  501    0 -0.20979957094E+02  0.16105239765E+01  0.67312566043E+03  0.67345445809E+03  0.00000000000E+00 0. -1.
          2    1    1    2  502    0  0.20979957094E+02 -0.16105239765E+01 -0.40377037465E+03  0.40431827541E+03  0.00000000000E+00 0.  1.
</event>
<event>
 4    1  0.8391192E+003  0.2477234E+02  0.7546771E-02  0.1471366E+00
          2   -1    0    0  502    0  0.00000000000E+00  0.00000000000E+00  0.61311363266E+02  0.61311363266E+02  0.00000000000E+00 0.  1.
          2   -1    0    0  501    0 -0.00000000000E+00 -0.00000000000E+00 -0.85620338347E+03  0.85620338347E+03  0.00000000000E+00 0. -1.
          2    1    1    2  501    0  0.55340418391E+01  0.24146285724E+02  0.58622034011E+02  0.63641272810E+02  0.00000000000E+00 0.  1.
          2    1    1    2  502    0 -0.55340418391E+01 -0.24146285724E+02 -0.85351405422E+03  0.85387347393E+03  0.00000000000E+00 0. -1.
</event>
<event>
 4    1  0.8391192E+003  0.3109873E+02  0.7546771E-02  0.1410283E+00
          2   -1    0    0  501    0  0.00000000000E+00  0.00000000000E+00  0.30404814442E+02  0.30404814442E+02  0.00000000000E+00 0.  1.
          2   -1    0    0  502    0 -0.00000000000E+00 -0.00000000000E+00 -0.18994296644E+04  0.18994296644E+04  0.00000000000E+00 0.  1.
          2    1    1    2  501    0 -0.18285965193E+02  0.25154606220E+02 -0.18913161424E+04  0.18915718018E+04  0.00000000000E+00 0.  1.
          2    1    1    2  502    0  0.18285965193E+02 -0.25154606220E+02  0.22291292451E+02  0.38262677066E+02  0.00000000000E+00 0.  1.
</event>
<event>
 4    1  0.8600532E+003  0.3365013E+02  0.7546771E-02  0.1390310E+00
          2   -1    0    0  502    0  0.00000000000E+00  0.00000000000E+00  0.12362668775E+04  0.12362668775E+04  0.00000000000E+00 0. -1.
          2   -1    0    0  501    0 -0.00000000000E+00 -0.00000000000E+00 -0.55419003039E+03  0.55419003039E+03  0.00000000000E+00 0.  1.
          2    1    1    2  501    0 -0.14366152832E+02 -0.30429345707E+02  0.12355267849E+04  0.12359849383E+04  0.00000000000E+00 0. -1.
          2    1    1    2  502    0  0.14366152832E+02  0.30429345707E+02 -0.55344993781E+03  0.55447196961E+03  0.00000000000E+00 0.  1.
</event>
<event>
 4    1  0.8391192E+003  0.4358099E+02  0.7546771E-02  0.1328689E+00
          2   -1    0    0  501    0  0.00000000000E+00  0.00000000000E+00  0.40752280774E+03  0.40752280774E+03  0.00000000000E+00 0.  1.
          2   -1    0    0  502    0 -0.00000000000E+00 -0.00000000000E+00 -0.24979132147E+02  0.24979132147E+02  0.00000000000E+00 0.  1.
          2    1    1    2  501    0 -0.41007961770E+02 -0.14752964260E+02 -0.37644857277E+01  0.43743276464E+02  0.00000000000E+00 0.  1.
          2    1    1    2  502    0  0.41007961770E+02  0.14752964260E+02  0.38630816133E+03  0.38875866343E+03  0.00000000000E+00 0.  1.
</event>
<event>
 4    1  0.8391192E+003  0.3083054E+02  0.7546771E-02  0.1412513E+00
          2   -1    0    0  501    0  0.00000000000E+00  0.00000000000E+00  0.14113275912E+03  0.14113275912E+03  0.00000000000E+00 0. -1.
          2   -1    0    0  502    0 -0.00000000000E+00 -0.00000000000E+00 -0.37267933600E+02  0.37267933600E+02  0.00000000000E+00 0. -1.
          2    1    1    2  501    0 -0.38968790218E+01 -0.30583272527E+02 -0.28806611933E+02  0.42194112334E+02  0.00000000000E+00 0. -1.
          2    1    1    2  502    0  0.38968790218E+01  0.30583272527E+02  0.13267143745E+03  0.13620658039E+03  0.00000000000E+00 0. -1.
</event>
<event>
 4    1  0.8391192E+003  0.2458139E+02  0.7546771E-02  0.1473541E+00
          2   -1    0    0  501    0  0.00000000000E+00  0.00000000000E+00  0.72883451761E+01  0.72883451761E+01  0.00000000000E+00 0.  1.
          2   -1    0    0  502    0 -0.00000000000E+00 -0.00000000000E+00 -0.36821305346E+03  0.36821305346E+03  0.00000000000E+00 0. -1.
          2    1    1    2  501    0  0.43523085412E+01  0.24193019016E+02 -0.34573025779E+03  0.34660302351E+03  0.00000000000E+00 0. -1.
          2    1    1    2  502    0 -0.43523085412E+01 -0.24193019016E+02 -0.15194450492E+02  0.28898375119E+02  0.00000000000E+00 0.  1.
</event>
<event>
 4    1  0.8391192E+003  0.2170795E+02  0.7546771E-02  0.1509393E+00
          2   -1    0    0  502    0  0.00000000000E+00  0.00000000000E+00  0.46766379721E+03  0.46766379721E+03  0.00000000000E+00 0. -1.
          2   -1    0    0  501    0 -0.00000000000E+00 -0.00000000000E+00 -0.18817337342E+02  0.18817337342E+02  0.00000000000E+00 0.  1.
          2    1    1    2  501    0  0.62706041922E+01  0.20782559225E+02  0.46106163581E+03  0.46157238573E+03  0.00000000000E+00 0. -1.
          2    1    1    2  502    0 -0.62706041922E+01 -0.20782559225E+02 -0.12215175943E+02  0.24908748829E+02  0.00000000000E+00 0.  1.
</event>
<event>
 4    1  0.8391192E+003  0.2076570E+02  0.7546771E-02  0.1522637E+00
          2   -1    0    0  502    0  0.00000000000E+00  0.00000000000E+00  0.67978757698E+03  0.67978757698E+03  0.00000000000E+00 0.  1.
          2   -1    0    0  501    0 -0.00000000000E+00 -0.00000000000E+00 -0.54907966151E+01  0.54907966151E+01  0.00000000000E+00 0.  1.
          2    1    1    2  501    0 -0.16059274908E+02 -0.13164872406E+02  0.65938824883E+03  0.65971514828E+03  0.00000000000E+00 0.  1.
          2    1    1    2  502    0  0.16059274908E+02  0.13164872406E+02  0.14908531540E+02  0.25563225319E+02  0.00000000000E+00 0.  1.
</event>
<event>
 4    1  0.8391192E+003  0.2459213E+02  0.7546771E-02  0.1473418E+00
          2   -1    0    0  501    0  0.00000000000E+00  0.00000000000E+00  0.10533828495E+02  0.10533828495E+02  0.00000000000E+00 0. -1.
          2   -1    0    0  502    0 -0.00000000000E+00 -0.00000000000E+00 -0.61604445335E+02  0.61604445335E+02  0.00000000000E+00 0.  1.
          2    1    1    2  501    0 -0.21398556081E+02  0.12119175950E+02 -0.16126351807E+02  0.29408023577E+02  0.00000000000E+00 0. -1.
          2    1    1    2  502    0  0.21398556081E+02 -0.12119175950E+02 -0.34944265032E+02  0.42730250254E+02  0.00000000000E+00 0.  1.
</event>
<event>
 4    1  0.8391192E+003  0.2667770E+02  0.7546771E-02  0.1450873E+00
          2   -1    0    0  501    0  0.00000000000E+00  0.00000000000E+00  0.25036671174E+01  0.25036671174E+01  0.00000000000E+00 0.  1.
          2   -1    0    0  502    0 -0.00000000000E+00 -0.00000000000E+00 -0.51530749928E+03  0.51530749928E+03  0.00000000000E+00 0.  1.
          2    1    1    2  501    0  0.24803981855E+02  0.98215161216E+01 -0.42976478601E+03  0.43059200061E+03  0.00000000000E+00 0.  1.
          2    1    1    2  502    0 -0.24803981855E+02 -0.98215161216E+01 -0.83039046153E+02  0.87219165788E+02  0.00000000000E+00 0.  1.
</event>
<event>
 4    1  0.8391192E+003  0.8476070E+02  0.7546771E-02  0.1193207E+00
          2   -1    0    0  502    0  0.00000000000E+00  0.00000000000E+00  0.78637058893E+02  0.78637058893E+02  0.00000000000E+00 0.  1.
          2   -1    0    0  501    0 -0.00000000000E+00 -0.00000000000E+00 -0.26484754377E+04  0.26484754377E+04  0.00000000000E+00 0.  1.
          2    1    1    2  501    0 -0.75402165916E+02 -0.38715486592E+02  0.54912201807E+02  0.10099369007E+03  0.00000000000E+00 0.  1.
          2    1    1    2  502    0  0.75402165916E+02  0.38715486592E+02 -0.26247505806E+04  0.26261188065E+04  0.00000000000E+00 0.  1.
</event>
<event>
 4    1  0.8391192E+003  0.2463193E+02  0.7546771E-02  0.1472963E+00
          2   -1    0    0  502    0  0.00000000000E+00  0.00000000000E+00  0.18934283492E+04  0.18934283492E+04  0.00000000000E+00 0.  1.
          2   -1    0    0  501    0 -0.00000000000E+00 -0.00000000000E+00 -0.71568377378E+00  0.71568377378E+00  0.00000000000E+00 0.  1.
          2    1    1    2  501    0  0.13975208728E+02 -0.20283623328E+02  0.16501647520E+04  0.16503485815E+04  0.00000000000E+00 0.  1.
          2    1    1    2  502    0 -0.13975208728E+02  0.20283623328E+02  0.24254791340E+03  0.24379545141E+03  0.00000000000E+00 0.  1.
</event>
<event>
 4    1  0.8391192E+003  0.2864205E+02  0.7546771E-02  0.1431776E+00
          2   -1    0    0  502    0  0.00000000000E+00  0.00000000000E+00  0.10043103103E+02  0.10043103103E+02  0.00000000000E+00 0. -1.
          2   -1    0    0  501    0 -0.00000000000E+00 -0.00000000000E+00 -0.12876864204E+04  0.12876864204E+04  0.00000000000E+00 0. -1.
          2    1    1    2  501    0 -0.23117292617E+02 -0.16910280041E+02 -0.10874478710E+02  0.30636923413E+02  0.00000000000E+00 0. -1.
          2    1    1    2  502    0  0.23117292617E+02  0.16910280041E+02 -0.12667688386E+04  0.12670926001E+04  0.00000000000E+00 0. -1.
</event>
<event>
 4    1  0.8391192E+003  0.2038387E+02  0.7546771E-02  0.1528246E+00
          2   -1    0    0  502    0  0.00000000000E+00  0.00000000000E+00  0.39617822114E+01  0.39617822114E+01  0.00000000000E+00 0. -1.
          2   -1    0    0  501    0 -0.00000000000E+00 -0.00000000000E+00 -0.13151098389E+04  0.13151098389E+04  0.00000000000E+00 0.  1.
          2    1    1    2  501    0  0.74906114634E+01  0.18957659404E+02 -0.22882919822E+02  0.30645230130E+02  0.00000000000E+00 0. -1.
          2    1    1    2  502    0 -0.74906114634E+01 -0.18957659404E+02 -0.12882651368E+04  0.12884263910E+04  0.00000000000E+00 0.  1.
</event>
<event>
 4    1  0.8391192E+003  0.2185699E+02  0.7546771E-02  0.1507372E+00
          2   -1    0    0  502    0  0.00000000000E+00  0.00000000000E+00  0.42362831767E+03  0.42362831767E+03  0.00000000000E+00 0. -1.
          2   -1    0    0  501    0 -0.00000000000E+00 -0.00000000000E+00 -0.20538583708E+02  0.20538583708E+02  0.00000000000E+00 0. -1.
          2    1    1    2  501    0  0.70865991646E+01 -0.20676270284E+02  0.41744531395E+03  0.41801712666E+03  0.00000000000E+00 0. -1.
          2    1    1    2  502    0 -0.70865991646E+01  0.20676270284E+02 -0.14355579995E+02  0.26149774713E+02  0.00000000000E+00 0. -1.
</event>
<event>
 4    1  0.8391192E+003  0.2047160E+02  0.7546771E-02  0.1526944E+00
          2   -1    0    0  501    0  0.00000000000E+00  0.00000000000E+00  0.46704793212E+02  0.46704793212E+02  0.00000000000E+00 0. -1.
          2   -1    0    0  502    0 -0.00000000000E+00 -0.00000000000E+00 -0.37880540488E+02  0.37880540488E+02  0.00000000000E+00 0.  1.
          2    1    1    2  501    0  0.13881019225E+02 -0.15046713737E+02 -0.32533402433E+02  0.38438373572E+02  0.00000000000E+00 0.  1.
          2    1    1    2  502    0 -0.13881019225E+02  0.15046713737E+02  0.41357655156E+02  0.46146960128E+02  0.00000000000E+00 0. -1.
</event>
<event>
 4    1  0.8391192E+003  0.2590370E+02  0.7546771E-02  0.1458943E+00
          2   -1    0    0  501    0  0.00000000000E+00  0.00000000000E+00  0.24776657597E+01  0.24776657597E+01  0.00000000000E+00 0.  1.
          2   -1    0    0  502    0 -0.00000000000E+00 -0.00000000000E+00 -0.50343516386E+03  0.50343516386E+03  0.00000000000E+00 0. -1.
          2    1    1    2  501    0  0.54065634438E+01  0.25333196712E+02 -0.42242503754E+03  0.42321851817E+03  0.00000000000E+00 0. -1.
          2    1    1    2  502    0 -0.54065634438E+01 -0.25333196712E+02 -0.78532460554E+02  0.82694311440E+02  0.00000000000E+00 0.  1.
</event>
<event>
 4    1  0.8391192E+003  0.2451036E+02  0.7546771E-02  0.1474356E+00
          2   -1    0    0  501    0  0.00000000000E+00  0.00000000000E+00  0.86296526150E+00  0.86296526150E+00  0.00000000000E+00 0. -1.
          2   -1    0    0  502    0 -0.00000000000E+00 -0.00000000000E+00 -0.86174286901E+03  0.86174286901E+03  0.00000000000E+00 0.  1.
          2    1    1    2  501    0  0.12859488345E+02 -0.20866030896E+02 -0.61950343149E+03  0.61998811224E+03  0.00000000000E+00 0.  1.
          2    1    1    2  502    0 -0.12859488345E+02  0.20866030896E+02 -0.24137647226E+03  0.24261772204E+03  0.00000000000E+00 0. -1.
</event>
<event>
 4    1  0.8391192E+003  0.2346660E+02  0.7546771E-02  0.1486721E+00
          2   -1    0    0  501    0  0.00000000000E+00  0.00000000000E+00  0.36578550754E+02  0.36578550754E+02  0.00000000000E+00 0. -1.
          2   -1    0    0  502    0 -0.00000000000E+00 -0.00000000000E+00 -0.38136248295E+02  0.38136248295E+02  0.00000000000E+00 0. -1.
          2    1    1    2  501    0 -0.23028976930E+02 -0.45108029226E+01 -0.29841792751E+02  0.37963320667E+02  0.00000000000E+00 0. -1.
          2    1    1    2  502    0  0.23028976930E+02  0.45108029226E+01  0.28284095210E+02  0.36751478383E+02  0.00000000000E+00 0. -1.
</event>
<event>
 4    1  0.8391192E+003  0.2192486E+02  0.7546771E-02  0.1506459E+00
          2   -1    0    0  502    0  0.00000000000E+00  0.00000000000E+00  0.20993579093E+03  0.20993579093E+03  0.00000000000E+00 0. -1.
          2   -1    0    0  501    0 -0.00000000000E+00 -0.00000000000E+00 -0.20802653023E+02  0.20802653023E+02  0.00000000000E+00 0. -1.
          2    1    1    2  501    0  0.75453305895E+01 -0.20585608555E+02  0.20340140576E+03  0.20457964503E+03  0.00000000000E+00 0. -1.
          2    1    1    2  502    0 -0.75453305895E+01  0.20585608555E+02 -0.14268267860E+02  0.26158798922E+02  0.00000000000E+00 0. -1.
</event>
<event>
 4    1  0.8391192E+003  0.2816659E+02  0.7546771E-02  0.1436229E+00
          2   -1    0    0  501    0  0.00000000000E+00  0.00000000000E+00  0.12168247148E+04  0.12168247148E+04  0.00000000000E+00 0.  1.
          2   -1    0    0  502    0 -0.00000000000E+00 -0.00000000000E+00 -0.10984699948E+02  0.10984699948E+02  0.00000000000E+00 0. -1.
          2    1    1    2  501    0  0.81285547832E+01  0.26968195107E+02  0.75129284945E+01  0.29151347221E+02  0.00000000000E+00 0. -1.
          2    1    1    2  502    0 -0.81285547832E+01 -0.26968195107E+02  0.11983270863E+04  0.11986580675E+04  0.00000000000E+00 0.  1.
</event>
<event>
 4    1  0.8391192E+003  0.2527126E+02  0.7546771E-02  0.1465792E+00
          2   -1    0    0  502    0  0.00000000000E+00  0.00000000000E+00  0.70440471395E+03  0.70440471395E+03  0.00000000000E+00 0.  1.
          2   -1    0    0  501    0 -0.00000000000E+00 -0.00000000000E+00 -0.93916606960E+00  0.93916606960E+00  0.00000000000E+00 0.  1.
          2    1    1    2  501    0  0.24788756113E+02 -0.49146698795E+01  0.28609351846E+03  0.28720748199E+03  0.00000000000E+00 0.  1.
          2    1    1    2  502    0 -0.24788756113E+02  0.49146698795E+01  0.41737202943E+03  0.41813639803E+03  0.00000000000E+00 0.  1.
</event>
<event>
 4    1  0.8391192E+003  0.2236055E+02  0.7546771E-02  0.1500688E+00
          2   -1    0    0  501    0  0.00000000000E+00  0.00000000000E+00  0.13311029112E+03  0.13311029112E+03  0.00000000000E+00 0. -1.
          2   -1    0    0  502    0 -0.00000000000E+00 -0.00000000000E+00 -0.32352452442E+03  0.32352452442E+03  0.00000000000E+00 0.  1.
          2    1    1    2  501    0 -0.79761117344E+01 -0.20889615383E+02 -0.32219522925E+03  0.32297021557E+03  0.00000000000E+00 0.  1.
          2    1    1    2  502    0  0.79761117344E+01  0.20889615383E+02  0.13178099596E+03  0.13366459997E+03  0.00000000000E+00 0. -1.
</event>
<event>
 4    1  0.8391192E+003  0.7331130E+02  0.7546771E-02  0.1220290E+00
          2   -1    0    0  501    0  0.00000000000E+00  0.00000000000E+00  0.11933254647E+02  0.11933254647E+02  0.00000000000E+00 0. -1.
          2   -1    0    0  502    0 -0.00000000000E+00 -0.00000000000E+00 -0.13257142012E+04  0.13257142012E+04  0.00000000000E+00 0.  1.
          2    1    1    2  501    0 -0.54950723344E+02 -0.48527975714E+02 -0.12003568568E+04  0.12025935016E+04  0.00000000000E+00 0.  1.
          2    1    1    2  502    0  0.54950723344E+02  0.48527975714E+02 -0.11342408979E+03  0.13505395428E+03  0.00000000000E+00 0. -1.
</event>
<event>
 4    1  0.8391192E+003  0.2027040E+02  0.7546771E-02  0.1529942E+00
          2   -1    0    0  502    0  0.00000000000E+00  0.00000000000E+00  0.72705617518E+02  0.72705617518E+02  0.00000000000E+00 0.  1.
          2   -1    0    0  501    0 -0.00000000000E+00 -0.00000000000E+00 -0.18106428965E+03  0.18106428965E+03  0.00000000000E+00 0. -1.
          2    1    1    2  501    0 -0.19668504518E+02 -0.49029512480E+01  0.70709743815E+02  0.73557847109E+02  0.00000000000E+00 0.  1.
          2    1    1    2  502    0  0.19668504518E+02  0.49029512480E+01 -0.17906841595E+03  0.18021206006E+03  0.00000000000E+00 0. -1.
</event>
<event>
 4    1  0.8391192E+003  0.3505250E+02  0.7546771E-02  0.1380194E+00
          2   -1    0    0  501    0  0.00000000000E+00  0.00000000000E+00  0.52720703218E+03  0.52720703218E+03  0.00000000000E+00 0. -1.
          2   -1    0    0  502    0 -0.00000000000E+00 -0.00000000000E+00 -0.95316715370E+01  0.95316715370E+01  0.00000000000E+00 0.  1.
          2    1    1    2  501    0  0.20401911754E+01 -0.34993080429E+02  0.25573153691E+02  0.43389679045E+02  0.00000000000E+00 0.  1.
          2    1    1    2  502    0 -0.20401911754E+01  0.34993080429E+02  0.49210220695E+03  0.49334902467E+03  0.00000000000E+00 0. -1.
</event>
<event>
 4    1  0.8391192E+003  0.2488617E+02  0.7546771E-02  0.1470081E+00
          2   -1    0    0  501    0  0.00000000000E+00  0.00000000000E+00  0.11265566324E+04  0.11265566324E+04  0.00000000000E+00 0.  1.
          2   -1    0    0  502    0 -0.00000000000E+00 -0.00000000000E+00 -0.30890088292E+01  0.30890088292E+01  0.00000000000E+00 0.  1.
          2    1    1    2  501    0  0.92276136718E+01  0.23112176975E+02  0.49631933828E+02  0.55521621321E+02  0.00000000000E+00 0.  1.
          2    1    1    2  502    0 -0.92276136718E+01 -0.23112176975E+02  0.10738356897E+04  0.10741240199E+04  0.00000000000E+00 0.  1.
</event>
<event>
 4    1  0.8391192E+003  0.9275584E+02  0.7546771E-02  0.1176989E+00
          2   -1    0    0  502    0  0.00000000000E+00  0.00000000000E+00  0.46653380218E+03  0.46653380218E+03  0.00000000000E+00 0. -1.
          2   -1    0    0  501    0 -0.00000000000E+00 -0.00000000000E+00 -0.10885722797E+03  0.10885722797E+03  0.00000000000E+00 0. -1.
          2    1    1    2  501    0  0.89080626754E+02 -0.25851272470E+02  0.44103432358E+03  0.45068272757E+03  0.00000000000E+00 0. -1.
          2    1    1    2  502    0 -0.89080626754E+02  0.25851272470E+02 -0.83357749377E+02  0.12470830258E+03  0.00000000000E+00 0. -1.
</event>
<event>
 4    1  0.8391192E+003  0.2671571E+02  0.7546771E-02  0.1450485E+00
          2   -1    0    0  501    0  0.00000000000E+00  0.00000000000E+00  0.72104304638E+01  0.72104304638E+01  0.00000000000E+00 0.  1.
          2   -1    0    0  502    0 -0.00000000000E+00 -0.00000000000E+00 -0.15748239709E+04  0.15748239709E+04  0.00000000000E+00 0. -1.
          2    1    1    2  501    0 -0.18283304339E+02  0.19479470851E+02 -0.15495608394E+04  0.15497911227E+04  0.00000000000E+00 0. -1.
          2    1    1    2  502    0  0.18283304339E+02 -0.19479470851E+02 -0.18052700965E+02  0.32243278591E+02  0.00000000000E+00 0.  1.
</event>
<event>
 4    1  0.8391192E+003  0.4746541E+02  0.7546771E-02  0.1309552E+00
          2   -1    0    0  501    0  0.00000000000E+00  0.00000000000E+00  0.54819822927E+01  0.54819822927E+01  0.00000000000E+00 0. -1.
          2   -1    0    0  502    0 -0.00000000000E+00 -0.00000000000E+00 -0.41934947214E+03  0.41934947214E+03  0.00000000000E+00 0.  1.
          2    1    1    2  501    0  0.50316727483E+01  0.47197962856E+02 -0.17691858566E+03  0.18317519314E+03  0.00000000000E+00 0. -1.
          2    1    1    2  502    0 -0.50316727483E+01 -0.47197962856E+02 -0.23694890418E+03  0.24165626129E+03  0.00000000000E+00 0.  1.
</event>
<event>
 4    1  0.8391192E+003  0.4564536E+02  0.7546771E-02  0.1318243E+00
          2   -1    0    0  502    0  0.00000000000E+00  0.00000000000E+00  0.45005256087E+03  0.45005256087E+03  0.00000000000E+00 0.  1.
          2   -1    0    0  501    0 -0.00000000000E+00 -0.00000000000E+00 -0.43503583873E+02  0.43503583873E+02  0.00000000000E+00 0.  1.
          2    1    1    2  501    0 -0.43104682332E+02  0.15016180331E+02  0.43655280327E+03  0.43893262507E+03  0.00000000000E+00 0.  1.
          2    1    1    2  502    0  0.43104682332E+02 -0.15016180331E+02 -0.30003826269E+02  0.54623519673E+02  0.00000000000E+00 0.  1.
</event>
<event>
 4    1  0.8391192E+003  0.2192652E+02  0.7546771E-02  0.1506436E+00
          2   -1    0    0  502    0  0.00000000000E+00  0.00000000000E+00  0.17311733900E+03  0.17311733900E+03  0.00000000000E+00 0.  1.
          2   -1    0    0  501    0 -0.00000000000E+00 -0.00000000000E+00 -0.23119961163E+02  0.23119961163E+02  0.00000000000E+00 0.  1.
          2    1    1    2  501    0  0.27391521749E+01  0.21754750264E+02  0.16703591940E+03  0.16846890064E+03  0.00000000000E+00 0.  1.
          2    1    1    2  502    0 -0.27391521749E+01 -0.21754750264E+02 -0.17038541559E+02  0.27768399524E+02  0.00000000000E+00 0.  1.
</event>
<event>
 4    1  0.8391192E+003  0.2568636E+02  0.7546771E-02  0.1461270E+00
          2   -1    0    0  502    0  0.00000000000E+00  0.00000000000E+00  0.12569780839E+03  0.12569780839E+03  0.00000000000E+00 0.  1.
          2   -1    0    0  501    0 -0.00000000000E+00 -0.00000000000E+00 -0.24344505010E+03  0.24344505010E+03  0.00000000000E+00 0.  1.
          2    1    1    2  501    0 -0.20913373234E+02 -0.14913740806E+02  0.12369715918E+03  0.12633596493E+03  0.00000000000E+00 0.  1.
          2    1    1    2  502    0  0.20913373234E+02  0.14913740806E+02 -0.24144440089E+03  0.24280689357E+03  0.00000000000E+00 0.  1.
</event>
<event>
 4    1  0.8391192E+003  0.2123384E+02  0.7546771E-02  0.1515952E+00
          2   -1    0    0  501    0  0.00000000000E+00  0.00000000000E+00  0.29945055776E+02  0.29945055776E+02  0.00000000000E+00 0.  1.
          2   -1    0    0  502    0 -0.00000000000E+00 -0.00000000000E+00 -0.11578248273E+04  0.11578248273E+04  0.00000000000E+00 0. -1.
          2    1    1    2  501    0  0.21149435322E+02 -0.18913700112E+01 -0.11539506436E+04  0.11541459889E+04  0.00000000000E+00 0. -1.
          2    1    1    2  502    0 -0.21149435322E+02  0.18913700112E+01  0.26070872008E+02  0.33623894216E+02  0.00000000000E+00 0.  1.
</event>
<event>
 4    1  0.8391192E+003  0.3108584E+02  0.7546771E-02  0.1410389E+00
          2   -1    0    0  502    0  0.00000000000E+00  0.00000000000E+00  0.36235192575E+02  0.36235192575E+02  0.00000000000E+00 0.  1.
          2   -1    0    0  501    0 -0.00000000000E+00 -0.00000000000E+00 -0.42491936384E+02  0.42491936384E+02  0.00000000000E+00 0.  1.
          2    1    1    2  501    0 -0.30423067364E+02 -0.63848481589E+01  0.20892841273E+02  0.37454507477E+02  0.00000000000E+00 0.  1.
          2    1    1    2  502    0  0.30423067364E+02  0.63848481589E+01 -0.27149585082E+02  0.41272621482E+02  0.00000000000E+00 0.  1.
</event>
<event>
 4    1  0.8391192E+003  0.2029813E+02  0.7546771E-02  0.1529526E+00
          2   -1    0    0  501    0  0.00000000000E+00  0.00000000000E+00  0.51932572799E+02  0.51932572799E+02  0.00000000000E+00 0. -1.
          2   -1    0    0  502    0 -0.00000000000E+00 -0.00000000000E+00 -0.12107060592E+02  0.12107060592E+02  0.00000000000E+00 0. -1.
          2    1    1    2  501    0 -0.10980363971E+02  0.17071776927E+02  0.38712240485E+02  0.43711000031E+02  0.00000000000E+00 0. -1.
          2    1    1    2  502    0  0.10980363971E+02 -0.17071776927E+02  0.11132717223E+01  0.20328633360E+02  0.00000000000E+00 0. -1.
</event>
<event>
 4    1  0.8391192E+003  0.3681830E+02  0.7546771E-02  0.1368212E+00
          2   -1    0    0  502    0  0.00000000000E+00  0.00000000000E+00  0.17473641351E+04  0.17473641351E+04  0.00000000000E+00 0.  1.
          2   -1    0    0  501    0 -0.00000000000E+00 -0.00000000000E+00 -0.13473002564E+02  0.13473002564E+02  0.00000000000E+00 0. -1.
          2    1    1    2  501    0 -0.13872087275E+02 -0.34105016371E+02  0.17216406368E+04  0.17220342822E+04  0.00000000000E+00 0.  1.
          2    1    1    2  502    0  0.13872087275E+02  0.34105016371E+02  0.12250495813E+02  0.38802855497E+02  0.00000000000E+00 0. -1.
</event>
<event>
 4    1  0.8391192E+003  0.3729004E+02  0.7546771E-02  0.1365142E+00
          2   -1    0    0  501    0  0.00000000000E+00  0.00000000000E+00  0.91756044139E+03  0.91756044139E+03  0.00000000000E+00 0. -1.
          2   -1    0    0  502    0 -0.00000000000E+00 -0.00000000000E+00 -0.40824800015E+01  0.40824800015E+01  0.00000000000E+00 0. -1.
          2    1    1    2  501    0 -0.21332402285E+02  0.30585549843E+02  0.91326527231E+02  0.98646245861E+02  0.00000000000E+00 0. -1.
          2    1    1    2  502    0  0.21332402285E+02 -0.30585549843E+02  0.82215143416E+03  0.82299667554E+03  0.00000000000E+00 0. -1.
</event>
<event>
 4    1  0.8391192E+003  0.2110128E+02  0.7546771E-02  0.1517824E+00
          2   -1    0    0  502    0  0.00000000000E+00  0.00000000000E+00  0.90367211025E+03  0.90367211025E+03  0.00000000000E+00 0.  1.
          2   -1    0    0  501    0 -0.00000000000E+00 -0.00000000000E+00 -0.12269147442E+02  0.12269147442E+02  0.00000000000E+00 0. -1.
          2    1    1    2  501    0 -0.20850212880E+02  0.32453810579E+01  0.89438186241E+03  0.89463075046E+03  0.00000000000E+00 0.  1.
          2    1    1    2  502    0  0.20850212880E+02 -0.32453810579E+01 -0.29788996012E+01  0.21310507225E+02  0.00000000000E+00 0. -1.
</event>
<event>
 4    1  0.8391192E+003  0.2217721E+02  0.7546771E-02  0.1503097E+00
          2   -1    0    0  502    0  0.00000000000E+00  0.00000000000E+00  0.28477921015E+02  0.28477921015E+02  0.00000000000E+00 0. -1.
          2   -1    0    0  501    0 -0.00000000000E+00 -0.00000000000E+00 -0.11808641770E+04  0.11808641770E+04  0.00000000000E+00 0. -1.
          2    1    1    2  501    0 -0.20835786960E+02  0.75959655828E+01  0.24039877727E+02  0.32706947771E+02  0.00000000000E+00 0. -1.
          2    1    1    2  502    0  0.20835786960E+02 -0.75959655828E+01 -0.11764261337E+04  0.11766351503E+04  0.00000000000E+00 0. -1.
</event>
<event>
 4    1  0.8391192E+003  0.2020063E+02  0.7546771E-02  0.1530990E+00
          2   -1    0    0  501    0  0.00000000000E+00  0.00000000000E+00  0.19165790855E+03  0.19165790855E+03  0.00000000000E+00 0.  1.
          2   -1    0    0  502    0 -0.00000000000E+00 -0.00000000000E+00 -0.25811561691E+01  0.25811561691E+01  0.00000000000E+00 0.  1.
          2    1    1    2  501    0  0.33321499875E+01 -0.19923914646E+02  0.53896033304E+02  0.57557345354E+02  0.00000000000E+00 0.  1.
          2    1    1    2  502    0 -0.33321499875E+01  0.19923914646E+02  0.13518071908E+03  0.13668171937E+03  0.00000000000E+00 0.  1.
</event>
<event>
 4    1  0.8391192E+003  0.2234793E+02  0.7546771E-02  0.1500853E+00
          2   -1    0    0  502    0  0.00000000000E+00  0.00000000000E+00  0.35827771413E+03  0.35827771413E+03  0.00000000000E+00 0.  1.
          2   -1    0    0  501    0 -0.00000000000E+00 -0.00000000000E+00 -0.23664509491E+02  0.23664509491E+02  0.00000000000E+00 0.  1.
          2    1    1    2  501    0  0.21701937431E+02 -0.53344079328E+01  0.35256770643E+03  0.35327527173E+03  0.00000000000E+00 0.  1.
          2    1    1    2  502    0 -0.21701937431E+02  0.53344079328E+01 -0.17954501792E+02  0.28666951893E+02  0.00000000000E+00 0.  1.
</event>
<event>
 4    1  0.8391192E+003  0.8482050E+02  0.7546771E-02  0.1193078E+00
          2   -1    0    0  502    0  0.00000000000E+00  0.00000000000E+00  0.14501690901E+03  0.14501690901E+03  0.00000000000E+00 0. -1.
          2   -1    0    0  501    0 -0.00000000000E+00 -0.00000000000E+00 -0.55381724525E+02  0.55381724525E+02  0.00000000000E+00 0. -1.
          2    1    1    2  501    0 -0.84774236318E+02  0.28010415302E+01  0.77160207098E+02  0.11466566416E+03  0.00000000000E+00 0. -1.
          2    1    1    2  502    0  0.84774236318E+02 -0.28010415302E+01  0.12474977382E+02  0.85732969374E+02  0.00000000000E+00 0. -1.
</event>
<event>
 4    1  0.8391192E+003  0.2281741E+02  0.7546771E-02  0.1494804E+00
          2   -1    0    0  502    0  0.00000000000E+00  0.00000000000E+00  0.35969101261E+02  0.35969101261E+02  0.00000000000E+00 0. -1.
          2   -1    0    0  501    0 -0.00000000000E+00 -0.00000000000E+00 -0.16228838040E+04  0.16228838040E+04  0.00000000000E+00 0. -1.
          2    1    1    2  501    0  0.73773186737E+01  0.21591882937E+02  0.32261993402E+02  0.39515445814E+02  0.00000000000E+00 0. -1.
          2    1    1    2  502    0 -0.73773186737E+01 -0.21591882937E+02 -0.16191766961E+04  0.16193374594E+04  0.00000000000E+00 0. -1.
</event>
<event>
 4    1  0.8391192E+003  0.2771948E+02  0.7546771E-02  0.1440512E+00
          2   -1    0    0  502    0  0.00000000000E+00  0.00000000000E+00  0.69772220519E+03  0.69772220519E+03  0.00000000000E+00 0. -1.
          2   -1    0    0  501    0 -0.00000000000E+00 -0.00000000000E+00 -0.12392323046E+02  0.12392323046E+02  0.00000000000E+00 0.  1.
          2    1    1    2  501    0  0.94418895940E+01 -0.26061854707E+02  0.68157898524E+03  0.68214242110E+03  0.00000000000E+00 0. -1.
          2    1    1    2  502    0 -0.94418895940E+01  0.26061854707E+02  0.37508969073E+01  0.27972107134E+02  0.00000000000E+00 0.  1.
</event>
<event>
 4    1  0.8391192E+003  0.2327516E+02  0.7546771E-02  0.1489072E+00
          2   -1    0    0  502    0  0.00000000000E+00  0.00000000000E+00  0.63548428558E+02  0.63548428558E+02  0.00000000000E+00 0. -1.
          2   -1    0    0  501    0 -0.00000000000E+00 -0.00000000000E+00 -0.10107295071E+04  0.10107295071E+04  0.00000000000E+00 0. -1.
          2    1    1    2  501    0 -0.17522810543E+02 -0.15319402889E+02  0.61278454801E+02  0.65549843760E+02  0.00000000000E+00 0. -1.
          2    1    1    2  502    0  0.17522810543E+02  0.15319402889E+02 -0.10084595334E+04  0.10087280919E+04  0.00000000000E+00 0. -1.
</event>
<event>
 4    1  0.8391192E+003  0.5356511E+02  0.7546771E-02  0.1283414E+00
          2   -1    0    0  501    0  0.00000000000E+00  0.00000000000E+00  0.43615376048E+02  0.43615376048E+02  0.00000000000E+00 0. -1.
          2   -1    0    0  502    0 -0.00000000000E+00 -0.00000000000E+00 -0.37003193147E+03  0.37003193147E+03  0.00000000000E+00 0.  1.
          2    1    1    2  501    0 -0.46570995945E+02  0.26464374021E+02 -0.35074830827E+03  0.35481487639E+03  0.00000000000E+00 0.  1.
          2    1    1    2  502    0  0.46570995945E+02 -0.26464374021E+02  0.24331752847E+02  0.58832431126E+02  0.00000000000E+00 0. -1.
</event>
<event>
 4    1  0.8391192E+003  0.2901547E+02  0.7546771E-02  0.1428349E+00
          2   -1    0    0  502    0  0.00000000000E+00  0.00000000000E+00  0.12329037932E+04  0.12329037932E+04  0.00000000000E+00 0. -1.
          2   -1    0    0  501    0 -0.00000000000E+00 -0.00000000000E+00 -0.99565433194E+00  0.99565433194E+00  0.00000000000E+00 0. -1.
          2    1    1    2  501    0  0.27066365374E+02 -0.10455102434E+02  0.96175552931E+03  0.96219311755E+03  0.00000000000E+00 0. -1.
          2    1    1    2  502    0 -0.27066365374E+02  0.10455102434E+02  0.27015260957E+03  0.27170632999E+03  0.00000000000E+00 0. -1.
</event>
<event>
 4    1  0.8391192E+003  0.2167583E+02  0.7546771E-02  0.1509831E+00
          2   -1    0    0  502    0  0.00000000000E+00  0.00000000000E+00  0.36767948293E+01  0.36767948293E+01  0.00000000000E+00 0. -1.
          2   -1    0    0  501    0 -0.00000000000E+00 -0.00000000000E+00 -0.15011136876E+04  0.15011136876E+04  0.00000000000E+00 0.  1.
          2    1    1    2  501    0 -0.18750523619E+02  0.10874717739E+02 -0.29060060113E+02  0.36253671754E+02  0.00000000000E+00 0. -1.
          2    1    1    2  502    0  0.18750523619E+02 -0.10874717739E+02 -0.14683768327E+04  0.14685368107E+04  0.00000000000E+00 0.  1.
</event>
<event>
 4    1  0.8391192E+003  0.2447154E+02  0.7546771E-02  0.1474803E+00
          2   -1    0    0  502    0  0.00000000000E+00  0.00000000000E+00  0.11437526575E+01  0.11437526575E+01  0.00000000000E+00 0. -1.
          2   -1    0    0  501    0 -0.00000000000E+00 -0.00000000000E+00 -0.11899569659E+04  0.11899569659E+04  0.00000000000E+00 0. -1.
          2    1    1    2  501    0 -0.24304209535E+02 -0.28568504033E+01 -0.14874014630E+03  0.15073980005E+03  0.00000000000E+00 0. -1.
          2    1    1    2  502    0  0.24304209535E+02  0.28568504033E+01 -0.10400730669E+04  0.10403609185E+04  0.00000000000E+00 0. -1.
</event>
<event>
 4    1  0.8391192E+003  0.2003275E+02  0.7546771E-02  0.1533536E+00
          2   -1    0    0  502    0  0.00000000000E+00  0.00000000000E+00  0.49698477982E+02  0.49698477982E+02  0.00000000000E+00 0.  1.
          2   -1    0    0  501    0 -0.00000000000E+00 -0.00000000000E+00 -0.25666409098E+02  0.25666409098E+02  0.00000000000E+00 0. -1.
          2    1    1    2  501    0  0.19064863883E+02  0.61515834205E+01  0.43212677040E+02  0.47630310417E+02  0.00000000000E+00 0.  1.
          2    1    1    2  502    0 -0.19064863883E+02 -0.61515834205E+01 -0.19180608156E+02  0.27734576663E+02  0.00000000000E+00 0. -1.
</event>
<event>
 4    1  0.8391192E+003  0.2232267E+02  0.7546771E-02  0.1501183E+00
          2   -1    0    0  502    0  0.00000000000E+00  0.00000000000E+00  0.73950854800E+01  0.73950854800E+01  0.00000000000E+00 0. -1.
          2   -1    0    0  501    0 -0.00000000000E+00 -0.00000000000E+00 -0.94989448343E+02  0.94989448343E+02  0.00000000000E+00 0. -1.
          2    1    1    2  501    0 -0.21850430131E+02  0.45673176250E+01 -0.16199449531E+02  0.27581222821E+02  0.00000000000E+00 0. -1.
          2    1    1    2  502    0  0.21850430131E+02 -0.45673176250E+01 -0.71394913332E+02  0.74803311003E+02  0.00000000000E+00 0. -1.
</event>
<event>
 4    1  0.8391192E+003  0.4538324E+02  0.7546771E-02  0.1319534E+00
          2   -1    0    0  501    0  0.00000000000E+00  0.00000000000E+00  0.52958271735E+03  0.52958271735E+03  0.00000000000E+00 0. -1.
          2   -1    0    0  502    0 -0.00000000000E+00 -0.00000000000E+00 -0.41350371094E+01  0.41350371094E+01  0.00000000000E+00 0. -1.
          2    1    1    2  501    0  0.40701633725E+01  0.45200361120E+02  0.19765255249E+03  0.20279588354E+03  0.00000000000E+00 0. -1.
          2    1    1    2  502    0 -0.40701633725E+01 -0.45200361120E+02  0.32779512774E+03  0.33092187091E+03  0.00000000000E+00 0. -1.
</event>
<event>
 4    1  0.8391192E+003  0.2896806E+02  0.7546771E-02  0.1428781E+00
          2   -1    0    0  501    0  0.00000000000E+00  0.00000000000E+00  0.21475610718E+03  0.21475610718E+03  0.00000000000E+00 0.  1.
          2   -1    0    0  502    0 -0.00000000000E+00 -0.00000000000E+00 -0.95073198813E+02  0.95073198813E+02  0.00000000000E+00 0. -1.
          2    1    1    2  501    0 -0.19266548203E+02 -0.21632122581E+02 -0.91856351498E+02  0.96315823817E+02  0.00000000000E+00 0. -1.
          2    1    1    2  502    0  0.19266548203E+02  0.21632122581E+02  0.21153925987E+03  0.21351348218E+03  0.00000000000E+00 0.  1.
</event>
<event>
 4    1  0.8391192E+003  0.7256022E+02  0.7546771E-02  0.1222259E+00
          2   -1    0    0  502    0  0.00000000000E+00  0.00000000000E+00  0.32133545852E+04  0.32133545852E+04  0.00000000000E+00 0.  1.
          2   -1    0    0  501    0 -0.00000000000E+00 -0.00000000000E+00 -0.85142705142E+02  0.85142705142E+02  0.00000000000E+00 0.  1.
          2    1    1    2  501    0  0.72548559938E+02  0.13008068104E+01  0.31974085820E+04  0.31982317968E+04  0.00000000000E+00 0.  1.
          2    1    1    2  502    0 -0.72548559938E+02 -0.13008068104E+01 -0.69196701922E+02  0.10026549359E+03  0.00000000000E+00 0.  1.
</event>
<event>
 4    1  0.8391192E+003  0.3871761E+02  0.7546771E-02  0.1356169E+00
          2   -1    0    0  502    0  0.00000000000E+00  0.00000000000E+00  0.12067651292E+04  0.12067651292E+04  0.00000000000E+00 0.  1.
          2   -1    0    0  501    0 -0.00000000000E+00 -0.00000000000E+00 -0.59743728503E+01  0.59743728503E+01  0.00000000000E+00 0.  1.
          2    1    1    2  501    0 -0.92051393479E+01  0.37607426434E+02  0.11400567171E+04  0.11407139744E+04  0.00000000000E+00 0.  1.
          2    1    1    2  502    0  0.92051393479E+01 -0.37607426434E+02  0.60734039207E+02  0.72025527639E+02  0.00000000000E+00 0.  1.
</event>
<event>
 4    1  0.8391192E+003  0.2249297E+02  0.7546771E-02  0.1498965E+00
          2   -1    0    0  502    0  0.00000000000E+00  0.00000000000E+00  0.25400129065E+01  0.25400129065E+01  0.00000000000E+00 0.  1.
          2   -1    0    0  501    0 -0.00000000000E+00 -0.00000000000E+00 -0.16869486246E+04  0.16869486246E+04  0.00000000000E+00 0. -1.
          2    1    1    2  501    0 -0.13947966086E+02  0.17646183635E+02 -0.48897359322E+02  0.53822721071E+02  0.00000000000E+00 0.  1.
          2    1    1    2  502    0  0.13947966086E+02 -0.17646183635E+02 -0.16355112524E+04  0.16356659165E+04  0.00000000000E+00 0. -1.
</event>
<event>
 4    1  0.8391192E+003  0.4784499E+02  0.7546771E-02  0.1307796E+00
          2   -1    0    0  501    0  0.00000000000E+00  0.00000000000E+00  0.14353197671E+04  0.14353197671E+04  0.00000000000E+00 0.  1.
          2   -1    0    0  502    0 -0.00000000000E+00 -0.00000000000E+00 -0.84264807694E+03  0.84264807694E+03  0.00000000000E+00 0.  1.
          2    1    1    2  501    0  0.25695215133E+02  0.40359617271E+02 -0.84156969844E+03  0.84292864474E+03  0.00000000000E+00 0.  1.
          2    1    1    2  502    0 -0.25695215133E+02 -0.40359617271E+02  0.14342413886E+04  0.14350391993E+04  0.00000000000E+00 0.  1.
</event>
<event>
 4    1  0.8391192E+003  0.2002682E+02  0.7546771E-02  0.1533626E+00
          2   -1    0    0  502    0  0.00000000000E+00  0.00000000000E+00  0.46569922936E+03  0.46569922936E+03  0.00000000000E+00 0. -1.
          2   -1    0    0  501    0 -0.00000000000E+00 -0.00000000000E+00 -0.59302726110E+01  0.59302726110E+01  0.00000000000E+00 0.  1.
          2    1    1    2  501    0  0.88909637115E+01 -0.17945035660E+02  0.44790464435E+03  0.44835214282E+03  0.00000000000E+00 0. -1.
          2    1    1    2  502    0 -0.88909637115E+01  0.17945035660E+02  0.11864312407E+02  0.23277359159E+02  0.00000000000E+00 0.  1.
</event>
<event>
 4    1  0.8391192E+003  0.2070770E+02  0.7546771E-02  0.1523479E+00
          2   -1    0    0  502    0  0.00000000000E+00  0.00000000000E+00  0.36463540564E+01  0.36463540564E+01  0.00000000000E+00 0. -1.
          2   -1    0    0  501    0 -0.00000000000E+00 -0.00000000000E+00 -0.82537272464E+03  0.82537272464E+03  0.00000000000E+00 0. -1.
          2    1    1    2  501    0 -0.17857309061E+02 -0.10484531049E+02 -0.27017571081E+02  0.34040535033E+02  0.00000000000E+00 0. -1.
          2    1    1    2  502    0  0.17857309061E+02  0.10484531049E+02 -0.79470879951E+03  0.79497854367E+03  0.00000000000E+00 0. -1.
</event>
<event>
 4    1  0.8391192E+003  0.2196456E+02  0.7546771E-02  0.1505926E+00
          2   -1    0    0  501    0  0.00000000000E+00  0.00000000000E+00  0.18239800656E+02  0.18239800656E+02  0.00000000000E+00 0.  1.
          2   -1    0    0  502    0 -0.00000000000E+00 -0.00000000000E+00 -0.11612436356E+03  0.11612436356E+03  0.00000000000E+00 0.  1.
          2    1    1    2  501    0  0.11082170367E+02 -0.18963850035E+02 -0.10797951789E+03  0.11019082716E+03  0.00000000000E+00 0.  1.
          2    1    1    2  502    0 -0.11082170367E+02  0.18963850035E+02  0.10094954981E+02  0.24173337053E+02  0.00000000000E+00 0.  1.
</event>
<event>
 4    1  0.8391192E+003  0.4066620E+02  0.7546771E-02  0.1344625E+00
          2   -1    0    0  502    0  0.00000000000E+00  0.00000000000E+00  0.65702330583E+01  0.65702330583E+01  0.00000000000E+00 0.  1.
          2   -1    0    0  501    0 -0.00000000000E+00 -0.00000000000E+00 -0.10055270200E+04  0.10055270200E+04  0.00000000000E+00 0.  1.
          2    1    1    2  501    0  0.39923198455E+02 -0.77381045878E+01 -0.61320454270E+02  0.73579468260E+02  0.00000000000E+00 0.  1.
          2    1    1    2  502    0 -0.39923198455E+02  0.77381045878E+01 -0.93763633270E+03  0.93851778483E+03  0.00000000000E+00 0.  1.
</event>
<event>
 4    1  0.8391192E+003  0.2868797E+02  0.7546771E-02  0.1431351E+00
          2   -1    0    0  501    0  0.00000000000E+00  0.00000000000E+00  0.13752134384E+03  0.13752134384E+03  0.00000000000E+00 0. -1.
          2   -1    0    0  502    0 -0.00000000000E+00 -0.00000000000E+00 -0.19960153953E+02  0.19960153953E+02  0.00000000000E+00 0.  1.
          2    1    1    2  501    0  0.17580192875E+02  0.22670167813E+02 -0.71069468278E+01  0.29555175240E+02  0.00000000000E+00 0.  1.
          2    1    1    2  502    0 -0.17580192875E+02 -0.22670167813E+02  0.12466813672E+03  0.12792632256E+03  0.00000000000E+00 0. -1.
</event>
<event>
 4    1  0.8391192E+003  0.2031208E+02  0.7546771E-02  0.1529317E+00
          2   -1    0    0  501    0  0.00000000000E+00  0.00000000000E+00  0.17800865595E+03  0.17800865595E+03  0.00000000000E+00 0.  1.
          2   -1    0    0  502    0 -0.00000000000E+00 -0.00000000000E+00 -0.21800004949E+02  0.21800004949E+02  0.00000000000E+00 0.  1.
          2    1    1    2  501    0 -0.20018610282E+02  0.34403454237E+01 -0.16339931695E+02  0.26068642121E+02  0.00000000000E+00 0.  1.
          2    1    1    2  502    0  0.20018610282E+02 -0.34403454237E+01  0.17254858270E+03  0.17374001878E+03  0.00000000000E+00 0.  1.
</event>
<event>
 4    1  0.8391192E+003  0.2363968E+02  0.7546771E-02  0.1484618E+00
          2   -1    0    0  502    0  0.00000000000E+00  0.00000000000E+00  0.17513871144E+03  0.17513871144E+03  0.00000000000E+00 0. -1.
          2   -1    0    0  501    0 -0.00000000000E+00 -0.00000000000E+00 -0.16787820674E+04  0.16787820674E+04  0.00000000000E+00 0. -1.
          2    1    1    2  501    0  0.20811830353E+02  0.11211695002E+02  0.17425736969E+03  0.17585353360E+03  0.00000000000E+00 0. -1.
          2    1    1    2  502    0 -0.20811830353E+02 -0.11211695002E+02 -0.16779007257E+04  0.16780672452E+04  0.00000000000E+00 0. -1.
</event>
<event>
 4    1  0.8391192E+003  0.2342753E+02  0.7546771E-02  0.1487198E+00
          2   -1    0    0  501    0  0.00000000000E+00  0.00000000000E+00  0.33150773861E+03  0.33150773861E+03  0.00000000000E+00 0.  1.
          2   -1    0    0  502    0 -0.00000000000E+00 -0.00000000000E+00 -0.56935985384E+01  0.56935985384E+01  0.00000000000E+00 0. -1.
          2    1    1    2  501    0  0.14073589479E+02  0.18729206406E+02  0.20920208837E+02  0.31408664906E+02  0.00000000000E+00 0. -1.
          2    1    1    2  502    0 -0.14073589479E+02 -0.18729206406E+02  0.30489393124E+03  0.30579267225E+03  0.00000000000E+00 0.  1.
</event>
<event>
 4    1  0.8391192E+003  0.2027097E+02  0.7546771E-02  0.1529933E+00
          2   -1    0    0  502    0  0.00000000000E+00  0.00000000000E+00  0.17766373094E+03  0.17766373094E+03  0.00000000000E+00 0. -1.
          2   -1    0    0  501    0 -0.00000000000E+00 -0.00000000000E+00 -0.98256532900E+03  0.98256532900E+03  0.00000000000E+00 0. -1.
          2    1    1    2  501    0  0.41096046674E+01  0.19850023674E+02  0.17698056145E+03  0.17813767547E+03  0.00000000000E+00 0. -1.
          2    1    1    2  502    0 -0.41096046674E+01 -0.19850023674E+02 -0.98188215951E+03  0.98209138447E+03  0.00000000000E+00 0. -1.
</event>
<event>
 4    1  0.8391192E+003  0.2726953E+02  0.7546771E-02  0.1444919E+00
          2   -1    0    0  501    0  0.00000000000E+00  0.00000000000E+00  0.16115477889E+01  0.16115477889E+01  0.00000000000E+00 0. -1.
          2   -1    0    0  502    0 -0.00000000000E+00 -0.00000000000E+00 -0.73781158747E+03  0.73781158747E+03  0.00000000000E+00 0. -1.
          2    1    1    2  501    0  0.27203929239E+02  0.18903708706E+01 -0.59437659935E+03  0.59500182279E+03  0.00000000000E+00 0. -1.
          2    1    1    2  502    0 -0.27203929239E+02 -0.18903708706E+01 -0.14182344034E+03  0.14442131248E+03  0.00000000000E+00 0. -1.
</event>
<event>
 4    1  0.8391192E+003  0.2236205E+02  0.7546771E-02  0.1500668E+00
          2   -1    0    0  502    0  0.00000000000E+00  0.00000000000E+00  0.15091423233E+04  0.15091423233E+04  0.00000000000E+00 0.  1.
          2   -1    0    0  501    0 -0.00000000000E+00 -0.00000000000E+00 -0.38649371766E+01  0.38649371766E+01  0.00000000000E+00 0. -1.
          2    1    1    2  501    0 -0.22340154616E+02  0.98926449461E+00  0.14759869235E+04  0.14761563127E+04  0.00000000000E+00 0.  1.
          2    1    1    2  502    0  0.22340154616E+02 -0.98926449461E+00  0.29290462654E+02  0.36850947816E+02  0.00000000000E+00 0. -1.
</event>
<event>
 4    1  0.8391192E+003  0.2835664E+02  0.7546771E-02  0.1434437E+00
          2   -1    0    0  502    0  0.00000000000E+00  0.00000000000E+00  0.37868796582E+01  0.37868796582E+01  0.00000000000E+00 0. -1.
          2   -1    0    0  501    0 -0.00000000000E+00 -0.00000000000E+00 -0.31844784362E+03  0.31844784362E+03  0.00000000000E+00 0. -1.
          2    1    1    2  501    0 -0.15762016894E+02 -0.23572391732E+02 -0.64326654999E+02  0.70299483440E+02  0.00000000000E+00 0. -1.
          2    1    1    2  502    0  0.15762016894E+02  0.23572391732E+02 -0.25033430896E+03  0.25193523984E+03  0.00000000000E+00 0. -1.
</event>
<event>
 4    1  0.8391192E+003  0.2567985E+02  0.7546771E-02  0.1461340E+00
          2   -1    0    0  501    0  0.00000000000E+00  0.00000000000E+00  0.32128777320E+03  0.32128777320E+03  0.00000000000E+00 0.  1.
          2   -1    0    0  502    0 -0.00000000000E+00 -0.00000000000E+00 -0.28532493530E+01  0.28532493530E+01  0.00000000000E+00 0.  1.
          2    1    1    2  501    0  0.87602804338E+01 -0.24139427077E+02  0.73360817282E+02  0.77725568284E+02  0.00000000000E+00 0.  1.
          2    1    1    2  502    0 -0.87602804338E+01  0.24139427077E+02  0.24507370657E+03  0.24641545427E+03  0.00000000000E+00 0.  1.
</event>
<event>
 4    1  0.8391192E+003  0.3953985E+02  0.7546771E-02  0.1351204E+00
          2   -1    0    0  502    0  0.00000000000E+00  0.00000000000E+00  0.11094590922E+03  0.11094590922E+03  0.00000000000E+00 0. -1.
          2   -1    0    0  501    0 -0.00000000000E+00 -0.00000000000E+00 -0.11294011462E+03  0.11294011462E+03  0.00000000000E+00 0. -1.
          2    1    1    2  501    0  0.23427582472E+02  0.31851966617E+02  0.10372975380E+03  0.11101018521E+03  0.00000000000E+00 0. -1.
          2    1    1    2  502    0 -0.23427582472E+02 -0.31851966617E+02 -0.10572395919E+03  0.11287583863E+03  0.00000000000E+00 0. -1.
</event>
<event>
 4    1  0.8391192E+003  0.2440767E+02  0.7546771E-02  0.1475540E+00
          2   -1    0    0  501    0  0.00000000000E+00  0.00000000000E+00  0.82915498117E+03  0.82915498117E+03  0.00000000000E+00 0.  1.
          2   -1    0    0  502    0 -0.00000000000E+00 -0.00000000000E+00 -0.25835801625E+01  0.25835801625E+01  0.00000000000E+00 0. -1.
          2    1    1    2  501    0 -0.20696719451E+02  0.12937544338E+02  0.59942667755E+02  0.64721384929E+02  0.00000000000E+00 0. -1.
          2    1    1    2  502    0  0.20696719451E+02 -0.12937544338E+02  0.76662873326E+03  0.76701717641E+03  0.00000000000E+00 0.  1.
</event>
<event>
 4    1  0.8391192E+003  0.4882481E+02  0.7546771E-02  0.1303350E+00
          2   -1    0    0  502    0  0.00000000000E+00  0.00000000000E+00  0.15808460625E+04  0.15808460625E+04  0.00000000000E+00 0. -1.
          2   -1    0    0  501    0 -0.00000000000E+00 -0.00000000000E+00 -0.15705450150E+01  0.15705450150E+01  0.00000000000E+00 0. -1.
          2    1    1    2  501    0  0.25899023515E+02  0.41389645525E+02  0.94757329791E+03  0.94883034157E+03  0.00000000000E+00 0. -1.
          2    1    1    2  502    0 -0.25899023515E+02 -0.41389645525E+02  0.63170221962E+03  0.63358626598E+03  0.00000000000E+00 0. -1.
</event>
<event>
 4    1  0.8391192E+003  0.2072429E+02  0.7546771E-02  0.1523238E+00
          2   -1    0    0  501    0  0.00000000000E+00  0.00000000000E+00  0.70530116894E+03  0.70530116894E+03  0.00000000000E+00 0. -1.
          2   -1    0    0  502    0 -0.00000000000E+00 -0.00000000000E+00 -0.18744072843E+01  0.18744072843E+01  0.00000000000E+00 0.  1.
          2    1    1    2  501    0  0.25646626827E+01  0.20564983408E+02  0.61185164714E+02  0.64599693640E+02  0.00000000000E+00 0.  1.
          2    1    1    2  502    0 -0.25646626827E+01 -0.20564983408E+02  0.64224159694E+03  0.64257588258E+03  0.00000000000E+00 0. -1.
</event>
<event>
 4    1  0.8391192E+003  0.3676430E+02  0.7546771E-02  0.1368567E+00
          2   -1    0    0  502    0  0.00000000000E+00  0.00000000000E+00  0.13125526517E+03  0.13125526517E+03  0.00000000000E+00 0. -1.
          2   -1    0    0  501    0 -0.00000000000E+00 -0.00000000000E+00 -0.55850233273E+02  0.55850233273E+02  0.00000000000E+00 0.  1.
          2    1    1    2  501    0 -0.36654512944E+02 -0.28391217166E+01  0.12219164106E+03  0.12760255121E+03  0.00000000000E+00 0. -1.
          2    1    1    2  502    0  0.36654512944E+02  0.28391217166E+01 -0.46786609167E+02  0.59502947226E+02  0.00000000000E+00 0.  1.
</event>
<event>
 4    1  0.8391192E+003  0.3376989E+02  0.7546771E-02  0.1389424E+00
          2   -1    0    0  501    0  0.00000000000E+00  0.00000000000E+00  0.24608171805E+04  0.24608171805E+04  0.00000000000E+00 0. -1.
          2   -1    0    0  502    0 -0.00000000000E+00 -0.00000000000E+00 -0.36536913864E+02  0.36536913864E+02  0.00000000000E+00 0. -1.
          2    1    1    2  501    0  0.19275328421E+02 -0.27728449142E+02 -0.28592683665E+02  0.44248691921E+02  0.00000000000E+00 0. -1.
          2    1    1    2  502    0 -0.19275328421E+02  0.27728449142E+02  0.24528729503E+04  0.24531054025E+04  0.00000000000E+00 0. -1.
</event>
<event>
 4    1  0.8391192E+003  0.4271814E+02  0.7546771E-02  0.1333254E+00
          2   -1    0    0  501    0  0.00000000000E+00  0.00000000000E+00  0.49725773435E+02  0.49725773435E+02  0.00000000000E+00 0.  1.
          2   -1    0    0  502    0 -0.00000000000E+00 -0.00000000000E+00 -0.39516075707E+02  0.39516075707E+02  0.00000000000E+00 0.  1.
          2    1    1    2  501    0 -0.31260520220E+02  0.29113896151E+02 -0.68109701323E+01  0.43257697438E+02  0.00000000000E+00 0.  1.
          2    1    1    2  502    0  0.31260520220E+02 -0.29113896151E+02  0.17020667860E+02  0.45984151704E+02  0.00000000000E+00 0.  1.
</event>
<event>
 4    1  0.8391192E+003  0.2190538E+02  0.7546771E-02  0.1506721E+00
          2   -1    0    0  501    0  0.00000000000E+00  0.00000000000E+00  0.38647111429E+02  0.38647111429E+02  0.00000000000E+00 0.  1.
          2   -1    0    0  502    0 -0.00000000000E+00 -0.00000000000E+00 -0.73964712657E+03  0.73964712657E+03  0.00000000000E+00 0. -1.
          2    1    1    2  501    0 -0.95174851211E+01  0.19729750742E+02 -0.73636709619E+03  0.73669284368E+03  0.00000000000E+00 0. -1.
          2    1    1    2  502    0  0.95174851211E+01 -0.19729750742E+02  0.35367081045E+02  0.41601394316E+02  0.00000000000E+00 0.  1.
</event>
<event>
 4    1  0.8391192E+003  0.2219926E+02  0.7546771E-02  0.1502805E+00
          2   -1    0    0  501    0  0.00000000000E+00  0.00000000000E+00  0.16823211408E+01  0.16823211408E+01  0.00000000000E+00 0. -1.
          2   -1    0    0  502    0 -0.00000000000E+00 -0.00000000000E+00 -0.35677085493E+03  0.35677085493E+03  0.00000000000E+00 0. -1.
          2    1    1    2  501    0  0.21417685485E+02 -0.58386711842E+01 -0.25335784399E+03  0.25432853643E+03  0.00000000000E+00 0. -1.
          2    1    1    2  502    0 -0.21417685485E+02  0.58386711842E+01 -0.10173068980E+03  0.10412463964E+03  0.00000000000E+00 0. -1.
</event>
<event>
 4    1  0.8391192E+003  0.5135837E+02  0.7546771E-02  0.1292388E+00
          2   -1    0    0  501    0  0.00000000000E+00  0.00000000000E+00  0.11253191811E+04  0.11253191811E+04  0.00000000000E+00 0.  1.
          2   -1    0    0  502    0 -0.00000000000E+00 -0.00000000000E+00 -0.49370856919E+01  0.49370856919E+01  0.00000000000E+00 0.  1.
          2    1    1    2  501    0  0.27456892129E+02 -0.43402784803E+02  0.15062409728E+03  0.15913925140E+03  0.00000000000E+00 0.  1.
          2    1    1    2  502    0 -0.27456892129E+02  0.43402784803E+02  0.96975799812E+03  0.97111701539E+03  0.00000000000E+00 0.  1.
</event>
<event>
 4    1  0.8391192E+003  0.2597789E+02  0.7546771E-02  0.1458155E+00
          2   -1    0    0  502    0  0.00000000000E+00  0.00000000000E+00  0.86192961641E+01  0.86192961641E+01  0.00000000000E+00 0. -1.
          2   -1    0    0  501    0 -0.00000000000E+00 -0.00000000000E+00 -0.47113857616E+03  0.47113857616E+03  0.00000000000E+00 0. -1.
          2    1    1    2  501    0  0.25732188973E+02  0.35644490171E+01 -0.12217631166E+02  0.28707513954E+02  0.00000000000E+00 0. -1.
          2    1    1    2  502    0 -0.25732188973E+02 -0.35644490171E+01 -0.45030164883E+03  0.45105035837E+03  0.00000000000E+00 0. -1.
</event>
<event>
 4    1  0.8391192E+003  0.2168336E+02  0.7546771E-02  0.1509728E+00
          2   -1    0    0  501    0  0.00000000000E+00  0.00000000000E+00  0.11734767277E+03  0.11734767277E+03  0.00000000000E+00 0. -1.
          2   -1    0    0  502    0 -0.00000000000E+00 -0.00000000000E+00 -0.45762062866E+01  0.45762062866E+01  0.00000000000E+00 0. -1.
          2    1    1    2  501    0 -0.56882926223E+01  0.20923942193E+02  0.34878520736E+02  0.41069200608E+02  0.00000000000E+00 0. -1.
          2    1    1    2  502    0  0.56882926223E+01 -0.20923942193E+02  0.77892945750E+02  0.80854678451E+02  0.00000000000E+00 0. -1.
</event>
<event>
 4    1  0.8391192E+003  0.2309509E+02  0.7546771E-02  0.1491308E+00
          2   -1    0    0  502    0  0.00000000000E+00  0.00000000000E+00  0.24034976061E+03  0.24034976061E+03  0.00000000000E+00 0. -1.
          2   -1    0    0  501    0 -0.00000000000E+00 -0.00000000000E+00 -0.79084275546E+03  0.79084275546E+03  0.00000000000E+00 0.  1.
          2    1    1    2  501    0  0.14957352756E+02 -0.17597179105E+02  0.23962584127E+03  0.24073621854E+03  0.00000000000E+00 0. -1.
          2    1    1    2  502    0 -0.14957352756E+02  0.17597179105E+02 -0.79011883612E+03  0.79045629753E+03  0.00000000000E+00 0.  1.
</event>
<event>
 4    1  0.8391192E+003  0.4323360E+02  0.7546771E-02  0.1330512E+00
          2   -1    0    0  501    0  0.00000000000E+00  0.00000000000E+00  0.83198760446E+02  0.83198760446E+02  0.00000000000E+00 0.  1.
          2   -1    0    0  502    0 -0.00000000000E+00 -0.00000000000E+00 -0.15657754884E+03  0.15657754884E+03  0.00000000000E+00 0.  1.
          2    1    1    2  501    0  0.28608745411E+02 -0.32414247575E+02 -0.14764381523E+03  0.15384355669E+03  0.00000000000E+00 0.  1.
          2    1    1    2  502    0 -0.28608745411E+02  0.32414247575E+02  0.74265026829E+02  0.85932752602E+02  0.00000000000E+00 0.  1.
</event>
<event>
 4    1  0.8391192E+003  0.3051376E+02  0.7546771E-02  0.1415183E+00
          2   -1    0    0  502    0  0.00000000000E+00  0.00000000000E+00  0.13697533156E+04  0.13697533156E+04  0.00000000000E+00 0.  1.
          2   -1    0    0  501    0 -0.00000000000E+00 -0.00000000000E+00 -0.46107905113E+02  0.46107905113E+02  0.00000000000E+00 0.  1.
          2    1    1    2  501    0 -0.73725306250E+01 -0.29609715299E+02  0.13645155757E+04  0.13648567125E+04  0.00000000000E+00 0.  1.
          2    1    1    2  502    0  0.73725306250E+01  0.29609715299E+02 -0.40870165219E+02  0.51004508163E+02  0.00000000000E+00 0.  1.
</event>
<event>
 4    1  0.8391192E+003  0.2089510E+02  0.7546771E-02  0.1520768E+00
          2   -1    0    0  501    0  0.00000000000E+00  0.00000000000E+00  0.53353666491E+02  0.53353666491E+02  0.00000000000E+00 0.  1.
          2   -1    0    0  502    0 -0.00000000000E+00 -0.00000000000E+00 -0.47251254626E+03  0.47251254626E+03  0.00000000000E+00 0.  1.
          2    1    1    2  501    0 -0.17108253502E+02  0.11996375853E+02 -0.47022579248E+03  0.47068981430E+03  0.00000000000E+00 0.  1.
          2    1    1    2  502    0  0.17108253502E+02 -0.11996375853E+02  0.51066912715E+02  0.55176398448E+02  0.00000000000E+00 0.  1.
</event>
<event>
 4    1  0.8391192E+003  0.2506685E+02  0.7546771E-02  0.1468057E+00
          2   -1    0    0  502    0  0.00000000000E+00  0.00000000000E+00  0.13501102472E+04  0.13501102472E+04  0.00000000000E+00 0. -1.
          2   -1    0    0  501    0 -0.00000000000E+00 -0.00000000000E+00 -0.14370006491E+01  0.14370006491E+01  0.00000000000E+00 0.  1.
          2    1    1    2  501    0 -0.16022436125E+02  0.19277674753E+02  0.12300049942E+04  0.12302603924E+04  0.00000000000E+00 0. -1.
          2    1    1    2  502    0  0.16022436125E+02 -0.19277674753E+02  0.11866825234E+03  0.12128685550E+03  0.00000000000E+00 0.  1.
</event>
<event>
 4    1  0.8391192E+003  0.2215990E+02  0.7546771E-02  0.1503326E+00
          2   -1    0    0  501    0  0.00000000000E+00  0.00000000000E+00  0.11881165816E+01  0.11881165816E+01  0.00000000000E+00 0.  1.
          2   -1    0    0  502    0 -0.00000000000E+00 -0.00000000000E+00 -0.66386368449E+03  0.66386368449E+03  0.00000000000E+00 0.  1.
          2    1    1    2  501    0 -0.15941453085E+01 -0.22102489064E+02 -0.53562246149E+03  0.53608066798E+03  0.00000000000E+00 0.  1.
          2    1    1    2  502    0  0.15941453085E+01  0.22102489064E+02 -0.12705310642E+03  0.12897113310E+03  0.00000000000E+00 0.  1.
</event>
<event>
 4    1  0.8391192E+003  0.3428644E+02  0.7546771E-02  0.1385650E+00
          2   -1    0    0  502    0  0.00000000000E+00  0.00000000000E+00  0.12769124522E+04  0.12769124522E+04  0.00000000000E+00 0. -1.
          2   -1    0    0  501    0 -0.00000000000E+00 -0.00000000000E+00 -0.31372680968E+01  0.31372680968E+01  0.00000000000E+00 0.  1.
          2    1    1    2  501    0  0.62126978300E+00  0.34280811811E+02  0.11748708006E+04  0.11753709875E+04  0.00000000000E+00 0. -1.
          2    1    1    2  502    0 -0.62126978300E+00 -0.34280811811E+02  0.98904383513E+02  0.10467873286E+03  0.00000000000E+00 0.  1.
</event>
<event>
 4    1  0.8391192E+003  0.2547231E+02  0.7546771E-02  0.1463588E+00
          2   -1    0    0  502    0  0.00000000000E+00  0.00000000000E+00  0.34490548170E+02  0.34490548170E+02  0.00000000000E+00 0. -1.
          2   -1    0    0  501    0 -0.00000000000E+00 -0.00000000000E+00 -0.19769576415E+02  0.19769576415E+02  0.00000000000E+00 0. -1.
          2    1    1    2  501    0  0.25464760919E+02  0.62006937196E+00  0.13331160812E+02  0.28749928405E+02  0.00000000000E+00 0. -1.
          2    1    1    2  502    0 -0.25464760919E+02 -0.62006937196E+00  0.13898109427E+01  0.25510196180E+02  0.00000000000E+00 0. -1.
</event>
<event>
 4    1  0.8391192E+003  0.2112879E+02  0.7546771E-02  0.1517434E+00
          2   -1    0    0  501    0  0.00000000000E+00  0.00000000000E+00  0.25818898996E+03  0.25818898996E+03  0.00000000000E+00 0. -1.
          2   -1    0    0  502    0 -0.00000000000E+00 -0.00000000000E+00 -0.21538632062E+01  0.21538632062E+01  0.00000000000E+00 0. -1.
          2    1    1    2  501    0  0.20181467900E+02 -0.62557108769E+01  0.70208237537E+02  0.73318634625E+02  0.00000000000E+00 0. -1.
          2    1    1    2  502    0 -0.20181467900E+02  0.62557108769E+01  0.18582688921E+03  0.18702421854E+03  0.00000000000E+00 0. -1.
</event>
<event>
 4    1  0.8391192E+003  0.2317425E+02  0.7546771E-02  0.1490322E+00
          2   -1    0    0  501    0  0.00000000000E+00  0.00000000000E+00  0.29303947216E+01  0.29303947216E+01  0.00000000000E+00 0. -1.
          2   -1    0    0  502    0 -0.00000000000E+00 -0.00000000000E+00 -0.33925843021E+03  0.33925843021E+03  0.00000000000E+00 0.  1.
          2    1    1    2  501    0 -0.57805928831E+01 -0.22441711873E+02 -0.28418068358E+03  0.28512401969E+03  0.00000000000E+00 0.  1.
          2    1    1    2  502    0  0.57805928831E+01  0.22441711873E+02 -0.52147351909E+02  0.57064805239E+02  0.00000000000E+00 0. -1.
</event>
<event>
 4    1  0.8391192E+003  0.2149887E+02  0.7546771E-02  0.1512260E+00
          2   -1    0    0  501    0  0.00000000000E+00  0.00000000000E+00  0.13342255579E+04  0.13342255579E+04  0.00000000000E+00 0. -1.
          2   -1    0    0  502    0 -0.00000000000E+00 -0.00000000000E+00 -0.19394300122E+01  0.19394300122E+01  0.00000000000E+00 0. -1.
          2    1    1    2  501    0 -0.20952484690E+02  0.48160861169E+01  0.60659438309E+02  0.64356575081E+02  0.00000000000E+00 0. -1.
          2    1    1    2  502    0  0.20952484690E+02 -0.48160861169E+01  0.12716266896E+04  0.12718084129E+04  0.00000000000E+00 0. -1.
</event>
<event>
 4    1  0.8391192E+003  0.3351624E+02  0.7546771E-02  0.1391306E+00
          2   -1    0    0  502    0  0.00000000000E+00  0.00000000000E+00  0.39135997338E+01  0.39135997338E+01  0.00000000000E+00 0.  1.
          2   -1    0    0  501    0 -0.00000000000E+00 -0.00000000000E+00 -0.10391413522E+04  0.10391413522E+04  0.00000000000E+00 0.  1.
          2    1    1    2  501    0 -0.32564731612E+02 -0.79294628671E+01 -0.73923862903E+02  0.81166961461E+02  0.00000000000E+00 0.  1.
          2    1    1    2  502    0  0.32564731612E+02  0.79294628671E+01 -0.96130388954E+03  0.96188799045E+03  0.00000000000E+00 0.  1.
</event>
<event>
 4    1  0.8391192E+003  0.2027439E+02  0.7546771E-02  0.1529882E+00
          2   -1    0    0  501    0  0.00000000000E+00  0.00000000000E+00  0.10487132209E+04  0.10487132209E+04  0.00000000000E+00 0. -1.
          2   -1    0    0  502    0 -0.00000000000E+00 -0.00000000000E+00 -0.95552512478E+00  0.95552512478E+00  0.00000000000E+00 0.  1.
          2    1    1    2  501    0 -0.13773269285E+02 -0.14877763851E+02  0.12081457016E+03  0.12250392307E+03  0.00000000000E+00 0.  1.
          2    1    1    2  502    0  0.13773269285E+02  0.14877763851E+02  0.92694312561E+03  0.92716482295E+03  0.00000000000E+00 0. -1.
</event>
<event>
 4    1  0.8391192E+003  0.3573045E+02  0.7546771E-02  0.1375499E+00
          2   -1    0    0  501    0  0.00000000000E+00  0.00000000000E+00  0.47409196326E+01  0.47409196326E+01  0.00000000000E+00 0.  1.
          2   -1    0    0  502    0 -0.00000000000E+00 -0.00000000000E+00 -0.52091101990E+03  0.52091101990E+03  0.00000000000E+00 0. -1.
          2    1    1    2  501    0  0.35717005832E+02 -0.98007562987E+00 -0.44075331017E+03  0.44219921469E+03  0.00000000000E+00 0. -1.
          2    1    1    2  502    0 -0.35717005832E+02  0.98007562987E+00 -0.75416790106E+02  0.83452724843E+02  0.00000000000E+00 0.  1.
</event>
<event>
 4    1  0.8391192E+003  0.2172247E+02  0.7546771E-02  0.1509195E+00
          2   -1    0    0  501    0  0.00000000000E+00  0.00000000000E+00  0.63828962685E+00  0.63828962685E+00  0.00000000000E+00 0.  1.
          2   -1    0    0  502    0 -0.00000000000E+00 -0.00000000000E+00 -0.14065509323E+04  0.14065509323E+04  0.00000000000E+00 0.  1.
          2    1    1    2  501    0  0.21518223986E+02 -0.29718381706E+01 -0.11875753349E+04  0.11877739860E+04  0.00000000000E+00 0.  1.
          2    1    1    2  502    0 -0.21518223986E+02  0.29718381706E+01 -0.21833730777E+03  0.21941523591E+03  0.00000000000E+00 0.  1.
</event>
<event>
 4    1  0.8391192E+003  0.2173117E+02  0.7546771E-02  0.1509077E+00
          2   -1    0    0  502    0  0.00000000000E+00  0.00000000000E+00  0.70708386483E+03  0.70708386483E+03  0.00000000000E+00 0. -1.
          2   -1    0    0  501    0 -0.00000000000E+00 -0.00000000000E+00 -0.13352776469E+02  0.13352776469E+02  0.00000000000E+00 0.  1.
          2    1    1    2  501    0 -0.44717096043E+01 -0.21266110517E+02  0.69795966466E+03  0.69829788567E+03  0.00000000000E+00 0. -1.
          2    1    1    2  502    0  0.44717096043E+01  0.21266110517E+02 -0.42285762957E+01  0.22138755629E+02  0.00000000000E+00 0.  1.
</event>
<event>
 4    1  0.1036261E+004  0.2373021E+02  0.7546771E-02  0.1483527E+00
          2   -1    0    0  502    0  0.00000000000E+00  0.00000000000E+00  0.49873489971E+03  0.49873489971E+03  0.00000000000E+00 0. -1.
          2   -1    0    0  501    0 -0.00000000000E+00 -0.00000000000E+00 -0.91636106002E+03  0.91636106002E+03  0.00000000000E+00 0. -1.
          2    1    1    2  501    0 -0.19965700440E+02  0.12825506063E+02  0.49829885958E+03  0.49886358482E+03  0.00000000000E+00 0. -1.
          2    1    1    2  502    0  0.19965700440E+02 -0.12825506063E+02 -0.91592501988E+03  0.91623237492E+03  0.00000000000E+00 0. -1.
</event>
<event>
 4    1  0.8391192E+003  0.2600238E+02  0.7546771E-02  0.1457895E+00
          2   -1    0    0  502    0  0.00000000000E+00  0.00000000000E+00  0.21139614280E+03  0.21139614280E+03  0.00000000000E+00 0. -1.
          2   -1    0    0  501    0 -0.00000000000E+00 -0.00000000000E+00 -0.13641625221E+02  0.13641625221E+02  0.00000000000E+00 0. -1.
          2    1    1    2  501    0 -0.14212467445E+02  0.21774513573E+02  0.19732601799E+03  0.19903185938E+03  0.00000000000E+00 0. -1.
          2    1    1    2  502    0  0.14212467445E+02 -0.21774513573E+02  0.42849958596E+00  0.26005908638E+02  0.00000000000E+00 0. -1.
</event>
<event>
 4    1  0.8391192E+003  0.2425243E+02  0.7546771E-02  0.1477343E+00
          2   -1    0    0  502    0  0.00000000000E+00  0.00000000000E+00  0.11015826375E+01  0.11015826375E+01  0.00000000000E+00 0. -1.
          2   -1    0    0  501    0 -0.00000000000E+00 -0.00000000000E+00 -0.66265379279E+03  0.66265379279E+03  0.00000000000E+00 0. -1.
          2    1    1    2  501    0  0.18684978919E+02  0.15461311510E+02 -0.18450960474E+03  0.18609668141E+03  0.00000000000E+00 0. -1.
          2    1    1    2  502    0 -0.18684978919E+02 -0.15461311510E+02 -0.47704260541E+03  0.47765869402E+03  0.00000000000E+00 0. -1.
</event>
<event>
 4    1  0.8391192E+003  0.6608780E+02  0.7546771E-02  0.1240442E+00
          2   -1    0    0  502    0  0.00000000000E+00  0.00000000000E+00  0.96463563349E+02  0.96463563349E+02  0.00000000000E+00 0. -1.
          2   -1    0    0  501    0 -0.00000000000E+00 -0.00000000000E+00 -0.14531181290E+03  0.14531181290E+03  0.00000000000E+00 0.  1.
          2    1    1    2  501    0 -0.52665914983E+02 -0.39923666871E+02  0.75877232686E+02  0.10062282155E+03  0.00000000000E+00 0. -1.
          2    1    1    2  502    0  0.52665914983E+02  0.39923666871E+02 -0.12472548224E+03  0.14115255470E+03  0.00000000000E+00 0.  1.
</event>
<event>
 4    1  0.8391192E+003  0.2113645E+02  0.7546771E-02  0.1517325E+00
          2   -1    0    0  501    0  0.00000000000E+00  0.00000000000E+00  0.99369408075E+03  0.99369408075E+03  0.00000000000E+00 0. -1.
          2   -1    0    0  502    0 -0.00000000000E+00 -0.00000000000E+00 -0.31601612385E+01  0.31601612385E+01  0.00000000000E+00 0.  1.
          2    1    1    2  501    0  0.91906909795E+01  0.19033676309E+02  0.33654116141E+02  0.39741026255E+02  0.00000000000E+00 0.  1.
          2    1    1    2  502    0 -0.91906909795E+01 -0.19033676309E+02  0.95687980337E+03  0.95711321573E+03  0.00000000000E+00 0. -1.
</event>
<event>
 4    1  0.8391192E+003  0.2114322E+02  0.7546771E-02  0.1517230E+00
          2   -1    0    0  501    0  0.00000000000E+00  0.00000000000E+00  0.10968078600E+02  0.10968078600E+02  0.00000000000E+00 0. -1.
          2   -1    0    0  502    0 -0.00000000000E+00 -0.00000000000E+00 -0.63382123260E+03  0.63382123260E+03  0.00000000000E+00 0. -1.
          2    1    1    2  501    0  0.47192904340E+01  0.20609808763E+02 -0.62328320344E+03  0.62364171413E+03  0.00000000000E+00 0. -1.
          2    1    1    2  502    0 -0.47192904340E+01 -0.20609808763E+02  0.43004943155E+00  0.21147597073E+02  0.00000000000E+00 0. -1.
</event>
<event>
 4    1  0.8391192E+003  0.2333801E+02  0.7546771E-02  0.1488297E+00
          2   -1    0    0  501    0  0.00000000000E+00  0.00000000000E+00  0.21144530233E+03  0.21144530233E+03  0.00000000000E+00 0. -1.
          2   -1    0    0  502    0 -0.00000000000E+00 -0.00000000000E+00 -0.82112742556E+03  0.82112742556E+03  0.00000000000E+00 0. -1.
          2    1    1    2  501    0 -0.10645067085E+02 -0.20768850768E+02 -0.82031698601E+03  0.82064890187E+03  0.00000000000E+00 0. -1.
          2    1    1    2  502    0  0.10645067085E+02  0.20768850768E+02  0.21063486278E+03  0.21192382602E+03  0.00000000000E+00 0. -1.
</event>
<event>
 4    1  0.8391192E+003  0.2356544E+02  0.7546771E-02  0.1485517E+00
          2   -1    0    0  501    0  0.00000000000E+00  0.00000000000E+00  0.27883090933E+01  0.27883090933E+01  0.00000000000E+00 0.  1.
          2   -1    0    0  502    0 -0.00000000000E+00 -0.00000000000E+00 -0.78820419581E+03  0.78820419581E+03  0.00000000000E+00 0.  1.
          2    1    1    2  501    0 -0.23403061316E+02 -0.27616790099E+01 -0.73460514982E+03  0.73498303129E+03  0.00000000000E+00 0.  1.
          2    1    1    2  502    0  0.23403061316E+02  0.27616790099E+01 -0.50810736902E+02  0.56009473614E+02  0.00000000000E+00 0.  1.
</event>
<event>
 4    1  0.8391192E+003  0.4608875E+02  0.7546771E-02  0.1316083E+00
          2   -1    0    0  501    0  0.00000000000E+00  0.00000000000E+00  0.81599857387E+00  0.81599857387E+00  0.00000000000E+00 0. -1.
          2   -1    0    0  502    0 -0.00000000000E+00 -0.00000000000E+00 -0.38196254217E+04  0.38196254217E+04  0.00000000000E+00 0.  1.
          2    1    1    2  501    0 -0.32769712483E+02  0.32408621010E+02 -0.29874164751E+04  0.29877719740E+04  0.00000000000E+00 0.  1.
          2    1    1    2  502    0  0.32769712483E+02 -0.32408621010E+02 -0.83139294804E+03  0.83266944631E+03  0.00000000000E+00 0. -1.
</event>
<event>
 4    1  0.8391192E+003  0.2550812E+02  0.7546771E-02  0.1463199E+00
          2   -1    0    0  502    0  0.00000000000E+00  0.00000000000E+00  0.30518369328E+02  0.30518369328E+02  0.00000000000E+00 0. -1.
          2   -1    0    0  501    0 -0.00000000000E+00 -0.00000000000E+00 -0.46278617747E+02  0.46278617747E+02  0.00000000000E+00 0. -1.
          2    1    1    2  501    0  0.20827929485E+02 -0.14726227756E+02  0.20318674899E+02  0.32611546731E+02  0.00000000000E+00 0. -1.
          2    1    1    2  502    0 -0.20827929485E+02  0.14726227756E+02 -0.36078923318E+02  0.44185440343E+02  0.00000000000E+00 0. -1.
</event>
<event>
 4    1  0.8391192E+003  0.2222580E+02  0.7546771E-02  0.1502456E+00
          2   -1    0    0  501    0  0.00000000000E+00  0.00000000000E+00  0.95886824432E+03  0.95886824432E+03  0.00000000000E+00 0.  1.
          2   -1    0    0  502    0 -0.00000000000E+00 -0.00000000000E+00 -0.51603378101E+00  0.51603378101E+00  0.00000000000E+00 0.  1.
          2    1    1    2  501    0  0.56711009326E+00  0.22218563462E+02  0.49873032887E+03  0.49922532699E+03  0.00000000000E+00 0.  1.
          2    1    1    2  502    0 -0.56711009326E+00 -0.22218563462E+02  0.45962188167E+03  0.46015895111E+03  0.00000000000E+00 0.  1.
</event>
<event>
 4    1  0.8391192E+003  0.3072821E+02  0.7546771E-02  0.1413372E+00
          2   -1    0    0  502    0  0.00000000000E+00  0.00000000000E+00  0.80289285801E+02  0.80289285801E+02  0.00000000000E+00 0. -1.
          2   -1    0    0  501    0 -0.00000000000E+00 -0.00000000000E+00 -0.48648977589E+03  0.48648977589E+03  0.00000000000E+00 0. -1.
          2    1    1    2  501    0  0.26434244179E+02  0.15666962828E+02  0.76843043501E+02  0.82759146468E+02  0.00000000000E+00 0. -1.
          2    1    1    2  502    0 -0.26434244179E+02 -0.15666962828E+02 -0.48304353359E+03  0.48401991523E+03  0.00000000000E+00 0. -1.
</event>
<event>
 4    1  0.8391192E+003  0.3287339E+02  0.7546771E-02  0.1396164E+00
          2   -1    0    0  502    0  0.00000000000E+00  0.00000000000E+00  0.78361394984E+03  0.78361394984E+03  0.00000000000E+00 0.  1.
          2   -1    0    0  501    0 -0.00000000000E+00 -0.00000000000E+00 -0.87532643564E+02  0.87532643564E+02  0.00000000000E+00 0. -1.
          2    1    1    2  501    0  0.10102359972E+02  0.31282612287E+02  0.78016911271E+03  0.78086138587E+03  0.00000000000E+00 0.  1.
          2    1    1    2  502    0 -0.10102359972E+02 -0.31282612287E+02 -0.84087806437E+02  0.90285207536E+02  0.00000000000E+00 0. -1.
</event>
<event>
 4    1  0.8391192E+003  0.2392905E+02  0.7546771E-02  0.1481150E+00
          2   -1    0    0  502    0  0.00000000000E+00  0.00000000000E+00  0.29605916611E+02  0.29605916611E+02  0.00000000000E+00 0. -1.
          2   -1    0    0  501    0 -0.00000000000E+00 -0.00000000000E+00 -0.48852704156E+03  0.48852704156E+03  0.00000000000E+00 0.  1.
          2    1    1    2  501    0 -0.14454518812E+01  0.23885350400E+02  0.24425930636E+02  0.34193937801E+02  0.00000000000E+00 0. -1.
          2    1    1    2  502    0  0.14454518812E+01 -0.23885350400E+02 -0.48334705559E+03  0.48393902037E+03  0.00000000000E+00 0.  1.
</event>
<event>
 4    1  0.8391192E+003  0.2140767E+02  0.7546771E-02  0.1513523E+00
          2   -1    0    0  502    0  0.00000000000E+00  0.00000000000E+00  0.10869737463E+04  0.10869737463E+04  0.00000000000E+00 0. -1.
          2   -1    0    0  501    0 -0.00000000000E+00 -0.00000000000E+00 -0.28247913988E+01  0.28247913988E+01  0.00000000000E+00 0. -1.
          2    1    1    2  501    0 -0.84883095878E+01 -0.19652909768E+02  0.10446664424E+04  0.10448857660E+04  0.00000000000E+00 0. -1.
          2    1    1    2  502    0  0.84883095878E+01  0.19652909768E+02  0.39482512518E+02  0.44912771644E+02  0.00000000000E+00 0. -1.
</event>
<event>
 4    1  0.8391192E+003  0.2098416E+02  0.7546771E-02  0.1519491E+00
          2   -1    0    0  502    0  0.00000000000E+00  0.00000000000E+00  0.96426810925E+02  0.96426810925E+02  0.00000000000E+00 0.  1.
          2   -1    0    0  501    0 -0.00000000000E+00 -0.00000000000E+00 -0.93938894737E+01  0.93938894737E+01  0.00000000000E+00 0.  1.
          2    1    1    2  501    0 -0.14872885441E+02  0.14803109255E+02  0.81445625048E+02  0.84105437424E+02  0.00000000000E+00 0.  1.
          2    1    1    2  502    0  0.14872885441E+02 -0.14803109255E+02  0.55872964036E+01  0.21715262974E+02  0.00000000000E+00 0.  1.
</event>
<event>
 4    1  0.8391192E+003  0.2030468E+02  0.7546771E-02  0.1529428E+00
          2   -1    0    0  501    0  0.00000000000E+00  0.00000000000E+00  0.10542310656E+03  0.10542310656E+03  0.00000000000E+00 0.  1.
          2   -1    0    0  502    0 -0.00000000000E+00 -0.00000000000E+00 -0.43755544868E+02  0.43755544868E+02  0.00000000000E+00 0. -1.
          2    1    1    2  501    0 -0.18235709095E+02 -0.89296732844E+01 -0.40344271362E+02  0.45165699186E+02  0.00000000000E+00 0. -1.
          2    1    1    2  502    0  0.18235709095E+02  0.89296732844E+01  0.10201183306E+03  0.10401295225E+03  0.00000000000E+00 0.  1.
</event>
<event>
 4    1  0.8391192E+003  0.2352955E+02  0.7546771E-02  0.1485953E+00
          2   -1    0    0  502    0  0.00000000000E+00  0.00000000000E+00  0.27071140959E+02  0.27071140959E+02  0.00000000000E+00 0. -1.
          2   -1    0    0  501    0 -0.00000000000E+00 -0.00000000000E+00 -0.38250488583E+03  0.38250488583E+03  0.00000000000E+00 0.  1.
          2    1    1    2  501    0  0.16936737839E+02  0.16333611065E+02  0.21521262688E+02  0.31887375037E+02  0.00000000000E+00 0. -1.
          2    1    1    2  502    0 -0.16936737839E+02 -0.16333611065E+02 -0.37695500756E+03  0.37768865176E+03  0.00000000000E+00 0.  1.
</event>
<event>
 4    1  0.8391192E+003  0.5252569E+02  0.7546771E-02  0.1287578E+00
          2   -1    0    0  502    0  0.00000000000E+00  0.00000000000E+00  0.18418974831E+01  0.18418974831E+01  0.00000000000E+00 0. -1.
          2   -1    0    0  501    0 -0.00000000000E+00 -0.00000000000E+00 -0.17337767135E+04  0.17337767135E+04  0.00000000000E+00 0. -1.
          2    1    1    2  501    0  0.33365594524E+02  0.40567050079E+02 -0.54586779970E+03  0.54838909836E+03  0.00000000000E+00 0. -1.
          2    1    1    2  502    0 -0.33365594524E+02 -0.40567050079E+02 -0.11860670163E+04  0.11872295126E+04  0.00000000000E+00 0. -1.
</event>
<event>
 4    1  0.8391192E+003  0.2816058E+02  0.7546771E-02  0.1436286E+00
          2   -1    0    0  502    0  0.00000000000E+00  0.00000000000E+00  0.26587836236E+03  0.26587836236E+03  0.00000000000E+00 0.  1.
          2   -1    0    0  501    0 -0.00000000000E+00 -0.00000000000E+00 -0.89412334764E+01  0.89412334764E+01  0.00000000000E+00 0.  1.
          2    1    1    2  501    0 -0.26533577477E+02  0.94333142031E+01  0.24064226264E+03  0.24228437159E+03  0.00000000000E+00 0.  1.
          2    1    1    2  502    0  0.26533577477E+02 -0.94333142031E+01  0.16294866245E+02  0.32535224243E+02  0.00000000000E+00 0.  1.
</event>
<event>
 4    1  0.8391192E+003  0.2681641E+02  0.7546771E-02  0.1449461E+00
          2   -1    0    0  501    0  0.00000000000E+00  0.00000000000E+00  0.28323084214E+03  0.28323084214E+03  0.00000000000E+00 0. -1.
          2   -1    0    0  502    0 -0.00000000000E+00 -0.00000000000E+00 -0.15664022272E+04  0.15664022272E+04  0.00000000000E+00 0. -1.
          2    1    1    2  501    0  0.26807558367E+02  0.68904473046E+00 -0.15656524034E+04  0.15658820416E+04  0.00000000000E+00 0. -1.
          2    1    1    2  502    0 -0.26807558367E+02 -0.68904473046E+00  0.28248101838E+03  0.28375102769E+03  0.00000000000E+00 0. -1.
</event>
<event>
 4    1  0.8391192E+003  0.3003347E+02  0.7546771E-02  0.1419306E+00
          2   -1    0    0  501    0  0.00000000000E+00  0.00000000000E+00  0.17106852390E+03  0.17106852390E+03  0.00000000000E+00 0. -1.
          2   -1    0    0  502    0 -0.00000000000E+00 -0.00000000000E+00 -0.65712902868E+01  0.65712902868E+01  0.00000000000E+00 0. -1.
          2    1    1    2  501    0 -0.64925359904E+01 -0.29323306597E+02  0.42766075096E+02  0.52258458765E+02  0.00000000000E+00 0. -1.
          2    1    1    2  502    0  0.64925359904E+01  0.29323306597E+02  0.12173115852E+03  0.12538135542E+03  0.00000000000E+00 0. -1.
</event>
<event>
 4    1  0.8391192E+003  0.2181123E+02  0.7546771E-02  0.1507991E+00
          2   -1    0    0  501    0  0.00000000000E+00  0.00000000000E+00  0.88732009044E+01  0.88732009044E+01  0.00000000000E+00 0.  1.
          2   -1    0    0  502    0 -0.00000000000E+00 -0.00000000000E+00 -0.59895361024E+03  0.59895361024E+03  0.00000000000E+00 0. -1.
          2    1    1    2  501    0 -0.96232483772E+01  0.19573522220E+02 -0.58503266102E+03  0.58543910370E+03  0.00000000000E+00 0. -1.
          2    1    1    2  502    0  0.96232483772E+01 -0.19573522220E+02 -0.50477483127E+01  0.22387707441E+02  0.00000000000E+00 0.  1.
</event>
<event>
 4    1  0.8391192E+003  0.2565576E+02  0.7546771E-02  0.1461599E+00
          2   -1    0    0  502    0  0.00000000000E+00  0.00000000000E+00  0.97566592801E+01  0.97566592801E+01  0.00000000000E+00 0.  1.
          2   -1    0    0  501    0 -0.00000000000E+00 -0.00000000000E+00 -0.47233892752E+03  0.47233892752E+03  0.00000000000E+00 0. -1.
          2    1    1    2  501    0  0.25050052640E+02  0.55419110201E+01 -0.81205109241E+01  0.26910232491E+02  0.00000000000E+00 0.  1.
          2    1    1    2  502    0 -0.25050052640E+02 -0.55419110201E+01 -0.45446175732E+03  0.45518535431E+03  0.00000000000E+00 0. -1.
</event>
<event>
 4    1  0.8391192E+003  0.2580704E+02  0.7546771E-02  0.1459974E+00
          2   -1    0    0  501    0  0.00000000000E+00  0.00000000000E+00  0.12091596505E+02  0.12091596505E+02  0.00000000000E+00 0.  1.
          2   -1    0    0  502    0 -0.00000000000E+00 -0.00000000000E+00 -0.10736930740E+04  0.10736930740E+04  0.00000000000E+00 0.  1.
          2    1    1    2  501    0 -0.15079440581E+02 -0.20943113242E+02 -0.10595847145E+04  0.10598989436E+04  0.00000000000E+00 0.  1.
          2    1    1    2  502    0  0.15079440581E+02  0.20943113242E+02 -0.20167629536E+01  0.25885726827E+02  0.00000000000E+00 0.  1.
</event>
<event>
 4    1  0.8391192E+003  0.4603732E+02  0.7546771E-02  0.1316332E+00
          2   -1    0    0  502    0  0.00000000000E+00  0.00000000000E+00  0.24341226683E+02  0.24341226683E+02  0.00000000000E+00 0. -1.
          2   -1    0    0  501    0 -0.00000000000E+00 -0.00000000000E+00 -0.23265534025E+03  0.23265534025E+03  0.00000000000E+00 0. -1.
          2    1    1    2  501    0 -0.46022626723E+02  0.11630141236E+01 -0.25095033431E+01  0.46105665371E+02  0.00000000000E+00 0. -1.
          2    1    1    2  502    0  0.46022626723E+02 -0.11630141236E+01 -0.20580461023E+03  0.21089090157E+03  0.00000000000E+00 0. -1.
</event>
<event>
 4    1  0.8391192E+003  0.3014356E+02  0.7546771E-02  0.1418353E+00
          2   -1    0    0  502    0  0.00000000000E+00  0.00000000000E+00  0.44922804214E+03  0.44922804214E+03  0.00000000000E+00 0. -1.
          2   -1    0    0  501    0 -0.00000000000E+00 -0.00000000000E+00 -0.20910424238E+01  0.20910424238E+01  0.00000000000E+00 0.  1.
          2    1    1    2  501    0  0.26752934946E+02  0.13889381586E+02  0.26437718510E+03  0.26609007958E+03  0.00000000000E+00 0. -1.
          2    1    1    2  502    0 -0.26752934946E+02 -0.13889381586E+02  0.18275981461E+03  0.18522900498E+03  0.00000000000E+00 0.  1.
</event>
<event>
 4    1  0.8391192E+003  0.2171728E+02  0.7546771E-02  0.1509265E+00
          2   -1    0    0  502    0  0.00000000000E+00  0.00000000000E+00  0.47684088797E+02  0.47684088797E+02  0.00000000000E+00 0.  1.
          2   -1    0    0  501    0 -0.00000000000E+00 -0.00000000000E+00 -0.10033608128E+04  0.10033608128E+04  0.00000000000E+00 0.  1.
          2    1    1    2  501    0 -0.17533323008E+02  0.12814953249E+02  0.45087423524E+02  0.50045141647E+02  0.00000000000E+00 0.  1.
          2    1    1    2  502    0  0.17533323008E+02 -0.12814953249E+02 -0.10007641475E+04  0.10009997599E+04  0.00000000000E+00 0.  1.
</event>
<event>
 4    1  0.8391192E+003  0.2198711E+02  0.7546771E-02  0.1505624E+00
          2   -1    0    0  501    0  0.00000000000E+00  0.00000000000E+00  0.12653087823E+02  0.12653087823E+02  0.00000000000E+00 0.  1.
          2   -1    0    0  502    0 -0.00000000000E+00 -0.00000000000E+00 -0.21885498762E+03  0.21885498762E+03  0.00000000000E+00 0. -1.
          2    1    1    2  501    0  0.21808810119E+02  0.27944538326E+01 -0.20826681712E+03  0.20942421132E+03  0.00000000000E+00 0. -1.
          2    1    1    2  502    0 -0.21808810119E+02 -0.27944538326E+01  0.20649173286E+01  0.22083864123E+02  0.00000000000E+00 0.  1.
</event>
<event>
 4    1  0.8391192E+003  0.2117765E+02  0.7546771E-02  0.1516744E+00
          2   -1    0    0  502    0  0.00000000000E+00  0.00000000000E+00  0.81566881604E+03  0.81566881604E+03  0.00000000000E+00 0. -1.
          2   -1    0    0  501    0 -0.00000000000E+00 -0.00000000000E+00 -0.23592466441E+01  0.23592466441E+01  0.00000000000E+00 0.  1.
          2    1    1    2  501    0  0.18260319463E+02 -0.10726295207E+02  0.76484922398E+03  0.76514235806E+03  0.00000000000E+00 0. -1.
          2    1    1    2  502    0 -0.18260319463E+02  0.10726295207E+02  0.48460345423E+02  0.52885704630E+02  0.00000000000E+00 0.  1.
</event>
<event>
 4    1  0.8391192E+003  0.2514476E+02  0.7546771E-02  0.1467190E+00
          2   -1    0    0  501    0  0.00000000000E+00  0.00000000000E+00  0.13319873597E+02  0.13319873597E+02  0.00000000000E+00 0. -1.
          2   -1    0    0  502    0 -0.00000000000E+00 -0.00000000000E+00 -0.58751515766E+03  0.58751515766E+03  0.00000000000E+00 0.  1.
          2    1    1    2  501    0  0.17665063718E+02  0.17894257984E+02 -0.57512372675E+03  0.57567313644E+03  0.00000000000E+00 0.  1.
          2    1    1    2  502    0 -0.17665063718E+02 -0.17894257984E+02  0.92844268825E+00  0.25161894817E+02  0.00000000000E+00 0. -1.
</event>
<event>
 4    1  0.8391192E+003  0.2653259E+02  0.7546771E-02  0.1452361E+00
          2   -1    0    0  502    0  0.00000000000E+00  0.00000000000E+00  0.31982187614E+03  0.31982187614E+03  0.00000000000E+00 0. -1.
          2   -1    0    0  501    0 -0.00000000000E+00 -0.00000000000E+00 -0.38266011797E+02  0.38266011797E+02  0.00000000000E+00 0.  1.
          2    1    1    2  501    0  0.11177727481E+02  0.24063179850E+02  0.31459608420E+03  0.31571296205E+03  0.00000000000E+00 0. -1.
          2    1    1    2  502    0 -0.11177727481E+02 -0.24063179850E+02 -0.33040219852E+02  0.42374925887E+02  0.00000000000E+00 0.  1.
</event>
<event>
 4    1  0.8391192E+003  0.2048811E+02  0.7546771E-02  0.1526700E+00
          2   -1    0    0  502    0  0.00000000000E+00  0.00000000000E+00  0.47608278222E+03  0.47608278222E+03  0.00000000000E+00 0. -1.
          2   -1    0    0  501    0 -0.00000000000E+00 -0.00000000000E+00 -0.25781454302E+03  0.25781454302E+03  0.00000000000E+00 0. -1.
          2    1    1    2  501    0  0.11470516033E+02  0.16976154094E+02  0.47545478041E+03  0.47589600834E+03  0.00000000000E+00 0. -1.
          2    1    1    2  502    0 -0.11470516033E+02 -0.16976154094E+02 -0.25718654120E+03  0.25800131690E+03  0.00000000000E+00 0. -1.
</event>
<event>
 4    1  0.8391192E+003  0.2983701E+02  0.7546771E-02  0.1421018E+00
          2   -1    0    0  501    0  0.00000000000E+00  0.00000000000E+00  0.17636230849E+04  0.17636230849E+04  0.00000000000E+00 0.  1.
          2   -1    0    0  502    0 -0.00000000000E+00 -0.00000000000E+00 -0.97083526904E+02  0.97083526904E+02  0.00000000000E+00 0. -1.
          2    1    1    2  501    0  0.16450456897E+02 -0.24892360513E+02 -0.94661701625E+02  0.99252631696E+02  0.00000000000E+00 0. -1.
          2    1    1    2  502    0 -0.16450456897E+02  0.24892360513E+02  0.17612012597E+04  0.17614539802E+04  0.00000000000E+00 0.  1.
</event>
<event>
 4    1  0.8391192E+003  0.2765122E+02  0.7546771E-02  0.1441174E+00
          2   -1    0    0  502    0  0.00000000000E+00  0.00000000000E+00  0.37964810953E+01  0.37964810953E+01  0.00000000000E+00 0.  1.
          2   -1    0    0  501    0 -0.00000000000E+00 -0.00000000000E+00 -0.11617918180E+04  0.11617918180E+04  0.00000000000E+00 0.  1.
          2    1    1    2  501    0  0.53580007296E+01 -0.27127138172E+02 -0.49118882616E+02  0.56367139599E+02  0.00000000000E+00 0.  1.
          2    1    1    2  502    0 -0.53580007296E+01  0.27127138172E+02 -0.11088764543E+04  0.11092211595E+04  0.00000000000E+00 0.  1.
</event>
<event>
 4    1  0.8391192E+003  0.6772264E+02  0.7546771E-02  0.1235634E+00
          2   -1    0    0  502    0  0.00000000000E+00  0.00000000000E+00  0.31347614100E+02  0.31347614100E+02  0.00000000000E+00 0. -1.
          2   -1    0    0  501    0 -0.00000000000E+00 -0.00000000000E+00 -0.62966474651E+03  0.62966474651E+03  0.00000000000E+00 0.  1.
          2    1    1    2  501    0 -0.61360285438E+02  0.28657833114E+02 -0.95846000732E+01  0.68397518861E+02  0.00000000000E+00 0. -1.
          2    1    1    2  502    0  0.61360285438E+02 -0.28657833114E+02 -0.58873253233E+03  0.59261484174E+03  0.00000000000E+00 0.  1.
</event>
<event>
 4    1  0.8391192E+003  0.2036054E+02  0.7546771E-02  0.1528594E+00
          2   -1    0    0  501    0  0.00000000000E+00  0.00000000000E+00  0.16274344468E+01  0.16274344468E+01  0.00000000000E+00 0.  1.
          2   -1    0    0  502    0 -0.00000000000E+00 -0.00000000000E+00 -0.12881800239E+04  0.12881800239E+04  0.00000000000E+00 0. -1.
          2    1    1    2  501    0 -0.93947074120E+01 -0.18063529924E+02 -0.12209092456E+04  0.12210790055E+04  0.00000000000E+00 0. -1.
          2    1    1    2  502    0  0.93947074120E+01  0.18063529924E+02 -0.65643343838E+02  0.68728452848E+02  0.00000000000E+00 0.  1.
</event>
<event>
 4    1  0.8391192E+003  0.2535971E+02  0.7546771E-02  0.1464819E+00
          2   -1    0    0  502    0  0.00000000000E+00  0.00000000000E+00  0.50833803054E+03  0.50833803054E+03  0.00000000000E+00 0.  1.
          2   -1    0    0  501    0 -0.00000000000E+00 -0.00000000000E+00 -0.21516613849E+01  0.21516613849E+01  0.00000000000E+00 0.  1.
          2    1    1    2  501    0  0.23705558098E+02  0.90089723972E+01  0.41693185429E+03  0.41770238949E+03  0.00000000000E+00 0.  1.
          2    1    1    2  502    0 -0.23705558098E+02 -0.90089723972E+01  0.89254514871E+02  0.92787302436E+02  0.00000000000E+00 0.  1.
</event>
<event>
 4    1  0.8391192E+003  0.2898351E+02  0.7546771E-02  0.1428640E+00
          2   -1    0    0  501    0  0.00000000000E+00  0.00000000000E+00  0.10965434103E+04  0.10965434103E+04  0.00000000000E+00 0.  1.
          2   -1    0    0  502    0 -0.00000000000E+00 -0.00000000000E+00 -0.51813805001E+02  0.51813805001E+02  0.00000000000E+00 0.  1.
          2    1    1    2  501    0  0.72575933239E+01 -0.28060136156E+02 -0.47553291461E+02  0.55689850338E+02  0.00000000000E+00 0.  1.
          2    1    1    2  502    0 -0.72575933239E+01  0.28060136156E+02  0.10922828968E+04  0.10926673650E+04  0.00000000000E+00 0.  1.
</event>
<event>
 4    1  0.8391192E+003  0.2369191E+02  0.7546771E-02  0.1483988E+00
          2   -1    0    0  502    0  0.00000000000E+00  0.00000000000E+00  0.13433073606E+04  0.13433073606E+04  0.00000000000E+00 0. -1.
          2   -1    0    0  501    0 -0.00000000000E+00 -0.00000000000E+00 -0.52667412547E+00  0.52667412547E+00  0.00000000000E+00 0.  1.
          2    1    1    2  501    0 -0.20168808170E+02  0.12430843489E+02  0.97681124609E+03  0.97709851969E+03  0.00000000000E+00 0. -1.
          2    1    1    2  502    0  0.20168808170E+02 -0.12430843489E+02  0.36596944038E+03  0.36673551503E+03  0.00000000000E+00 0.  1.
</event>
<event>
 4    1  0.8391192E+003  0.2601316E+02  0.7546771E-02  0.1457781E+00
          2   -1    0    0  502    0  0.00000000000E+00  0.00000000000E+00  0.19191160133E+03  0.19191160133E+03  0.00000000000E+00 0. -1.
          2   -1    0    0  501    0 -0.00000000000E+00 -0.00000000000E+00 -0.19667522729E+03  0.19667522729E+03  0.00000000000E+00 0. -1.
          2    1    1    2  501    0 -0.18424114633E+01  0.25947828393E+02  0.19016206476E+03  0.19193304862E+03  0.00000000000E+00 0. -1.
          2    1    1    2  502    0  0.18424114633E+01 -0.25947828393E+02 -0.19492569073E+03  0.19665378000E+03  0.00000000000E+00 0. -1.
</event>
<event>
 4    1  0.8391192E+003  0.4592603E+02  0.7546771E-02  0.1316873E+00
          2   -1    0    0  501    0  0.00000000000E+00  0.00000000000E+00  0.20953542738E+02  0.20953542738E+02  0.00000000000E+00 0. -1.
          2   -1    0    0  502    0 -0.00000000000E+00 -0.00000000000E+00 -0.52211089763E+03  0.52211089763E+03  0.00000000000E+00 0. -1.
          2    1    1    2  501    0 -0.31206887070E+02  0.33694669766E+02 -0.49453555505E+03  0.49666348344E+03  0.00000000000E+00 0. -1.
          2    1    1    2  502    0  0.31206887070E+02 -0.33694669766E+02 -0.66217998444E+01  0.46400956934E+02  0.00000000000E+00 0. -1.
</event>
<event>
 4    1  0.8391192E+003  0.2008998E+02  0.7546771E-02  0.1532665E+00
          2   -1    0    0  501    0  0.00000000000E+00  0.00000000000E+00  0.18501544769E+02  0.18501544769E+02  0.00000000000E+00 0. -1.
          2   -1    0    0  502    0 -0.00000000000E+00 -0.00000000000E+00 -0.36320474537E+03  0.36320474537E+03  0.00000000000E+00 0. -1.
          2    1    1    2  501    0 -0.20067413546E+02 -0.95191995059E+00 -0.35738449201E+03  0.35794871472E+03  0.00000000000E+00 0. -1.
          2    1    1    2  502    0  0.20067413546E+02  0.95191995059E+00  0.12681291411E+02  0.23757575421E+02  0.00000000000E+00 0. -1.
</event>
<event>
 4    1  0.8391192E+003  0.2186901E+02  0.7546771E-02  0.1507210E+00
          2   -1    0    0  501    0  0.00000000000E+00  0.00000000000E+00  0.96209568520E+00  0.96209568520E+00  0.00000000000E+00 0.  1.
          2   -1    0    0  502    0 -0.00000000000E+00 -0.00000000000E+00 -0.70129998563E+03  0.70129998563E+03  0.00000000000E+00 0.  1.
          2    1    1    2  501    0  0.65014221256E+01  0.20880261004E+02 -0.53964291577E+03  0.54008585459E+03  0.00000000000E+00 0.  1.
          2    1    1    2  502    0 -0.65014221256E+01 -0.20880261004E+02 -0.16069497417E+03  0.16217622672E+03  0.00000000000E+00 0.  1.
</event>
<event>
 4    1  0.8391192E+003  0.3456658E+02  0.7546771E-02  0.1383636E+00
          2   -1    0    0  501    0  0.00000000000E+00  0.00000000000E+00  0.14303650395E+03  0.14303650395E+03  0.00000000000E+00 0. -1.
          2   -1    0    0  502    0 -0.00000000000E+00 -0.00000000000E+00 -0.16616327649E+02  0.16616327649E+02  0.00000000000E+00 0. -1.
          2    1    1    2  501    0  0.22647212013E+02  0.26114220735E+02  0.69183467141E+01  0.35252124160E+02  0.00000000000E+00 0. -1.
          2    1    1    2  502    0 -0.22647212013E+02 -0.26114220735E+02  0.11950182959E+03  0.12440070744E+03  0.00000000000E+00 0. -1.
</event>
<event>
 4    1  0.8391192E+003  0.2206669E+02  0.7546771E-02  0.1504562E+00
          2   -1    0    0  501    0  0.00000000000E+00  0.00000000000E+00  0.86723855880E+03  0.86723855880E+03  0.00000000000E+00 0.  1.
          2   -1    0    0  502    0 -0.00000000000E+00 -0.00000000000E+00 -0.93244320367E+01  0.93244320367E+01  0.00000000000E+00 0. -1.
          2    1    1    2  501    0 -0.17999216270E+02 -0.12765862049E+02  0.40762659723E+01  0.22440030403E+02  0.00000000000E+00 0. -1.
          2    1    1    2  502    0  0.17999216270E+02  0.12765862049E+02  0.85383786079E+03  0.85412296043E+03  0.00000000000E+00 0.  1.
</event>
<event>
 4    1  0.8391192E+003  0.6354528E+02  0.7546771E-02  0.1248240E+00
          2   -1    0    0  502    0  0.00000000000E+00  0.00000000000E+00  0.30636636233E+03  0.30636636233E+03  0.00000000000E+00 0.  1.
          2   -1    0    0  501    0 -0.00000000000E+00 -0.00000000000E+00 -0.57710152573E+03  0.57710152573E+03  0.00000000000E+00 0. -1.
          2    1    1    2  501    0 -0.60432192243E+02 -0.19645694988E+02  0.30129288954E+03  0.30792110756E+03  0.00000000000E+00 0.  1.
          2    1    1    2  502    0  0.60432192243E+02  0.19645694988E+02 -0.57202805294E+03  0.57554678050E+03  0.00000000000E+00 0. -1.
</event>
<event>
 4    1  0.8391192E+003  0.2323650E+02  0.7546771E-02  0.1489550E+00
          2   -1    0    0  501    0  0.00000000000E+00  0.00000000000E+00  0.10443016265E+01  0.10443016265E+01  0.00000000000E+00 0. -1.
          2   -1    0    0  502    0 -0.00000000000E+00 -0.00000000000E+00 -0.10159808873E+04  0.10159808873E+04  0.00000000000E+00 0.  1.
          2    1    1    2  501    0 -0.22701420951E+02 -0.49578610287E+01 -0.86382751215E+03  0.86413998035E+03  0.00000000000E+00 0.  1.
          2    1    1    2  502    0  0.22701420951E+02  0.49578610287E+01 -0.15110907355E+03  0.15288520860E+03  0.00000000000E+00 0. -1.
</event>
<event>
 4    1  0.8391192E+003  0.4685669E+02  0.7546771E-02  0.1312408E+00
          2   -1    0    0  502    0  0.00000000000E+00  0.00000000000E+00  0.17654074881E+02  0.17654074881E+02  0.00000000000E+00 0. -1.
          2   -1    0    0  501    0 -0.00000000000E+00 -0.00000000000E+00 -0.62054883488E+03  0.62054883488E+03  0.00000000000E+00 0. -1.
          2    1    1    2  501    0 -0.14592960908E+02 -0.44526341800E+02 -0.16107750619E+02  0.49548049932E+02  0.00000000000E+00 0. -1.
          2    1    1    2  502    0  0.14592960908E+02  0.44526341800E+02 -0.58678700938E+03  0.58865485983E+03  0.00000000000E+00 0. -1.
</event>
<event>
 4    1  0.1015846E+004  0.3871434E+02  0.7546771E-02  0.1356189E+00
          2   -1    0    0  502    0  0.00000000000E+00  0.00000000000E+00  0.14581524169E+04  0.14581524169E+04  0.00000000000E+00 0. -1.
          2   -1    0    0  501    0 -0.00000000000E+00 -0.00000000000E+00 -0.67715184524E+03  0.67715184524E+03  0.00000000000E+00 0. -1.
          2    1    1    2  501    0 -0.37972976752E+02  0.75401066050E+01  0.14573417930E+04  0.14578559262E+04  0.00000000000E+00 0. -1.
          2    1    1    2  502    0  0.37972976752E+02 -0.75401066050E+01 -0.67634122130E+03  0.67744833590E+03  0.00000000000E+00 0. -1.
</event>
<event>
 4    1  0.8391192E+003  0.3372918E+02  0.7546771E-02  0.1389724E+00
          2   -1    0    0  501    0  0.00000000000E+00  0.00000000000E+00  0.65155148247E+03  0.65155148247E+03  0.00000000000E+00 0. -1.
          2   -1    0    0  502    0 -0.00000000000E+00 -0.00000000000E+00 -0.39703583305E+03  0.39703583305E+03  0.00000000000E+00 0.  1.
          2    1    1    2  501    0 -0.28506068873E+01 -0.33608508752E+02 -0.39588169943E+03  0.39731596716E+03  0.00000000000E+00 0.  1.
          2    1    1    2  502    0  0.28506068873E+01  0.33608508752E+02  0.65039734884E+03  0.65127134837E+03  0.00000000000E+00 0. -1.
</event>
<event>
 4    1  0.8391192E+003  0.4304915E+02  0.7546771E-02  0.1331488E+00
          2   -1    0    0  502    0  0.00000000000E+00  0.00000000000E+00  0.26006190474E+03  0.26006190474E+03  0.00000000000E+00 0. -1.
          2   -1    0    0  501    0 -0.00000000000E+00 -0.00000000000E+00 -0.88898828466E+01  0.88898828466E+01  0.00000000000E+00 0. -1.
          2    1    1    2  501    0  0.33239558907E+02  0.27356194574E+02  0.18548476457E+03  0.19041488268E+03  0.00000000000E+00 0. -1.
          2    1    1    2  502    0 -0.33239558907E+02 -0.27356194574E+02  0.65687257322E+02  0.78536904907E+02  0.00000000000E+00 0. -1.
</event>
<event>
 4    1  0.8391192E+003  0.2007440E+02  0.7546771E-02  0.1532901E+00
          2   -1    0    0  501    0  0.00000000000E+00  0.00000000000E+00  0.12912381164E+03  0.12912381164E+03  0.00000000000E+00 0.  1.
          2   -1    0    0  502    0 -0.00000000000E+00 -0.00000000000E+00 -0.34185280149E+01  0.34185280149E+01  0.00000000000E+00 0. -1.
          2    1    1    2  501    0 -0.19656726102E+02  0.40736656870E+01  0.43298134051E+02  0.47725360612E+02  0.00000000000E+00 0. -1.
          2    1    1    2  502    0  0.19656726102E+02 -0.40736656870E+01  0.82407149577E+02  0.84816979046E+02  0.00000000000E+00 0.  1.
</event>
<event>
 4    1  0.8391192E+003  0.2896038E+02  0.7546771E-02  0.1428851E+00
          2   -1    0    0  502    0  0.00000000000E+00  0.00000000000E+00  0.23380012780E+01  0.23380012780E+01  0.00000000000E+00 0.  1.
          2   -1    0    0  501    0 -0.00000000000E+00 -0.00000000000E+00 -0.42290420386E+03  0.42290420386E+03  0.00000000000E+00 0. -1.
          2    1    1    2  501    0  0.18181301617E+02  0.22542051074E+02 -0.12745526357E+03  0.13070404740E+03  0.00000000000E+00 0.  1.
          2    1    1    2  502    0 -0.18181301617E+02 -0.22542051074E+02 -0.29311093900E+03  0.29453815773E+03  0.00000000000E+00 0. -1.
</event>
<event>
 4    1  0.8391192E+003  0.2676078E+02  0.7546771E-02  0.1450026E+00
          2   -1    0    0  501    0  0.00000000000E+00  0.00000000000E+00  0.38943971105E+01  0.38943971105E+01  0.00000000000E+00 0. -1.
          2   -1    0    0  502    0 -0.00000000000E+00 -0.00000000000E+00 -0.13380192105E+04  0.13380192105E+04  0.00000000000E+00 0. -1.
          2    1    1    2  501    0 -0.19536656285E+02 -0.18288199557E+02 -0.12902096468E+04  0.12904871452E+04  0.00000000000E+00 0. -1.
          2    1    1    2  502    0  0.19536656285E+02  0.18288199557E+02 -0.43915166616E+02  0.51426462456E+02  0.00000000000E+00 0. -1.
</event>
<event>
 4    1  0.8391192E+003  0.2234754E+02  0.7546771E-02  0.1500858E+00
          2   -1    0    0  501    0  0.00000000000E+00  0.00000000000E+00  0.12983657440E+04  0.12983657440E+04  0.00000000000E+00 0. -1.
          2   -1    0    0  502    0 -0.00000000000E+00 -0.00000000000E+00 -0.42394801860E+00  0.42394801860E+00  0.00000000000E+00 0.  1.
          2    1    1    2  501    0 -0.49074459816E+01 -0.21802049029E+02  0.45124891915E+03  0.45180194710E+03  0.00000000000E+00 0.  1.
          2    1    1    2  502    0  0.49074459816E+01  0.21802049029E+02  0.84669287688E+03  0.84698774497E+03  0.00000000000E+00 0. -1.
</event>
<event>
 4    1  0.8391192E+003  0.2441792E+02  0.7546771E-02  0.1475422E+00
          2   -1    0    0  502    0  0.00000000000E+00  0.00000000000E+00  0.21154079708E+01  0.21154079708E+01  0.00000000000E+00 0. -1.
          2   -1    0    0  501    0 -0.00000000000E+00 -0.00000000000E+00 -0.18353531203E+04  0.18353531203E+04  0.00000000000E+00 0.  1.
          2    1    1    2  501    0  0.28930481561E+01 -0.24245928800E+02 -0.71367852305E+02  0.75429471254E+02  0.00000000000E+00 0. -1.
          2    1    1    2  502    0 -0.28930481561E+01  0.24245928800E+02 -0.17618698600E+04  0.17620390570E+04  0.00000000000E+00 0.  1.
</event>
<event>
 4    1  0.8391192E+003  0.2377274E+02  0.7546771E-02  0.1483016E+00
          2   -1    0    0  502    0  0.00000000000E+00  0.00000000000E+00  0.29994954021E+03  0.29994954021E+03  0.00000000000E+00 0. -1.
          2   -1    0    0  501    0 -0.00000000000E+00 -0.00000000000E+00 -0.30816288690E+03  0.30816288690E+03  0.00000000000E+00 0.  1.
          2    1    1    2  501    0 -0.21058430212E+02  0.11031129178E+02  0.29901860537E+03  0.29996211369E+03  0.00000000000E+00 0. -1.
          2    1    1    2  502    0  0.21058430212E+02 -0.11031129178E+02 -0.30723195206E+03  0.30815031342E+03  0.00000000000E+00 0.  1.
</event>
<event>
 4    1  0.8391192E+003  0.3331442E+02  0.7546771E-02  0.1392817E+00
          2   -1    0    0  502    0  0.00000000000E+00  0.00000000000E+00  0.12384978348E+02  0.12384978348E+02  0.00000000000E+00 0.  1.
          2   -1    0    0  501    0 -0.00000000000E+00 -0.00000000000E+00 -0.19958963766E+03  0.19958963766E+03  0.00000000000E+00 0.  1.
          2    1    1    2  501    0  0.33182888216E+02 -0.29574583145E+01 -0.14927503390E+02  0.36505903461E+02  0.00000000000E+00 0.  1.
          2    1    1    2  502    0 -0.33182888216E+02  0.29574583145E+01 -0.17227715592E+03  0.17546871255E+03  0.00000000000E+00 0.  1.
</event>
<event>
 4    1  0.8391192E+003  0.2066047E+02  0.7546771E-02  0.1524168E+00
          2   -1    0    0  501    0  0.00000000000E+00  0.00000000000E+00  0.25100890708E+02  0.25100890708E+02  0.00000000000E+00 0.  1.
          2   -1    0    0  502    0 -0.00000000000E+00 -0.00000000000E+00 -0.36353392802E+02  0.36353392802E+02  0.00000000000E+00 0.  1.
          2    1    1    2  501    0 -0.13625597300E+01  0.20615487825E+02 -0.28042645543E+02  0.34831664851E+02  0.00000000000E+00 0.  1.
          2    1    1    2  502    0  0.13625597300E+01 -0.20615487825E+02  0.16790143449E+02  0.26622618660E+02  0.00000000000E+00 0.  1.
</event>
<event>
 4    1  0.8391192E+003  0.4339394E+02  0.7546771E-02  0.1329668E+00
          2   -1    0    0  502    0  0.00000000000E+00  0.00000000000E+00  0.17800706929E+04  0.17800706929E+04  0.00000000000E+00 0. -1.
          2   -1    0    0  501    0 -0.00000000000E+00 -0.00000000000E+00 -0.66052450068E+02  0.66052450068E+02  0.00000000000E+00 0. -1.
          2    1    1    2  501    0 -0.34299510932E+02 -0.26581530676E+02  0.17726493573E+04  0.17731804133E+04  0.00000000000E+00 0. -1.
          2    1    1    2  502    0  0.34299510932E+02  0.26581530676E+02 -0.58631114477E+02  0.72942729645E+02  0.00000000000E+00 0. -1.
</event>
<event>
 4    1  0.8391192E+003  0.2429524E+02  0.7546771E-02  0.1476844E+00
          2   -1    0    0  502    0  0.00000000000E+00  0.00000000000E+00  0.14276176162E+02  0.14276176162E+02  0.00000000000E+00 0. -1.
          2   -1    0    0  501    0 -0.00000000000E+00 -0.00000000000E+00 -0.26833300999E+03  0.26833300999E+03  0.00000000000E+00 0. -1.
          2    1    1    2  501    0  0.22362780740E+02 -0.94955190932E+01  0.29346625180E+01  0.24471842786E+02  0.00000000000E+00 0. -1.
          2    1    1    2  502    0 -0.22362780740E+02  0.94955190932E+01 -0.25699149635E+03  0.25813734337E+03  0.00000000000E+00 0. -1.
</event>
<event>
 4    1  0.8391192E+003  0.2324008E+02  0.7546771E-02  0.1489505E+00
          2   -1    0    0  502    0  0.00000000000E+00  0.00000000000E+00  0.41735032958E+01  0.41735032958E+01  0.00000000000E+00 0.  1.
          2   -1    0    0  501    0 -0.00000000000E+00 -0.00000000000E+00 -0.11667773401E+04  0.11667773401E+04  0.00000000000E+00 0. -1.
          2    1    1    2  501    0  0.18007974917E+02  0.14690613290E+02 -0.29249205764E+02  0.37357961899E+02  0.00000000000E+00 0.  1.
          2    1    1    2  502    0 -0.18007974917E+02 -0.14690613290E+02 -0.11333546310E+04  0.11335928815E+04  0.00000000000E+00 0. -1.
</event>
<event>
 4    1  0.8391192E+003  0.2747985E+02  0.7546771E-02  0.1442847E+00
          2   -1    0    0  502    0  0.00000000000E+00  0.00000000000E+00  0.55372823229E+01  0.55372823229E+01  0.00000000000E+00 0.  1.
          2   -1    0    0  501    0 -0.00000000000E+00 -0.00000000000E+00 -0.80654684940E+03  0.80654684940E+03  0.00000000000E+00 0. -1.
          2    1    1    2  501    0 -0.27315103181E+02  0.30045711377E+01 -0.30378789219E+02  0.40963558731E+02  0.00000000000E+00 0.  1.
          2    1    1    2  502    0  0.27315103181E+02 -0.30045711377E+01 -0.77063077785E+03  0.77112057299E+03  0.00000000000E+00 0. -1.
</event>
<event>
 4    1  0.8391192E+003  0.2501805E+02  0.7546771E-02  0.1468602E+00
          2   -1    0    0  502    0  0.00000000000E+00  0.00000000000E+00  0.19666544596E+03  0.19666544596E+03  0.00000000000E+00 0.  1.
          2   -1    0    0  501    0 -0.00000000000E+00 -0.00000000000E+00 -0.12799529627E+03  0.12799529627E+03  0.00000000000E+00 0.  1.
          2    1    1    2  501    0  0.23999276692E+02 -0.70666673689E+01  0.19463458597E+03  0.19623589153E+03  0.00000000000E+00 0.  1.
          2    1    1    2  502    0 -0.23999276692E+02  0.70666673689E+01 -0.12596443628E+03  0.12842485070E+03  0.00000000000E+00 0.  1.
</event>
<event>
 4    1  0.8391192E+003  0.2269478E+02  0.7546771E-02  0.1496367E+00
          2   -1    0    0  501    0  0.00000000000E+00  0.00000000000E+00  0.36614453599E+03  0.36614453599E+03  0.00000000000E+00 0. -1.
          2   -1    0    0  502    0 -0.00000000000E+00 -0.00000000000E+00 -0.33179537267E+02  0.33179537267E+02  0.00000000000E+00 0. -1.
          2    1    1    2  501    0  0.25953279802E+01 -0.22545893286E+02 -0.28901223278E+02  0.36746887465E+02  0.00000000000E+00 0. -1.
          2    1    1    2  502    0 -0.25953279802E+01  0.22545893286E+02  0.36186622200E+03  0.36257718579E+03  0.00000000000E+00 0. -1.
</event>
<event>
 4    1  0.8391192E+003  0.3412194E+02  0.7546771E-02  0.1386843E+00
          2   -1    0    0  501    0  0.00000000000E+00  0.00000000000E+00  0.11172618844E+03  0.11172618844E+03  0.00000000000E+00 0. -1.
          2   -1    0    0  502    0 -0.00000000000E+00 -0.00000000000E+00 -0.11351523783E+02  0.11351523783E+02  0.00000000000E+00 0. -1.
          2    1    1    2  501    0  0.33637804468E+02 -0.57275438878E+01  0.32568817944E+02  0.47170271896E+02  0.00000000000E+00 0. -1.
          2    1    1    2  502    0 -0.33637804468E+02  0.57275438878E+01  0.67805846708E+02  0.75907440322E+02  0.00000000000E+00 0. -1.
</event>
<event>
 4    1  0.8391192E+003  0.3427852E+02  0.7546771E-02  0.1385708E+00
          2   -1    0    0  501    0  0.00000000000E+00  0.00000000000E+00  0.34614823596E+03  0.34614823596E+03  0.00000000000E+00 0.  1.
          2   -1    0    0  502    0 -0.00000000000E+00 -0.00000000000E+00 -0.67683778920E+01  0.67683778920E+01  0.00000000000E+00 0.  1.
          2    1    1    2  501    0  0.28841748773E+02 -0.18524861699E+02  0.45106187988E+02  0.56653200863E+02  0.00000000000E+00 0.  1.
          2    1    1    2  502    0 -0.28841748773E+02  0.18524861699E+02  0.29427367008E+03  0.29626341299E+03  0.00000000000E+00 0.  1.
</event>
<event>
 4    1  0.8391192E+003  0.2031141E+02  0.7546771E-02  0.1529327E+00
          2   -1    0    0  501    0  0.00000000000E+00  0.00000000000E+00  0.41588877935E+02  0.41588877935E+02  0.00000000000E+00 0. -1.
          2   -1    0    0  502    0 -0.00000000000E+00 -0.00000000000E+00 -0.51615828157E+02  0.51615828157E+02  0.00000000000E+00 0. -1.
          2    1    1    2  501    0  0.61071348906E+01  0.19371536170E+02 -0.46898976594E+02  0.51108389876E+02  0.00000000000E+00 0. -1.
          2    1    1    2  502    0 -0.61071348906E+01 -0.19371536170E+02  0.36872026372E+02  0.42096316215E+02  0.00000000000E+00 0. -1.
</event>
<event>
 4    1  0.8391192E+003  0.2249709E+02  0.7546771E-02  0.1498912E+00
          2   -1    0    0  501    0  0.00000000000E+00  0.00000000000E+00  0.25387606742E+03  0.25387606742E+03  0.00000000000E+00 0. -1.
          2   -1    0    0  502    0 -0.00000000000E+00 -0.00000000000E+00 -0.11145507938E+02  0.11145507938E+02  0.00000000000E+00 0.  1.
          2    1    1    2  501    0 -0.81046873508E+01  0.20986501108E+02  0.12888171876E+01  0.22533979577E+02  0.00000000000E+00 0.  1.
          2    1    1    2  502    0  0.81046873508E+01 -0.20986501108E+02  0.24144174230E+03  0.24248759578E+03  0.00000000000E+00 0. -1.
</event>
<event>
 4    1  0.1120970E+004  0.2114798E+02  0.7546771E-02  0.1517163E+00
          2   -1    0    0  501    0  0.00000000000E+00  0.00000000000E+00  0.10726963448E+04  0.10726963448E+04  0.00000000000E+00 0. -1.
          2   -1    0    0  502    0 -0.00000000000E+00 -0.00000000000E+00 -0.76308233369E+03  0.76308233369E+03  0.00000000000E+00 0.  1.
          2    1    1    2  501    0  0.13120625473E+02 -0.16585720793E+02 -0.76283154432E+03  0.76312463068E+03  0.00000000000E+00 0.  1.
          2    1    1    2  502    0 -0.13120625473E+02  0.16585720793E+02  0.10724455554E+04  0.10726540478E+04  0.00000000000E+00 0. -1.
</event>
<event>
 4    1  0.8391192E+003  0.2120819E+02  0.7546771E-02  0.1516313E+00
          2   -1    0    0  501    0  0.00000000000E+00  0.00000000000E+00  0.52912061870E+03  0.52912061870E+03  0.00000000000E+00 0. -1.
          2   -1    0    0  502    0 -0.00000000000E+00 -0.00000000000E+00 -0.19286097039E+03  0.19286097039E+03  0.00000000000E+00 0.  1.
          2    1    1    2  501    0 -0.20162771072E+02  0.65764680245E+01 -0.19206452939E+03  0.19323190917E+03  0.00000000000E+00 0.  1.
          2    1    1    2  502    0  0.20162771072E+02 -0.65764680245E+01  0.52832417770E+03  0.52874967992E+03  0.00000000000E+00 0. -1.
</event>
<event>
 4    1  0.8391192E+003  0.2623909E+02  0.7546771E-02  0.1455405E+00
          2   -1    0    0  501    0  0.00000000000E+00  0.00000000000E+00  0.17073176377E+04  0.17073176377E+04  0.00000000000E+00 0.  1.
          2   -1    0    0  502    0 -0.00000000000E+00 -0.00000000000E+00 -0.51933976285E+01  0.51933976285E+01  0.00000000000E+00 0. -1.
          2    1    1    2  501    0 -0.19978429416E+02  0.17010356909E+02  0.28721635302E+02  0.38902727649E+02  0.00000000000E+00 0. -1.
          2    1    1    2  502    0  0.19978429416E+02 -0.17010356909E+02  0.16734026048E+04  0.16736083077E+04  0.00000000000E+00 0.  1.
</event>
<event>
 4    1  0.8391192E+003  0.2473824E+02  0.7546771E-02  0.1471753E+00
          2   -1    0    0  502    0  0.00000000000E+00  0.00000000000E+00  0.19859447028E+02  0.19859447028E+02  0.00000000000E+00 0.  1.
          2   -1    0    0  501    0 -0.00000000000E+00 -0.00000000000E+00 -0.91384271698E+02  0.91384271698E+02  0.00000000000E+00 0.  1.
          2    1    1    2  501    0 -0.19910097204E+02 -0.14682254143E+02  0.95204467110E+01  0.26506970083E+02  0.00000000000E+00 0.  1.
          2    1    1    2  502    0  0.19910097204E+02  0.14682254143E+02 -0.81045271381E+02  0.84736748643E+02  0.00000000000E+00 0.  1.
</event>
<event>
 4    1  0.8391192E+003  0.4484742E+02  0.7546771E-02  0.1322204E+00
          2   -1    0    0  502    0  0.00000000000E+00  0.00000000000E+00  0.73487204965E+03  0.73487204965E+03  0.00000000000E+00 0.  1.
          2   -1    0    0  501    0 -0.00000000000E+00 -0.00000000000E+00 -0.15906461377E+02  0.15906461377E+02  0.00000000000E+00 0. -1.
          2    1    1    2  501    0 -0.21036319581E+02  0.39607631434E+02  0.70105321846E+03  0.70248623212E+03  0.00000000000E+00 0.  1.
          2    1    1    2  502    0  0.21036319581E+02 -0.39607631434E+02  0.17912369813E+02  0.48292278903E+02  0.00000000000E+00 0. -1.
</event>
<event>
 4    1  0.8391192E+003  0.4510961E+02  0.7546771E-02  0.1320892E+00
          2   -1    0    0  502    0  0.00000000000E+00  0.00000000000E+00  0.24870847097E+03  0.24870847097E+03  0.00000000000E+00 0.  1.
          2   -1    0    0  501    0 -0.00000000000E+00 -0.00000000000E+00 -0.56107975410E+02  0.56107975410E+02  0.00000000000E+00 0. -1.
          2    1    1    2  501    0 -0.43585110249E+02 -0.11628209498E+02  0.23715859705E+03  0.24141059887E+03  0.00000000000E+00 0.  1.
          2    1    1    2  502    0  0.43585110249E+02  0.11628209498E+02 -0.44558101484E+02  0.63405847517E+02  0.00000000000E+00 0. -1.
</event>
<event>
 4    1  0.8391192E+003  0.3542395E+02  0.7546771E-02  0.1377607E+00
          2   -1    0    0  501    0  0.00000000000E+00  0.00000000000E+00  0.15075527801E+03  0.15075527801E+03  0.00000000000E+00 0.  1.
          2   -1    0    0  502    0 -0.00000000000E+00 -0.00000000000E+00 -0.13518124407E+03  0.13518124407E+03  0.00000000000E+00 0.  1.
          2    1    1    2  501    0 -0.34015353368E+02 -0.98900103508E+01 -0.13070967370E+03  0.13542479599E+03  0.00000000000E+00 0.  1.
          2    1    1    2  502    0  0.34015353368E+02  0.98900103508E+01  0.14628370764E+03  0.15051172609E+03  0.00000000000E+00 0.  1.
</event>
<event>
 4    1  0.8391192E+003  0.2547198E+02  0.7546771E-02  0.1463592E+00
          2   -1    0    0  502    0  0.00000000000E+00  0.00000000000E+00  0.19242892878E+02  0.19242892878E+02  0.00000000000E+00 0. -1.
          2   -1    0    0  501    0 -0.00000000000E+00 -0.00000000000E+00 -0.16478093804E+04  0.16478093804E+04  0.00000000000E+00 0. -1.
          2    1    1    2  501    0  0.21634188914E+02 -0.13445583413E+02  0.10671009902E+02  0.27616884248E+02  0.00000000000E+00 0. -1.
          2    1    1    2  502    0 -0.21634188914E+02  0.13445583413E+02 -0.16392374975E+04  0.16394353891E+04  0.00000000000E+00 0. -1.
</event>
<event>
 4    1  0.8391192E+003  0.3269235E+02  0.7546771E-02  0.1397555E+00
          2   -1    0    0  501    0  0.00000000000E+00  0.00000000000E+00  0.19463028835E+04  0.19463028835E+04  0.00000000000E+00 0. -1.
          2   -1    0    0  502    0 -0.00000000000E+00 -0.00000000000E+00 -0.65162846690E+01  0.65162846690E+01  0.00000000000E+00 0.  1.
          2    1    1    2  501    0  0.85916465001E+01 -0.31543197234E+02  0.35530905720E+02  0.48282863861E+02  0.00000000000E+00 0.  1.
          2    1    1    2  502    0 -0.85916465001E+01  0.31543197234E+02  0.19042556931E+04  0.19045363043E+04  0.00000000000E+00 0. -1.
</event>
<event>
 4    1  0.8391192E+003  0.2446836E+02  0.7546771E-02  0.1474840E+00
          2   -1    0    0  501    0  0.00000000000E+00  0.00000000000E+00  0.10831006046E+04  0.10831006046E+04  0.00000000000E+00 0.  1.
          2   -1    0    0  502    0 -0.00000000000E+00 -0.00000000000E+00 -0.22576575809E+01  0.22576575809E+01  0.00000000000E+00 0.  1.
          2    1    1    2  501    0  0.20068182903E+02 -0.13998879615E+02  0.68833699683E+02  0.73053260075E+02  0.00000000000E+00 0.  1.
          2    1    1    2  502    0 -0.20068182903E+02  0.13998879615E+02  0.10120092474E+04  0.10123050022E+04  0.00000000000E+00 0.  1.
</event>
<event>
 4    1  0.8391192E+003  0.2027539E+02  0.7546771E-02  0.1529867E+00
          2   -1    0    0  502    0  0.00000000000E+00  0.00000000000E+00  0.48136923792E+02  0.48136923792E+02  0.00000000000E+00 0.  1.
          2   -1    0    0  501    0 -0.00000000000E+00 -0.00000000000E+00 -0.11620604317E+04  0.11620604317E+04  0.00000000000E+00 0. -1.
          2    1    1    2  501    0  0.17335533776E+02 -0.10515255159E+02  0.45909373121E+02  0.50187267934E+02  0.00000000000E+00 0.  1.
          2    1    1    2  502    0 -0.17335533776E+02  0.10515255159E+02 -0.11598328810E+04  0.11600100875E+04  0.00000000000E+00 0. -1.
</event>
<event>
 4    1  0.8391192E+003  0.2358661E+02  0.7546771E-02  0.1485261E+00
          2   -1    0    0  502    0  0.00000000000E+00  0.00000000000E+00  0.36003771230E+00  0.36003771230E+00  0.00000000000E+00 0. -1.
          2   -1    0    0  501    0 -0.00000000000E+00 -0.00000000000E+00 -0.15454275868E+04  0.15454275868E+04  0.00000000000E+00 0.  1.
          2    1    1    2  501    0  0.48926681235E+01 -0.23073577207E+02 -0.78203284254E+03  0.78238845530E+03  0.00000000000E+00 0.  1.
          2    1    1    2  502    0 -0.48926681235E+01  0.23073577207E+02 -0.76303470653E+03  0.76339916920E+03  0.00000000000E+00 0. -1.
</event>
<event>
 4    1  0.8391192E+003  0.2138848E+02  0.7546771E-02  0.1513790E+00
          2   -1    0    0  502    0  0.00000000000E+00  0.00000000000E+00  0.56356884419E+00  0.56356884419E+00  0.00000000000E+00 0. -1.
          2   -1    0    0  501    0 -0.00000000000E+00 -0.00000000000E+00 -0.15401348797E+04  0.15401348797E+04  0.00000000000E+00 0. -1.
          2    1    1    2  501    0 -0.15169244375E+02 -0.15078500377E+02 -0.24000762014E+03  0.24095876177E+03  0.00000000000E+00 0. -1.
          2    1    1    2  502    0  0.15169244375E+02  0.15078500377E+02 -0.12995636907E+04  0.12997396868E+04  0.00000000000E+00 0. -1.
</event>
<event>
 4    1  0.8391192E+003  0.2150513E+02  0.7546771E-02  0.1512174E+00
          2   -1    0    0  502    0  0.00000000000E+00  0.00000000000E+00  0.48111591555E+01  0.48111591555E+01  0.00000000000E+00 0. -1.
          2   -1    0    0  501    0 -0.00000000000E+00 -0.00000000000E+00 -0.11862156893E+04  0.11862156893E+04  0.00000000000E+00 0.  1.
          2    1    1    2  501    0 -0.90824902850E+01  0.19493047280E+02 -0.19827128906E+02  0.29250394231E+02  0.00000000000E+00 0. -1.
          2    1    1    2  502    0  0.90824902850E+01 -0.19493047280E+02 -0.11615774012E+04  0.11617764542E+04  0.00000000000E+00 0.  1.
</event>
<event>
 4    1  0.8391192E+003  0.2185714E+02  0.7546771E-02  0.1507370E+00
          2   -1    0    0  502    0  0.00000000000E+00  0.00000000000E+00  0.55330162052E+01  0.55330162052E+01  0.00000000000E+00 0.  1.
          2   -1    0    0  501    0 -0.00000000000E+00 -0.00000000000E+00 -0.61674746424E+03  0.61674746424E+03  0.00000000000E+00 0.  1.
          2    1    1    2  501    0  0.29955731976E+01  0.21650889024E+02 -0.17067052066E+02  0.27731186786E+02  0.00000000000E+00 0.  1.
          2    1    1    2  502    0 -0.29955731976E+01 -0.21650889024E+02 -0.59414739597E+03  0.59454929366E+03  0.00000000000E+00 0.  1.
</event>
<event>
 4    1  0.8391192E+003  0.4018306E+02  0.7546771E-02  0.1347416E+00
          2   -1    0    0  502    0  0.00000000000E+00  0.00000000000E+00  0.15331595538E+04  0.15331595538E+04  0.00000000000E+00 0.  1.
          2   -1    0    0  501    0 -0.00000000000E+00 -0.00000000000E+00 -0.85144947164E+02  0.85144947164E+02  0.00000000000E+00 0.  1.
          2    1    1    2  501    0 -0.39705834763E+02  0.61745578090E+01  0.15281397203E+04  0.15286679441E+04  0.00000000000E+00 0.  1.
          2    1    1    2  502    0  0.39705834763E+02 -0.61745578090E+01 -0.80125113703E+02  0.89636556852E+02  0.00000000000E+00 0.  1.
</event>
<event>
 4    1  0.8391192E+003  0.2255444E+02  0.7546771E-02  0.1498170E+00
          2   -1    0    0  501    0  0.00000000000E+00  0.00000000000E+00  0.75856199182E+03  0.75856199182E+03  0.00000000000E+00 0.  1.
          2   -1    0    0  502    0 -0.00000000000E+00 -0.00000000000E+00 -0.11924754094E+02  0.11924754094E+02  0.00000000000E+00 0.  1.
          2    1    1    2  501    0 -0.22007423907E+02 -0.49372015881E+01 -0.93551802866E+00  0.22573831321E+02  0.00000000000E+00 0.  1.
          2    1    1    2  502    0  0.22007423907E+02  0.49372015881E+01  0.74757275575E+03  0.74791291459E+03  0.00000000000E+00 0.  1.
</event>
<event>
 4    1  0.8391192E+003  0.2016384E+02  0.7546771E-02  0.1531546E+00
          2   -1    0    0  502    0  0.00000000000E+00  0.00000000000E+00  0.11140193153E+04  0.11140193153E+04  0.00000000000E+00 0.  1.
          2   -1    0    0  501    0 -0.00000000000E+00 -0.00000000000E+00 -0.24465282288E+01  0.24465282288E+01  0.00000000000E+00 0.  1.
          2    1    1    2  501    0 -0.41467163921E-01  0.20163793884E+02  0.10707006584E+04  0.10708905081E+04  0.00000000000E+00 0.  1.
          2    1    1    2  502    0  0.41467163921E-01 -0.20163793884E+02  0.40872128688E+02  0.45575335510E+02  0.00000000000E+00 0.  1.
</event>
<event>
 4    1  0.8391192E+003  0.1151740E+03  0.7546771E-02  0.1139834E+00
          2   -1    0    0  501    0  0.00000000000E+00  0.00000000000E+00  0.17116140459E+04  0.17116140459E+04  0.00000000000E+00 0. -1.
          2   -1    0    0  502    0 -0.00000000000E+00 -0.00000000000E+00 -0.26102136784E+02  0.26102136784E+02  0.00000000000E+00 0.  1.
          2    1    1    2  501    0 -0.97507225570E+02  0.61297477385E+02  0.11421507735E+03  0.16220395700E+03  0.00000000000E+00 0.  1.
          2    1    1    2  502    0  0.97507225570E+02 -0.61297477385E+02  0.15712968317E+04  0.15755122256E+04  0.00000000000E+00 0. -1.
</event>
<event>
 4    1  0.8391192E+003  0.2072777E+02  0.7546771E-02  0.1523187E+00
          2   -1    0    0  501    0  0.00000000000E+00  0.00000000000E+00  0.19296584800E+03  0.19296584800E+03  0.00000000000E+00 0. -1.
          2   -1    0    0  502    0 -0.00000000000E+00 -0.00000000000E+00 -0.60649251920E+01  0.60649251920E+01  0.00000000000E+00 0. -1.
          2    1    1    2  501    0 -0.14991850106E+02  0.14313797494E+02  0.14281765441E+02  0.25171594952E+02  0.00000000000E+00 0. -1.
          2    1    1    2  502    0  0.14991850106E+02 -0.14313797494E+02  0.17261915736E+03  0.17385917824E+03  0.00000000000E+00 0. -1.
</event>
<event>
 4    1  0.8391192E+003  0.2102875E+02  0.7546771E-02  0.1518855E+00
          2   -1    0    0  502    0  0.00000000000E+00  0.00000000000E+00  0.67359777086E+01  0.67359777086E+01  0.00000000000E+00 0.  1.
          2   -1    0    0  501    0 -0.00000000000E+00 -0.00000000000E+00 -0.20307383614E+03  0.20307383614E+03  0.00000000000E+00 0.  1.
          2    1    1    2  501    0 -0.10476243666E+02 -0.18233396254E+02 -0.11870707254E+02  0.24147921464E+02  0.00000000000E+00 0.  1.
          2    1    1    2  502    0  0.10476243666E+02  0.18233396254E+02 -0.18446715117E+03  0.18566189238E+03  0.00000000000E+00 0.  1.
</event>
<event>
 4    1  0.8391192E+003  0.2000292E+02  0.7546771E-02  0.1533991E+00
          2   -1    0    0  501    0  0.00000000000E+00  0.00000000000E+00  0.44755436994E+01  0.44755436994E+01  0.00000000000E+00 0. -1.
          2   -1    0    0  502    0 -0.00000000000E+00 -0.00000000000E+00 -0.73128876893E+03  0.73128876893E+03  0.00000000000E+00 0. -1.
          2    1    1    2  501    0  0.40994204505E+01  0.19578347626E+02 -0.70806901262E+03  0.70835149719E+03  0.00000000000E+00 0. -1.
          2    1    1    2  502    0 -0.40994204505E+01 -0.19578347626E+02 -0.18744212615E+02  0.27412815441E+02  0.00000000000E+00 0. -1.
</event>
<event>
 4    1  0.8391192E+003  0.4094035E+02  0.7546771E-02  0.1343062E+00
          2   -1    0    0  501    0  0.00000000000E+00  0.00000000000E+00  0.15660476602E+03  0.15660476602E+03  0.00000000000E+00 0. -1.
          2   -1    0    0  502    0 -0.00000000000E+00 -0.00000000000E+00 -0.37957594909E+02  0.37957594909E+02  0.00000000000E+00 0. -1.
          2    1    1    2  501    0  0.13988228799E+02 -0.38476508913E+02 -0.23109357538E+02  0.47012282319E+02  0.00000000000E+00 0. -1.
          2    1    1    2  502    0 -0.13988228799E+02  0.38476508913E+02  0.14175652865E+03  0.14755007861E+03  0.00000000000E+00 0. -1.
</event>
<event>
 4    1  0.8391192E+003  0.2303389E+02  0.7546771E-02  0.1492073E+00
          2   -1    0    0  501    0  0.00000000000E+00  0.00000000000E+00  0.17377627180E+03  0.17377627180E+03  0.00000000000E+00 0. -1.
          2   -1    0    0  502    0 -0.00000000000E+00 -0.00000000000E+00 -0.98787069918E+02  0.98787069918E+02  0.00000000000E+00 0. -1.
          2    1    1    2  501    0  0.14619854919E+02 -0.17799438759E+02 -0.96664574885E+02  0.99371023018E+02  0.00000000000E+00 0. -1.
          2    1    1    2  502    0 -0.14619854919E+02  0.17799438759E+02  0.17165377677E+03  0.17319231870E+03  0.00000000000E+00 0. -1.
</event>
<event>
 4    1  0.8391192E+003  0.2045775E+02  0.7546771E-02  0.1527149E+00
          2   -1    0    0  502    0  0.00000000000E+00  0.00000000000E+00  0.54277443381E+03  0.54277443381E+03  0.00000000000E+00 0. -1.
          2   -1    0    0  501    0 -0.00000000000E+00 -0.00000000000E+00 -0.77506494725E+00  0.77506494725E+00  0.00000000000E+00 0. -1.
          2    1    1    2  501    0 -0.62021480877E+01  0.19494948435E+02  0.29049982700E+03  0.29121928017E+03  0.00000000000E+00 0. -1.
          2    1    1    2  502    0  0.62021480877E+01 -0.19494948435E+02  0.25149954186E+03  0.25233021859E+03  0.00000000000E+00 0. -1.
</event>
<event>
 4    1  0.8391192E+003  0.2444420E+02  0.7546771E-02  0.1475118E+00
          2   -1    0    0  502    0  0.00000000000E+00  0.00000000000E+00  0.12438266839E+04  0.12438266839E+04  0.00000000000E+00 0.  1.
          2   -1    0    0  501    0 -0.00000000000E+00 -0.00000000000E+00 -0.58186663250E+01  0.58186663250E+01  0.00000000000E+00 0. -1.
          2    1    1    2  501    0  0.24125660461E+02  0.39333533596E+01  0.12174785539E+04  0.12177239211E+04  0.00000000000E+00 0.  1.
          2    1    1    2  502    0 -0.24125660461E+02 -0.39333533596E+01  0.20529463735E+02  0.31921429206E+02  0.00000000000E+00 0. -1.
</event>
<event>
 4    1  0.8391192E+003  0.4190177E+02  0.7546771E-02  0.1337688E+00
          2   -1    0    0  502    0  0.00000000000E+00  0.00000000000E+00  0.85451727176E+03  0.85451727176E+03  0.00000000000E+00 0. -1.
          2   -1    0    0  501    0 -0.00000000000E+00 -0.00000000000E+00 -0.64682331553E+02  0.64682331553E+02  0.00000000000E+00 0.  1.
          2    1    1    2  501    0 -0.27835261866E+02  0.31320223019E+02  0.84715861131E+03  0.84819424125E+03  0.00000000000E+00 0. -1.
          2    1    1    2  502    0  0.27835261866E+02 -0.31320223019E+02 -0.57323671102E+02  0.71005362064E+02  0.00000000000E+00 0.  1.
</event>
<event>
 4    1  0.8391192E+003  0.3034218E+02  0.7546771E-02  0.1416646E+00
          2   -1    0    0  502    0  0.00000000000E+00  0.00000000000E+00  0.14287542161E+02  0.14287542161E+02  0.00000000000E+00 0.  1.
          2   -1    0    0  501    0 -0.00000000000E+00 -0.00000000000E+00 -0.17178072688E+03  0.17178072688E+03  0.00000000000E+00 0.  1.
          2    1    1    2  501    0 -0.28890184833E+02 -0.92738960901E+01 -0.52032750456E+01  0.30785093789E+02  0.00000000000E+00 0.  1.
          2    1    1    2  502    0  0.28890184833E+02  0.92738960901E+01 -0.15228990967E+03  0.15528317525E+03  0.00000000000E+00 0.  1.
</event>
<event>
 4    1  0.8391192E+003  0.4017688E+02  0.7546771E-02  0.1347452E+00
          2   -1    0    0  501    0  0.00000000000E+00  0.00000000000E+00  0.25678442962E+01  0.25678442962E+01  0.00000000000E+00 0. -1.
          2   -1    0    0  502    0 -0.00000000000E+00 -0.00000000000E+00 -0.13034888761E+04  0.13034888761E+04  0.00000000000E+00 0. -1.
          2    1    1    2  501    0  0.39815682540E+02 -0.53752250109E+01 -0.18057704786E+03  0.18499257238E+03  0.00000000000E+00 0. -1.
          2    1    1    2  502    0 -0.39815682540E+02  0.53752250109E+01 -0.11203439840E+04  0.11210641481E+04  0.00000000000E+00 0. -1.
</event>
<event>
 4    1  0.1531962E+004  0.2915333E+02  0.7546771E-02  0.1427099E+00
          2   -1    0    0  501    0  0.00000000000E+00  0.00000000000E+00  0.12965148284E+04  0.12965148284E+04  0.00000000000E+00 0.  1.
          2   -1    0    0  502    0 -0.00000000000E+00 -0.00000000000E+00 -0.86587384284E+03  0.86587384284E+03  0.00000000000E+00 0.  1.
          2    1    1    2  501    0  0.11560825554E+02  0.26763105536E+02 -0.86546448780E+03  0.86595536614E+03  0.00000000000E+00 0.  1.
          2    1    1    2  502    0 -0.11560825554E+02 -0.26763105536E+02  0.12961054734E+04  0.12964333051E+04  0.00000000000E+00 0.  1.
</event>
<event>
 4    1  0.8391192E+003  0.2424315E+02  0.7546771E-02  0.1477451E+00
          2   -1    0    0  501    0  0.00000000000E+00  0.00000000000E+00  0.52521094569E+03  0.52521094569E+03  0.00000000000E+00 0. -1.
          2   -1    0    0  502    0 -0.00000000000E+00 -0.00000000000E+00 -0.55035460831E+02  0.55035460831E+02  0.00000000000E+00 0. -1.
          2    1    1    2  501    0 -0.73540563339E+01 -0.23100827471E+02 -0.52070773599E+02  0.57437756202E+02  0.00000000000E+00 0. -1.
          2    1    1    2  502    0  0.73540563339E+01  0.23100827471E+02  0.52224625846E+03  0.52280865032E+03  0.00000000000E+00 0. -1.
</event>
<event>
 4    1  0.8391192E+003  0.2237944E+02  0.7546771E-02  0.1500441E+00
          2   -1    0    0  501    0  0.00000000000E+00  0.00000000000E+00  0.86963361145E+02  0.86963361145E+02  0.00000000000E+00 0. -1.
          2   -1    0    0  502    0 -0.00000000000E+00 -0.00000000000E+00 -0.82101336750E+01  0.82101336750E+01  0.00000000000E+00 0. -1.
          2    1    1    2  501    0  0.13184313918E+02  0.18083501677E+02  0.13376400240E+02  0.26072346457E+02  0.00000000000E+00 0. -1.
          2    1    1    2  502    0 -0.13184313918E+02 -0.18083501677E+02  0.65376827230E+02  0.69101148363E+02  0.00000000000E+00 0. -1.
</event>
<event>
 4    1  0.8391192E+003  0.2838657E+02  0.7546771E-02  0.1434156E+00
          2   -1    0    0  502    0  0.00000000000E+00  0.00000000000E+00  0.12403082915E+04  0.12403082915E+04  0.00000000000E+00 0. -1.
          2   -1    0    0  501    0 -0.00000000000E+00 -0.00000000000E+00 -0.19899781684E+03  0.19899781684E+03  0.00000000000E+00 0.  1.
          2    1    1    2  501    0  0.25638224118E+02 -0.12185192010E+02  0.12391325929E+04  0.12394576960E+04  0.00000000000E+00 0. -1.
          2    1    1    2  502    0 -0.25638224118E+02  0.12185192010E+02 -0.19782211824E+03  0.19984841232E+03  0.00000000000E+00 0.  1.
</event>
<event>
 4    1  0.8391192E+003  0.2484531E+02  0.7546771E-02  0.1470541E+00
          2   -1    0    0  501    0  0.00000000000E+00  0.00000000000E+00  0.13250203300E+03  0.13250203300E+03  0.00000000000E+00 0. -1.
          2   -1    0    0  502    0 -0.00000000000E+00 -0.00000000000E+00 -0.15444344855E+04  0.15444344855E+04  0.00000000000E+00 0. -1.
          2    1    1    2  501    0  0.24740625495E+02 -0.22782963289E+01 -0.15431689301E+04  0.15433689241E+04  0.00000000000E+00 0. -1.
          2    1    1    2  502    0 -0.24740625495E+02  0.22782963289E+01  0.13123647764E+03  0.13356759430E+03  0.00000000000E+00 0. -1.
</event>
<event>
 4    1  0.8391192E+003  0.3592628E+02  0.7546771E-02  0.1374166E+00
          2   -1    0    0  502    0  0.00000000000E+00  0.00000000000E+00  0.67551955163E+02  0.67551955163E+02  0.00000000000E+00 0.  1.
          2   -1    0    0  501    0 -0.00000000000E+00 -0.00000000000E+00 -0.13093001492E+03  0.13093001492E+03  0.00000000000E+00 0. -1.
          2    1    1    2  501    0  0.20741025234E+02 -0.29334408336E+02  0.60025376892E+02  0.69955296520E+02  0.00000000000E+00 0.  1.
          2    1    1    2  502    0 -0.20741025234E+02  0.29334408336E+02 -0.12340343665E+03  0.12852667357E+03  0.00000000000E+00 0. -1.
</event>
<event>
 4    1  0.8391192E+003  0.2533821E+02  0.7546771E-02  0.1465055E+00
          2   -1    0    0  501    0  0.00000000000E+00  0.00000000000E+00  0.90443898151E+03  0.90443898151E+03  0.00000000000E+00 0. -1.
          2   -1    0    0  502    0 -0.00000000000E+00 -0.00000000000E+00 -0.45315814990E+01  0.45315814990E+01  0.00000000000E+00 0. -1.
          2    1    1    2  501    0 -0.25175938755E+02 -0.28630047648E+01  0.32580589058E+02  0.41273714054E+02  0.00000000000E+00 0. -1.
          2    1    1    2  502    0  0.25175938755E+02  0.28630047648E+01  0.86732681095E+03  0.86769684895E+03  0.00000000000E+00 0. -1.
</event>
<event>
 4    1  0.8391192E+003  0.2178851E+02  0.7546771E-02  0.1508298E+00
          2   -1    0    0  501    0  0.00000000000E+00  0.00000000000E+00  0.10077030733E+02  0.10077030733E+02  0.00000000000E+00 0. -1.
          2   -1    0    0  502    0 -0.00000000000E+00 -0.00000000000E+00 -0.50459517349E+03  0.50459517349E+03  0.00000000000E+00 0.  1.
          2    1    1    2  501    0 -0.30310329028E+01 -0.21576654851E+02 -0.49228790916E+03  0.49276984963E+03  0.00000000000E+00 0.  1.
          2    1    1    2  502    0  0.30310329028E+01  0.21576654851E+02 -0.22302335976E+01  0.21902354598E+02  0.00000000000E+00 0. -1.
</event>
<event>
 4    1  0.8391192E+003  0.2418646E+02  0.7546771E-02  0.1478114E+00
          2   -1    0    0  501    0  0.00000000000E+00  0.00000000000E+00  0.82669200982E+01  0.82669200982E+01  0.00000000000E+00 0. -1.
          2   -1    0    0  502    0 -0.00000000000E+00 -0.00000000000E+00 -0.96983540321E+03  0.96983540321E+03  0.00000000000E+00 0. -1.
          2    1    1    2  501    0 -0.16375731597E+02 -0.17799443456E+02 -0.95165619654E+03  0.95196349782E+03  0.00000000000E+00 0. -1.
          2    1    1    2  502    0  0.16375731597E+02  0.17799443456E+02 -0.99122865702E+01  0.26138825485E+02  0.00000000000E+00 0. -1.
</event>
<event>
 4    1  0.8391192E+003  0.2440241E+02  0.7546771E-02  0.1475601E+00
          2   -1    0    0  502    0  0.00000000000E+00  0.00000000000E+00  0.17380276987E+02  0.17380276987E+02  0.00000000000E+00 0. -1.
          2   -1    0    0  501    0 -0.00000000000E+00 -0.00000000000E+00 -0.45347661888E+03  0.45347661888E+03  0.00000000000E+00 0. -1.
          2    1    1    2  501    0 -0.16614973630E+01  0.24345780756E+02  0.83119207010E+01  0.25779170659E+02  0.00000000000E+00 0. -1.
          2    1    1    2  502    0  0.16614973630E+01 -0.24345780756E+02 -0.44440826260E+03  0.44507772521E+03  0.00000000000E+00 0. -1.
</event>
<event>
 4    1  0.8391192E+003  0.2657126E+02  0.7546771E-02  0.1451963E+00
          2   -1    0    0  501    0  0.00000000000E+00  0.00000000000E+00  0.10786320634E+04  0.10786320634E+04  0.00000000000E+00 0. -1.
          2   -1    0    0  502    0 -0.00000000000E+00 -0.00000000000E+00 -0.19296133220E+01  0.19296133220E+01  0.00000000000E+00 0. -1.
          2    1    1    2  501    0  0.26376018352E+02  0.32152074268E+01  0.99165516288E+02  0.10266368162E+03  0.00000000000E+00 0. -1.
          2    1    1    2  502    0 -0.26376018352E+02 -0.32152074268E+01  0.97753693383E+03  0.97789799514E+03  0.00000000000E+00 0. -1.
</event>
<event>
 4    1  0.1411837E+004  0.2472866E+02  0.7546771E-02  0.1471862E+00
          2   -1    0    0  501    0  0.00000000000E+00  0.00000000000E+00  0.82918446295E+03  0.82918446295E+03  0.00000000000E+00 0. -1.
          2   -1    0    0  502    0 -0.00000000000E+00 -0.00000000000E+00 -0.86867415229E+03  0.86867415229E+03  0.00000000000E+00 0. -1.
          2    1    1    2  501    0 -0.22550543156E+02  0.10147882713E+02 -0.86831371744E+03  0.86866576911E+03  0.00000000000E+00 0. -1.
          2    1    1    2  502    0  0.22550543156E+02 -0.10147882713E+02  0.82882402810E+03  0.82919284613E+03  0.00000000000E+00 0. -1.
</event>
<event>
 4    1  0.8391192E+003  0.2175150E+02  0.7546771E-02  0.1508800E+00
          2   -1    0    0  501    0  0.00000000000E+00  0.00000000000E+00  0.15126114992E+01  0.15126114992E+01  0.00000000000E+00 0. -1.
          2   -1    0    0  502    0 -0.00000000000E+00 -0.00000000000E+00 -0.78064374347E+03  0.78064374347E+03  0.00000000000E+00 0. -1.
          2    1    1    2  501    0  0.19262508476E+02  0.10103649070E+02 -0.69232155685E+03  0.69266316925E+03  0.00000000000E+00 0. -1.
          2    1    1    2  502    0 -0.19262508476E+02 -0.10103649070E+02 -0.86809575115E+02  0.89493185713E+02  0.00000000000E+00 0. -1.
</event>
<event>
 4    1  0.8391192E+003  0.3132320E+02  0.7546771E-02  0.1408436E+00
          2   -1    0    0  502    0  0.00000000000E+00  0.00000000000E+00  0.49006592445E+02  0.49006592445E+02  0.00000000000E+00 0. -1.
          2   -1    0    0  501    0 -0.00000000000E+00 -0.00000000000E+00 -0.24838025141E+02  0.24838025141E+02  0.00000000000E+00 0. -1.
          2    1    1    2  501    0 -0.49248397879E+01 -0.30933619843E+02  0.28344878453E+02  0.42244230589E+02  0.00000000000E+00 0. -1.
          2    1    1    2  502    0  0.49248397879E+01  0.30933619843E+02 -0.41763111488E+01  0.31600386997E+02  0.00000000000E+00 0. -1.
</event>
<event>
 4    1  0.8391192E+003  0.2000131E+02  0.7546771E-02  0.1534016E+00
          2   -1    0    0  501    0  0.00000000000E+00  0.00000000000E+00  0.51270400464E+03  0.51270400464E+03  0.00000000000E+00 0. -1.
          2   -1    0    0  502    0 -0.00000000000E+00 -0.00000000000E+00 -0.15272574996E+02  0.15272574996E+02  0.00000000000E+00 0.  1.
          2    1    1    2  501    0 -0.18130359545E+02  0.84464364719E+01 -0.84405597276E+01  0.21709336121E+02  0.00000000000E+00 0.  1.
          2    1    1    2  502    0  0.18130359545E+02 -0.84464364719E+01  0.50587198937E+03  0.50626724352E+03  0.00000000000E+00 0. -1.
</event>
<event>
 4    1  0.1171632E+004  0.2236196E+02  0.7546771E-02  0.1500669E+00
          2   -1    0    0  501    0  0.00000000000E+00  0.00000000000E+00  0.70227172534E+03  0.70227172534E+03  0.00000000000E+00 0. -1.
          2   -1    0    0  502    0 -0.00000000000E+00 -0.00000000000E+00 -0.77924157645E+03  0.77924157645E+03  0.00000000000E+00 0. -1.
          2    1    1    2  501    0 -0.95099891915E+01 -0.20239007915E+02 -0.77890305412E+03  0.77922398902E+03  0.00000000000E+00 0. -1.
          2    1    1    2  502    0  0.95099891915E+01  0.20239007915E+02  0.70193320301E+03  0.70228931277E+03  0.00000000000E+00 0. -1.
</event>
<event>
 4    1  0.8391192E+003  0.2248383E+02  0.7546771E-02  0.1499083E+00
          2   -1    0    0  502    0  0.00000000000E+00  0.00000000000E+00  0.11996427154E+04  0.11996427154E+04  0.00000000000E+00 0. -1.
          2   -1    0    0  501    0 -0.00000000000E+00 -0.00000000000E+00 -0.27399306192E+03  0.27399306192E+03  0.00000000000E+00 0.  1.
          2    1    1    2  501    0  0.22475861129E+02 -0.59861739097E+00  0.11990758938E+04  0.11992866720E+04  0.00000000000E+00 0. -1.
          2    1    1    2  502    0 -0.22475861129E+02  0.59861739097E+00 -0.27342624031E+03  0.27434910528E+03  0.00000000000E+00 0.  1.
</event>
<event>
 4    1  0.8391192E+003  0.2740978E+02  0.7546771E-02  0.1443535E+00
          2   -1    0    0  501    0  0.00000000000E+00  0.00000000000E+00  0.83973631902E+03  0.83973631902E+03  0.00000000000E+00 0. -1.
          2   -1    0    0  502    0 -0.00000000000E+00 -0.00000000000E+00 -0.28852066991E+02  0.28852066991E+02  0.00000000000E+00 0. -1.
          2    1    1    2  501    0 -0.22564179740E+02  0.15561299280E+02 -0.22065470926E+02  0.35187799729E+02  0.00000000000E+00 0. -1.
          2    1    1    2  502    0  0.22564179740E+02 -0.15561299280E+02  0.83294972295E+03  0.83340058628E+03  0.00000000000E+00 0. -1.
</event>
<event>
 4    1  0.8391192E+003  0.2526860E+02  0.7546771E-02  0.1465821E+00
          2   -1    0    0  502    0  0.00000000000E+00  0.00000000000E+00  0.20727931574E+02  0.20727931574E+02  0.00000000000E+00 0. -1.
          2   -1    0    0  501    0 -0.00000000000E+00 -0.00000000000E+00 -0.34782508234E+03  0.34782508234E+03  0.00000000000E+00 0.  1.
          2    1    1    2  501    0 -0.24700437101E+02  0.53282613728E+01  0.12378886170E+02  0.28137853242E+02  0.00000000000E+00 0. -1.
          2    1    1    2  502    0  0.24700437101E+02 -0.53282613728E+01 -0.33947603693E+03  0.34041516067E+03  0.00000000000E+00 0.  1.
</event>
<event>
 4    1  0.8391192E+003  0.4528043E+02  0.7546771E-02  0.1320043E+00
          2   -1    0    0  502    0  0.00000000000E+00  0.00000000000E+00  0.54005389676E+02  0.54005389676E+02  0.00000000000E+00 0. -1.
          2   -1    0    0  501    0 -0.00000000000E+00 -0.00000000000E+00 -0.19437181809E+03  0.19437181809E+03  0.00000000000E+00 0. -1.
          2    1    1    2  501    0 -0.32620074588E+02 -0.31404584150E+02  0.41218755878E+02  0.61231552389E+02  0.00000000000E+00 0. -1.
          2    1    1    2  502    0  0.32620074588E+02  0.31404584150E+02 -0.18158518429E+03  0.18714565537E+03  0.00000000000E+00 0. -1.
</event>
<event>
 4    1  0.8391192E+003  0.2338304E+02  0.7546771E-02  0.1487743E+00
          2   -1    0    0  502    0  0.00000000000E+00  0.00000000000E+00  0.12193571569E+01  0.12193571569E+01  0.00000000000E+00 0. -1.
          2   -1    0    0  501    0 -0.00000000000E+00 -0.00000000000E+00 -0.54186115976E+03  0.54186115976E+03  0.00000000000E+00 0. -1.
          2    1    1    2  501    0 -0.23129268779E+02 -0.34356479512E+01 -0.15755119307E+03  0.15927694494E+03  0.00000000000E+00 0. -1.
          2    1    1    2  502    0  0.23129268779E+02  0.34356479512E+01 -0.38309060953E+03  0.38380357197E+03  0.00000000000E+00 0. -1.
</event>
<event>
 4    1  0.8391192E+003  0.2403379E+02  0.7546771E-02  0.1479909E+00
          2   -1    0    0  501    0  0.00000000000E+00  0.00000000000E+00  0.38869590767E+03  0.38869590767E+03  0.00000000000E+00 0.  1.
          2   -1    0    0  502    0 -0.00000000000E+00 -0.00000000000E+00 -0.89034708410E+02  0.89034708410E+02  0.00000000000E+00 0.  1.
          2    1    1    2  501    0 -0.99581190248E+01 -0.21873699040E+02 -0.87032903475E+02  0.90290360125E+02  0.00000000000E+00 0.  1.
          2    1    1    2  502    0  0.99581190248E+01  0.21873699040E+02  0.38669410274E+03  0.38744025596E+03  0.00000000000E+00 0.  1.
</event>
<event>
 4    1  0.8391192E+003  0.2197430E+02  0.7546771E-02  0.1505796E+00
          2   -1    0    0  501    0  0.00000000000E+00  0.00000000000E+00  0.59327134574E+03  0.59327134574E+03  0.00000000000E+00 0.  1.
          2   -1    0    0  502    0 -0.00000000000E+00 -0.00000000000E+00 -0.84942704468E+00  0.84942704468E+00  0.00000000000E+00 0.  1.
          2    1    1    2  501    0 -0.37604141710E+01 -0.21650154640E+02  0.35695388175E+03  0.35762961791E+03  0.00000000000E+00 0.  1.
          2    1    1    2  502    0  0.37604141710E+01  0.21650154640E+02  0.23546803695E+03  0.23649115488E+03  0.00000000000E+00 0.  1.
</event>
<event>
 4    1  0.8391192E+003  0.2577067E+02  0.7546771E-02  0.1460364E+00
          2   -1    0    0  501    0  0.00000000000E+00  0.00000000000E+00  0.77003085445E+03  0.77003085445E+03  0.00000000000E+00 0.  1.
          2   -1    0    0  502    0 -0.00000000000E+00 -0.00000000000E+00 -0.14210157612E+03  0.14210157612E+03  0.00000000000E+00 0. -1.
          2    1    1    2  501    0  0.14190147084E+02 -0.21512027073E+02 -0.14071544957E+03  0.14305581195E+03  0.00000000000E+00 0. -1.
          2    1    1    2  502    0 -0.14190147084E+02  0.21512027073E+02  0.76864472790E+03  0.76907661862E+03  0.00000000000E+00 0.  1.
</event>
<event>
 4    1  0.8391192E+003  0.3582886E+02  0.7546771E-02  0.1374828E+00
          2   -1    0    0  502    0  0.00000000000E+00  0.00000000000E+00  0.30172299148E+03  0.30172299148E+03  0.00000000000E+00 0. -1.
          2   -1    0    0  501    0 -0.00000000000E+00 -0.00000000000E+00 -0.32532468962E+02  0.32532468962E+02  0.00000000000E+00 0.  1.
          2    1    1    2  501    0  0.18804531862E+02 -0.30497491384E+02  0.29041175386E+03  0.29261355775E+03  0.00000000000E+00 0. -1.
          2    1    1    2  502    0 -0.18804531862E+02  0.30497491384E+02 -0.21221231349E+02  0.41641902685E+02  0.00000000000E+00 0.  1.
</event>
<event>
 4    1  0.8391192E+003  0.2897318E+02  0.7546771E-02  0.1428734E+00
          2   -1    0    0  501    0  0.00000000000E+00  0.00000000000E+00  0.14514757514E+03  0.14514757514E+03  0.00000000000E+00 0.  1.
          2   -1    0    0  502    0 -0.00000000000E+00 -0.00000000000E+00 -0.62790370022E+02  0.62790370022E+02  0.00000000000E+00 0.  1.
          2    1    1    2  501    0 -0.28017434005E+02  0.73802690505E+01 -0.57886626917E+02  0.64732577234E+02  0.00000000000E+00 0.  1.
          2    1    1    2  502    0  0.28017434005E+02 -0.73802690505E+01  0.14024383203E+03  0.14320536792E+03  0.00000000000E+00 0.  1.
</event>
<event>
 4    1  0.8391192E+003  0.3715519E+02  0.7546771E-02  0.1366014E+00
          2   -1    0    0  501    0  0.00000000000E+00  0.00000000000E+00  0.52971305376E+02  0.52971305376E+02  0.00000000000E+00 0.  1.
          2   -1    0    0  502    0 -0.00000000000E+00 -0.00000000000E+00 -0.71148553045E+02  0.71148553045E+02  0.00000000000E+00 0.  1.
          2    1    1    2  501    0  0.22147639664E+02  0.29832705934E+02 -0.58491754728E+02  0.69294975699E+02  0.00000000000E+00 0.  1.
          2    1    1    2  502    0 -0.22147639664E+02 -0.29832705934E+02  0.40314507059E+02  0.54824882722E+02  0.00000000000E+00 0.  1.
</event>
<event>
 4    1  0.1452158E+004  0.2285276E+02  0.7546771E-02  0.1494355E+00
          2   -1    0    0  501    0  0.00000000000E+00  0.00000000000E+00  0.12170324673E+04  0.12170324673E+04  0.00000000000E+00 0.  1.
          2   -1    0    0  502    0 -0.00000000000E+00 -0.00000000000E+00 -0.95899329434E+03  0.95899329434E+03  0.00000000000E+00 0.  1.
          2    1    1    2  501    0 -0.14320735427E+02  0.17809126370E+02 -0.95874984307E+03  0.95902216347E+03  0.00000000000E+00 0.  1.
          2    1    1    2  502    0  0.14320735427E+02 -0.17809126370E+02  0.12167890160E+04  0.12170035982E+04  0.00000000000E+00 0.  1.
</event>
<event>
 4    1  0.8391192E+003  0.3928186E+02  0.7546771E-02  0.1352746E+00
          2   -1    0    0  501    0  0.00000000000E+00  0.00000000000E+00  0.68480251019E+03  0.68480251019E+03  0.00000000000E+00 0.  1.
          2   -1    0    0  502    0 -0.00000000000E+00 -0.00000000000E+00 -0.22932410937E+02  0.22932410937E+02  0.00000000000E+00 0. -1.
          2    1    1    2  501    0 -0.38299793806E+02  0.87287171109E+01 -0.50977848886E+01  0.39611262524E+02  0.00000000000E+00 0. -1.
          2    1    1    2  502    0  0.38299793806E+02 -0.87287171109E+01  0.66696788414E+03  0.66812365860E+03  0.00000000000E+00 0.  1.
</event>
<event>
 4    1  0.8391192E+003  0.2184078E+02  0.7546771E-02  0.1507591E+00
          2   -1    0    0  501    0  0.00000000000E+00  0.00000000000E+00  0.83875529170E+02  0.83875529170E+02  0.00000000000E+00 0. -1.
          2   -1    0    0  502    0 -0.00000000000E+00 -0.00000000000E+00 -0.63706823728E+03  0.63706823728E+03  0.00000000000E+00 0.  1.
          2    1    1    2  501    0 -0.20747280172E+02  0.68242173399E+01 -0.63545562897E+03  0.63583085484E+03  0.00000000000E+00 0.  1.
          2    1    1    2  502    0  0.20747280172E+02 -0.68242173399E+01  0.82262920853E+02  0.85112911618E+02  0.00000000000E+00 0. -1.
</event>
<event>
 4    1  0.8391192E+003  0.2606249E+02  0.7546771E-02  0.1457260E+00
          2   -1    0    0  501    0  0.00000000000E+00  0.00000000000E+00  0.47450701482E+01  0.47450701482E+01  0.00000000000E+00 0. -1.
          2   -1    0    0  502    0 -0.00000000000E+00 -0.00000000000E+00 -0.16458517198E+03  0.16458517198E+03  0.00000000000E+00 0. -1.
          2    1    1    2  501    0 -0.25344382822E+02 -0.60758048839E+01 -0.49365180153E+02  0.55822702882E+02  0.00000000000E+00 0. -1.
          2    1    1    2  502    0  0.25344382822E+02  0.60758048839E+01 -0.11047492168E+03  0.11350753925E+03  0.00000000000E+00 0. -1.
</event>
<event>
 4    1  0.8391192E+003  0.2604650E+02  0.7546771E-02  0.1457429E+00
          2   -1    0    0  501    0  0.00000000000E+00  0.00000000000E+00  0.79546601731E+03  0.79546601731E+03  0.00000000000E+00 0. -1.
          2   -1    0    0  502    0 -0.00000000000E+00 -0.00000000000E+00 -0.15881328598E+03  0.15881328598E+03  0.00000000000E+00 0. -1.
          2    1    1    2  501    0 -0.17007423249E+02  0.19727335360E+02 -0.15753039407E+03  0.15966917443E+03  0.00000000000E+00 0. -1.
          2    1    1    2  502    0  0.17007423249E+02 -0.19727335360E+02  0.79418312540E+03  0.79461012885E+03  0.00000000000E+00 0. -1.
</event>
<event>
 4    1  0.8391192E+003  0.2706698E+02  0.7546771E-02  0.1446936E+00
          2   -1    0    0  501    0  0.00000000000E+00  0.00000000000E+00  0.27248931402E+01  0.27248931402E+01  0.00000000000E+00 0. -1.
          2   -1    0    0  502    0 -0.00000000000E+00 -0.00000000000E+00 -0.20102392341E+04  0.20102392341E+04  0.00000000000E+00 0.  1.
          2    1    1    2  501    0 -0.26701428522E+02 -0.44334352876E+01 -0.19405175930E+04  0.19407063534E+04  0.00000000000E+00 0.  1.
          2    1    1    2  502    0  0.26701428522E+02  0.44334352876E+01 -0.66996747931E+02  0.72257773747E+02  0.00000000000E+00 0. -1.
</event>
<event>
 4    1  0.8391192E+003  0.2903237E+02  0.7546771E-02  0.1428196E+00
          2   -1    0    0  502    0  0.00000000000E+00  0.00000000000E+00  0.36264058455E+02  0.36264058455E+02  0.00000000000E+00 0. -1.
          2   -1    0    0  501    0 -0.00000000000E+00 -0.00000000000E+00 -0.49975368952E+03  0.49975368952E+03  0.00000000000E+00 0.  1.
          2    1    1    2  501    0 -0.28889341761E+02 -0.28782371400E+01  0.29957511140E+02  0.41717272084E+02  0.00000000000E+00 0. -1.
          2    1    1    2  502    0  0.28889341761E+02  0.28782371400E+01 -0.49344714221E+03  0.49430047590E+03  0.00000000000E+00 0.  1.
</event>
<event>
 4    1  0.8391192E+003  0.3473858E+02  0.7546771E-02  0.1382410E+00
          2   -1    0    0  501    0  0.00000000000E+00  0.00000000000E+00  0.20789717557E+02  0.20789717557E+02  0.00000000000E+00 0.  1.
          2   -1    0    0  502    0 -0.00000000000E+00 -0.00000000000E+00 -0.73586113015E+03  0.73586113015E+03  0.00000000000E+00 0. -1.
          2    1    1    2  501    0  0.33887263613E+02  0.76434612660E+01 -0.72063305988E+03  0.72146987194E+03  0.00000000000E+00 0. -1.
          2    1    1    2  502    0 -0.33887263613E+02 -0.76434612660E+01  0.55616472825E+01  0.35180975765E+02  0.00000000000E+00 0.  1.
</event>
<event>
 4    1  0.8391192E+003  0.2766365E+02  0.7546771E-02  0.1441053E+00
          2   -1    0    0  502    0  0.00000000000E+00  0.00000000000E+00  0.39505360515E+01  0.39505360515E+01  0.00000000000E+00 0. -1.
          2   -1    0    0  501    0 -0.00000000000E+00 -0.00000000000E+00 -0.38080470656E+03  0.38080470656E+03  0.00000000000E+00 0. -1.
          2    1    1    2  501    0  0.99083083675E+01  0.25828338926E+02 -0.53584065897E+02  0.60303646527E+02  0.00000000000E+00 0. -1.
          2    1    1    2  502    0 -0.99083083675E+01 -0.25828338926E+02 -0.32327010462E+03  0.32445159609E+03  0.00000000000E+00 0. -1.
</event>
<event>
 4    1  0.8391192E+003  0.2300963E+02  0.7546771E-02  0.1492377E+00
          2   -1    0    0  502    0  0.00000000000E+00  0.00000000000E+00  0.10950460256E+04  0.10950460256E+04  0.00000000000E+00 0.  1.
          2   -1    0    0  501    0 -0.00000000000E+00 -0.00000000000E+00 -0.51056448421E+00  0.51056448421E+00  0.00000000000E+00 0.  1.
          2    1    1    2  501    0  0.10048369903E+02  0.20699602234E+02  0.67341083517E+03  0.67380382619E+03  0.00000000000E+00 0.  1.
          2    1    1    2  502    0 -0.10048369903E+02 -0.20699602234E+02  0.42112462593E+03  0.42175276388E+03  0.00000000000E+00 0.  1.
</event>
<event>
 4    1  0.8391192E+003  0.3973825E+02  0.7546771E-02  0.1350027E+00
          2   -1    0    0  501    0  0.00000000000E+00  0.00000000000E+00  0.61041799770E+02  0.61041799770E+02  0.00000000000E+00 0.  1.
          2   -1    0    0  502    0 -0.00000000000E+00 -0.00000000000E+00 -0.13841842035E+03  0.13841842035E+03  0.00000000000E+00 0. -1.
          2    1    1    2  501    0  0.48413034337E+01  0.39442239130E+02 -0.12861731361E+03  0.13461627616E+03  0.00000000000E+00 0. -1.
          2    1    1    2  502    0 -0.48413034337E+01 -0.39442239130E+02  0.51240693029E+02  0.64843943963E+02  0.00000000000E+00 0.  1.
</event>
<event>
 4    1  0.8391192E+003  0.2532048E+02  0.7546771E-02  0.1465250E+00
          2   -1    0    0  502    0  0.00000000000E+00  0.00000000000E+00  0.54229352649E+03  0.54229352649E+03  0.00000000000E+00 0.  1.
          2   -1    0    0  501    0 -0.00000000000E+00 -0.00000000000E+00 -0.22712307823E+02  0.22712307823E+02  0.00000000000E+00 0.  1.
          2    1    1    2  501    0 -0.42371516131E+01 -0.24963439017E+02  0.53484266681E+03  0.53544169149E+03  0.00000000000E+00 0.  1.
          2    1    1    2  502    0  0.42371516131E+01  0.24963439017E+02 -0.15261448146E+02  0.29564142823E+02  0.00000000000E+00 0.  1.
</event>
<event>
 4    1  0.8391192E+003  0.2542870E+02  0.7546771E-02  0.1464064E+00
          2   -1    0    0  501    0  0.00000000000E+00  0.00000000000E+00  0.12089599583E+03  0.12089599583E+03  0.00000000000E+00 0. -1.
          2   -1    0    0  502    0 -0.00000000000E+00 -0.00000000000E+00 -0.91299694260E+03  0.91299694260E+03  0.00000000000E+00 0. -1.
          2    1    1    2  501    0 -0.18479094591E+02  0.17468305866E+02 -0.91148052082E+03  0.91183515971E+03  0.00000000000E+00 0. -1.
          2    1    1    2  502    0  0.18479094591E+02 -0.17468305866E+02  0.11937957405E+03  0.12205777872E+03  0.00000000000E+00 0. -1.
</event>
<event>
 4    1  0.8391192E+003  0.7249371E+02  0.7546771E-02  0.1222435E+00
          2   -1    0    0  502    0  0.00000000000E+00  0.00000000000E+00  0.15464170099E+03  0.15464170099E+03  0.00000000000E+00 0.  1.
          2   -1    0    0  501    0 -0.00000000000E+00 -0.00000000000E+00 -0.19024706778E+04  0.19024706778E+04  0.00000000000E+00 0. -1.
          2    1    1    2  501    0  0.93535055983E+01  0.71887760841E+02  0.14541372006E+03  0.16248227044E+03  0.00000000000E+00 0.  1.
          2    1    1    2  502    0 -0.93535055983E+01 -0.71887760841E+02 -0.18932426969E+04  0.18946301084E+04  0.00000000000E+00 0. -1.
</event>
<event>
 4    1  0.8391192E+003  0.5359797E+02  0.7546771E-02  0.1283284E+00
          2   -1    0    0  501    0  0.00000000000E+00  0.00000000000E+00  0.11587454125E+04  0.11587454125E+04  0.00000000000E+00 0.  1.
          2   -1    0    0  502    0 -0.00000000000E+00 -0.00000000000E+00 -0.75875188684E+01  0.75875188684E+01  0.00000000000E+00 0.  1.
          2    1    1    2  501    0 -0.36627425351E+02  0.39130225913E+02  0.97078510737E+02  0.11089174953E+03  0.00000000000E+00 0.  1.
          2    1    1    2  502    0  0.36627425351E+02 -0.39130225913E+02  0.10540793829E+04  0.10554411818E+04  0.00000000000E+00 0.  1.
</event>
<event>
 4    1  0.1478170E+004  0.3172968E+02  0.7546771E-02  0.1405138E+00
          2   -1    0    0  501    0  0.00000000000E+00  0.00000000000E+00  0.20905818715E+04  0.20905818715E+04  0.00000000000E+00 0. -1.
          2   -1    0    0  502    0 -0.00000000000E+00 -0.00000000000E+00 -0.10145997480E+04  0.10145997480E+04  0.00000000000E+00 0.  1.
          2    1    1    2  501    0  0.73927804815E+01  0.30856436610E+02 -0.10142312390E+04  0.10147274407E+04  0.00000000000E+00 0.  1.
          2    1    1    2  502    0 -0.73927804815E+01 -0.30856436610E+02  0.20902133624E+04  0.20904541787E+04  0.00000000000E+00 0. -1.
</event>
<event>
 4    1  0.8391192E+003  0.2524015E+02  0.7546771E-02  0.1466135E+00
          2   -1    0    0  502    0  0.00000000000E+00  0.00000000000E+00  0.15772846964E+01  0.15772846964E+01  0.00000000000E+00 0.  1.
          2   -1    0    0  501    0 -0.00000000000E+00 -0.00000000000E+00 -0.41863937279E+03  0.41863937279E+03  0.00000000000E+00 0. -1.
          2    1    1    2  501    0  0.80658113534E+01 -0.23916686899E+02 -0.16910680399E+03  0.17098004673E+03  0.00000000000E+00 0.  1.
          2    1    1    2  502    0 -0.80658113534E+01  0.23916686899E+02 -0.24795528410E+03  0.24923661075E+03  0.00000000000E+00 0. -1.
</event>
<event>
 4    1  0.8391192E+003  0.3018787E+02  0.7546771E-02  0.1417971E+00
          2   -1    0    0  502    0  0.00000000000E+00  0.00000000000E+00  0.35113251624E+03  0.35113251624E+03  0.00000000000E+00 0.  1.
          2   -1    0    0  501    0 -0.00000000000E+00 -0.00000000000E+00 -0.61270499596E+02  0.61270499596E+02  0.00000000000E+00 0. -1.
          2    1    1    2  501    0  0.23650727927E+02  0.18760343971E+02  0.34671805057E+03  0.34802976027E+03  0.00000000000E+00 0.  1.
          2    1    1    2  502    0 -0.23650727927E+02 -0.18760343971E+02 -0.56856033934E+02  0.64373255566E+02  0.00000000000E+00 0. -1.
</event>
<event>
 4    1  0.8391192E+003  0.2113729E+02  0.7546771E-02  0.1517314E+00
          2   -1    0    0  502    0  0.00000000000E+00  0.00000000000E+00  0.52992045645E+02  0.52992045645E+02  0.00000000000E+00 0. -1.
          2   -1    0    0  501    0 -0.00000000000E+00 -0.00000000000E+00 -0.30435012956E+03  0.30435012956E+03  0.00000000000E+00 0.  1.
          2    1    1    2  501    0 -0.20449780193E+02  0.53471065368E+01  0.50499872483E+02  0.54745065340E+02  0.00000000000E+00 0. -1.
          2    1    1    2  502    0  0.20449780193E+02 -0.53471065368E+01 -0.30185795640E+03  0.30259710986E+03  0.00000000000E+00 0.  1.
</event>
<event>
 4    1  0.8391192E+003  0.4957513E+02  0.7546771E-02  0.1300025E+00
          2   -1    0    0  501    0  0.00000000000E+00  0.00000000000E+00  0.11646204296E+04  0.11646204296E+04  0.00000000000E+00 0.  1.
          2   -1    0    0  502    0 -0.00000000000E+00 -0.00000000000E+00 -0.34108091310E+01  0.34108091310E+01  0.00000000000E+00 0.  1.
          2    1    1    2  501    0  0.49525379192E+02  0.22205060579E+01  0.21998205674E+03  0.22549900026E+03  0.00000000000E+00 0.  1.
          2    1    1    2  502    0 -0.49525379192E+02 -0.22205060579E+01  0.94122756368E+03  0.94253223843E+03  0.00000000000E+00 0.  1.
</event>
<event>
 4    1  0.8391192E+003  0.5466097E+02  0.7546771E-02  0.1279137E+00
          2   -1    0    0  502    0  0.00000000000E+00  0.00000000000E+00  0.25161564068E+03  0.25161564068E+03  0.00000000000E+00 0. -1.
          2   -1    0    0  501    0 -0.00000000000E+00 -0.00000000000E+00 -0.28977504831E+03  0.28977504831E+03  0.00000000000E+00 0.  1.
          2    1    1    2  501    0 -0.54235503722E+02 -0.68067205502E+01  0.24601128172E+03  0.25201065859E+03  0.00000000000E+00 0. -1.
          2    1    1    2  502    0  0.54235503722E+02  0.68067205502E+01 -0.28417068935E+03  0.28938003040E+03  0.00000000000E+00 0.  1.
</event>
<event>
 4    1  0.8391192E+003  0.3186782E+02  0.7546771E-02  0.1404031E+00
          2   -1    0    0  502    0  0.00000000000E+00  0.00000000000E+00  0.12628641034E+04  0.12628641034E+04  0.00000000000E+00 0.  1.
          2   -1    0    0  501    0 -0.00000000000E+00 -0.00000000000E+00 -0.47496874642E+01  0.47496874642E+01  0.00000000000E+00 0.  1.
          2    1    1    2  501    0 -0.28318810675E+02 -0.14615166911E+02  0.12067226627E+04  0.12071433812E+04  0.00000000000E+00 0.  1.
          2    1    1    2  502    0  0.28318810675E+02  0.14615166911E+02  0.51391753213E+02  0.60470409624E+02  0.00000000000E+00 0.  1.
</event>
<event>
 4    1  0.8391192E+003  0.4325961E+02  0.7546771E-02  0.1330375E+00
          2   -1    0    0  501    0  0.00000000000E+00  0.00000000000E+00  0.58802279777E+03  0.58802279777E+03  0.00000000000E+00 0. -1.
          2   -1    0    0  502    0 -0.00000000000E+00 -0.00000000000E+00 -0.32742250467E+01  0.32742250467E+01  0.00000000000E+00 0. -1.
          2    1    1    2  501    0 -0.22739566879E+02 -0.36800898640E+02  0.24289548776E+03  0.24671767674E+03  0.00000000000E+00 0. -1.
          2    1    1    2  502    0  0.22739566879E+02  0.36800898640E+02  0.34185308496E+03  0.34457934607E+03  0.00000000000E+00 0. -1.
</event>
<event>
 4    1  0.8391192E+003  0.2340999E+02  0.7546771E-02  0.1487413E+00
          2   -1    0    0  502    0  0.00000000000E+00  0.00000000000E+00  0.49897814455E+02  0.49897814455E+02  0.00000000000E+00 0.  1.
          2   -1    0    0  501    0 -0.00000000000E+00 -0.00000000000E+00 -0.70209334876E+03  0.70209334876E+03  0.00000000000E+00 0. -1.
          2    1    1    2  501    0 -0.23246021264E+02  0.27658902671E+01  0.46945331979E+02  0.52458477372E+02  0.00000000000E+00 0.  1.
          2    1    1    2  502    0  0.23246021264E+02 -0.27658902671E+01 -0.69914086628E+03  0.69953268584E+03  0.00000000000E+00 0. -1.
</event>
<event>
 4    1  0.8391192E+003  0.2080465E+02  0.7546771E-02  0.1522072E+00
          2   -1    0    0  502    0  0.00000000000E+00  0.00000000000E+00  0.17781851177E+04  0.17781851177E+04  0.00000000000E+00 0. -1.
          2   -1    0    0  501    0 -0.00000000000E+00 -0.00000000000E+00 -0.37517682459E+00  0.37517682459E+00  0.00000000000E+00 0.  1.
          2    1    1    2  501    0  0.20803704759E+02  0.19816047866E+00  0.14159147424E+04  0.14160675800E+04  0.00000000000E+00 0. -1.
          2    1    1    2  502    0 -0.20803704759E+02 -0.19816047866E+00  0.36189519849E+03  0.36249271453E+03  0.00000000000E+00 0.  1.
</event>
<event>
 4    1  0.8391192E+003  0.2106212E+02  0.7546771E-02  0.1518380E+00
          2   -1    0    0  501    0  0.00000000000E+00  0.00000000000E+00  0.44051110820E+03  0.44051110820E+03  0.00000000000E+00 0.  1.
          2   -1    0    0  502    0 -0.00000000000E+00 -0.00000000000E+00 -0.15310394262E+03  0.15310394262E+03  0.00000000000E+00 0.  1.
          2    1    1    2  501    0 -0.71849746305E+01  0.19798708143E+02 -0.15212620672E+03  0.15357732735E+03  0.00000000000E+00 0.  1.
          2    1    1    2  502    0  0.71849746305E+01 -0.19798708143E+02  0.43953337230E+03  0.44003772346E+03  0.00000000000E+00 0.  1.
</event>
<event>
 4    1  0.8391192E+003  0.2683372E+02  0.7546771E-02  0.1449286E+00
          2   -1    0    0  502    0  0.00000000000E+00  0.00000000000E+00  0.12653753815E+03  0.12653753815E+03  0.00000000000E+00 0.  1.
          2   -1    0    0  501    0 -0.00000000000E+00 -0.00000000000E+00 -0.71966316066E+01  0.71966316066E+01  0.00000000000E+00 0. -1.
          2    1    1    2  501    0  0.23909707486E+02  0.12180893550E+02  0.90261524771E+02  0.94165764128E+02  0.00000000000E+00 0.  1.
          2    1    1    2  502    0 -0.23909707486E+02 -0.12180893550E+02  0.29079381771E+02  0.39568405627E+02  0.00000000000E+00 0. -1.
</event>
<event>
 4    1  0.8391192E+003  0.3250280E+02  0.7546771E-02  0.1399024E+00
          2   -1    0    0  502    0  0.00000000000E+00  0.00000000000E+00  0.69557840534E+03  0.69557840534E+03  0.00000000000E+00 0.  1.
          2   -1    0    0  501    0 -0.00000000000E+00 -0.00000000000E+00 -0.51061533087E+02  0.51061533087E+02  0.00000000000E+00 0. -1.
          2    1    1    2  501    0 -0.23755355305E+02 -0.22183671364E+02  0.68998445037E+03  0.69074957396E+03  0.00000000000E+00 0.  1.
          2    1    1    2  502    0  0.23755355305E+02  0.22183671364E+02 -0.45467578112E+02  0.55890364467E+02  0.00000000000E+00 0. -1.
</event>
<event>
 4    1  0.8391192E+003  0.2626032E+02  0.7546771E-02  0.1455183E+00
          2   -1    0    0  502    0  0.00000000000E+00  0.00000000000E+00  0.10839510536E+04  0.10839510536E+04  0.00000000000E+00 0.  1.
          2   -1    0    0  501    0 -0.00000000000E+00 -0.00000000000E+00 -0.90578864989E+02  0.90578864989E+02  0.00000000000E+00 0.  1.
          2    1    1    2  501    0  0.20573939730E+02 -0.16319239664E+02  0.10818850442E+04  0.10822037024E+04  0.00000000000E+00 0.  1.
          2    1    1    2  502    0 -0.20573939730E+02  0.16319239664E+02 -0.88512855633E+02  0.92326216166E+02  0.00000000000E+00 0.  1.
</event>
<event>
 4    1  0.8391192E+003  0.2014397E+02  0.7546771E-02  0.1531846E+00
          2   -1    0    0  502    0  0.00000000000E+00  0.00000000000E+00  0.11508617739E+02  0.11508617739E+02  0.00000000000E+00 0. -1.
          2   -1    0    0  501    0 -0.00000000000E+00 -0.00000000000E+00 -0.11029737585E+04  0.11029737585E+04  0.00000000000E+00 0. -1.
          2    1    1    2  501    0  0.18453345355E+02 -0.80779741900E+01  0.25296122751E+01  0.20302181165E+02  0.00000000000E+00 0. -1.
          2    1    1    2  502    0 -0.18453345355E+02  0.80779741900E+01 -0.10939947530E+04  0.10941801951E+04  0.00000000000E+00 0. -1.
</event>
<event>
 4    1  0.8391192E+003  0.3533285E+02  0.7546771E-02  0.1378238E+00
          2   -1    0    0  502    0  0.00000000000E+00  0.00000000000E+00  0.78517441637E+01  0.78517441637E+01  0.00000000000E+00 0.  1.
          2   -1    0    0  501    0 -0.00000000000E+00 -0.00000000000E+00 -0.25802355985E+04  0.25802355985E+04  0.00000000000E+00 0.  1.
          2    1    1    2  501    0 -0.12651113509E+02  0.32990296231E+02 -0.32652577844E+02  0.48110301997E+02  0.00000000000E+00 0.  1.
          2    1    1    2  502    0  0.12651113509E+02 -0.32990296231E+02 -0.25397312765E+04  0.25399770406E+04  0.00000000000E+00 0.  1.
</event>
<event>
 4    1  0.8391192E+003  0.2726224E+02  0.7546771E-02  0.1444992E+00
          2   -1    0    0  501    0  0.00000000000E+00  0.00000000000E+00  0.93009076211E+03  0.93009076211E+03  0.00000000000E+00 0.  1.
          2   -1    0    0  502    0 -0.00000000000E+00 -0.00000000000E+00 -0.66847572087E+01  0.66847572087E+01  0.00000000000E+00 0. -1.
          2    1    1    2  501    0 -0.18078783572E+02  0.20405568458E+02  0.22201429403E+02  0.35158684661E+02  0.00000000000E+00 0. -1.
          2    1    1    2  502    0  0.18078783572E+02 -0.20405568458E+02  0.90120457550E+03  0.90161683466E+03  0.00000000000E+00 0.  1.
</event>
<event>
 4    1  0.8391192E+003  0.3184823E+02  0.7546771E-02  0.1404187E+00
          2   -1    0    0  501    0  0.00000000000E+00  0.00000000000E+00  0.20446813953E+03  0.20446813953E+03  0.00000000000E+00 0.  1.
          2   -1    0    0  502    0 -0.00000000000E+00 -0.00000000000E+00 -0.91768499737E+01  0.91768499737E+01  0.00000000000E+00 0.  1.
          2    1    1    2  501    0  0.89975895857E+01  0.30550828305E+02  0.25239944207E+02  0.40636984535E+02  0.00000000000E+00 0.  1.
          2    1    1    2  502    0 -0.89975895857E+01 -0.30550828305E+02  0.17005134535E+03  0.17300800497E+03  0.00000000000E+00 0.  1.
</event>
<event>
 4    1  0.8391192E+003  0.2026524E+02  0.7546771E-02  0.1530019E+00
          2   -1    0    0  502    0  0.00000000000E+00  0.00000000000E+00  0.97643128906E+03  0.97643128906E+03  0.00000000000E+00 0. -1.
          2   -1    0    0  501    0 -0.00000000000E+00 -0.00000000000E+00 -0.26857580930E+01  0.26857580930E+01  0.00000000000E+00 0.  1.
          2    1    1    2  501    0  0.12982951129E+02 -0.15560302574E+02  0.93646739272E+03  0.93668663793E+03  0.00000000000E+00 0. -1.
          2    1    1    2  502    0 -0.12982951129E+02  0.15560302574E+02  0.37278138245E+02  0.42430409228E+02  0.00000000000E+00 0.  1.
</event>
<event>
 4    1  0.8391192E+003  0.2067829E+02  0.7546771E-02  0.1523908E+00
          2   -1    0    0  502    0  0.00000000000E+00  0.00000000000E+00  0.40685428821E+02  0.40685428821E+02  0.00000000000E+00 0. -1.
          2   -1    0    0  501    0 -0.00000000000E+00 -0.00000000000E+00 -0.72331819595E+02  0.72331819595E+02  0.00000000000E+00 0.  1.
          2    1    1    2  501    0 -0.18048569088E+02 -0.10091617116E+02  0.36419068679E+02  0.41880068596E+02  0.00000000000E+00 0. -1.
          2    1    1    2  502    0  0.18048569088E+02  0.10091617116E+02 -0.68065459453E+02  0.71137179820E+02  0.00000000000E+00 0.  1.
</event>
<event>
 4    1  0.8391192E+003  0.2369133E+02  0.7546771E-02  0.1483995E+00
          2   -1    0    0  501    0  0.00000000000E+00  0.00000000000E+00  0.34701145433E+02  0.34701145433E+02  0.00000000000E+00 0.  1.
          2   -1    0    0  502    0 -0.00000000000E+00 -0.00000000000E+00 -0.23193049301E+03  0.23193049301E+03  0.00000000000E+00 0.  1.
          2    1    1    2  501    0 -0.23555762614E+02 -0.25308283076E+01 -0.22719781717E+03  0.22842969853E+03  0.00000000000E+00 0.  1.
          2    1    1    2  502    0  0.23555762614E+02  0.25308283076E+01  0.29968469586E+02  0.38201939919E+02  0.00000000000E+00 0.  1.
</event>
<event>
 4    1  0.8391192E+003  0.3600439E+02  0.7546771E-02  0.1373636E+00
          2   -1    0    0  502    0  0.00000000000E+00  0.00000000000E+00  0.16943109697E+04  0.16943109697E+04  0.00000000000E+00 0.  1.
          2   -1    0    0  501    0 -0.00000000000E+00 -0.00000000000E+00 -0.13179523338E+03  0.13179523338E+03  0.00000000000E+00 0. -1.
          2    1    1    2  501    0 -0.68200328738E+01 -0.35352555039E+02  0.16916568790E+04  0.16920399854E+04  0.00000000000E+00 0.  1.
          2    1    1    2  502    0  0.68200328738E+01  0.35352555039E+02 -0.12914114266E+03  0.13406621768E+03  0.00000000000E+00 0. -1.
</event>
<event>
 4    1  0.8391192E+003  0.2925795E+02  0.7546771E-02  0.1426156E+00
          2   -1    0    0  502    0  0.00000000000E+00  0.00000000000E+00  0.40480455719E+01  0.40480455719E+01  0.00000000000E+00 0. -1.
          2   -1    0    0  501    0 -0.00000000000E+00 -0.00000000000E+00 -0.91098213175E+03  0.91098213175E+03  0.00000000000E+00 0. -1.
          2    1    1    2  501    0  0.28028430840E+02  0.83925329152E+01 -0.52555013296E+02  0.60150286505E+02  0.00000000000E+00 0. -1.
          2    1    1    2  502    0 -0.28028430840E+02 -0.83925329152E+01 -0.85437907288E+03  0.85487989082E+03  0.00000000000E+00 0. -1.
</event>
<event>
 4    1  0.8391192E+003  0.2244530E+02  0.7546771E-02  0.1499583E+00
          2   -1    0    0  502    0  0.00000000000E+00  0.00000000000E+00  0.12570137427E+02  0.12570137427E+02  0.00000000000E+00 0. -1.
          2   -1    0    0  501    0 -0.00000000000E+00 -0.00000000000E+00 -0.21229830079E+03  0.21229830079E+03  0.00000000000E+00 0.  1.
          2    1    1    2  501    0 -0.19300081631E+02  0.11458556194E+02  0.14026630248E+01  0.22489089012E+02  0.00000000000E+00 0. -1.
          2    1    1    2  502    0  0.19300081631E+02 -0.11458556194E+02 -0.20113082639E+03  0.20237934920E+03  0.00000000000E+00 0.  1.
</event>
<event>
 4    1  0.8391192E+003  0.3296135E+02  0.7546771E-02  0.1395491E+00
          2   -1    0    0  502    0  0.00000000000E+00  0.00000000000E+00  0.15678073344E+02  0.15678073344E+02  0.00000000000E+00 0.  1.
          2   -1    0    0  501    0 -0.00000000000E+00 -0.00000000000E+00 -0.69297697169E+02  0.69297697169E+02  0.00000000000E+00 0.  1.
          2    1    1    2  501    0  0.86437377612E+01 -0.31807808054E+02 -0.26886322132E+02  0.42536163126E+02  0.00000000000E+00 0.  1.
          2    1    1    2  502    0 -0.86437377612E+01  0.31807808054E+02 -0.26733301694E+02  0.42439607387E+02  0.00000000000E+00 0.  1.
</event>
<event>
 4    1  0.8391192E+003  0.3309274E+02  0.7546771E-02  0.1394491E+00
          2   -1    0    0  502    0  0.00000000000E+00  0.00000000000E+00  0.14318693395E+04  0.14318693395E+04  0.00000000000E+00 0.  1.
          2   -1    0    0  501    0 -0.00000000000E+00 -0.00000000000E+00 -0.33870900043E+03  0.33870900043E+03  0.00000000000E+00 0. -1.
          2    1    1    2  501    0 -0.35466486738E+01  0.32902139481E+02  0.14308692569E+04  0.14312518855E+04  0.00000000000E+00 0.  1.
          2    1    1    2  502    0  0.35466486738E+01 -0.32902139481E+02 -0.33770891781E+03  0.33932645442E+03  0.00000000000E+00 0. -1.
</event>
<event>
 4    1  0.8391192E+003  0.2693810E+02  0.7546771E-02  0.1448231E+00
          2   -1    0    0  502    0  0.00000000000E+00  0.00000000000E+00  0.18951448782E+02  0.18951448782E+02  0.00000000000E+00 0. -1.
          2   -1    0    0  501    0 -0.00000000000E+00 -0.00000000000E+00 -0.39752921875E+02  0.39752921875E+02  0.00000000000E+00 0. -1.
          2    1    1    2  501    0 -0.19859617624E+02 -0.18200468243E+02 -0.47710480946E+01  0.27357345565E+02  0.00000000000E+00 0. -1.
          2    1    1    2  502    0  0.19859617624E+02  0.18200468243E+02 -0.16030424998E+02  0.31347025091E+02  0.00000000000E+00 0. -1.
</event>
<event>
 4    1  0.8391192E+003  0.5135992E+02  0.7546771E-02  0.1292382E+00
          2   -1    0    0  501    0  0.00000000000E+00  0.00000000000E+00  0.43923565166E+03  0.43923565166E+03  0.00000000000E+00 0.  1.
          2   -1    0    0  502    0 -0.00000000000E+00 -0.00000000000E+00 -0.61927904191E+01  0.61927904191E+01  0.00000000000E+00 0.  1.
          2    1    1    2  501    0  0.32273795563E+02  0.39953012020E+02  0.17779275964E+03  0.18506243927E+03  0.00000000000E+00 0.  1.
          2    1    1    2  502    0 -0.32273795563E+02 -0.39953012020E+02  0.25525010160E+03  0.26036600280E+03  0.00000000000E+00 0.  1.
</event>
<event>
 4    1  0.8391192E+003  0.2179277E+02  0.7546771E-02  0.1508240E+00
          2   -1    0    0  501    0  0.00000000000E+00  0.00000000000E+00  0.42814805227E+03  0.42814805227E+03  0.00000000000E+00 0.  1.
          2   -1    0    0  502    0 -0.00000000000E+00 -0.00000000000E+00 -0.64221303334E+03  0.64221303334E+03  0.00000000000E+00 0. -1.
          2    1    1    2  501    0 -0.19599514635E+01 -0.21704458607E+02 -0.64175064182E+03  0.64212055816E+03  0.00000000000E+00 0. -1.
          2    1    1    2  502    0  0.19599514635E+01  0.21704458607E+02  0.42768566076E+03  0.42824052745E+03  0.00000000000E+00 0.  1.
</event>
<event>
 4    1  0.8391192E+003  0.2761725E+02  0.7546771E-02  0.1441504E+00
          2   -1    0    0  502    0  0.00000000000E+00  0.00000000000E+00  0.33480973084E+03  0.33480973084E+03  0.00000000000E+00 0.  1.
          2   -1    0    0  501    0 -0.00000000000E+00 -0.00000000000E+00 -0.29657770298E+02  0.29657770298E+02  0.00000000000E+00 0.  1.
          2    1    1    2  501    0  0.26935272685E+02 -0.60994870828E+01  0.32767111709E+03  0.32883289621E+03  0.00000000000E+00 0.  1.
          2    1    1    2  502    0 -0.26935272685E+02  0.60994870828E+01 -0.22519156541E+02  0.35634604931E+02  0.00000000000E+00 0.  1.
</event>
<event>
 4    1  0.8391192E+003  0.2012295E+02  0.7546771E-02  0.1532164E+00
          2   -1    0    0  501    0  0.00000000000E+00  0.00000000000E+00  0.66436966939E+03  0.66436966939E+03  0.00000000000E+00 0. -1.
          2   -1    0    0  502    0 -0.00000000000E+00 -0.00000000000E+00 -0.38831220131E+01  0.38831220131E+01  0.00000000000E+00 0.  1.
          2    1    1    2  501    0  0.19629115074E+02  0.44306914587E+01  0.23457973393E+02  0.30906466978E+02  0.00000000000E+00 0.  1.
          2    1    1    2  502    0 -0.19629115074E+02 -0.44306914587E+01  0.63702857399E+03  0.63734632443E+03  0.00000000000E+00 0. -1.
</event>
<event>
 4    1  0.8391192E+003  0.3096271E+02  0.7546771E-02  0.1411411E+00
          2   -1    0    0  501    0  0.00000000000E+00  0.00000000000E+00  0.23190667492E+04  0.23190667492E+04  0.00000000000E+00 0. -1.
          2   -1    0    0  502    0 -0.00000000000E+00 -0.00000000000E+00 -0.17509901299E+01  0.17509901299E+01  0.00000000000E+00 0.  1.
          2    1    1    2  501    0  0.34162321262E+01 -0.30773669387E+02  0.14443917385E+03  0.14772056158E+03  0.00000000000E+00 0.  1.
          2    1    1    2  502    0 -0.34162321262E+01  0.30773669387E+02  0.21728765852E+04  0.21730971778E+04  0.00000000000E+00 0. -1.
</event>
<event>
 4    1  0.8391192E+003  0.2942489E+02  0.7546771E-02  0.1424661E+00
          2   -1    0    0  501    0  0.00000000000E+00  0.00000000000E+00  0.17598246760E+04  0.17598246760E+04  0.00000000000E+00 0. -1.
          2   -1    0    0  502    0 -0.00000000000E+00 -0.00000000000E+00 -0.96538334900E+02  0.96538334900E+02  0.00000000000E+00 0.  1.
          2    1    1    2  501    0  0.78281745188E+01 -0.28364483600E+02 -0.94170137812E+02  0.98660220462E+02  0.00000000000E+00 0.  1.
          2    1    1    2  502    0 -0.78281745188E+01  0.28364483600E+02  0.17574564789E+04  0.17577027904E+04  0.00000000000E+00 0. -1.
</event>
<event>
 4    1  0.8391192E+003  0.2572359E+02  0.7546771E-02  0.1460869E+00
          2   -1    0    0  502    0  0.00000000000E+00  0.00000000000E+00  0.47655979011E+02  0.47655979011E+02  0.00000000000E+00 0.  1.
          2   -1    0    0  501    0 -0.00000000000E+00 -0.00000000000E+00 -0.40704594011E+03  0.40704594011E+03  0.00000000000E+00 0. -1.
          2    1    1    2  501    0  0.11270576183E+02 -0.23123085441E+02  0.43744680424E+02  0.50747414055E+02  0.00000000000E+00 0.  1.
          2    1    1    2  502    0 -0.11270576183E+02  0.23123085441E+02 -0.40313464152E+03  0.40395450506E+03  0.00000000000E+00 0. -1.
</event>
<event>
 4    1  0.8391192E+003  0.2645140E+02  0.7546771E-02  0.1453198E+00
          2   -1    0    0  501    0  0.00000000000E+00  0.00000000000E+00  0.17433277968E+01  0.17433277968E+01  0.00000000000E+00 0.  1.
          2   -1    0    0  502    0 -0.00000000000E+00 -0.00000000000E+00 -0.70634484577E+03  0.70634484577E+03  0.00000000000E+00 0. -1.
          2    1    1    2  501    0  0.23940053617E+02 -0.11249460865E+02 -0.58494831926E+03  0.58554608081E+03  0.00000000000E+00 0. -1.
          2    1    1    2  502    0 -0.23940053617E+02  0.11249460865E+02 -0.11965319871E+03  0.12254209276E+03  0.00000000000E+00 0.  1.
</event>
<event>
 4    1  0.8391192E+003  0.8984976E+02  0.7546771E-02  0.1182663E+00
          2   -1    0    0  501    0  0.00000000000E+00  0.00000000000E+00  0.14968992427E+04  0.14968992427E+04  0.00000000000E+00 0.  1.
          2   -1    0    0  502    0 -0.00000000000E+00 -0.00000000000E+00 -0.98796296398E+01  0.98796296398E+01  0.00000000000E+00 0.  1.
          2    1    1    2  501    0 -0.85775355338E+02 -0.26750086142E+02  0.23581490360E+03  0.25235222894E+03  0.00000000000E+00 0.  1.
          2    1    1    2  502    0  0.85775355338E+02  0.26750086142E+02  0.12512047094E+04  0.12544266433E+04  0.00000000000E+00 0.  1.
</event>
<event>
 4    1  0.8391192E+003  0.2229991E+02  0.7546771E-02  0.1501481E+00
          2   -1    0    0  501    0  0.00000000000E+00  0.00000000000E+00  0.97015266895E+00  0.97015266895E+00  0.00000000000E+00 0.  1.
          2   -1    0    0  502    0 -0.00000000000E+00 -0.00000000000E+00 -0.14302355681E+04  0.14302355681E+04  0.00000000000E+00 0. -1.
          2    1    1    2  501    0 -0.74776681883E+01 -0.21008822893E+02 -0.12878335747E+04  0.12880266311E+04  0.00000000000E+00 0. -1.
          2    1    1    2  502    0  0.74776681883E+01  0.21008822893E+02 -0.14143184066E+03  0.14317908965E+03  0.00000000000E+00 0.  1.
</event>
<event>
 4    1  0.8391192E+003  0.3590744E+02  0.7546771E-02  0.1374293E+00
          2   -1    0    0  501    0  0.00000000000E+00  0.00000000000E+00  0.13642714096E+04  0.13642714096E+04  0.00000000000E+00 0. -1.
          2   -1    0    0  502    0 -0.00000000000E+00 -0.00000000000E+00 -0.24187118134E+02  0.24187118134E+02  0.00000000000E+00 0. -1.
          2    1    1    2  501    0  0.16961315524E+02 -0.31648986046E+02 -0.10488936554E+02  0.37408051701E+02  0.00000000000E+00 0. -1.
          2    1    1    2  502    0 -0.16961315524E+02  0.31648986046E+02  0.13505732280E+04  0.13510504760E+04  0.00000000000E+00 0. -1.
</event>
<event>
 4    1  0.8391192E+003  0.2629819E+02  0.7546771E-02  0.1454788E+00
          2   -1    0    0  501    0  0.00000000000E+00  0.00000000000E+00  0.47765519417E+02  0.47765519417E+02  0.00000000000E+00 0.  1.
          2   -1    0    0  502    0 -0.00000000000E+00 -0.00000000000E+00 -0.86371411316E+02  0.86371411316E+02  0.00000000000E+00 0.  1.
          2    1    1    2  501    0  0.16227362274E+02  0.20694625073E+02 -0.80492180865E+02  0.84679312548E+02  0.00000000000E+00 0.  1.
          2    1    1    2  502    0 -0.16227362274E+02 -0.20694625073E+02  0.41886288965E+02  0.49457618185E+02  0.00000000000E+00 0.  1.
</event>
<event>
 4    1  0.8391192E+003  0.5045904E+02  0.7546771E-02  0.1296194E+00
          2   -1    0    0  502    0  0.00000000000E+00  0.00000000000E+00  0.19347878343E+02  0.19347878343E+02  0.00000000000E+00 0. -1.
          2   -1    0    0  501    0 -0.00000000000E+00 -0.00000000000E+00 -0.20942235914E+04  0.20942235914E+04  0.00000000000E+00 0.  1.
          2    1    1    2  501    0 -0.60281764957E+00  0.50455440427E+02 -0.14393879330E+02  0.52471884091E+02  0.00000000000E+00 0. -1.
          2    1    1    2  502    0  0.60281764957E+00 -0.50455440427E+02 -0.20604818337E+04  0.20610995857E+04  0.00000000000E+00 0.  1.
</event>
<event>
 4    1  0.8391192E+003  0.3719186E+02  0.7546771E-02  0.1365777E+00
          2   -1    0    0  501    0  0.00000000000E+00  0.00000000000E+00  0.19387771728E+01  0.19387771728E+01  0.00000000000E+00 0. -1.
          2   -1    0    0  502    0 -0.00000000000E+00 -0.00000000000E+00 -0.87354696492E+03  0.87354696492E+03  0.00000000000E+00 0. -1.
          2    1    1    2  501    0 -0.10410263483E+02  0.35705189090E+02 -0.62319910694E+03  0.62430790561E+03  0.00000000000E+00 0. -1.
          2    1    1    2  502    0  0.10410263483E+02 -0.35705189090E+02 -0.24840908081E+03  0.25117783649E+03  0.00000000000E+00 0. -1.
</event>
<event>
 4    1  0.8391192E+003  0.5688763E+02  0.7546771E-02  0.1270790E+00
          2   -1    0    0  501    0  0.00000000000E+00  0.00000000000E+00  0.83268231719E+03  0.83268231719E+03  0.00000000000E+00 0.  1.
          2   -1    0    0  502    0 -0.00000000000E+00 -0.00000000000E+00 -0.46829874714E+01  0.46829874714E+01  0.00000000000E+00 0. -1.
          2    1    1    2  501    0 -0.52167403721E+02  0.22688423869E+02  0.24132898984E+03  0.24794330789E+03  0.00000000000E+00 0. -1.
          2    1    1    2  502    0  0.52167403721E+02 -0.22688423869E+02  0.58667033988E+03  0.58942199678E+03  0.00000000000E+00 0.  1.
</event>
<event>
 4    1  0.8391192E+003  0.2802471E+02  0.7546771E-02  0.1437578E+00
          2   -1    0    0  501    0  0.00000000000E+00  0.00000000000E+00  0.99044817971E+02  0.99044817971E+02  0.00000000000E+00 0. -1.
          2   -1    0    0  502    0 -0.00000000000E+00 -0.00000000000E+00 -0.38309485037E+02  0.38309485037E+02  0.00000000000E+00 0. -1.
          2    1    1    2  501    0 -0.27879961614E+02 -0.28446186317E+01 -0.30790196367E+02  0.41634364497E+02  0.00000000000E+00 0. -1.
          2    1    1    2  502    0  0.27879961614E+02  0.28446186317E+01  0.91525529301E+02  0.95719938511E+02  0.00000000000E+00 0. -1.
</event>
<event>
 4    1  0.8391192E+003  0.4593795E+02  0.7546771E-02  0.1316815E+00
          2   -1    0    0  501    0  0.00000000000E+00  0.00000000000E+00  0.21536272596E+02  0.21536272596E+02  0.00000000000E+00 0. -1.
          2   -1    0    0  502    0 -0.00000000000E+00 -0.00000000000E+00 -0.25031263766E+03  0.25031263766E+03  0.00000000000E+00 0.  1.
          2    1    1    2  501    0  0.25498424372E+02  0.38211595347E+02 -0.22042125111E+03  0.22515733079E+03  0.00000000000E+00 0.  1.
          2    1    1    2  502    0 -0.25498424372E+02 -0.38211595347E+02 -0.83551139524E+01  0.46691579472E+02  0.00000000000E+00 0. -1.
</event>
<event>
 4    1  0.8391192E+003  0.2211016E+02  0.7546771E-02  0.1503985E+00
          2   -1    0    0  502    0  0.00000000000E+00  0.00000000000E+00  0.47283026638E+03  0.47283026638E+03  0.00000000000E+00 0. -1.
          2   -1    0    0  501    0 -0.00000000000E+00 -0.00000000000E+00 -0.55974203141E+01  0.55974203141E+01  0.00000000000E+00 0. -1.
          2    1    1    2  501    0  0.52951832344E+01  0.21466721910E+02  0.44961075404E+03  0.45015407280E+03  0.00000000000E+00 0. -1.
          2    1    1    2  502    0 -0.52951832344E+01 -0.21466721910E+02  0.17622092031E+02  0.28273613893E+02  0.00000000000E+00 0. -1.
</event>
<event>
 4    1  0.8391192E+003  0.2140691E+02  0.7546771E-02  0.1513534E+00
          2   -1    0    0  502    0  0.00000000000E+00  0.00000000000E+00  0.14455957353E+01  0.14455957353E+01  0.00000000000E+00 0. -1.
          2   -1    0    0  501    0 -0.00000000000E+00 -0.00000000000E+00 -0.10922421870E+04  0.10922421870E+04  0.00000000000E+00 0. -1.
          2    1    1    2  501    0 -0.39659251834E+01  0.21036335126E+02 -0.84694084628E+02  0.87357563663E+02  0.00000000000E+00 0. -1.
          2    1    1    2  502    0  0.39659251834E+01 -0.21036335126E+02 -0.10061025066E+04  0.10063302190E+04  0.00000000000E+00 0. -1.
</event>
<event>
 4    1  0.8391192E+003  0.2096626E+02  0.7546771E-02  0.1519747E+00
          2   -1    0    0  502    0  0.00000000000E+00  0.00000000000E+00  0.54787356006E+02  0.54787356006E+02  0.00000000000E+00 0. -1.
          2   -1    0    0  501    0 -0.00000000000E+00 -0.00000000000E+00 -0.65162025166E+02  0.65162025166E+02  0.00000000000E+00 0. -1.
          2    1    1    2  501    0 -0.93242556056E+01  0.18778769866E+02  0.50973740119E+02  0.55117203503E+02  0.00000000000E+00 0. -1.
          2    1    1    2  502    0  0.93242556056E+01 -0.18778769866E+02 -0.61348409279E+02  0.64832177669E+02  0.00000000000E+00 0. -1.
</event>
<event>
 4    1  0.8391192E+003  0.2317198E+02  0.7546771E-02  0.1490350E+00
          2   -1    0    0  501    0  0.00000000000E+00  0.00000000000E+00  0.13736314161E+04  0.13736314161E+04  0.00000000000E+00 0. -1.
          2   -1    0    0  502    0 -0.00000000000E+00 -0.00000000000E+00 -0.47965733026E+01  0.47965733026E+01  0.00000000000E+00 0. -1.
          2    1    1    2  501    0  0.20336271130E+02  0.11107503097E+02  0.23883510351E+02  0.33277058392E+02  0.00000000000E+00 0. -1.
          2    1    1    2  502    0 -0.20336271130E+02 -0.11107503097E+02  0.13449513325E+04  0.13451509310E+04  0.00000000000E+00 0. -1.
</event>
<event>
 4    1  0.8391192E+003  0.2788903E+02  0.7546771E-02  0.1438876E+00
          2   -1    0    0  502    0  0.00000000000E+00  0.00000000000E+00  0.87706404489E+03  0.87706404489E+03  0.00000000000E+00 0.  1.
          2   -1    0    0  501    0 -0.00000000000E+00 -0.00000000000E+00 -0.16054965312E+02  0.16054965312E+02  0.00000000000E+00 0.  1.
          2    1    1    2  501    0 -0.18110629277E+02 -0.21208558176E+02  0.86455567263E+03  0.86500538086E+03  0.00000000000E+00 0.  1.
          2    1    1    2  502    0  0.18110629277E+02  0.21208558176E+02 -0.35465930521E+01  0.28113629346E+02  0.00000000000E+00 0.  1.
</event>
<event>
 4    1  0.8391192E+003  0.2014804E+02  0.7546771E-02  0.1531785E+00
          2   -1    0    0  502    0  0.00000000000E+00  0.00000000000E+00  0.43847114473E+01  0.43847114473E+01  0.00000000000E+00 0.  1.
          2   -1    0    0  501    0 -0.00000000000E+00 -0.00000000000E+00 -0.25055545020E+03  0.25055545020E+03  0.00000000000E+00 0.  1.
          2    1    1    2  501    0 -0.38732098508E+01 -0.19772248791E+02 -0.21869422259E+02  0.29735756367E+02  0.00000000000E+00 0.  1.
          2    1    1    2  502    0  0.38732098508E+01  0.19772248791E+02 -0.22430131649E+03  0.22520440528E+03  0.00000000000E+00 0.  1.
</event>
<event>
 4    1  0.8391192E+003  0.2012750E+02  0.7546771E-02  0.1532096E+00
          2   -1    0    0  502    0  0.00000000000E+00  0.00000000000E+00  0.22252128032E+02  0.22252128032E+02  0.00000000000E+00 0.  1.
          2   -1    0    0  501    0 -0.00000000000E+00 -0.00000000000E+00 -0.11174545281E+03  0.11174545281E+03  0.00000000000E+00 0. -1.
          2    1    1    2  501    0 -0.34016350393E+01  0.19837968244E+02  0.16551871185E+02  0.26059173907E+02  0.00000000000E+00 0.  1.
          2    1    1    2  502    0  0.34016350393E+01 -0.19837968244E+02 -0.10604519596E+03  0.10793840694E+03  0.00000000000E+00 0. -1.
</event>
<event>
 4    1  0.8391192E+003  0.2680165E+02  0.7546771E-02  0.1449611E+00
          2   -1    0    0  501    0  0.00000000000E+00  0.00000000000E+00  0.18378537154E+04  0.18378537154E+04  0.00000000000E+00 0.  1.
          2   -1    0    0  502    0 -0.00000000000E+00 -0.00000000000E+00 -0.13990799107E+01  0.13990799107E+01  0.00000000000E+00 0. -1.
          2    1    1    2  501    0  0.22836029298E+02  0.14030119415E+02  0.13755359091E+03  0.14014035413E+03  0.00000000000E+00 0. -1.
          2    1    1    2  502    0 -0.22836029298E+02 -0.14030119415E+02  0.16989010446E+04  0.16991124412E+04  0.00000000000E+00 0.  1.
</event>
<event>
 4    1  0.8391192E+003  0.3149533E+02  0.7546771E-02  0.1407032E+00
          2   -1    0    0  502    0  0.00000000000E+00  0.00000000000E+00  0.45361206234E+02  0.45361206234E+02  0.00000000000E+00 0. -1.
          2   -1    0    0  501    0 -0.00000000000E+00 -0.00000000000E+00 -0.16387980285E+04  0.16387980285E+04  0.00000000000E+00 0.  1.
          2    1    1    2  501    0  0.23605694133E+02 -0.20850106186E+02  0.39724031231E+02  0.50694717483E+02  0.00000000000E+00 0. -1.
          2    1    1    2  502    0 -0.23605694133E+02  0.20850106186E+02 -0.16331608535E+04  0.16334645173E+04  0.00000000000E+00 0.  1.
</event>
<event>
 4    1  0.8391192E+003  0.2048259E+02  0.7546771E-02  0.1526782E+00
          2   -1    0    0  502    0  0.00000000000E+00  0.00000000000E+00  0.41329627640E+03  0.41329627640E+03  0.00000000000E+00 0.  1.
          2   -1    0    0  501    0 -0.00000000000E+00 -0.00000000000E+00 -0.10151187207E+01  0.10151187207E+01  0.00000000000E+00 0. -1.
          2    1    1    2  501    0  0.13346799085E+02  0.15537028384E+02  0.20707249272E+03  0.20808304481E+03  0.00000000000E+00 0. -1.
          2    1    1    2  502    0 -0.13346799085E+02 -0.15537028384E+02  0.20520866496E+03  0.20622835031E+03  0.00000000000E+00 0.  1.
</event>
<event>
 4    1  0.8391192E+003  0.4821234E+02  0.7546771E-02  0.1306115E+00
          2   -1    0    0  501    0  0.00000000000E+00  0.00000000000E+00  0.20931328571E+03  0.20931328571E+03  0.00000000000E+00 0.  1.
          2   -1    0    0  502    0 -0.00000000000E+00 -0.00000000000E+00 -0.35096071953E+02  0.35096071953E+02  0.00000000000E+00 0.  1.
          2    1    1    2  501    0  0.37848583737E+02  0.29864933299E+02 -0.13929026975E+02  0.50184134190E+02  0.00000000000E+00 0.  1.
          2    1    1    2  502    0 -0.37848583737E+02 -0.29864933299E+02  0.18814624073E+03  0.19422522348E+03  0.00000000000E+00 0.  1.
</event>
<event>
 4    1  0.8391192E+003  0.2290643E+02  0.7546771E-02  0.1493676E+00
          2   -1    0    0  501    0  0.00000000000E+00  0.00000000000E+00  0.37762541434E+03  0.37762541434E+03  0.00000000000E+00 0. -1.
          2   -1    0    0  502    0 -0.00000000000E+00 -0.00000000000E+00 -0.95910335858E+03  0.95910335858E+03  0.00000000000E+00 0. -1.
          2    1    1    2  501    0 -0.77694007386E+01 -0.21548575240E+02 -0.95861904238E+03  0.95889268069E+03  0.00000000000E+00 0. -1.
          2    1    1    2  502    0  0.77694007386E+01  0.21548575240E+02  0.37714109814E+03  0.37783609222E+03  0.00000000000E+00 0. -1.
</event>
<event>
 4    1  0.8391192E+003  0.2071376E+02  0.7546771E-02  0.1523391E+00
          2   -1    0    0  502    0  0.00000000000E+00  0.00000000000E+00  0.52187505409E+03  0.52187505409E+03  0.00000000000E+00 0. -1.
          2   -1    0    0  501    0 -0.00000000000E+00 -0.00000000000E+00 -0.16017479179E+03  0.16017479179E+03  0.00000000000E+00 0.  1.
          2    1    1    2  501    0 -0.20584357258E+02 -0.23117409531E+01  0.52099871593E+03  0.52141032011E+03  0.00000000000E+00 0. -1.
          2    1    1    2  502    0  0.20584357258E+02  0.23117409531E+01 -0.15929845364E+03  0.16063952577E+03  0.00000000000E+00 0.  1.
</event>
<event>
 4    1  0.8391192E+003  0.2951818E+02  0.7546771E-02  0.1423830E+00
          2   -1    0    0  501    0  0.00000000000E+00  0.00000000000E+00  0.45650988849E+02  0.45650988849E+02  0.00000000000E+00 0.  1.
          2   -1    0    0  502    0 -0.00000000000E+00 -0.00000000000E+00 -0.35367491378E+02  0.35367491378E+02  0.00000000000E+00 0.  1.
          2    1    1    2  501    0 -0.19752658878E+02  0.21935256406E+02 -0.22342939288E+02  0.37020669124E+02  0.00000000000E+00 0.  1.
          2    1    1    2  502    0  0.19752658878E+02 -0.21935256406E+02  0.32626436758E+02  0.43997811103E+02  0.00000000000E+00 0.  1.
</event>
<event>
 4    1  0.8391192E+003  0.2180569E+02  0.7546771E-02  0.1508065E+00
          2   -1    0    0  501    0  0.00000000000E+00  0.00000000000E+00  0.13559449463E+03  0.13559449463E+03  0.00000000000E+00 0.  1.
          2   -1    0    0  502    0 -0.00000000000E+00 -0.00000000000E+00 -0.60825963452E+02  0.60825963452E+02  0.00000000000E+00 0.  1.
          2    1    1    2  501    0  0.11319659441E+02 -0.18637425155E+02 -0.57952969246E+02  0.61919584549E+02  0.00000000000E+00 0.  1.
          2    1    1    2  502    0 -0.11319659441E+02  0.18637425155E+02  0.13272150042E+03  0.13450087353E+03  0.00000000000E+00 0.  1.
</event>
<event>
 4    1  0.8391192E+003  0.2456879E+02  0.7546771E-02  0.1473685E+00
          2   -1    0    0  502    0  0.00000000000E+00  0.00000000000E+00  0.76259135052E+02  0.76259135052E+02  0.00000000000E+00 0.  1.
          2   -1    0    0  501    0 -0.00000000000E+00 -0.00000000000E+00 -0.32245617207E+03  0.32245617207E+03  0.00000000000E+00 0. -1.
          2    1    1    2  501    0  0.24416537278E+02  0.27309640629E+01  0.73797078825E+02  0.77779395090E+02  0.00000000000E+00 0.  1.
          2    1    1    2  502    0 -0.24416537278E+02 -0.27309640629E+01 -0.31999411585E+03  0.32093591204E+03  0.00000000000E+00 0. -1.
</event>
<event>
 4    1  0.8391192E+003  0.3506217E+02  0.7546771E-02  0.1380127E+00
          2   -1    0    0  502    0  0.00000000000E+00  0.00000000000E+00  0.10242061477E+04  0.10242061477E+04  0.00000000000E+00 0. -1.
          2   -1    0    0  501    0 -0.00000000000E+00 -0.00000000000E+00 -0.19940414005E+01  0.19940414005E+01  0.00000000000E+00 0.  1.
          2    1    1    2  501    0 -0.27788657108E+02 -0.21380974812E+02  0.83482959476E+03  0.83556556166E+03  0.00000000000E+00 0. -1.
          2    1    1    2  502    0  0.27788657108E+02  0.21380974812E+02  0.18738251152E+03  0.19063462742E+03  0.00000000000E+00 0.  1.
</event>
<event>
 4    1  0.8391192E+003  0.2028886E+02  0.7546771E-02  0.1529665E+00
          2   -1    0    0  502    0  0.00000000000E+00  0.00000000000E+00  0.37142091305E+01  0.37142091305E+01  0.00000000000E+00 0.  1.
          2   -1    0    0  501    0 -0.00000000000E+00 -0.00000000000E+00 -0.58418952512E+03  0.58418952512E+03  0.00000000000E+00 0. -1.
          2    1    1    2  501    0  0.15664008962E+02 -0.12894829542E+02 -0.25633973221E+02  0.32691564490E+02  0.00000000000E+00 0.  1.
          2    1    1    2  502    0 -0.15664008962E+02  0.12894829542E+02 -0.55484134277E+03  0.55521216976E+03  0.00000000000E+00 0. -1.
</event>
<event>
 4    1  0.8391192E+003  0.2381071E+02  0.7546771E-02  0.1482561E+00
          2   -1    0    0  502    0  0.00000000000E+00  0.00000000000E+00  0.76223269188E+02  0.76223269188E+02  0.00000000000E+00 0.  1.
          2   -1    0    0  501    0 -0.00000000000E+00 -0.00000000000E+00 -0.24093301373E+02  0.24093301373E+02  0.00000000000E+00 0. -1.
          2    1    1    2  501    0 -0.23764346054E+02 -0.14851934838E+01  0.67768296728E+02  0.71829603817E+02  0.00000000000E+00 0.  1.
          2    1    1    2  502    0  0.23764346054E+02  0.14851934838E+01 -0.15638328913E+02  0.28486966744E+02  0.00000000000E+00 0. -1.
</event>
<event>
 4    1  0.8391192E+003  0.2977110E+02  0.7546771E-02  0.1421596E+00
          2   -1    0    0  501    0  0.00000000000E+00  0.00000000000E+00  0.20025872623E+04  0.20025872623E+04  0.00000000000E+00 0.  1.
          2   -1    0    0  502    0 -0.00000000000E+00 -0.00000000000E+00 -0.94711852222E+02  0.94711852222E+02  0.00000000000E+00 0.  1.
          2    1    1    2  501    0 -0.16811379151E+02  0.24570220412E+02 -0.92258824118E+02  0.96943327917E+02  0.00000000000E+00 0.  1.
          2    1    1    2  502    0  0.16811379151E+02 -0.24570220412E+02  0.20001342342E+04  0.20003557866E+04  0.00000000000E+00 0.  1.
</event>
<event>
 4    1  0.8391192E+003  0.2345185E+02  0.7546771E-02  0.1486901E+00
          2   -1    0    0  502    0  0.00000000000E+00  0.00000000000E+00  0.14653409112E+01  0.14653409112E+01  0.00000000000E+00 0.  1.
          2   -1    0    0  501    0 -0.00000000000E+00 -0.00000000000E+00 -0.11651347120E+04  0.11651347120E+04  0.00000000000E+00 0.  1.
          2    1    1    2  501    0 -0.22993098766E+02 -0.46159358288E+01 -0.10158928576E+03  0.10426107824E+03  0.00000000000E+00 0.  1.
          2    1    1    2  502    0  0.22993098766E+02  0.46159358288E+01 -0.10620800853E+04  0.10623389746E+04  0.00000000000E+00 0.  1.
</event>
<event>
 4    1  0.8391192E+003  0.3758015E+02  0.7546771E-02  0.1363281E+00
          2   -1    0    0  501    0  0.00000000000E+00  0.00000000000E+00  0.14925689415E+04  0.14925689415E+04  0.00000000000E+00 0. -1.
          2   -1    0    0  502    0 -0.00000000000E+00 -0.00000000000E+00 -0.41084562509E+02  0.41084562509E+02  0.00000000000E+00 0. -1.
          2    1    1    2  501    0  0.17230852116E+02 -0.33397081919E+02 -0.32202915802E+02  0.49490353923E+02  0.00000000000E+00 0. -1.
          2    1    1    2  502    0 -0.17230852116E+02  0.33397081919E+02  0.14836872948E+04  0.14841631501E+04  0.00000000000E+00 0. -1.
</event>
<event>
 4    1  0.8391192E+003  0.2287968E+02  0.7546771E-02  0.1494015E+00
          2   -1    0    0  501    0  0.00000000000E+00  0.00000000000E+00  0.55269053912E+03  0.55269053912E+03  0.00000000000E+00 0. -1.
          2   -1    0    0  502    0 -0.00000000000E+00 -0.00000000000E+00 -0.39737008357E+03  0.39737008357E+03  0.00000000000E+00 0. -1.
          2    1    1    2  501    0 -0.22639903639E+02 -0.33037137618E+01 -0.39680361861E+03  0.39746269197E+03  0.00000000000E+00 0. -1.
          2    1    1    2  502    0  0.22639903639E+02  0.33037137618E+01  0.55212407416E+03  0.55259793072E+03  0.00000000000E+00 0. -1.
</event>
<event>
 4    1  0.8391192E+003  0.2431769E+02  0.7546771E-02  0.1476583E+00
          2   -1    0    0  502    0  0.00000000000E+00  0.00000000000E+00  0.57959369178E+00  0.57959369178E+00  0.00000000000E+00 0.  1.
          2   -1    0    0  501    0 -0.00000000000E+00 -0.00000000000E+00 -0.10304550698E+04  0.10304550698E+04  0.00000000000E+00 0.  1.
          2    1    1    2  501    0  0.23529523634E+02 -0.61409693702E+01 -0.56615528793E+03  0.56667729798E+03  0.00000000000E+00 0.  1.
          2    1    1    2  502    0 -0.23529523634E+02  0.61409693702E+01 -0.46372018820E+03  0.46435736554E+03  0.00000000000E+00 0.  1.
</event>
<event>
 4    1  0.8391192E+003  0.2269926E+02  0.7546771E-02  0.1496309E+00
          2   -1    0    0  501    0  0.00000000000E+00  0.00000000000E+00  0.20297907394E+03  0.20297907394E+03  0.00000000000E+00 0.  1.
          2   -1    0    0  502    0 -0.00000000000E+00 -0.00000000000E+00 -0.11227551337E+02  0.11227551337E+02  0.00000000000E+00 0.  1.
          2    1    1    2  501    0  0.21260956819E+02 -0.79516071769E+01  0.16548492918E+01  0.22759500603E+02  0.00000000000E+00 0.  1.
          2    1    1    2  502    0 -0.21260956819E+02  0.79516071769E+01  0.19009667331E+03  0.19144712467E+03  0.00000000000E+00 0.  1.
</event>
<event>
 4    1  0.8391192E+003  0.2010512E+02  0.7546771E-02  0.1532435E+00
          2   -1    0    0  501    0  0.00000000000E+00  0.00000000000E+00  0.28011760565E+03  0.28011760565E+03  0.00000000000E+00 0. -1.
          2   -1    0    0  502    0 -0.00000000000E+00 -0.00000000000E+00 -0.56609540539E+03  0.56609540539E+03  0.00000000000E+00 0. -1.
          2    1    1    2  501    0 -0.93190743963E+01  0.17814906300E+02 -0.56555579508E+03  0.56591304401E+03  0.00000000000E+00 0. -1.
          2    1    1    2  502    0  0.93190743963E+01 -0.17814906300E+02  0.27957799534E+03  0.28029996702E+03  0.00000000000E+00 0. -1.
</event>
<event>
 4    1  0.8391192E+003  0.2211619E+02  0.7546771E-02  0.1503905E+00
          2   -1    0    0  502    0  0.00000000000E+00  0.00000000000E+00  0.59648002705E+02  0.59648002705E+02  0.00000000000E+00 0. -1.
          2   -1    0    0  501    0 -0.00000000000E+00 -0.00000000000E+00 -0.28998287451E+02  0.28998287451E+02  0.00000000000E+00 0. -1.
          2    1    1    2  501    0 -0.19772991127E+02 -0.99072935312E+01  0.52861556653E+02  0.57301569044E+02  0.00000000000E+00 0. -1.
          2    1    1    2  502    0  0.19772991127E+02  0.99072935312E+01 -0.22211841399E+02  0.31344721112E+02  0.00000000000E+00 0. -1.
</event>
<event>
 4    1  0.8391192E+003  0.2250351E+02  0.7546771E-02  0.1498829E+00
          2   -1    0    0  502    0  0.00000000000E+00  0.00000000000E+00  0.18030913671E+03  0.18030913671E+03  0.00000000000E+00 0. -1.
          2   -1    0    0  501    0 -0.00000000000E+00 -0.00000000000E+00 -0.10199594556E+04  0.10199594556E+04  0.00000000000E+00 0.  1.
          2    1    1    2  501    0 -0.21407052618E+02 -0.69387276726E+01  0.17948230427E+03  0.18088754902E+03  0.00000000000E+00 0. -1.
          2    1    1    2  502    0  0.21407052618E+02  0.69387276726E+01 -0.10191326231E+04  0.10193810433E+04  0.00000000000E+00 0.  1.
</event>
<event>
 4    1  0.8391192E+003  0.2377382E+02  0.7546771E-02  0.1483003E+00
          2   -1    0    0  501    0  0.00000000000E+00  0.00000000000E+00  0.61976105908E+02  0.61976105908E+02  0.00000000000E+00 0. -1.
          2   -1    0    0  502    0 -0.00000000000E+00 -0.00000000000E+00 -0.36214732708E+03  0.36214732708E+03  0.00000000000E+00 0. -1.
          2    1    1    2  501    0 -0.20985450891E+02 -0.11171632403E+02 -0.35946024505E+03  0.36024555832E+03  0.00000000000E+00 0. -1.
          2    1    1    2  502    0  0.20985450891E+02  0.11171632403E+02  0.59289023877E+02  0.63877874666E+02  0.00000000000E+00 0. -1.
</event>
<event>
 4    1  0.8391192E+003  0.2700317E+02  0.7546771E-02  0.1447576E+00
          2   -1    0    0  502    0  0.00000000000E+00  0.00000000000E+00  0.13976346032E+03  0.13976346032E+03  0.00000000000E+00 0.  1.
          2   -1    0    0  501    0 -0.00000000000E+00 -0.00000000000E+00 -0.14990784681E+03  0.14990784681E+03  0.00000000000E+00 0. -1.
          2    1    1    2  501    0  0.10772644686E+02 -0.24761290178E+02  0.13722081364E+03  0.13985250466E+03  0.00000000000E+00 0.  1.
          2    1    1    2  502    0 -0.10772644686E+02  0.24761290178E+02 -0.14736520013E+03  0.14981880247E+03  0.00000000000E+00 0. -1.
</event>
<event>
 4    1  0.8391192E+003  0.2150555E+02  0.7546771E-02  0.1512168E+00
          2   -1    0    0  501    0  0.00000000000E+00  0.00000000000E+00  0.11056158824E+03  0.11056158824E+03  0.00000000000E+00 0. -1.
          2   -1    0    0  502    0 -0.00000000000E+00 -0.00000000000E+00 -0.11386684021E+04  0.11386684021E+04  0.00000000000E+00 0. -1.
          2    1    1    2  501    0 -0.89824676267E+01  0.19539807853E+02 -0.11375200330E+04  0.11377233030E+04  0.00000000000E+00 0. -1.
          2    1    1    2  502    0  0.89824676267E+01 -0.19539807853E+02  0.10941321908E+03  0.11150668736E+03  0.00000000000E+00 0. -1.
</event>
<event>
 4    1  0.8391192E+003  0.2693111E+02  0.7546771E-02  0.1448301E+00
          2   -1    0    0  501    0  0.00000000000E+00  0.00000000000E+00  0.67539316860E+03  0.67539316860E+03  0.00000000000E+00 0. -1.
          2   -1    0    0  502    0 -0.00000000000E+00 -0.00000000000E+00 -0.44307941401E+01  0.44307941401E+01  0.00000000000E+00 0.  1.
          2    1    1    2  501    0 -0.21848855708E+02  0.15745225366E+02  0.39614250405E+02  0.47901706157E+02  0.00000000000E+00 0.  1.
          2    1    1    2  502    0  0.21848855708E+02 -0.15745225366E+02  0.63134812405E+03  0.63192225658E+03  0.00000000000E+00 0. -1.
</event>
<event>
 4    1  0.8391192E+003  0.2103519E+02  0.7546771E-02  0.1518763E+00
          2   -1    0    0  502    0  0.00000000000E+00  0.00000000000E+00  0.12453121424E+04  0.12453121424E+04  0.00000000000E+00 0.  1.
          2   -1    0    0  501    0 -0.00000000000E+00 -0.00000000000E+00 -0.10703580676E+01  0.10703580676E+01  0.00000000000E+00 0.  1.
          2    1    1    2  501    0 -0.15634606332E+02 -0.14072609476E+02  0.11314782909E+04  0.11316738055E+04  0.00000000000E+00 0.  1.
          2    1    1    2  502    0  0.15634606332E+02  0.14072609476E+02  0.11276349344E+03  0.11470869499E+03  0.00000000000E+00 0.  1.
</event>
<event>
 4    1  0.8391192E+003  0.2270540E+02  0.7546771E-02  0.1496231E+00
          2   -1    0    0  502    0  0.00000000000E+00  0.00000000000E+00  0.12355360865E+04  0.12355360865E+04  0.00000000000E+00 0.  1.
          2   -1    0    0  501    0 -0.00000000000E+00 -0.00000000000E+00 -0.43123326846E+01  0.43123326846E+01  0.00000000000E+00 0. -1.
          2    1    1    2  501    0  0.13740517335E+02  0.18075765965E+02  0.12047816549E+04  0.12049955896E+04  0.00000000000E+00 0.  1.
          2    1    1    2  502    0 -0.13740517335E+02 -0.18075765965E+02  0.26442099004E+02  0.34852829606E+02  0.00000000000E+00 0. -1.
</event>
<event>
 4    1  0.8391192E+003  0.5382125E+02  0.7546771E-02  0.1282404E+00
          2   -1    0    0  501    0  0.00000000000E+00  0.00000000000E+00  0.30538186260E+03  0.30538186260E+03  0.00000000000E+00 0.  1.
          2   -1    0    0  502    0 -0.00000000000E+00 -0.00000000000E+00 -0.95358718240E+02  0.95358718240E+02  0.00000000000E+00 0.  1.
          2    1    1    2  501    0 -0.38300533790E+02 -0.37812648030E+02 -0.85132051551E+02  0.10071838681E+03  0.00000000000E+00 0.  1.
          2    1    1    2  502    0  0.38300533790E+02  0.37812648030E+02  0.29515519591E+03  0.30002219404E+03  0.00000000000E+00 0.  1.
</event>
<event>
 4    1  0.8391192E+003  0.2940377E+02  0.7546771E-02  0.1424849E+00
          2   -1    0    0  501    0  0.00000000000E+00  0.00000000000E+00  0.12041293819E+04  0.12041293819E+04  0.00000000000E+00 0.  1.
          2   -1    0    0  502    0 -0.00000000000E+00 -0.00000000000E+00 -0.22844458746E+01  0.22844458746E+01  0.00000000000E+00 0.  1.
          2    1    1    2  501    0 -0.20753289486E+02  0.20829848119E+02  0.10142688943E+03  0.10560300894E+03  0.00000000000E+00 0.  1.
          2    1    1    2  502    0  0.20753289486E+02 -0.20829848119E+02  0.11004180466E+04  0.11008108188E+04  0.00000000000E+00 0.  1.
</event>
<event>
 4    1  0.8391192E+003  0.2185994E+02  0.7546771E-02  0.1507332E+00
          2   -1    0    0  501    0  0.00000000000E+00  0.00000000000E+00  0.18246910602E+01  0.18246910602E+01  0.00000000000E+00 0.  1.
          2   -1    0    0  502    0 -0.00000000000E+00 -0.00000000000E+00 -0.86799826879E+03  0.86799826879E+03  0.00000000000E+00 0. -1.
          2    1    1    2  501    0 -0.96062179894E+01  0.19636130477E+02 -0.79651510726E+03  0.79681501815E+03  0.00000000000E+00 0. -1.
          2    1    1    2  502    0  0.96062179894E+01 -0.19636130477E+02 -0.69658470468E+02  0.73007941705E+02  0.00000000000E+00 0.  1.
</event>
<event>
 4    1  0.8391192E+003  0.2309296E+02  0.7546771E-02  0.1491334E+00
          2   -1    0    0  501    0  0.00000000000E+00  0.00000000000E+00  0.16858616718E+02  0.16858616718E+02  0.00000000000E+00 0.  1.
          2   -1    0    0  502    0 -0.00000000000E+00 -0.00000000000E+00 -0.38876997835E+03  0.38876997835E+03  0.00000000000E+00 0.  1.
          2    1    1    2  501    0  0.12920009672E+02  0.19140490603E+02 -0.38034381306E+03  0.38104422468E+03  0.00000000000E+00 0.  1.
          2    1    1    2  502    0 -0.12920009672E+02 -0.19140490603E+02  0.84324514238E+01  0.24584370390E+02  0.00000000000E+00 0.  1.
</event>
<event>
 4    1  0.1241866E+004  0.3210396E+02  0.7546771E-02  0.1402153E+00
          2   -1    0    0  502    0  0.00000000000E+00  0.00000000000E+00  0.85703395899E+03  0.85703395899E+03  0.00000000000E+00 0.  1.
          2   -1    0    0  501    0 -0.00000000000E+00 -0.00000000000E+00 -0.13121152926E+04  0.13121152926E+04  0.00000000000E+00 0. -1.
          2    1    1    2  501    0  0.16588739365E+02 -0.27485961298E+02  0.85653682185E+03  0.85713825695E+03  0.00000000000E+00 0.  1.
          2    1    1    2  502    0 -0.16588739365E+02  0.27485961298E+02 -0.13116181554E+04  0.13120109946E+04  0.00000000000E+00 0. -1.
</event>
<event>
 4    1  0.8391192E+003  0.2129821E+02  0.7546771E-02  0.1515050E+00
          2   -1    0    0  502    0  0.00000000000E+00  0.00000000000E+00  0.30403861482E+03  0.30403861482E+03  0.00000000000E+00 0. -1.
          2   -1    0    0  501    0 -0.00000000000E+00 -0.00000000000E+00 -0.52181041165E+03  0.52181041165E+03  0.00000000000E+00 0.  1.
          2    1    1    2  501    0 -0.19558768711E+02 -0.84301906009E+01  0.30344787538E+03  0.30419438952E+03  0.00000000000E+00 0. -1.
          2    1    1    2  502    0  0.19558768711E+02  0.84301906009E+01 -0.52121967221E+03  0.52165463695E+03  0.00000000000E+00 0.  1.
</event>
<event>
 4    1  0.8391192E+003  0.2934698E+02  0.7546771E-02  0.1425357E+00
          2   -1    0    0  502    0  0.00000000000E+00  0.00000000000E+00  0.17222624670E+02  0.17222624670E+02  0.00000000000E+00 0.  1.
          2   -1    0    0  501    0 -0.00000000000E+00 -0.00000000000E+00 -0.13317035170E+03  0.13317035170E+03  0.00000000000E+00 0.  1.
          2    1    1    2  501    0  0.29276912789E+02  0.20266760656E+01  0.14499886135E+01  0.29382775657E+02  0.00000000000E+00 0.  1.
          2    1    1    2  502    0 -0.29276912789E+02 -0.20266760656E+01 -0.11739771564E+03  0.12101020071E+03  0.00000000000E+00 0.  1.
</event>
<event>
 4    1  0.1032949E+004  0.2227867E+02  0.7546771E-02  0.1501760E+00
          2   -1    0    0  502    0  0.00000000000E+00  0.00000000000E+00  0.14212800816E+04  0.14212800816E+04  0.00000000000E+00 0. -1.
          2   -1    0    0  501    0 -0.00000000000E+00 -0.00000000000E+00 -0.44466934734E+03  0.44466934734E+03  0.00000000000E+00 0. -1.
          2    1    1    2  501    0 -0.14110317219E+02  0.17240600032E+02  0.14209136550E+04  0.14210882993E+04  0.00000000000E+00 0. -1.
          2    1    1    2  502    0  0.14110317219E+02 -0.17240600032E+02 -0.44430292073E+03  0.44486112969E+03  0.00000000000E+00 0. -1.
</event>
<event>
 4    1  0.8391192E+003  0.2503268E+02  0.7546771E-02  0.1468438E+00
          2   -1    0    0  502    0  0.00000000000E+00  0.00000000000E+00  0.94109473215E+03  0.94109473215E+03  0.00000000000E+00 0.  1.
          2   -1    0    0  501    0 -0.00000000000E+00 -0.00000000000E+00 -0.81336503421E+00  0.81336503421E+00  0.00000000000E+00 0.  1.
          2    1    1    2  501    0  0.84237420092E+01 -0.23572770292E+02  0.67070006251E+03  0.67116704983E+03  0.00000000000E+00 0.  1.
          2    1    1    2  502    0 -0.84237420092E+01  0.23572770292E+02  0.26958130461E+03  0.27074104736E+03  0.00000000000E+00 0.  1.
</event>
<event>
 4    1  0.8391192E+003  0.2251897E+02  0.7546771E-02  0.1498628E+00
          2   -1    0    0  502    0  0.00000000000E+00  0.00000000000E+00  0.75976543473E+03  0.75976543473E+03  0.00000000000E+00 0.  1.
          2   -1    0    0  501    0 -0.00000000000E+00 -0.00000000000E+00 -0.32351128175E+02  0.32351128175E+02  0.00000000000E+00 0. -1.
          2    1    1    2  501    0  0.60690051843E+01  0.21685735514E+02  0.75565852944E+03  0.75599399274E+03  0.00000000000E+00 0.  1.
          2    1    1    2  502    0 -0.60690051843E+01 -0.21685735514E+02 -0.28244222886E+02  0.36122570162E+02  0.00000000000E+00 0. -1.
</event>
<event>
 4    1  0.8391192E+003  0.3316913E+02  0.7546771E-02  0.1393913E+00
          2   -1    0    0  502    0  0.00000000000E+00  0.00000000000E+00  0.38253546012E+03  0.38253546012E+03  0.00000000000E+00 0.  1.
          2   -1    0    0  501    0 -0.00000000000E+00 -0.00000000000E+00 -0.16975489222E+02  0.16975489222E+02  0.00000000000E+00 0. -1.
          2    1    1    2  501    0  0.32356683247E+02 -0.72963156269E+01  0.36482905289E+03  0.36633376722E+03  0.00000000000E+00 0.  1.
          2    1    1    2  502    0 -0.32356683247E+02  0.72963156269E+01  0.73091800725E+00  0.33177182123E+02  0.00000000000E+00 0. -1.
</event>
<event>
 4    1  0.8391192E+003  0.2831429E+02  0.7546771E-02  0.1434835E+00
          2   -1    0    0  501    0  0.00000000000E+00  0.00000000000E+00  0.15188879891E+04  0.15188879891E+04  0.00000000000E+00 0.  1.
          2   -1    0    0  502    0 -0.00000000000E+00 -0.00000000000E+00 -0.38230784111E+02  0.38230784111E+02  0.00000000000E+00 0. -1.
          2    1    1    2  501    0  0.10809738135E+02  0.26169608462E+02 -0.32837654498E+02  0.43359086689E+02  0.00000000000E+00 0. -1.
          2    1    1    2  502    0 -0.10809738135E+02 -0.26169608462E+02  0.15134948595E+04  0.15137596865E+04  0.00000000000E+00 0.  1.
</event>
<event>
 4    1  0.8391192E+003  0.2373978E+02  0.7546771E-02  0.1483412E+00
          2   -1    0    0  502    0  0.00000000000E+00  0.00000000000E+00  0.43459375338E+00  0.43459375338E+00  0.00000000000E+00 0.  1.
          2   -1    0    0  501    0 -0.00000000000E+00 -0.00000000000E+00 -0.15981179779E+04  0.15981179779E+04  0.00000000000E+00 0.  1.
          2    1    1    2  501    0  0.17556549841E+02 -0.15979509574E+02 -0.45177600233E+03  0.45239930753E+03  0.00000000000E+00 0.  1.
          2    1    1    2  502    0 -0.17556549841E+02  0.15979509574E+02 -0.11459073818E+04  0.11461532641E+04  0.00000000000E+00 0.  1.
</event>
<event>
 4    1  0.8391192E+003  0.2305915E+02  0.7546771E-02  0.1491757E+00
          2   -1    0    0  502    0  0.00000000000E+00  0.00000000000E+00  0.68099262381E+01  0.68099262381E+01  0.00000000000E+00 0. -1.
          2   -1    0    0  501    0 -0.00000000000E+00 -0.00000000000E+00 -0.17494609002E+03  0.17494609002E+03  0.00000000000E+00 0. -1.
          2    1    1    2  501    0 -0.10568666313E+02  0.20494572384E+02 -0.16445637685E+02  0.28322838906E+02  0.00000000000E+00 0. -1.
          2    1    1    2  502    0  0.10568666313E+02 -0.20494572384E+02 -0.15169052609E+03  0.15343317735E+03  0.00000000000E+00 0. -1.
</event>
<event>
 4    1  0.8391192E+003  0.2118427E+02  0.7546771E-02  0.1516650E+00
          2   -1    0    0  501    0  0.00000000000E+00  0.00000000000E+00  0.47423774061E+03  0.47423774061E+03  0.00000000000E+00 0.  1.
          2   -1    0    0  502    0 -0.00000000000E+00 -0.00000000000E+00 -0.40546137082E+01  0.40546137082E+01  0.00000000000E+00 0.  1.
          2    1    1    2  501    0 -0.20520677855E+02  0.52606989617E+01  0.25704026590E+02  0.33308709914E+02  0.00000000000E+00 0.  1.
          2    1    1    2  502    0  0.20520677855E+02 -0.52606989617E+01  0.44447910031E+03  0.44498364440E+03  0.00000000000E+00 0.  1.
</event>
<event>
 4    1  0.8391192E+003  0.6170355E+02  0.7546771E-02  0.1254152E+00
          2   -1    0    0  501    0  0.00000000000E+00  0.00000000000E+00  0.71444841343E+03  0.71444841343E+03  0.00000000000E+00 0.  1.
          2   -1    0    0  502    0 -0.00000000000E+00 -0.00000000000E+00 -0.44526407437E+03  0.44526407437E+03  0.00000000000E+00 0. -1.
          2    1    1    2  501    0  0.54425882912E+02  0.29071481695E+02 -0.44178368857E+03  0.44607191715E+03  0.00000000000E+00 0. -1.
          2    1    1    2  502    0 -0.54425882912E+02 -0.29071481695E+02  0.71096802763E+03  0.71364057066E+03  0.00000000000E+00 0.  1.
</event>
<event>
 4    1  0.8391192E+003  0.4061704E+02  0.7546771E-02  0.1344907E+00
          2   -1    0    0  501    0  0.00000000000E+00  0.00000000000E+00  0.45376050777E+02  0.45376050777E+02  0.00000000000E+00 0. -1.
          2   -1    0    0  502    0 -0.00000000000E+00 -0.00000000000E+00 -0.17176404090E+03  0.17176404090E+03  0.00000000000E+00 0. -1.
          2    1    1    2  501    0 -0.37175277245E+02  0.16362842122E+02 -0.15959116447E+03  0.16467872850E+03  0.00000000000E+00 0. -1.
          2    1    1    2  502    0  0.37175277245E+02 -0.16362842122E+02  0.33203174347E+02  0.52461363186E+02  0.00000000000E+00 0. -1.
</event>
<event>
 4    1  0.8391192E+003  0.3484912E+02  0.7546771E-02  0.1381627E+00
          2   -1    0    0  502    0  0.00000000000E+00  0.00000000000E+00  0.69708118142E+03  0.69708118142E+03  0.00000000000E+00 0.  1.
          2   -1    0    0  501    0 -0.00000000000E+00 -0.00000000000E+00 -0.24741778716E+02  0.24741778716E+02  0.00000000000E+00 0. -1.
          2    1    1    2  501    0 -0.24488010539E+02  0.24795130883E+02  0.68414233651E+03  0.68502934082E+03  0.00000000000E+00 0.  1.
          2    1    1    2  502    0  0.24488010539E+02 -0.24795130883E+02 -0.11802933810E+02  0.36793619314E+02  0.00000000000E+00 0. -1.
</event>
<event>
 4    1  0.8391192E+003  0.2058415E+02  0.7546771E-02  0.1525286E+00
          2   -1    0    0  502    0  0.00000000000E+00  0.00000000000E+00  0.19330095290E+02  0.19330095290E+02  0.00000000000E+00 0.  1.
          2   -1    0    0  501    0 -0.00000000000E+00 -0.00000000000E+00 -0.31162503721E+02  0.31162503721E+02  0.00000000000E+00 0. -1.
          2    1    1    2  501    0 -0.19953066662E+02  0.50579183265E+01  0.78332810874E+01  0.22024252533E+02  0.00000000000E+00 0.  1.
          2    1    1    2  502    0  0.19953066662E+02 -0.50579183265E+01 -0.19665689518E+02  0.28468346479E+02  0.00000000000E+00 0. -1.
</event>
<event>
 4    1  0.8391192E+003  0.2149362E+02  0.7546771E-02  0.1512333E+00
          2   -1    0    0  501    0  0.00000000000E+00  0.00000000000E+00  0.13240579296E+04  0.13240579296E+04  0.00000000000E+00 0. -1.
          2   -1    0    0  502    0 -0.00000000000E+00 -0.00000000000E+00 -0.66114530348E+01  0.66114530348E+01  0.00000000000E+00 0.  1.
          2    1    1    2  501    0  0.76452072706E+01  0.20087969763E+02  0.11182484513E+02  0.24228571631E+02  0.00000000000E+00 0.  1.
          2    1    1    2  502    0 -0.76452072706E+01 -0.20087969763E+02  0.13062639920E+04  0.13064408110E+04  0.00000000000E+00 0. -1.
</event>
<event>
 4    1  0.8391192E+003  0.2600014E+02  0.7546771E-02  0.1457919E+00
          2   -1    0    0  502    0  0.00000000000E+00  0.00000000000E+00  0.27808134587E+03  0.27808134587E+03  0.00000000000E+00 0. -1.
          2   -1    0    0  501    0 -0.00000000000E+00 -0.00000000000E+00 -0.82717574009E+01  0.82717574009E+01  0.00000000000E+00 0.  1.
          2    1    1    2  501    0  0.25170137306E+02  0.65170239570E+01  0.25521672677E+03  0.25653768736E+03  0.00000000000E+00 0. -1.
          2    1    1    2  502    0 -0.25170137306E+02 -0.65170239570E+01  0.14592861697E+02  0.29815415908E+02  0.00000000000E+00 0.  1.
</event>
<event>
 4    1  0.8391192E+003  0.2605862E+02  0.7546771E-02  0.1457301E+00
          2   -1    0    0  501    0  0.00000000000E+00  0.00000000000E+00  0.22410724995E+04  0.22410724995E+04  0.00000000000E+00 0. -1.
          2   -1    0    0  502    0 -0.00000000000E+00 -0.00000000000E+00 -0.51885647390E+00  0.51885647390E+00  0.00000000000E+00 0.  1.
          2    1    1    2  501    0  0.13198387229E+02  0.22468962964E+02  0.39736998031E+03  0.39822349626E+03  0.00000000000E+00 0.  1.
          2    1    1    2  502    0 -0.13198387229E+02 -0.22468962964E+02  0.18431836628E+04  0.18433678598E+04  0.00000000000E+00 0. -1.
</event>
<event>
 4    1  0.8391192E+003  0.2407460E+02  0.7546771E-02  0.1479428E+00
          2   -1    0    0  501    0  0.00000000000E+00  0.00000000000E+00  0.46649697253E+03  0.46649697253E+03  0.00000000000E+00 0.  1.
          2   -1    0    0  502    0 -0.00000000000E+00 -0.00000000000E+00 -0.29378445538E+01  0.29378445538E+01  0.00000000000E+00 0.  1.
          2    1    1    2  501    0  0.23535132963E+02 -0.50679227782E+01  0.53471981447E+02  0.58641615980E+02  0.00000000000E+00 0.  1.
          2    1    1    2  502    0 -0.23535132963E+02  0.50679227782E+01  0.41008714653E+03  0.41079320111E+03  0.00000000000E+00 0.  1.
</event>
<event>
 4    1  0.8391192E+003  0.2063343E+02  0.7546771E-02  0.1524563E+00
          2   -1    0    0  501    0  0.00000000000E+00  0.00000000000E+00  0.72761393131E+03  0.72761393131E+03  0.00000000000E+00 0. -1.
          2   -1    0    0  502    0 -0.00000000000E+00 -0.00000000000E+00 -0.29547961254E+01  0.29547961254E+01  0.00000000000E+00 0.  1.
          2    1    1    2  501    0  0.20455882173E+02  0.27009833872E+01  0.35205723667E+02  0.40806634334E+02  0.00000000000E+00 0.  1.
          2    1    1    2  502    0 -0.20455882173E+02 -0.27009833872E+01  0.68945341152E+03  0.68976209310E+03  0.00000000000E+00 0. -1.
</event>
<event>
 4    1  0.8391192E+003  0.2175768E+02  0.7546771E-02  0.1508716E+00
          2   -1    0    0  502    0  0.00000000000E+00  0.00000000000E+00  0.47205020060E+03  0.47205020060E+03  0.00000000000E+00 0. -1.
          2   -1    0    0  501    0 -0.00000000000E+00 -0.00000000000E+00 -0.10288706413E+01  0.10288706413E+01  0.00000000000E+00 0. -1.
          2    1    1    2  501    0 -0.20938138738E+02 -0.59153011043E+01  0.27312613449E+03  0.27399138998E+03  0.00000000000E+00 0. -1.
          2    1    1    2  502    0  0.20938138738E+02  0.59153011043E+01  0.19789519547E+03  0.19908768126E+03  0.00000000000E+00 0. -1.
</event>
<event>
 4    1  0.8391192E+003  0.2107584E+02  0.7546771E-02  0.1518185E+00
          2   -1    0    0  501    0  0.00000000000E+00  0.00000000000E+00  0.10133790127E+03  0.10133790127E+03  0.00000000000E+00 0.  1.
          2   -1    0    0  502    0 -0.00000000000E+00 -0.00000000000E+00 -0.69237997383E+03  0.69237997383E+03  0.00000000000E+00 0. -1.
          2    1    1    2  501    0  0.19926511572E+02  0.68647766606E+01 -0.69112177716E+03  0.69144305759E+03  0.00000000000E+00 0. -1.
          2    1    1    2  502    0 -0.19926511572E+02 -0.68647766606E+01  0.10007970460E+03  0.10227481750E+03  0.00000000000E+00 0.  1.
</event>
<event>
 4    1  0.8391192E+003  0.2918574E+02  0.7546771E-02  0.1426807E+00
          2   -1    0    0  502    0  0.00000000000E+00  0.00000000000E+00  0.53992818354E+01  0.53992818354E+01  0.00000000000E+00 0. -1.
          2   -1    0    0  501    0 -0.00000000000E+00 -0.00000000000E+00 -0.17567970033E+03  0.17567970033E+03  0.00000000000E+00 0. -1.
          2    1    1    2  501    0  0.27848616606E+02  0.87328200292E+01 -0.56226439452E+02  0.63349980947E+02  0.00000000000E+00 0. -1.
          2    1    1    2  502    0 -0.27848616606E+02 -0.87328200292E+01 -0.11405397904E+03  0.11772900122E+03  0.00000000000E+00 0. -1.
</event>
<event>
 4    1  0.1827279E+004  0.2289910E+02  0.7546771E-02  0.1493769E+00
          2   -1    0    0  502    0  0.00000000000E+00  0.00000000000E+00  0.13807891114E+04  0.13807891114E+04  0.00000000000E+00 0.  1.
          2   -1    0    0  501    0 -0.00000000000E+00 -0.00000000000E+00 -0.14621619735E+04  0.14621619735E+04  0.00000000000E+00 0.  1.
          2    1    1    2  501    0  0.14550412112E+02 -0.17682037316E+02  0.13806045029E+04  0.13807943954E+04  0.00000000000E+00 0.  1.
          2    1    1    2  502    0 -0.14550412112E+02  0.17682037316E+02 -0.14619773650E+04  0.14621566895E+04  0.00000000000E+00 0.  1.
</event>
<event>
 4    1  0.8391192E+003  0.4616510E+02  0.7546771E-02  0.1315714E+00
          2   -1    0    0  501    0  0.00000000000E+00  0.00000000000E+00  0.61485171550E+03  0.61485171550E+03  0.00000000000E+00 0.  1.
          2   -1    0    0  502    0 -0.00000000000E+00 -0.00000000000E+00 -0.67026957985E+01  0.67026957985E+01  0.00000000000E+00 0. -1.
          2    1    1    2  501    0 -0.44879639661E+02 -0.10818259114E+02  0.88121139010E+02  0.99481414982E+02  0.00000000000E+00 0. -1.
          2    1    1    2  502    0  0.44879639661E+02  0.10818259114E+02  0.52002788069E+03  0.52207299631E+03  0.00000000000E+00 0.  1.
</event>
<event>
 4    1  0.8391192E+003  0.2330677E+02  0.7546771E-02  0.1488681E+00
          2   -1    0    0  501    0  0.00000000000E+00  0.00000000000E+00  0.51979558185E+03  0.51979558185E+03  0.00000000000E+00 0.  1.
          2   -1    0    0  502    0 -0.00000000000E+00 -0.00000000000E+00 -0.28394423631E+03  0.28394423631E+03  0.00000000000E+00 0.  1.
          2    1    1    2  501    0  0.90736318866E+01 -0.21467996195E+02 -0.28320402744E+03  0.28416144498E+03  0.00000000000E+00 0.  1.
          2    1    1    2  502    0 -0.90736318866E+01  0.21467996195E+02  0.51905537298E+03  0.51957837318E+03  0.00000000000E+00 0.  1.
</event>
<event>
 4    1  0.8391192E+003  0.4134811E+02  0.7546771E-02  0.1340762E+00
          2   -1    0    0  502    0  0.00000000000E+00  0.00000000000E+00  0.83970471113E+03  0.83970471113E+03  0.00000000000E+00 0. -1.
          2   -1    0    0  501    0 -0.00000000000E+00 -0.00000000000E+00 -0.12335289159E+02  0.12335289159E+02  0.00000000000E+00 0.  1.
          2    1    1    2  501    0  0.33092985507E+02 -0.24789517390E+02  0.80296128278E+03  0.80402517840E+03  0.00000000000E+00 0. -1.
          2    1    1    2  502    0 -0.33092985507E+02  0.24789517390E+02  0.24408139197E+02  0.48014821891E+02  0.00000000000E+00 0.  1.
</event>
<event>
 4    1  0.8391192E+003  0.3329591E+02  0.7546771E-02  0.1392956E+00
          2   -1    0    0  502    0  0.00000000000E+00  0.00000000000E+00  0.13678873175E+04  0.13678873175E+04  0.00000000000E+00 0.  1.
          2   -1    0    0  501    0 -0.00000000000E+00 -0.00000000000E+00 -0.99865520802E+01  0.99865520802E+01  0.00000000000E+00 0.  1.
          2    1    1    2  501    0  0.29575823627E+02 -0.15293398641E+02  0.13393405134E+04  0.13397543163E+04  0.00000000000E+00 0.  1.
          2    1    1    2  502    0 -0.29575823627E+02  0.15293398641E+02  0.18560252095E+02  0.38119553290E+02  0.00000000000E+00 0.  1.
</event>
<event>
 4    1  0.8391192E+003  0.4650065E+02  0.7546771E-02  0.1314102E+00
          2   -1    0    0  502    0  0.00000000000E+00  0.00000000000E+00  0.12749166489E+04  0.12749166489E+04  0.00000000000E+00 0.  1.
          2   -1    0    0  501    0 -0.00000000000E+00 -0.00000000000E+00 -0.25080297459E+03  0.25080297459E+03  0.00000000000E+00 0.  1.
          2    1    1    2  501    0 -0.15576272028E+02 -0.43814272459E+02  0.12723328753E+04  0.12731823343E+04  0.00000000000E+00 0.  1.
          2    1    1    2  502    0  0.15576272028E+02  0.43814272459E+02 -0.24821920097E+03  0.25253728923E+03  0.00000000000E+00 0.  1.
</event>
<event>
 4    1  0.8391192E+003  0.2667126E+02  0.7546771E-02  0.1450939E+00
          2   -1    0    0  501    0  0.00000000000E+00  0.00000000000E+00  0.46163857694E+02  0.46163857694E+02  0.00000000000E+00 0.  1.
          2   -1    0    0  502    0 -0.00000000000E+00 -0.00000000000E+00 -0.18178536232E+03  0.18178536232E+03  0.00000000000E+00 0. -1.
          2    1    1    2  501    0 -0.25497744947E+02  0.78244027918E+01 -0.17684777399E+03  0.17884767665E+03  0.00000000000E+00 0. -1.
          2    1    1    2  502    0  0.25497744947E+02 -0.78244027918E+01  0.41226269358E+02  0.49101543373E+02  0.00000000000E+00 0.  1.
</event>
<event>
 4    1  0.8391192E+003  0.3998061E+02  0.7546771E-02  0.1348599E+00
          2   -1    0    0  501    0  0.00000000000E+00  0.00000000000E+00  0.14458175410E+04  0.14458175410E+04  0.00000000000E+00 0.  1.
          2   -1    0    0  502    0 -0.00000000000E+00 -0.00000000000E+00 -0.24291050254E+01  0.24291050254E+01  0.00000000000E+00 0.  1.
          2    1    1    2  501    0  0.26402149022E+02 -0.30022914016E+02  0.18718213867E+03  0.19140428907E+03  0.00000000000E+00 0.  1.
          2    1    1    2  502    0 -0.26402149022E+02  0.30022914016E+02  0.12562062974E+04  0.12568423570E+04  0.00000000000E+00 0.  1.
</event>
<event>
 4    1  0.8391192E+003  0.2125886E+02  0.7546771E-02  0.1515601E+00
          2   -1    0    0  502    0  0.00000000000E+00  0.00000000000E+00  0.46247800554E+03  0.46247800554E+03  0.00000000000E+00 0. -1.
          2   -1    0    0  501    0 -0.00000000000E+00 -0.00000000000E+00 -0.14559097362E+01  0.14559097362E+01  0.00000000000E+00 0.  1.
          2    1    1    2  501    0 -0.20173046317E+02  0.67072545437E+01  0.36352266817E+03  0.36414374817E+03  0.00000000000E+00 0. -1.
          2    1    1    2  502    0  0.20173046317E+02 -0.67072545437E+01  0.97499427633E+02  0.99790167101E+02  0.00000000000E+00 0.  1.
</event>
<event>
 4    1  0.8391192E+003  0.2163358E+02  0.7546771E-02  0.1510408E+00
          2   -1    0    0  502    0  0.00000000000E+00  0.00000000000E+00  0.73959839114E+02  0.73959839114E+02  0.00000000000E+00 0.  1.
          2   -1    0    0  501    0 -0.00000000000E+00 -0.00000000000E+00 -0.11698975042E+03  0.11698975042E+03  0.00000000000E+00 0. -1.
          2    1    1    2  501    0  0.19293530459E+02  0.97862849592E+01  0.71341853892E+02  0.74549794149E+02  0.00000000000E+00 0.  1.
          2    1    1    2  502    0 -0.19293530459E+02 -0.97862849592E+01 -0.11437176520E+03  0.11639979539E+03  0.00000000000E+00 0. -1.
</event>
<event>
 4    1  0.8391192E+003  0.3832932E+02  0.7546771E-02  0.1358564E+00
          2   -1    0    0  502    0  0.00000000000E+00  0.00000000000E+00  0.95701573520E+03  0.95701573520E+03  0.00000000000E+00 0. -1.
          2   -1    0    0  501    0 -0.00000000000E+00 -0.00000000000E+00 -0.35146728469E+03  0.35146728469E+03  0.00000000000E+00 0.  1.
          2    1    1    2  501    0 -0.34750273794E+02 -0.16172665850E+02  0.95558538853E+03  0.95635378988E+03  0.00000000000E+00 0. -1.
          2    1    1    2  502    0  0.34750273794E+02  0.16172665850E+02 -0.35003693802E+03  0.35212923001E+03  0.00000000000E+00 0.  1.
</event>
<event>
 4    1  0.8391192E+003  0.3455753E+02  0.7546771E-02  0.1383701E+00
          2   -1    0    0  502    0  0.00000000000E+00  0.00000000000E+00  0.65437762061E+03  0.65437762061E+03  0.00000000000E+00 0. -1.
          2   -1    0    0  501    0 -0.00000000000E+00 -0.00000000000E+00 -0.99001774904E+01  0.99001774904E+01  0.00000000000E+00 0. -1.
          2    1    1    2  501    0  0.75379379180E+01 -0.33725395307E+02  0.62220674549E+03  0.62316567374E+03  0.00000000000E+00 0. -1.
          2    1    1    2  502    0 -0.75379379180E+01  0.33725395307E+02  0.22270697637E+02  0.41112124367E+02  0.00000000000E+00 0. -1.
</event>
<event>
 4    1  0.8391192E+003  0.3306447E+02  0.7546771E-02  0.1394706E+00
          2   -1    0    0  501    0  0.00000000000E+00  0.00000000000E+00  0.24427307143E+02  0.24427307143E+02  0.00000000000E+00 0.  1.
          2   -1    0    0  502    0 -0.00000000000E+00 -0.00000000000E+00 -0.81444692224E+03  0.81444692224E+03  0.00000000000E+00 0. -1.
          2    1    1    2  501    0  0.33056265976E+02  0.73652179073E+00 -0.80275960548E+03  0.80344025501E+03  0.00000000000E+00 0. -1.
          2    1    1    2  502    0 -0.33056265976E+02 -0.73652179073E+00  0.12739990384E+02  0.35433974370E+02  0.00000000000E+00 0.  1.
</event>
<event>
 4    1  0.8391192E+003  0.2458052E+02  0.7546771E-02  0.1473551E+00
          2   -1    0    0  502    0  0.00000000000E+00  0.00000000000E+00  0.16094080421E+04  0.16094080421E+04  0.00000000000E+00 0. -1.
          2   -1    0    0  501    0 -0.00000000000E+00 -0.00000000000E+00 -0.11592842276E+01  0.11592842276E+01  0.00000000000E+00 0. -1.
          2    1    1    2  501    0  0.15439885638E+01  0.24531977002E+02  0.14663023387E+04  0.14665083533E+04  0.00000000000E+00 0. -1.
          2    1    1    2  502    0 -0.15439885638E+01 -0.24531977002E+02  0.14194641916E+03  0.14405897302E+03  0.00000000000E+00 0. -1.
</event>
<event>
 4    1  0.8391192E+003  0.3051450E+02  0.7546771E-02  0.1415177E+00
          2   -1    0    0  502    0  0.00000000000E+00  0.00000000000E+00  0.24790871459E+01  0.24790871459E+01  0.00000000000E+00 0.  1.
          2   -1    0    0  501    0 -0.00000000000E+00 -0.00000000000E+00 -0.37669553855E+03  0.37669553855E+03  0.00000000000E+00 0.  1.
          2    1    1    2  501    0  0.24646565968E+02 -0.17991142983E+02 -0.19735249656E+03  0.19969762727E+03  0.00000000000E+00 0.  1.
          2    1    1    2  502    0 -0.24646565968E+02  0.17991142983E+02 -0.17686395484E+03  0.17947699842E+03  0.00000000000E+00 0.  1.
</event>
<event>
 4    1  0.8391192E+003  0.2615285E+02  0.7546771E-02  0.1456309E+00
          2   -1    0    0  502    0  0.00000000000E+00  0.00000000000E+00  0.85330002185E+00  0.85330002185E+00  0.00000000000E+00 0. -1.
          2   -1    0    0  501    0 -0.00000000000E+00 -0.00000000000E+00 -0.14562344812E+04  0.14562344812E+04  0.00000000000E+00 0. -1.
          2    1    1    2  501    0  0.25708635577E+02  0.47997349994E+01 -0.23920396108E+03  0.24062939636E+03  0.00000000000E+00 0. -1.
          2    1    1    2  502    0 -0.25708635577E+02 -0.47997349994E+01 -0.12161772201E+04  0.12164583848E+04  0.00000000000E+00 0. -1.
</event>
<event>
 4    1  0.8391192E+003  0.2322751E+02  0.7546771E-02  0.1489661E+00
          2   -1    0    0  502    0  0.00000000000E+00  0.00000000000E+00  0.13794869349E+04  0.13794869349E+04  0.00000000000E+00 0. -1.
          2   -1    0    0  501    0 -0.00000000000E+00 -0.00000000000E+00 -0.14985514354E+03  0.14985514354E+03  0.00000000000E+00 0. -1.
          2    1    1    2  501    0  0.10213448870E+02 -0.20861510257E+02  0.13784884435E+04  0.13786841212E+04  0.00000000000E+00 0. -1.
          2    1    1    2  502    0 -0.10213448870E+02  0.20861510257E+02 -0.14885665222E+03  0.15065795717E+03  0.00000000000E+00 0. -1.
</event>
<event>
 4    1  0.8391192E+003  0.2444069E+02  0.7546771E-02  0.1475159E+00
          2   -1    0    0  502    0  0.00000000000E+00  0.00000000000E+00  0.45193013928E+02  0.45193013928E+02  0.00000000000E+00 0.  1.
          2   -1    0    0  501    0 -0.00000000000E+00 -0.00000000000E+00 -0.14184711465E+04  0.14184711465E+04  0.00000000000E+00 0. -1.
          2    1    1    2  501    0 -0.13718812879E+02 -0.20227243097E+02  0.41775331288E+02  0.48399643535E+02  0.00000000000E+00 0.  1.
          2    1    1    2  502    0  0.13718812879E+02  0.20227243097E+02 -0.14150534638E+04  0.14152645169E+04  0.00000000000E+00 0. -1.
</event>
<event>
 4    1  0.8391192E+003  0.7200467E+02  0.7546771E-02  0.1223734E+00
          2   -1    0    0  502    0  0.00000000000E+00  0.00000000000E+00  0.16654761741E+04  0.16654761741E+04  0.00000000000E+00 0.  1.
          2   -1    0    0  501    0 -0.00000000000E+00 -0.00000000000E+00 -0.12452317863E+02  0.12452317863E+02  0.00000000000E+00 0.  1.
          2    1    1    2  501    0 -0.71411940748E+02 -0.92199722660E+01  0.15530782985E+04  0.15547465628E+04  0.00000000000E+00 0.  1.
          2    1    1    2  502    0  0.71411940748E+02  0.92199722660E+01  0.99945557765E+02  0.12318192922E+03  0.00000000000E+00 0.  1.
</event>
<event>
 4    1  0.8391192E+003  0.2117149E+02  0.7546771E-02  0.1516830E+00
          2   -1    0    0  502    0  0.00000000000E+00  0.00000000000E+00  0.51959408638E+03  0.51959408638E+03  0.00000000000E+00 0. -1.
          2   -1    0    0  501    0 -0.00000000000E+00 -0.00000000000E+00 -0.75520966996E+03  0.75520966996E+03  0.00000000000E+00 0.  1.
          2    1    1    2  501    0  0.18972922487E+02  0.93946830736E+01  0.51922993799E+03  0.51966139010E+03  0.00000000000E+00 0. -1.
          2    1    1    2  502    0 -0.18972922487E+02 -0.93946830736E+01 -0.75484552157E+03  0.75514236624E+03  0.00000000000E+00 0.  1.
</event>
<event>
 4    1  0.8391192E+003  0.2783317E+02  0.7546771E-02  0.1439414E+00
          2   -1    0    0  501    0  0.00000000000E+00  0.00000000000E+00  0.73180828331E+02  0.73180828331E+02  0.00000000000E+00 0.  1.
          2   -1    0    0  502    0 -0.00000000000E+00 -0.00000000000E+00 -0.24214468344E+02  0.24214468344E+02  0.00000000000E+00 0.  1.
          2    1    1    2  501    0 -0.51451706358E+01 -0.27353472080E+02 -0.12050681358E+02  0.30329921479E+02  0.00000000000E+00 0.  1.
          2    1    1    2  502    0  0.51451706358E+01  0.27353472080E+02  0.61017041345E+02  0.67065375196E+02  0.00000000000E+00 0.  1.
</event>
<event>
 4    1  0.8391192E+003  0.2454952E+02  0.7546771E-02  0.1473906E+00
          2   -1    0    0  502    0  0.00000000000E+00  0.00000000000E+00  0.20262060082E+03  0.20262060082E+03  0.00000000000E+00 0.  1.
          2   -1    0    0  501    0 -0.00000000000E+00 -0.00000000000E+00 -0.10669284404E+04  0.10669284404E+04  0.00000000000E+00 0.  1.
          2    1    1    2  501    0 -0.34737508495E+01 -0.24302512046E+02  0.20173515970E+03  0.20322340834E+03  0.00000000000E+00 0.  1.
          2    1    1    2  502    0  0.34737508495E+01  0.24302512046E+02 -0.10660429993E+04  0.10663256329E+04  0.00000000000E+00 0.  1.
</event>
<event>
 4    1  0.8391192E+003  0.2914290E+02  0.7546771E-02  0.1427194E+00
          2   -1    0    0  502    0  0.00000000000E+00  0.00000000000E+00  0.77401137360E+03  0.77401137360E+03  0.00000000000E+00 0. -1.
          2   -1    0    0  501    0 -0.00000000000E+00 -0.00000000000E+00 -0.84977908852E+01  0.84977908852E+01  0.00000000000E+00 0. -1.
          2    1    1    2  501    0  0.28882470957E+02  0.38873321593E+01  0.74787813370E+03  0.74844573040E+03  0.00000000000E+00 0. -1.
          2    1    1    2  502    0 -0.28882470957E+02 -0.38873321593E+01  0.17635449010E+02  0.34063434085E+02  0.00000000000E+00 0. -1.
</event>
<event>
 4    1  0.8391192E+003  0.3581974E+02  0.7546771E-02  0.1374890E+00
          2   -1    0    0  501    0  0.00000000000E+00  0.00000000000E+00  0.51595012313E+02  0.51595012313E+02  0.00000000000E+00 0. -1.
          2   -1    0    0  502    0 -0.00000000000E+00 -0.00000000000E+00 -0.36625129543E+02  0.36625129543E+02  0.00000000000E+00 0.  1.
          2    1    1    2  501    0 -0.31476412524E+02 -0.17096477377E+02 -0.17507152686E+02  0.39869217189E+02  0.00000000000E+00 0.  1.
          2    1    1    2  502    0  0.31476412524E+02  0.17096477377E+02  0.32477035456E+02  0.48350924667E+02  0.00000000000E+00 0. -1.
</event>
<event>
 4    1  0.8391192E+003  0.2238844E+02  0.7546771E-02  0.1500324E+00
          2   -1    0    0  502    0  0.00000000000E+00  0.00000000000E+00  0.91649105479E+03  0.91649105479E+03  0.00000000000E+00 0.  1.
          2   -1    0    0  501    0 -0.00000000000E+00 -0.00000000000E+00 -0.39793519095E+03  0.39793519095E+03  0.00000000000E+00 0.  1.
          2    1    1    2  501    0 -0.22093627398E+02 -0.36213340260E+01  0.91603926878E+03  0.91631282016E+03  0.00000000000E+00 0.  1.
          2    1    1    2  502    0  0.22093627398E+02  0.36213340260E+01 -0.39748340494E+03  0.39811342559E+03  0.00000000000E+00 0.  1.
</event>
<event>
 4    1  0.8391192E+003  0.2078262E+02  0.7546771E-02  0.1522391E+00
          2   -1    0    0  501    0  0.00000000000E+00  0.00000000000E+00  0.30026612229E+03  0.30026612229E+03  0.00000000000E+00 0.  1.
          2   -1    0    0  502    0 -0.00000000000E+00 -0.00000000000E+00 -0.14220816086E+02  0.14220816086E+02  0.00000000000E+00 0.  1.
          2    1    1    2  501    0  0.20767801250E+02 -0.78463120364E+00 -0.60561907600E+01  0.21647047406E+02  0.00000000000E+00 0.  1.
          2    1    1    2  502    0 -0.20767801250E+02  0.78463120364E+00  0.29210149696E+03  0.29283989097E+03  0.00000000000E+00 0.  1.
</event>
<event>
 4    1  0.8391192E+003  0.3754595E+02  0.7546771E-02  0.1363499E+00
          2   -1    0    0  502    0  0.00000000000E+00  0.00000000000E+00  0.21015350982E+04  0.21015350982E+04  0.00000000000E+00 0. -1.
          2   -1    0    0  501    0 -0.00000000000E+00 -0.00000000000E+00 -0.51631529630E+01  0.51631529630E+01  0.00000000000E+00 0. -1.
          2    1    1    2  501    0  0.31000307766E+02  0.21182051610E+02  0.20307300452E+04  0.20310771071E+04  0.00000000000E+00 0. -1.
          2    1    1    2  502    0 -0.31000307766E+02 -0.21182051610E+02  0.65641899975E+02  0.75621144029E+02  0.00000000000E+00 0. -1.
</event>
<event>
 4    1  0.8391192E+003  0.2120109E+02  0.7546771E-02  0.1516413E+00
          2   -1    0    0  502    0  0.00000000000E+00  0.00000000000E+00  0.39052840125E+02  0.39052840125E+02  0.00000000000E+00 0.  1.
          2   -1    0    0  501    0 -0.00000000000E+00 -0.00000000000E+00 -0.93535765957E+02  0.93535765957E+02  0.00000000000E+00 0. -1.
          2    1    1    2  501    0  0.73344005904E+01  0.19892026550E+02  0.34840196791E+02  0.40783887318E+02  0.00000000000E+00 0.  1.
          2    1    1    2  502    0 -0.73344005904E+01 -0.19892026550E+02 -0.89323122624E+02  0.91804718765E+02  0.00000000000E+00 0. -1.
</event>
<event>
 4    1  0.8391192E+003  0.2146010E+02  0.7546771E-02  0.1512796E+00
          2   -1    0    0  501    0  0.00000000000E+00  0.00000000000E+00  0.13130084893E+01  0.13130084893E+01  0.00000000000E+00 0. -1.
          2   -1    0    0  502    0 -0.00000000000E+00 -0.00000000000E+00 -0.15463401859E+04  0.15463401859E+04  0.00000000000E+00 0. -1.
          2    1    1    2  501    0 -0.10543246844E+02  0.18691603269E+02 -0.14529421410E+04  0.14531006163E+04  0.00000000000E+00 0. -1.
          2    1    1    2  502    0  0.10543246844E+02 -0.18691603269E+02 -0.92085036416E+02  0.94552578064E+02  0.00000000000E+00 0. -1.
</event>
<event>
 4    1  0.8391192E+003  0.2491587E+02  0.7546771E-02  0.1469747E+00
          2   -1    0    0  501    0  0.00000000000E+00  0.00000000000E+00  0.87522401535E+03  0.87522401535E+03  0.00000000000E+00 0.  1.
          2   -1    0    0  502    0 -0.00000000000E+00 -0.00000000000E+00 -0.42647656581E+02  0.42647656581E+02  0.00000000000E+00 0.  1.
          2    1    1    2  501    0  0.10438176353E+02  0.22623992871E+02 -0.38815203680E+02  0.46123970078E+02  0.00000000000E+00 0.  1.
          2    1    1    2  502    0 -0.10438176353E+02 -0.22623992871E+02  0.87139156244E+03  0.87174770185E+03  0.00000000000E+00 0.  1.
</event>
<event>
 4    1  0.8391192E+003  0.2379733E+02  0.7546771E-02  0.1482722E+00
          2   -1    0    0  501    0  0.00000000000E+00  0.00000000000E+00  0.40024711962E+03  0.40024711962E+03  0.00000000000E+00 0. -1.
          2   -1    0    0  502    0 -0.00000000000E+00 -0.00000000000E+00 -0.73814010975E+02  0.73814010975E+02  0.00000000000E+00 0.  1.
          2    1    1    2  501    0 -0.17183106419E+02  0.16463704761E+02 -0.71531252447E+02  0.75385892562E+02  0.00000000000E+00 0.  1.
          2    1    1    2  502    0  0.17183106419E+02 -0.16463704761E+02  0.39796436109E+03  0.39867523803E+03  0.00000000000E+00 0. -1.
</event>
<event>
 4    1  0.8391192E+003  0.2045531E+02  0.7546771E-02  0.1527186E+00
          2   -1    0    0  501    0  0.00000000000E+00  0.00000000000E+00  0.10346005286E+04  0.10346005286E+04  0.00000000000E+00 0.  1.
          2   -1    0    0  502    0 -0.00000000000E+00 -0.00000000000E+00 -0.34345941111E+02  0.34345941111E+02  0.00000000000E+00 0.  1.
          2    1    1    2  501    0  0.84558733491E+01 -0.18625732146E+02 -0.31189889399E+02  0.37299180859E+02  0.00000000000E+00 0.  1.
          2    1    1    2  502    0 -0.84558733491E+01  0.18625732146E+02  0.10314444769E+04  0.10316472889E+04  0.00000000000E+00 0.  1.
</event>
<event>
 4    1  0.8391192E+003  0.2486364E+02  0.7546771E-02  0.1470335E+00
          2   -1    0    0  501    0  0.00000000000E+00  0.00000000000E+00  0.15799044452E+02  0.15799044452E+02  0.00000000000E+00 0. -1.
          2   -1    0    0  502    0 -0.00000000000E+00 -0.00000000000E+00 -0.79996608808E+02  0.79996608808E+02  0.00000000000E+00 0. -1.
          2    1    1    2  501    0 -0.24359705255E+02 -0.49805047720E+01 -0.66333730839E+02  0.70840415830E+02  0.00000000000E+00 0. -1.
          2    1    1    2  502    0  0.24359705255E+02  0.49805047720E+01  0.21361664836E+01  0.24955237429E+02  0.00000000000E+00 0. -1.
</event>
<event>
 4    1  0.8391192E+003  0.5361325E+02  0.7546771E-02  0.1283223E+00
          2   -1    0    0  502    0  0.00000000000E+00  0.00000000000E+00  0.88032349448E+03  0.88032349448E+03  0.00000000000E+00 0. -1.
          2   -1    0    0  501    0 -0.00000000000E+00 -0.00000000000E+00 -0.74314757471E+03  0.74314757471E+03  0.00000000000E+00 0. -1.
          2    1    1    2  501    0 -0.10777157834E+02  0.52518887389E+02  0.87853828448E+03  0.88017265236E+03  0.00000000000E+00 0. -1.
          2    1    1    2  502    0  0.10777157834E+02 -0.52518887389E+02 -0.74136236470E+03  0.74329841683E+03  0.00000000000E+00 0. -1.
</event>
<event>
 4    1  0.8391192E+003  0.2000814E+02  0.7546771E-02  0.1533911E+00
          2   -1    0    0  501    0  0.00000000000E+00  0.00000000000E+00  0.49813028858E+03  0.49813028858E+03  0.00000000000E+00 0. -1.
          2   -1    0    0  502    0 -0.00000000000E+00 -0.00000000000E+00 -0.81478913029E+00  0.81478913029E+00  0.00000000000E+00 0. -1.
          2    1    1    2  501    0  0.12658692966E+02  0.15494613622E+02  0.21949675267E+03  0.22040678299E+03  0.00000000000E+00 0. -1.
          2    1    1    2  502    0 -0.12658692966E+02 -0.15494613622E+02  0.27781874678E+03  0.27853829471E+03  0.00000000000E+00 0. -1.
</event>
<event>
 4    1  0.8391192E+003  0.2362739E+02  0.7546771E-02  0.1484767E+00
          2   -1    0    0  502    0  0.00000000000E+00  0.00000000000E+00  0.53004503983E+03  0.53004503983E+03  0.00000000000E+00 0. -1.
          2   -1    0    0  501    0 -0.00000000000E+00 -0.00000000000E+00 -0.13194567898E+01  0.13194567898E+01  0.00000000000E+00 0. -1.
          2    1    1    2  501    0 -0.14007513641E+02 -0.19027429734E+02  0.38370656897E+03  0.38443332919E+03  0.00000000000E+00 0. -1.
          2    1    1    2  502    0  0.14007513641E+02  0.19027429734E+02  0.14501901407E+03  0.14693116743E+03  0.00000000000E+00 0. -1.
</event>
<event>
 4    1  0.8391192E+003  0.2772157E+02  0.7546771E-02  0.1440491E+00
          2   -1    0    0  502    0  0.00000000000E+00  0.00000000000E+00  0.37184515560E+02  0.37184515560E+02  0.00000000000E+00 0.  1.
          2   -1    0    0  501    0 -0.00000000000E+00 -0.00000000000E+00 -0.34461437689E+03  0.34461437689E+03  0.00000000000E+00 0. -1.
          2    1    1    2  501    0 -0.19733632184E+02 -0.19469697364E+02  0.31371820897E+02  0.41864979410E+02  0.00000000000E+00 0.  1.
          2    1    1    2  502    0  0.19733632184E+02  0.19469697364E+02 -0.33880168222E+03  0.33993391304E+03  0.00000000000E+00 0. -1.
</event>
<event>
 4    1  0.8391192E+003  0.2171483E+02  0.7546771E-02  0.1509299E+00
          2   -1    0    0  501    0  0.00000000000E+00  0.00000000000E+00  0.49124491048E+02  0.49124491048E+02  0.00000000000E+00 0.  1.
          2   -1    0    0  502    0 -0.00000000000E+00 -0.00000000000E+00 -0.11275550579E+02  0.11275550579E+02  0.00000000000E+00 0.  1.
          2    1    1    2  501    0 -0.42353430772E+01 -0.21297783351E+02  0.72784088220E+01  0.22902160196E+02  0.00000000000E+00 0.  1.
          2    1    1    2  502    0  0.42353430772E+01  0.21297783351E+02  0.30570531647E+02  0.37497881431E+02  0.00000000000E+00 0.  1.
</event>
<event>
 4    1  0.8391192E+003  0.7139770E+02  0.7546771E-02  0.1225363E+00
          2   -1    0    0  502    0  0.00000000000E+00  0.00000000000E+00  0.30530012907E+04  0.30530012907E+04  0.00000000000E+00 0.  1.
          2   -1    0    0  501    0 -0.00000000000E+00 -0.00000000000E+00 -0.17392776008E+04  0.17392776008E+04  0.00000000000E+00 0.  1.
          2    1    1    2  501    0 -0.71397039763E+02 -0.30590830895E+00  0.30518508643E+04  0.30526859204E+04  0.00000000000E+00 0.  1.
          2    1    1    2  502    0  0.71397039763E+02  0.30590830895E+00 -0.17381271743E+04  0.17395929711E+04  0.00000000000E+00 0.  1.
</event>
<event>
 4    1  0.8391192E+003  0.5198955E+02  0.7546771E-02  0.1289769E+00
          2   -1    0    0  501    0  0.00000000000E+00  0.00000000000E+00  0.86059809144E+03  0.86059809144E+03  0.00000000000E+00 0. -1.
          2   -1    0    0  502    0 -0.00000000000E+00 -0.00000000000E+00 -0.14301263143E+02  0.14301263143E+02  0.00000000000E+00 0. -1.
          2    1    1    2  501    0  0.40540101139E+02  0.32548629051E+02  0.36707395329E+02  0.63642328094E+02  0.00000000000E+00 0. -1.
          2    1    1    2  502    0 -0.40540101139E+02 -0.32548629051E+02  0.80958943297E+03  0.81125702649E+03  0.00000000000E+00 0. -1.
</event>
<event>
 4    1  0.8391192E+003  0.5876190E+02  0.7546771E-02  0.1264098E+00
          2   -1    0    0  502    0  0.00000000000E+00  0.00000000000E+00  0.17720953167E+04  0.17720953167E+04  0.00000000000E+00 0. -1.
          2   -1    0    0  501    0 -0.00000000000E+00 -0.00000000000E+00 -0.12541859071E+02  0.12541859071E+02  0.00000000000E+00 0. -1.
          2    1    1    2  501    0  0.48813089494E+02 -0.32714575374E+02  0.16998552581E+04  0.17008706182E+04  0.00000000000E+00 0. -1.
          2    1    1    2  502    0 -0.48813089494E+02  0.32714575374E+02  0.59698199462E+02  0.83766557569E+02  0.00000000000E+00 0. -1.
</event>
<event>
 4    1  0.8391192E+003  0.2392679E+02  0.7546771E-02  0.1481177E+00
          2   -1    0    0  501    0  0.00000000000E+00  0.00000000000E+00  0.25404540293E+02  0.25404540293E+02  0.00000000000E+00 0. -1.
          2   -1    0    0  502    0 -0.00000000000E+00 -0.00000000000E+00 -0.59668628844E+03  0.59668628844E+03  0.00000000000E+00 0.  1.
          2    1    1    2  501    0 -0.11307615056E+02  0.21086232219E+02 -0.59075614566E+03  0.59124048828E+03  0.00000000000E+00 0.  1.
          2    1    1    2  502    0  0.11307615056E+02 -0.21086232219E+02  0.19474397513E+02  0.30850340451E+02  0.00000000000E+00 0. -1.
</event>
<event>
 4    1  0.8391192E+003  0.2087701E+02  0.7546771E-02  0.1521028E+00
          2   -1    0    0  501    0  0.00000000000E+00  0.00000000000E+00  0.10141995498E+02  0.10141995498E+02  0.00000000000E+00 0. -1.
          2   -1    0    0  502    0 -0.00000000000E+00 -0.00000000000E+00 -0.35016829799E+03  0.35016829799E+03  0.00000000000E+00 0.  1.
          2    1    1    2  501    0 -0.11330928049E+02  0.17534527455E+02 -0.33875170235E+03  0.33939440983E+03  0.00000000000E+00 0.  1.
          2    1    1    2  502    0  0.11330928049E+02 -0.17534527455E+02 -0.12746001462E+01  0.20915883655E+02  0.00000000000E+00 0. -1.
</event>
<event>
 4    1  0.8391192E+003  0.2275454E+02  0.7546771E-02  0.1495604E+00
          2   -1    0    0  501    0  0.00000000000E+00  0.00000000000E+00  0.25099765892E+03  0.25099765892E+03  0.00000000000E+00 0. -1.
          2   -1    0    0  502    0 -0.00000000000E+00 -0.00000000000E+00 -0.42316038550E+03  0.42316038550E+03  0.00000000000E+00 0.  1.
          2    1    1    2  501    0  0.86668378008E+01  0.21039367491E+02 -0.42233777660E+03  0.42295031222E+03  0.00000000000E+00 0.  1.
          2    1    1    2  502    0 -0.86668378008E+01 -0.21039367491E+02  0.25017505002E+03  0.25120773220E+03  0.00000000000E+00 0. -1.
</event>
<event>
 4    1  0.8391192E+003  0.2220769E+02  0.7546771E-02  0.1502694E+00
          2   -1    0    0  501    0  0.00000000000E+00  0.00000000000E+00  0.40698227535E+02  0.40698227535E+02  0.00000000000E+00 0.  1.
          2   -1    0    0  502    0 -0.00000000000E+00 -0.00000000000E+00 -0.84995790443E+03  0.84995790443E+03  0.00000000000E+00 0.  1.
          2    1    1    2  501    0  0.21788571933E+02  0.42941549246E+01 -0.84677194420E+03  0.84706310693E+03  0.00000000000E+00 0.  1.
          2    1    1    2  502    0 -0.21788571933E+02 -0.42941549246E+01  0.37512267306E+02  0.43593025037E+02  0.00000000000E+00 0.  1.
</event>
<event>
 4    1  0.8391192E+003  0.3558660E+02  0.7546771E-02  0.1376486E+00
          2   -1    0    0  501    0  0.00000000000E+00  0.00000000000E+00  0.24607376339E+02  0.24607376339E+02  0.00000000000E+00 0.  1.
          2   -1    0    0  502    0 -0.00000000000E+00 -0.00000000000E+00 -0.16622890417E+03  0.16622890417E+03  0.00000000000E+00 0.  1.
          2    1    1    2  501    0  0.35142081245E+02  0.56071457024E+01 -0.15009398895E+03  0.15425502091E+03  0.00000000000E+00 0.  1.
          2    1    1    2  502    0 -0.35142081245E+02 -0.56071457024E+01  0.84724611108E+01  0.36581259607E+02  0.00000000000E+00 0.  1.
</event>
<event>
 4    1  0.8391192E+003  0.3267628E+02  0.7546771E-02  0.1397679E+00
          2   -1    0    0  502    0  0.00000000000E+00  0.00000000000E+00  0.63636629245E+03  0.63636629245E+03  0.00000000000E+00 0. -1.
          2   -1    0    0  501    0 -0.00000000000E+00 -0.00000000000E+00 -0.77589879232E+01  0.77589879232E+01  0.00000000000E+00 0.  1.
          2    1    1    2  501    0  0.32647267886E+02  0.13766638455E+01  0.59942488338E+03  0.60031485915E+03  0.00000000000E+00 0. -1.
          2    1    1    2  502    0 -0.32647267886E+02 -0.13766638455E+01  0.29182421153E+02  0.43810421227E+02  0.00000000000E+00 0.  1.
</event>
<event>
 4    1  0.8391192E+003  0.2021216E+02  0.7546771E-02  0.1530817E+00
          2   -1    0    0  502    0  0.00000000000E+00  0.00000000000E+00  0.45713316458E+03  0.45713316458E+03  0.00000000000E+00 0. -1.
          2   -1    0    0  501    0 -0.00000000000E+00 -0.00000000000E+00 -0.16981195987E+02  0.16981195987E+02  0.00000000000E+00 0. -1.
          2    1    1    2  501    0  0.19907046355E+02 -0.34986831591E+01  0.45081097392E+03  0.45126385351E+03  0.00000000000E+00 0. -1.
          2    1    1    2  502    0 -0.19907046355E+02  0.34986831591E+01 -0.10659005324E+02  0.22850507060E+02  0.00000000000E+00 0. -1.
</event>
<event>
 4    1  0.8391192E+003  0.2685719E+02  0.7546771E-02  0.1449048E+00
          2   -1    0    0  501    0  0.00000000000E+00  0.00000000000E+00  0.43341721112E+01  0.43341721112E+01  0.00000000000E+00 0. -1.
          2   -1    0    0  502    0 -0.00000000000E+00 -0.00000000000E+00 -0.14266382894E+04  0.14266382894E+04  0.00000000000E+00 0. -1.
          2    1    1    2  501    0  0.84742591862E+01 -0.25485203064E+02 -0.13836122913E+04  0.13838729282E+04  0.00000000000E+00 0. -1.
          2    1    1    2  502    0 -0.84742591862E+01  0.25485203064E+02 -0.38691825984E+02  0.47099533352E+02  0.00000000000E+00 0. -1.
</event>
<event>
 4    1  0.8391192E+003  0.2161914E+02  0.7546771E-02  0.1510606E+00
          2   -1    0    0  501    0  0.00000000000E+00  0.00000000000E+00  0.13904138648E+04  0.13904138648E+04  0.00000000000E+00 0.  1.
          2   -1    0    0  502    0 -0.00000000000E+00 -0.00000000000E+00 -0.28734248541E+01  0.28734248541E+01  0.00000000000E+00 0. -1.
          2    1    1    2  501    0  0.12093397490E+02 -0.17920296731E+02  0.39142283282E+02  0.44715832077E+02  0.00000000000E+00 0. -1.
          2    1    1    2  502    0 -0.12093397490E+02  0.17920296731E+02  0.13483981566E+04  0.13485714575E+04  0.00000000000E+00 0.  1.
</event>
<event>
 4    1  0.8391192E+003  0.2413339E+02  0.7546771E-02  0.1478736E+00
          2   -1    0    0  501    0  0.00000000000E+00  0.00000000000E+00  0.89371401304E+03  0.89371401304E+03  0.00000000000E+00 0.  1.
          2   -1    0    0  502    0 -0.00000000000E+00 -0.00000000000E+00 -0.74345845245E+01  0.74345845245E+01  0.00000000000E+00 0. -1.
          2    1    1    2  501    0  0.20729066202E+02 -0.12358250784E+02  0.12766001524E+02  0.27301856035E+02  0.00000000000E+00 0. -1.
          2    1    1    2  502    0 -0.20729066202E+02  0.12358250784E+02  0.87351342699E+03  0.87384674153E+03  0.00000000000E+00 0.  1.
</event>
<event>
 4    1  0.8391192E+003  0.2029096E+02  0.7546771E-02  0.1529633E+00
          2   -1    0    0  502    0  0.00000000000E+00  0.00000000000E+00  0.97304433051E+01  0.97304433051E+01  0.00000000000E+00 0.  1.
          2   -1    0    0  501    0 -0.00000000000E+00 -0.00000000000E+00 -0.21552166207E+03  0.21552166207E+03  0.00000000000E+00 0. -1.
          2    1    1    2  501    0 -0.36540836294E+01 -0.19959223973E+02 -0.19288609514E+01  0.20382430015E+02  0.00000000000E+00 0.  1.
          2    1    1    2  502    0  0.36540836294E+01  0.19959223973E+02 -0.20386235781E+03  0.20486967536E+03  0.00000000000E+00 0. -1.
</event>
<event>
 4    1  0.8391192E+003  0.2608861E+02  0.7546771E-02  0.1456984E+00
          2   -1    0    0  501    0  0.00000000000E+00  0.00000000000E+00  0.24371694338E+03  0.24371694338E+03  0.00000000000E+00 0.  1.
          2   -1    0    0  502    0 -0.00000000000E+00 -0.00000000000E+00 -0.52208117517E+01  0.52208117517E+01  0.00000000000E+00 0. -1.
          2    1    1    2  501    0 -0.10873206894E+02 -0.23714743013E+02  0.34363109202E+02  0.43144396373E+02  0.00000000000E+00 0. -1.
          2    1    1    2  502    0  0.10873206894E+02  0.23714743013E+02  0.20413302243E+03  0.20579335876E+03  0.00000000000E+00 0.  1.
</event>
<event>
 4    1  0.8391192E+003  0.2325245E+02  0.7546771E-02  0.1489352E+00
          2   -1    0    0  501    0  0.00000000000E+00  0.00000000000E+00  0.83463010123E+03  0.83463010123E+03  0.00000000000E+00 0.  1.
          2   -1    0    0  502    0 -0.00000000000E+00 -0.00000000000E+00 -0.30492342978E+02  0.30492342978E+02  0.00000000000E+00 0.  1.
          2    1    1    2  501    0 -0.22705879524E+02 -0.50119254121E+01 -0.25872838938E+02  0.34786206404E+02  0.00000000000E+00 0.  1.
          2    1    1    2  502    0  0.22705879524E+02  0.50119254121E+01  0.83001059719E+03  0.83033623781E+03  0.00000000000E+00 0.  1.
</event>
<event>
 4    1  0.8391192E+003  0.2536727E+02  0.7546771E-02  0.1464736E+00
          2   -1    0    0  502    0  0.00000000000E+00  0.00000000000E+00  0.17650833026E+04  0.17650833026E+04  0.00000000000E+00 0. -1.
          2   -1    0    0  501    0 -0.00000000000E+00 -0.00000000000E+00 -0.59413280871E+00  0.59413280871E+00  0.00000000000E+00 0. -1.
          2    1    1    2  501    0 -0.21879212152E+02 -0.12837395106E+02  0.14310130919E+04  0.14312379145E+04  0.00000000000E+00 0. -1.
          2    1    1    2  502    0  0.21879212152E+02  0.12837395106E+02  0.33347607786E+03  0.33443952091E+03  0.00000000000E+00 0. -1.
</event>
<event>
 4    1  0.8391192E+003  0.2126194E+02  0.7546771E-02  0.1515558E+00
          2   -1    0    0  502    0  0.00000000000E+00  0.00000000000E+00  0.64439191026E+01  0.64439191026E+01  0.00000000000E+00 0.  1.
          2   -1    0    0  501    0 -0.00000000000E+00 -0.00000000000E+00 -0.26853413945E+03  0.26853413945E+03  0.00000000000E+00 0. -1.
          2    1    1    2  501    0  0.18911751671E+02  0.97167783807E+01 -0.12872506342E+02  0.24855010619E+02  0.00000000000E+00 0.  1.
          2    1    1    2  502    0 -0.18911751671E+02 -0.97167783807E+01 -0.24921771400E+03  0.25012304793E+03  0.00000000000E+00 0. -1.
</event>
<event>
 4    1  0.8391192E+003  0.2782906E+02  0.7546771E-02  0.1439453E+00
          2   -1    0    0  501    0  0.00000000000E+00  0.00000000000E+00  0.31528233039E+03  0.31528233039E+03  0.00000000000E+00 0.  1.
          2   -1    0    0  502    0 -0.00000000000E+00 -0.00000000000E+00 -0.85153556950E+03  0.85153556950E+03  0.00000000000E+00 0.  1.
          2    1    1    2  501    0 -0.11942491202E+02 -0.25136302747E+02 -0.85069349327E+03  0.85114856300E+03  0.00000000000E+00 0.  1.
          2    1    1    2  502    0  0.11942491202E+02  0.25136302747E+02  0.31444025416E+03  0.31566933689E+03  0.00000000000E+00 0.  1.
</event>
<event>
 4    1  0.8391192E+003  0.2698888E+02  0.7546771E-02  0.1447720E+00
          2   -1    0    0  502    0  0.00000000000E+00  0.00000000000E+00  0.42348177309E+03  0.42348177309E+03  0.00000000000E+00 0. -1.
          2   -1    0    0  501    0 -0.00000000000E+00 -0.00000000000E+00 -0.12614635021E+03  0.12614635021E+03  0.00000000000E+00 0.  1.
          2    1    1    2  501    0  0.14731478185E+02 -0.22613782507E+02  0.42160177549E+03  0.42246474019E+03  0.00000000000E+00 0. -1.
          2    1    1    2  502    0 -0.14731478185E+02  0.22613782507E+02 -0.12426635262E+03  0.12716338311E+03  0.00000000000E+00 0.  1.
</event>
<event>
 4    1  0.8391192E+003  0.7127769E+02  0.7546771E-02  0.1225687E+00
          2   -1    0    0  501    0  0.00000000000E+00  0.00000000000E+00  0.10532600831E+04  0.10532600831E+04  0.00000000000E+00 0.  1.
          2   -1    0    0  502    0 -0.00000000000E+00 -0.00000000000E+00 -0.64457687945E+01  0.64457687945E+01  0.00000000000E+00 0. -1.
          2    1    1    2  501    0  0.71259841786E+02  0.15947820742E+01  0.25760064942E+03  0.26728000853E+03  0.00000000000E+00 0. -1.
          2    1    1    2  502    0 -0.71259841786E+02 -0.15947820742E+01  0.78921366493E+03  0.79242584341E+03  0.00000000000E+00 0.  1.
</event>
<event>
 4    1  0.8391192E+003  0.2376083E+02  0.7546771E-02  0.1483159E+00
          2   -1    0    0  501    0  0.00000000000E+00  0.00000000000E+00  0.86151178590E+03  0.86151178590E+03  0.00000000000E+00 0. -1.
          2   -1    0    0  502    0 -0.00000000000E+00 -0.00000000000E+00 -0.27072570785E+01  0.27072570785E+01  0.00000000000E+00 0. -1.
          2    1    1    2  501    0  0.23055906541E+02  0.57447586734E+01  0.53210109986E+02  0.58274290072E+02  0.00000000000E+00 0. -1.
          2    1    1    2  502    0 -0.23055906541E+02 -0.57447586734E+01  0.80559441883E+03  0.80594475290E+03  0.00000000000E+00 0. -1.
</event>
<event>
 4    1  0.8391192E+003  0.3717825E+02  0.7546771E-02  0.1365865E+00
          2   -1    0    0  501    0  0.00000000000E+00  0.00000000000E+00  0.98104348710E+03  0.98104348710E+03  0.00000000000E+00 0.  1.
          2   -1    0    0  502    0 -0.00000000000E+00 -0.00000000000E+00 -0.34415226747E+02  0.34415226747E+02  0.00000000000E+00 0.  1.
          2    1    1    2  501    0 -0.37002205937E+02  0.36136819673E+01 -0.23913616055E+02  0.44205010738E+02  0.00000000000E+00 0.  1.
          2    1    1    2  502    0  0.37002205937E+02 -0.36136819673E+01  0.97054187640E+03  0.97125370311E+03  0.00000000000E+00 0.  1.
</event>
<event>
 4    1  0.8391192E+003  0.2718333E+02  0.7546771E-02  0.1445775E+00
          2   -1    0    0  502    0  0.00000000000E+00  0.00000000000E+00  0.14190343819E+04  0.14190343819E+04  0.00000000000E+00 0.  1.
          2   -1    0    0  501    0 -0.00000000000E+00 -0.00000000000E+00 -0.25949401754E+01  0.25949401754E+01  0.00000000000E+00 0.  1.
          2    1    1    2  501    0  0.39480210944E+01  0.26895098624E+02  0.13437249441E+04  0.13439998730E+04  0.00000000000E+00 0.  1.
          2    1    1    2  502    0 -0.39480210944E+01 -0.26895098624E+02  0.72714497634E+02  0.77629449095E+02  0.00000000000E+00 0.  1.
</event>
<event>
 4    1  0.8391192E+003  0.2452446E+02  0.7546771E-02  0.1474194E+00
          2   -1    0    0  501    0  0.00000000000E+00  0.00000000000E+00  0.19179560140E+02  0.19179560140E+02  0.00000000000E+00 0. -1.
          2   -1    0    0  502    0 -0.00000000000E+00 -0.00000000000E+00 -0.26531735008E+03  0.26531735008E+03  0.00000000000E+00 0. -1.
          2    1    1    2  501    0  0.11183614956E+02  0.21826034204E+02 -0.25664665118E+03  0.25781573376E+03  0.00000000000E+00 0. -1.
          2    1    1    2  502    0 -0.11183614956E+02 -0.21826034204E+02  0.10508861242E+02  0.26681176457E+02  0.00000000000E+00 0. -1.
</event>
<event>
 4    1  0.8391192E+003  0.5002170E+02  0.7546771E-02  0.1298078E+00
          2   -1    0    0  501    0  0.00000000000E+00  0.00000000000E+00  0.69964299070E+03  0.69964299070E+03  0.00000000000E+00 0. -1.
          2   -1    0    0  502    0 -0.00000000000E+00 -0.00000000000E+00 -0.11555721091E+04  0.11555721091E+04  0.00000000000E+00 0. -1.
          2    1    1    2  501    0 -0.33376085085E+02 -0.37258649576E+02 -0.11541355815E+04  0.11552190747E+04  0.00000000000E+00 0. -1.
          2    1    1    2  502    0  0.33376085085E+02  0.37258649576E+02  0.69820646311E+03  0.69999602510E+03  0.00000000000E+00 0. -1.
</event>
<event>
 4    1  0.8391192E+003  0.2191548E+02  0.7546771E-02  0.1506585E+00
          2   -1    0    0  501    0  0.00000000000E+00  0.00000000000E+00  0.33632998528E+03  0.33632998528E+03  0.00000000000E+00 0.  1.
          2   -1    0    0  502    0 -0.00000000000E+00 -0.00000000000E+00 -0.54356724484E+02  0.54356724484E+02  0.00000000000E+00 0.  1.
          2    1    1    2  501    0 -0.21879416480E+02 -0.12567118547E+01 -0.51773675834E+02  0.56221007635E+02  0.00000000000E+00 0.  1.
          2    1    1    2  502    0  0.21879416480E+02  0.12567118547E+01  0.33374693663E+03  0.33446570212E+03  0.00000000000E+00 0.  1.
</event>
<event>
 4    1  0.8391192E+003  0.2455215E+02  0.7546771E-02  0.1473876E+00
          2   -1    0    0  501    0  0.00000000000E+00  0.00000000000E+00  0.79211942067E+03  0.79211942067E+03  0.00000000000E+00 0.  1.
          2   -1    0    0  502    0 -0.00000000000E+00 -0.00000000000E+00 -0.28753922600E+03  0.28753922600E+03  0.00000000000E+00 0. -1.
          2    1    1    2  501    0 -0.19539617731E+02  0.14866458256E+02 -0.28682439145E+03  0.28787330507E+03  0.00000000000E+00 0. -1.
          2    1    1    2  502    0  0.19539617731E+02 -0.14866458256E+02  0.79140458612E+03  0.79178534160E+03  0.00000000000E+00 0.  1.
</event>
<event>
 4    1  0.8391192E+003  0.3344755E+02  0.7546771E-02  0.1391819E+00
          2   -1    0    0  501    0  0.00000000000E+00  0.00000000000E+00  0.13955892787E+02  0.13955892787E+02  0.00000000000E+00 0.  1.
          2   -1    0    0  502    0 -0.00000000000E+00 -0.00000000000E+00 -0.20964031155E+03  0.20964031155E+03  0.00000000000E+00 0. -1.
          2    1    1    2  501    0  0.28097250016E+02 -0.18146153232E+02 -0.18570294169E+03  0.18869107262E+03  0.00000000000E+00 0. -1.
          2    1    1    2  502    0 -0.28097250016E+02  0.18146153232E+02 -0.99814770780E+01  0.34905131718E+02  0.00000000000E+00 0.  1.
</event>
<event>
 4    1  0.8391192E+003  0.2383701E+02  0.7546771E-02  0.1482247E+00
          2   -1    0    0  502    0  0.00000000000E+00  0.00000000000E+00  0.30102195231E+02  0.30102195231E+02  0.00000000000E+00 0.  1.
          2   -1    0    0  501    0 -0.00000000000E+00 -0.00000000000E+00 -0.77739371874E+03  0.77739371874E+03  0.00000000000E+00 0. -1.
          2    1    1    2  501    0 -0.13323185440E+02  0.19766024124E+02  0.25170397582E+02  0.34666293346E+02  0.00000000000E+00 0.  1.
          2    1    1    2  502    0  0.13323185440E+02 -0.19766024124E+02 -0.77246192109E+03  0.77282962063E+03  0.00000000000E+00 0. -1.
</event>
<event>
 4    1  0.8391192E+003  0.2272407E+02  0.7546771E-02  0.1495992E+00
          2   -1    0    0  501    0  0.00000000000E+00  0.00000000000E+00  0.26035212791E+01  0.26035212791E+01  0.00000000000E+00 0.  1.
          2   -1    0    0  502    0 -0.00000000000E+00 -0.00000000000E+00 -0.21619578476E+03  0.21619578476E+03  0.00000000000E+00 0.  1.
          2    1    1    2  501    0 -0.18063773622E+02  0.13787076925E+02 -0.13823574153E+03  0.14009105483E+03  0.00000000000E+00 0.  1.
          2    1    1    2  502    0  0.18063773622E+02 -0.13787076925E+02 -0.75356521956E+02  0.78708251213E+02  0.00000000000E+00 0.  1.
</event>
<event>
 4    1  0.8391192E+003  0.2068205E+02  0.7546771E-02  0.1523853E+00
          2   -1    0    0  501    0  0.00000000000E+00  0.00000000000E+00  0.33194288367E+00  0.33194288367E+00  0.00000000000E+00 0.  1.
          2   -1    0    0  502    0 -0.00000000000E+00 -0.00000000000E+00 -0.17043030577E+04  0.17043030577E+04  0.00000000000E+00 0.  1.
          2    1    1    2  501    0 -0.16521242670E+02 -0.12441688334E+02 -0.12729166423E+04  0.12730846497E+04  0.00000000000E+00 0.  1.
          2    1    1    2  502    0  0.16521242670E+02  0.12441688334E+02 -0.43105447256E+03  0.43155035092E+03  0.00000000000E+00 0.  1.
</event>
<event>
 4    1  0.8391192E+003  0.2038732E+02  0.7546771E-02  0.1528195E+00
          2   -1    0    0  501    0  0.00000000000E+00  0.00000000000E+00  0.63389201984E+01  0.63389201984E+01  0.00000000000E+00 0. -1.
          2   -1    0    0  502    0 -0.00000000000E+00 -0.00000000000E+00 -0.77370318286E+03  0.77370318286E+03  0.00000000000E+00 0.  1.
          2    1    1    2  501    0  0.17116393990E+02  0.11075729035E+02 -0.75681056375E+03  0.75708511550E+03  0.00000000000E+00 0.  1.
          2    1    1    2  502    0 -0.17116393990E+02 -0.11075729035E+02 -0.10553698916E+02  0.22956987557E+02  0.00000000000E+00 0. -1.
</event>
<event>
 4    1  0.8391192E+003  0.3579599E+02  0.7546771E-02  0.1375052E+00
          2   -1    0    0  501    0  0.00000000000E+00  0.00000000000E+00  0.21422766064E+04  0.21422766064E+04  0.00000000000E+00 0. -1.
          2   -1    0    0  502    0 -0.00000000000E+00 -0.00000000000E+00 -0.97813563869E+00  0.97813563869E+00  0.00000000000E+00 0.  1.
          2    1    1    2  501    0  0.57340744198E+01  0.35333738525E+02  0.40270346788E+03  0.40429127586E+03  0.00000000000E+00 0.  1.
          2    1    1    2  502    0 -0.57340744198E+01 -0.35333738525E+02  0.17385950028E+04  0.17389634661E+04  0.00000000000E+00 0. -1.
</event>
<event>
 4    1  0.8391192E+003  0.2037755E+02  0.7546771E-02  0.1528340E+00
          2   -1    0    0  501    0  0.00000000000E+00  0.00000000000E+00  0.28693323992E+03  0.28693323992E+03  0.00000000000E+00 0.  1.
          2   -1    0    0  502    0 -0.00000000000E+00 -0.00000000000E+00 -0.29476198283E+02  0.29476198283E+02  0.00000000000E+00 0. -1.
          2    1    1    2  501    0  0.19701620539E+02  0.52048687818E+01 -0.25543664034E+02  0.32676035304E+02  0.00000000000E+00 0. -1.
          2    1    1    2  502    0 -0.19701620539E+02 -0.52048687818E+01  0.28300070567E+03  0.28373340290E+03  0.00000000000E+00 0.  1.
</event>
<event>
 4    1  0.8391192E+003  0.2156970E+02  0.7546771E-02  0.1511284E+00
          2   -1    0    0  502    0  0.00000000000E+00  0.00000000000E+00  0.57560086133E+01  0.57560086133E+01  0.00000000000E+00 0.  1.
          2   -1    0    0  501    0 -0.00000000000E+00 -0.00000000000E+00 -0.49112772875E+03  0.49112772875E+03  0.00000000000E+00 0.  1.
          2    1    1    2  501    0  0.15882356773E+02  0.14594608198E+02 -0.15606480827E+02  0.26623562664E+02  0.00000000000E+00 0.  1.
          2    1    1    2  502    0 -0.15882356773E+02 -0.14594608198E+02 -0.46976523931E+03  0.47026017470E+03  0.00000000000E+00 0.  1.
</event>
<event>
 4    1  0.8391192E+003  0.2302710E+02  0.7546771E-02  0.1492158E+00
          2   -1    0    0  502    0  0.00000000000E+00  0.00000000000E+00  0.22208776341E+02  0.22208776341E+02  0.00000000000E+00 0.  1.
          2   -1    0    0  501    0 -0.00000000000E+00 -0.00000000000E+00 -0.15650929928E+04  0.15650929928E+04  0.00000000000E+00 0.  1.
          2    1    1    2  501    0  0.18569963172E+02 -0.13616300300E+02  0.16131920421E+02  0.28115583268E+02  0.00000000000E+00 0.  1.
          2    1    1    2  502    0 -0.18569963172E+02  0.13616300300E+02 -0.15590161369E+04  0.15591861859E+04  0.00000000000E+00 0.  1.
</event>
<event>
 4    1  0.8391192E+003  0.2045782E+02  0.7546771E-02  0.1527148E+00
          2   -1    0    0  501    0  0.00000000000E+00  0.00000000000E+00  0.14718952151E+03  0.14718952151E+03  0.00000000000E+00 0.  1.
          2   -1    0    0  502    0 -0.00000000000E+00 -0.00000000000E+00 -0.62197144359E+02  0.62197144359E+02  0.00000000000E+00 0.  1.
          2    1    1    2  501    0  0.19575777606E+02 -0.59423483618E+01 -0.59776051261E+02  0.63179892982E+02  0.00000000000E+00 0.  1.
          2    1    1    2  502    0 -0.19575777606E+02  0.59423483618E+01  0.14476842841E+03  0.14620677289E+03  0.00000000000E+00 0.  1.
</event>
<event>
 4    1  0.8391192E+003  0.3001405E+02  0.7546771E-02  0.1419474E+00
          2   -1    0    0  501    0  0.00000000000E+00  0.00000000000E+00  0.34743850209E+02  0.34743850209E+02  0.00000000000E+00 0.  1.
          2   -1    0    0  502    0 -0.00000000000E+00 -0.00000000000E+00 -0.21434190350E+03  0.21434190350E+03  0.00000000000E+00 0.  1.
          2    1    1    2  501    0 -0.74608434025E+01  0.29071958341E+02 -0.20656644532E+03  0.20873557262E+03  0.00000000000E+00 0.  1.
          2    1    1    2  502    0  0.74608434025E+01 -0.29071958341E+02  0.26968392022E+02  0.40350181094E+02  0.00000000000E+00 0.  1.
</event>
<event>
 4    1  0.8391192E+003  0.3564745E+02  0.7546771E-02  0.1376068E+00
          2   -1    0    0  502    0  0.00000000000E+00  0.00000000000E+00  0.18229212804E+04  0.18229212804E+04  0.00000000000E+00 0.  1.
          2   -1    0    0  501    0 -0.00000000000E+00 -0.00000000000E+00 -0.13700952448E+02  0.13700952448E+02  0.00000000000E+00 0.  1.
          2    1    1    2  501    0  0.28819453527E+02 -0.20980460917E+02  0.17992549630E+04  0.17996080580E+04  0.00000000000E+00 0.  1.
          2    1    1    2  502    0 -0.28819453527E+02  0.20980460917E+02  0.99653650066E+01  0.37014174874E+02  0.00000000000E+00 0.  1.
</event>
<event>
 4    1  0.8391192E+003  0.3762271E+02  0.7546771E-02  0.1363009E+00
          2   -1    0    0  501    0  0.00000000000E+00  0.00000000000E+00  0.10930982321E+04  0.10930982321E+04  0.00000000000E+00 0. -1.
          2   -1    0    0  502    0 -0.00000000000E+00 -0.00000000000E+00 -0.88875151291E+01  0.88875151291E+01  0.00000000000E+00 0.  1.
          2    1    1    2  501    0  0.32903869773E+02 -0.18242910099E+02  0.32831841932E+02  0.49933938955E+02  0.00000000000E+00 0.  1.
          2    1    1    2  502    0 -0.32903869773E+02  0.18242910099E+02  0.10513788751E+04  0.10520518083E+04  0.00000000000E+00 0. -1.
</event>
<event>
 4    1  0.8391192E+003  0.2723729E+02  0.7546771E-02  0.1445239E+00
          2   -1    0    0  502    0  0.00000000000E+00  0.00000000000E+00  0.10518935259E+02  0.10518935259E+02  0.00000000000E+00 0.  1.
          2   -1    0    0  501    0 -0.00000000000E+00 -0.00000000000E+00 -0.65732166998E+03  0.65732166998E+03  0.00000000000E+00 0. -1.
          2    1    1    2  501    0  0.26996374874E+02  0.36146548898E+01 -0.79031614502E+01  0.28360711332E+02  0.00000000000E+00 0.  1.
          2    1    1    2  502    0 -0.26996374874E+02 -0.36146548898E+01 -0.63889957327E+03  0.63947989390E+03  0.00000000000E+00 0. -1.
</event>
<event>
 4    1  0.8391192E+003  0.2546322E+02  0.7546771E-02  0.1463687E+00
          2   -1    0    0  502    0  0.00000000000E+00  0.00000000000E+00  0.52273433446E+01  0.52273433446E+01  0.00000000000E+00 0. -1.
          2   -1    0    0  501    0 -0.00000000000E+00 -0.00000000000E+00 -0.18836132642E+03  0.18836132642E+03  0.00000000000E+00 0.  1.
          2    1    1    2  501    0  0.21618704001E+02 -0.13453899165E+02 -0.35002094289E+02  0.43284204625E+02  0.00000000000E+00 0. -1.
          2    1    1    2  502    0 -0.21618704001E+02  0.13453899165E+02 -0.14813188879E+03  0.15030446514E+03  0.00000000000E+00 0.  1.
</event>
<event>
 4    1  0.8391192E+003  0.4740425E+02  0.7546771E-02  0.1309837E+00
          2   -1    0    0  502    0  0.00000000000E+00  0.00000000000E+00  0.25690109929E+03  0.25690109929E+03  0.00000000000E+00 0. -1.
          2   -1    0    0  501    0 -0.00000000000E+00 -0.00000000000E+00 -0.91319946743E+01  0.91319946743E+01  0.00000000000E+00 0. -1.
          2    1    1    2  501    0  0.23083282552E+02  0.41404412647E+02  0.15118952278E+03  0.15844694733E+03  0.00000000000E+00 0. -1.
          2    1    1    2  502    0 -0.23083282552E+02 -0.41404412647E+02  0.96579581842E+02  0.10758614664E+03  0.00000000000E+00 0. -1.
</event>
<event>
 4    1  0.8391192E+003  0.3902168E+02  0.7546771E-02  0.1354316E+00
          2   -1    0    0  501    0  0.00000000000E+00  0.00000000000E+00  0.21726582356E+04  0.21726582356E+04  0.00000000000E+00 0.  1.
          2   -1    0    0  502    0 -0.00000000000E+00 -0.00000000000E+00 -0.48466784797E+02  0.48466784797E+02  0.00000000000E+00 0.  1.
          2    1    1    2  501    0 -0.36742733093E+02  0.13140117863E+02 -0.40408032799E+02  0.56173839528E+02  0.00000000000E+00 0.  1.
          2    1    1    2  502    0  0.36742733093E+02 -0.13140117863E+02  0.21645994836E+04  0.21649511809E+04  0.00000000000E+00 0.  1.
</event>
<event>
 4    1  0.8391192E+003  0.2565766E+02  0.7546771E-02  0.1461579E+00
          2   -1    0    0  501    0  0.00000000000E+00  0.00000000000E+00  0.14235447351E+03  0.14235447351E+03  0.00000000000E+00 0.  1.
          2   -1    0    0  502    0 -0.00000000000E+00 -0.00000000000E+00 -0.83238423534E+02  0.83238423534E+02  0.00000000000E+00 0.  1.
          2    1    1    2  501    0  0.25592701140E+02  0.18246345732E+01 -0.80060332256E+02  0.84071234342E+02  0.00000000000E+00 0.  1.
          2    1    1    2  502    0 -0.25592701140E+02 -0.18246345732E+01  0.13917638224E+03  0.14152166271E+03  0.00000000000E+00 0.  1.
</event>
<event>
 4    1  0.8391192E+003  0.5932308E+02  0.7546771E-02  0.1262150E+00
          2   -1    0    0  502    0  0.00000000000E+00  0.00000000000E+00  0.18115533059E+04  0.18115533059E+04  0.00000000000E+00 0. -1.
          2   -1    0    0  501    0 -0.00000000000E+00 -0.00000000000E+00 -0.23823976716E+04  0.23823976716E+04  0.00000000000E+00 0. -1.
          2    1    1    2  501    0 -0.23129786121E+02  0.54628209481E+02  0.18106981723E+04  0.18116696993E+04  0.00000000000E+00 0. -1.
          2    1    1    2  502    0  0.23129786121E+02 -0.54628209481E+02 -0.23815425380E+04  0.23822812782E+04  0.00000000000E+00 0. -1.
</event>
<event>
 4    1  0.8391192E+003  0.4359914E+02  0.7546771E-02  0.1328594E+00
          2   -1    0    0  501    0  0.00000000000E+00  0.00000000000E+00  0.11386802344E+04  0.11386802344E+04  0.00000000000E+00 0.  1.
          2   -1    0    0  502    0 -0.00000000000E+00 -0.00000000000E+00 -0.27023571053E+01  0.27023571053E+01  0.00000000000E+00 0.  1.
          2    1    1    2  501    0  0.26152988922E+02  0.34884180475E+02  0.21515026983E+03  0.21952340077E+03  0.00000000000E+00 0.  1.
          2    1    1    2  502    0 -0.26152988922E+02 -0.34884180475E+02  0.92082760743E+03  0.92185919070E+03  0.00000000000E+00 0.  1.
</event>
<event>
 4    1  0.8391192E+003  0.3087525E+02  0.7546771E-02  0.1412140E+00
          2   -1    0    0  502    0  0.00000000000E+00  0.00000000000E+00  0.39659443346E+02  0.39659443346E+02  0.00000000000E+00 0.  1.
          2   -1    0    0  501    0 -0.00000000000E+00 -0.00000000000E+00 -0.11986892215E+03  0.11986892215E+03  0.00000000000E+00 0.  1.
          2    1    1    2  501    0  0.20168518622E+01  0.30809303498E+02  0.31215118880E+02  0.43905176462E+02  0.00000000000E+00 0.  1.
          2    1    1    2  502    0 -0.20168518622E+01 -0.30809303498E+02 -0.11142459769E+03  0.11562318904E+03  0.00000000000E+00 0.  1.
</event>
<event>
 4    1  0.8391192E+003  0.2224298E+02  0.7546771E-02  0.1502229E+00
          2   -1    0    0  502    0  0.00000000000E+00  0.00000000000E+00  0.57318649034E+03  0.57318649034E+03  0.00000000000E+00 0.  1.
          2   -1    0    0  501    0 -0.00000000000E+00 -0.00000000000E+00 -0.73043845936E+02  0.73043845936E+02  0.00000000000E+00 0.  1.
          2    1    1    2  501    0 -0.13319445259E+02  0.17814114043E+02  0.57127169414E+03  0.57170455552E+03  0.00000000000E+00 0.  1.
          2    1    1    2  502    0  0.13319445259E+02 -0.17814114043E+02 -0.71129049734E+02  0.74525780755E+02  0.00000000000E+00 0.  1.
</event>
<event>
 4    1  0.9801798E+003  0.3576190E+02  0.7546771E-02  0.1375285E+00
          2   -1    0    0  501    0  0.00000000000E+00  0.00000000000E+00  0.94838917335E+03  0.94838917335E+03  0.00000000000E+00 0. -1.
          2   -1    0    0  502    0 -0.00000000000E+00 -0.00000000000E+00 -0.23672030610E+04  0.23672030610E+04  0.00000000000E+00 0.  1.
          2    1    1    2  501    0  0.82528049636E+01 -0.34796620573E+02 -0.23667308000E+04  0.23670009703E+04  0.00000000000E+00 0.  1.
          2    1    1    2  502    0 -0.82528049636E+01  0.34796620573E+02  0.94791691234E+03  0.94859126408E+03  0.00000000000E+00 0. -1.
</event>
<event>
 4    1  0.8391192E+003  0.2381075E+02  0.7546771E-02  0.1482561E+00
          2   -1    0    0  502    0  0.00000000000E+00  0.00000000000E+00  0.11553792589E+03  0.11553792589E+03  0.00000000000E+00 0. -1.
          2   -1    0    0  501    0 -0.00000000000E+00 -0.00000000000E+00 -0.50965829916E+01  0.50965829916E+01  0.00000000000E+00 0. -1.
          2    1    1    2  501    0 -0.23310583366E+02 -0.48547435390E+01  0.66852018657E+02  0.70965796200E+02  0.00000000000E+00 0. -1.
          2    1    1    2  502    0  0.23310583366E+02  0.48547435390E+01  0.43589324241E+02  0.49668712682E+02  0.00000000000E+00 0. -1.
</event>
<event>
 4    1  0.8391192E+003  0.2579039E+02  0.7546771E-02  0.1460152E+00
          2   -1    0    0  501    0  0.00000000000E+00  0.00000000000E+00  0.41730587102E+00  0.41730587102E+00  0.00000000000E+00 0. -1.
          2   -1    0    0  502    0 -0.00000000000E+00 -0.00000000000E+00 -0.23431929040E+04  0.23431929040E+04  0.00000000000E+00 0.  1.
          2    1    1    2  501    0  0.23743034734E+02 -0.10070390234E+02 -0.18340264074E+04  0.18342077329E+04  0.00000000000E+00 0.  1.
          2    1    1    2  502    0 -0.23743034734E+02  0.10070390234E+02 -0.50874919072E+03  0.50940247694E+03  0.00000000000E+00 0. -1.
</event>
<event>
 4    1  0.8391192E+003  0.3356524E+02  0.7546771E-02  0.1390940E+00
          2   -1    0    0  502    0  0.00000000000E+00  0.00000000000E+00  0.14516426788E+03  0.14516426788E+03  0.00000000000E+00 0.  1.
          2   -1    0    0  501    0 -0.00000000000E+00 -0.00000000000E+00 -0.11112677054E+02  0.11112677054E+02  0.00000000000E+00 0. -1.
          2    1    1    2  501    0 -0.33155857281E+02  0.52263341519E+01  0.10993833063E+03  0.11494808385E+03  0.00000000000E+00 0.  1.
          2    1    1    2  502    0  0.33155857281E+02 -0.52263341519E+01  0.24113260201E+02  0.41328861080E+02  0.00000000000E+00 0. -1.
</event>
<event>
 4    1  0.8391192E+003  0.2616819E+02  0.7546771E-02  0.1456148E+00
          2   -1    0    0  502    0  0.00000000000E+00  0.00000000000E+00  0.49608971140E+03  0.49608971140E+03  0.00000000000E+00 0.  1.
          2   -1    0    0  501    0 -0.00000000000E+00 -0.00000000000E+00 -0.45357459902E+01  0.45357459902E+01  0.00000000000E+00 0.  1.
          2    1    1    2  501    0 -0.75122174517E+01  0.25066730982E+02  0.45455555601E+03  0.45530816807E+03  0.00000000000E+00 0.  1.
          2    1    1    2  502    0  0.75122174517E+01 -0.25066730982E+02  0.36998409404E+02  0.45317289323E+02  0.00000000000E+00 0.  1.
</event>
<event>
 4    1  0.8391192E+003  0.4676737E+02  0.7546771E-02  0.1312831E+00
          2   -1    0    0  501    0  0.00000000000E+00  0.00000000000E+00  0.39573531169E+02  0.39573531169E+02  0.00000000000E+00 0. -1.
          2   -1    0    0  502    0 -0.00000000000E+00 -0.00000000000E+00 -0.28506987566E+03  0.28506987566E+03  0.00000000000E+00 0. -1.
          2    1    1    2  501    0 -0.33997098576E+02 -0.32115175071E+02 -0.26848752058E+03  0.27253024765E+03  0.00000000000E+00 0. -1.
          2    1    1    2  502    0  0.33997098576E+02  0.32115175071E+02  0.22991176084E+02  0.52113159175E+02  0.00000000000E+00 0. -1.
</event>
<event>
 4    1  0.8391192E+003  0.2654304E+02  0.7546771E-02  0.1452253E+00
          2   -1    0    0  501    0  0.00000000000E+00  0.00000000000E+00  0.68039654903E+03  0.68039654903E+03  0.00000000000E+00 0. -1.
          2   -1    0    0  502    0 -0.00000000000E+00 -0.00000000000E+00 -0.18599776105E+01  0.18599776105E+01  0.00000000000E+00 0.  1.
          2    1    1    2  501    0  0.23751804467E+02 -0.11848397072E+02  0.11214576147E+03  0.11524410850E+03  0.00000000000E+00 0.  1.
          2    1    1    2  502    0 -0.23751804467E+02  0.11848397072E+02  0.56639080995E+03  0.56701241814E+03  0.00000000000E+00 0. -1.
</event>
<event>
 4    1  0.8391192E+003  0.2000020E+02  0.7546771E-02  0.1534032E+00
          2   -1    0    0  501    0  0.00000000000E+00  0.00000000000E+00  0.31211103043E+03  0.31211103043E+03  0.00000000000E+00 0.  1.
          2   -1    0    0  502    0 -0.00000000000E+00 -0.00000000000E+00 -0.39842568153E+01  0.39842568153E+01  0.00000000000E+00 0. -1.
          2    1    1    2  501    0  0.12254000926E+02 -0.15806565156E+02  0.23894218622E+02  0.31159937809E+02  0.00000000000E+00 0. -1.
          2    1    1    2  502    0 -0.12254000926E+02  0.15806565156E+02  0.28423255499E+03  0.28493534944E+03  0.00000000000E+00 0.  1.
</event>
<event>
 4    1  0.8391192E+003  0.2079608E+02  0.7546771E-02  0.1522196E+00
          2   -1    0    0  501    0  0.00000000000E+00  0.00000000000E+00  0.21986415230E+03  0.21986415230E+03  0.00000000000E+00 0. -1.
          2   -1    0    0  502    0 -0.00000000000E+00 -0.00000000000E+00 -0.81842420137E+01  0.81842420137E+01  0.00000000000E+00 0. -1.
          2    1    1    2  501    0 -0.68131122549E+01 -0.19648374795E+02  0.64583543087E+01  0.21775846047E+02  0.00000000000E+00 0. -1.
          2    1    1    2  502    0  0.68131122549E+01  0.19648374795E+02  0.20522155598E+03  0.20627254827E+03  0.00000000000E+00 0. -1.
</event>
<event>
 4    1  0.8391192E+003  0.2149918E+02  0.7546771E-02  0.1512256E+00
          2   -1    0    0  502    0  0.00000000000E+00  0.00000000000E+00  0.96538303359E+01  0.96538303359E+01  0.00000000000E+00 0.  1.
          2   -1    0    0  501    0 -0.00000000000E+00 -0.00000000000E+00 -0.76202121283E+03  0.76202121283E+03  0.00000000000E+00 0.  1.
          2    1    1    2  501    0 -0.86336535779E+01  0.19689460870E+02 -0.26641655800E+01  0.21663624390E+02  0.00000000000E+00 0.  1.
          2    1    1    2  502    0  0.86336535779E+01 -0.19689460870E+02 -0.74970321692E+03  0.75001141878E+03  0.00000000000E+00 0.  1.
</event>
<event>
 4    1  0.8391192E+003  0.5195382E+02  0.7546771E-02  0.1289917E+00
          2   -1    0    0  502    0  0.00000000000E+00  0.00000000000E+00  0.20981299993E+04  0.20981299993E+04  0.00000000000E+00 0.  1.
          2   -1    0    0  501    0 -0.00000000000E+00 -0.00000000000E+00 -0.12740059980E+03  0.12740059980E+03  0.00000000000E+00 0. -1.
          2    1    1    2  501    0 -0.25228195095E+01  0.51892534295E+02  0.20924974465E+04  0.20931423180E+04  0.00000000000E+00 0.  1.
          2    1    1    2  502    0  0.25228195095E+01 -0.51892534295E+02 -0.12176804695E+03  0.13238828117E+03  0.00000000000E+00 0. -1.
</event>
<event>
 4    1  0.8391192E+003  0.2284681E+02  0.7546771E-02  0.1494431E+00
          2   -1    0    0  501    0  0.00000000000E+00  0.00000000000E+00  0.81690625784E+00  0.81690625784E+00  0.00000000000E+00 0.  1.
          2   -1    0    0  502    0 -0.00000000000E+00 -0.00000000000E+00 -0.11302546583E+04  0.11302546583E+04  0.00000000000E+00 0.  1.
          2    1    1    2  501    0 -0.18177095457E+02 -0.13840881408E+02 -0.93757347791E+03  0.93785180240E+03  0.00000000000E+00 0.  1.
          2    1    1    2  502    0  0.18177095457E+02  0.13840881408E+02 -0.19186427412E+03  0.19321976213E+03  0.00000000000E+00 0.  1.
</event>
<event>
 4    1  0.8391192E+003  0.4366963E+02  0.7546771E-02  0.1328227E+00
          2   -1    0    0  502    0  0.00000000000E+00  0.00000000000E+00  0.22134711188E+03  0.22134711188E+03  0.00000000000E+00 0.  1.
          2   -1    0    0  501    0 -0.00000000000E+00 -0.00000000000E+00 -0.44114518641E+03  0.44114518641E+03  0.00000000000E+00 0.  1.
          2    1    1    2  501    0 -0.21373780645E+02  0.38081462049E+02  0.21809653430E+03  0.22242557075E+03  0.00000000000E+00 0.  1.
          2    1    1    2  502    0  0.21373780645E+02 -0.38081462049E+02 -0.43789460883E+03  0.44006672755E+03  0.00000000000E+00 0.  1.
</event>
<event>
 4    1  0.8391192E+003  0.2456581E+02  0.7546771E-02  0.1473720E+00
          2   -1    0    0  501    0  0.00000000000E+00  0.00000000000E+00  0.57291651517E+02  0.57291651517E+02  0.00000000000E+00 0.  1.
          2   -1    0    0  502    0 -0.00000000000E+00 -0.00000000000E+00 -0.12136661184E+04  0.12136661184E+04  0.00000000000E+00 0. -1.
          2    1    1    2  501    0  0.19589656014E+01  0.24487575110E+02 -0.12109024366E+04  0.12111515966E+04  0.00000000000E+00 0. -1.
          2    1    1    2  502    0 -0.19589656014E+01 -0.24487575110E+02  0.54527969758E+02  0.59806173318E+02  0.00000000000E+00 0.  1.
</event>
<event>
 4    1  0.8391192E+003  0.2898182E+02  0.7546771E-02  0.1428656E+00
          2   -1    0    0  501    0  0.00000000000E+00  0.00000000000E+00  0.80330195255E+03  0.80330195255E+03  0.00000000000E+00 0. -1.
          2   -1    0    0  502    0 -0.00000000000E+00 -0.00000000000E+00 -0.16949045776E+01  0.16949045776E+01  0.00000000000E+00 0. -1.
          2    1    1    2  501    0  0.27796692141E+02  0.82030314548E+01  0.15168256956E+03  0.15442651238E+03  0.00000000000E+00 0. -1.
          2    1    1    2  502    0 -0.27796692141E+02 -0.82030314548E+01  0.64992447842E+03  0.65057034475E+03  0.00000000000E+00 0. -1.
</event>
<event>
 4    1  0.8391192E+003  0.3131652E+02  0.7546771E-02  0.1408491E+00
          2   -1    0    0  501    0  0.00000000000E+00  0.00000000000E+00  0.10449784791E+01  0.10449784791E+01  0.00000000000E+00 0. -1.
          2   -1    0    0  502    0 -0.00000000000E+00 -0.00000000000E+00 -0.11374105751E+04  0.11374105751E+04  0.00000000000E+00 0. -1.
          2    1    1    2  501    0 -0.20902606351E+02  0.23319631922E+02 -0.80621952845E+03  0.80682752323E+03  0.00000000000E+00 0. -1.
          2    1    1    2  502    0  0.20902606351E+02 -0.23319631922E+02 -0.33014606813E+03  0.33162803031E+03  0.00000000000E+00 0. -1.
</event>
<event>
 4    1  0.8391192E+003  0.2220787E+02  0.7546771E-02  0.1502692E+00
          2   -1    0    0  501    0  0.00000000000E+00  0.00000000000E+00  0.81504570750E+03  0.81504570750E+03  0.00000000000E+00 0.  1.
          2   -1    0    0  502    0 -0.00000000000E+00 -0.00000000000E+00 -0.22170131901E+02  0.22170131901E+02  0.00000000000E+00 0. -1.
          2    1    1    2  501    0  0.73534665343E+01  0.20955096104E+02 -0.16417915337E+02  0.27617702055E+02  0.00000000000E+00 0. -1.
          2    1    1    2  502    0 -0.73534665343E+01 -0.20955096104E+02  0.80929349093E+03  0.80959813734E+03  0.00000000000E+00 0.  1.
</event>
<event>
 4    1  0.8391192E+003  0.3128007E+02  0.7546771E-02  0.1408789E+00
          2   -1    0    0  502    0  0.00000000000E+00  0.00000000000E+00  0.17225666809E+03  0.17225666809E+03  0.00000000000E+00 0. -1.
          2   -1    0    0  501    0 -0.00000000000E+00 -0.00000000000E+00 -0.33563853216E+03  0.33563853216E+03  0.00000000000E+00 0. -1.
          2    1    1    2  501    0 -0.29537702528E+02  0.10294022090E+02  0.17009867081E+03  0.17295086173E+03  0.00000000000E+00 0. -1.
          2    1    1    2  502    0  0.29537702528E+02 -0.10294022090E+02 -0.33348053488E+03  0.33494433852E+03  0.00000000000E+00 0. -1.
</event>
<event>
 4    1  0.8391192E+003  0.2217609E+02  0.7546771E-02  0.1503112E+00
          2   -1    0    0  502    0  0.00000000000E+00  0.00000000000E+00  0.10026564559E+03  0.10026564559E+03  0.00000000000E+00 0. -1.
          2   -1    0    0  501    0 -0.00000000000E+00 -0.00000000000E+00 -0.61866321097E+01  0.61866321097E+01  0.00000000000E+00 0. -1.
          2    1    1    2  501    0 -0.57898490943E+01 -0.21406925458E+02  0.71267662953E+02  0.74638184550E+02  0.00000000000E+00 0. -1.
          2    1    1    2  502    0  0.57898490943E+01  0.21406925458E+02  0.22811350529E+02  0.31814093151E+02  0.00000000000E+00 0. -1.
</event>
<event>
 4    1  0.8391192E+003  0.2374256E+02  0.7546771E-02  0.1483379E+00
          2   -1    0    0  501    0  0.00000000000E+00  0.00000000000E+00  0.12390234900E+04  0.12390234900E+04  0.00000000000E+00 0. -1.
          2   -1    0    0  502    0 -0.00000000000E+00 -0.00000000000E+00 -0.66251032155E+00  0.66251032155E+00  0.00000000000E+00 0. -1.
          2    1    1    2  501    0  0.15077496160E+02  0.18340613474E+02  0.27224824845E+03  0.27328157233E+03  0.00000000000E+00 0. -1.
          2    1    1    2  502    0 -0.15077496160E+02 -0.18340613474E+02  0.96611273119E+03  0.96640442795E+03  0.00000000000E+00 0. -1.
</event>
<event>
 4    1  0.8391192E+003  0.3575368E+02  0.7546771E-02  0.1375341E+00
          2   -1    0    0  501    0  0.00000000000E+00  0.00000000000E+00  0.10271738232E+02  0.10271738232E+02  0.00000000000E+00 0.  1.
          2   -1    0    0  502    0 -0.00000000000E+00 -0.00000000000E+00 -0.15869511148E+03  0.15869511148E+03  0.00000000000E+00 0.  1.
          2    1    1    2  501    0 -0.87394932228E+01 -0.34669106173E+02 -0.11345667351E+03  0.11895689315E+03  0.00000000000E+00 0.  1.
          2    1    1    2  502    0  0.87394932228E+01  0.34669106173E+02 -0.34966699743E+02  0.50009956565E+02  0.00000000000E+00 0.  1.
</event>
<event>
 4    1  0.8391192E+003  0.2057390E+02  0.7546771E-02  0.1525436E+00
          2   -1    0    0  502    0  0.00000000000E+00  0.00000000000E+00  0.16324254401E+02  0.16324254401E+02  0.00000000000E+00 0. -1.
          2   -1    0    0  501    0 -0.00000000000E+00 -0.00000000000E+00 -0.10350533629E+03  0.10350533629E+03  0.00000000000E+00 0.  1.
          2    1    1    2  501    0 -0.35938371482E+01 -0.20257582911E+02  0.82793084136E+01  0.22177291959E+02  0.00000000000E+00 0. -1.
          2    1    1    2  502    0  0.35938371482E+01  0.20257582911E+02 -0.95460390306E+02  0.97652298734E+02  0.00000000000E+00 0.  1.
</event>
<event>
 4    1  0.8391192E+003  0.2652828E+02  0.7546771E-02  0.1452405E+00
          2   -1    0    0  502    0  0.00000000000E+00  0.00000000000E+00  0.34292875654E+01  0.34292875654E+01  0.00000000000E+00 0. -1.
          2   -1    0    0  501    0 -0.00000000000E+00 -0.00000000000E+00 -0.99615902302E+03  0.99615902302E+03  0.00000000000E+00 0.  1.
          2    1    1    2  501    0  0.44806181257E+01  0.26147157172E+02 -0.51017357396E+02  0.57502352323E+02  0.00000000000E+00 0. -1.
          2    1    1    2  502    0 -0.44806181257E+01 -0.26147157172E+02 -0.94171237806E+03  0.94208595827E+03  0.00000000000E+00 0.  1.
</event>
<event>
 4    1  0.8391192E+003  0.2492822E+02  0.7546771E-02  0.1469608E+00
          2   -1    0    0  501    0  0.00000000000E+00  0.00000000000E+00  0.11506998624E+04  0.11506998624E+04  0.00000000000E+00 0.  1.
          2   -1    0    0  502    0 -0.00000000000E+00 -0.00000000000E+00 -0.30480163971E+01  0.30480163971E+01  0.00000000000E+00 0.  1.
          2    1    1    2  501    0  0.62822598800E+01 -0.24123627995E+02  0.50545394156E+02  0.56358256602E+02  0.00000000000E+00 0.  1.
          2    1    1    2  502    0 -0.62822598800E+01  0.24123627995E+02  0.10971064518E+04  0.10973896222E+04  0.00000000000E+00 0.  1.
</event>
<event>
 4    1  0.8391192E+003  0.2308944E+02  0.7546771E-02  0.1491378E+00
          2   -1    0    0  502    0  0.00000000000E+00  0.00000000000E+00  0.17123514731E+04  0.17123514731E+04  0.00000000000E+00 0.  1.
          2   -1    0    0  501    0 -0.00000000000E+00 -0.00000000000E+00 -0.37579747656E+00  0.37579747656E+00  0.00000000000E+00 0.  1.
          2    1    1    2  501    0 -0.50547476547E+01 -0.22529355479E+02  0.12106544036E+04  0.12108745629E+04  0.00000000000E+00 0.  1.
          2    1    1    2  502    0  0.50547476547E+01  0.22529355479E+02  0.50132127209E+03  0.50185270766E+03  0.00000000000E+00 0.  1.
</event>
<event>
 4    1  0.8391192E+003  0.2534896E+02  0.7546771E-02  0.1464937E+00
          2   -1    0    0  501    0  0.00000000000E+00  0.00000000000E+00  0.58178367285E+02  0.58178367285E+02  0.00000000000E+00 0.  1.
          2   -1    0    0  502    0 -0.00000000000E+00 -0.00000000000E+00 -0.23498661329E+02  0.23498661329E+02  0.00000000000E+00 0. -1.
          2    1    1    2  501    0 -0.23324688583E+02 -0.99261555623E+01 -0.12390496689E+02  0.28215139021E+02  0.00000000000E+00 0. -1.
          2    1    1    2  502    0  0.23324688583E+02  0.99261555623E+01  0.47070202646E+02  0.53461889593E+02  0.00000000000E+00 0.  1.
</event>
<event>
 4    1  0.8391192E+003  0.2014578E+02  0.7546771E-02  0.1531819E+00
          2   -1    0    0  501    0  0.00000000000E+00  0.00000000000E+00  0.11980540534E+04  0.11980540534E+04  0.00000000000E+00 0. -1.
          2   -1    0    0  502    0 -0.00000000000E+00 -0.00000000000E+00 -0.14196347265E+01  0.14196347265E+01  0.00000000000E+00 0.  1.
          2    1    1    2  501    0 -0.10018838766E+02 -0.17477857914E+02  0.75005890934E+02  0.77664253825E+02  0.00000000000E+00 0.  1.
          2    1    1    2  502    0  0.10018838766E+02  0.17477857914E+02  0.11216285277E+04  0.11218094343E+04  0.00000000000E+00 0. -1.
</event>
<event>
 4    1  0.8391192E+003  0.3468602E+02  0.7546771E-02  0.1382784E+00
          2   -1    0    0  502    0  0.00000000000E+00  0.00000000000E+00  0.49751445863E+01  0.49751445863E+01  0.00000000000E+00 0.  1.
          2   -1    0    0  501    0 -0.00000000000E+00 -0.00000000000E+00 -0.12114674820E+04  0.12114674820E+04  0.00000000000E+00 0. -1.
          2    1    1    2  501    0 -0.16627112208E+02  0.30441079494E+02 -0.59105346796E+02  0.68531468691E+02  0.00000000000E+00 0.  1.
          2    1    1    2  502    0  0.16627112208E+02 -0.30441079494E+02 -0.11473869906E+04  0.11479111578E+04  0.00000000000E+00 0. -1.
</event>
<event>
 4    1  0.8391192E+003  0.2186333E+02  0.7546771E-02  0.1507287E+00
          2   -1    0    0  502    0  0.00000000000E+00  0.00000000000E+00  0.68819039044E+02  0.68819039044E+02  0.00000000000E+00 0. -1.
          2   -1    0    0  501    0 -0.00000000000E+00 -0.00000000000E+00 -0.81557236975E+01  0.81557236975E+01  0.00000000000E+00 0. -1.
          2    1    1    2  501    0 -0.46236164024E+01 -0.21368837260E+02  0.45155525388E+02  0.50169976157E+02  0.00000000000E+00 0. -1.
          2    1    1    2  502    0  0.46236164024E+01  0.21368837260E+02  0.15507789958E+02  0.26804786585E+02  0.00000000000E+00 0. -1.
</event>
<event>
 4    1  0.8391192E+003  0.2013198E+02  0.7546771E-02  0.1532028E+00
          2   -1    0    0  502    0  0.00000000000E+00  0.00000000000E+00  0.37840336530E+02  0.37840336530E+02  0.00000000000E+00 0.  1.
          2   -1    0    0  501    0 -0.00000000000E+00 -0.00000000000E+00 -0.49977624312E+03  0.49977624312E+03  0.00000000000E+00 0. -1.
          2    1    1    2  501    0  0.87182163411E+01  0.18146336199E+02  0.34944320101E+02  0.40328678641E+02  0.00000000000E+00 0.  1.
          2    1    1    2  502    0 -0.87182163411E+01 -0.18146336199E+02 -0.49688022669E+03  0.49728790101E+03  0.00000000000E+00 0. -1.
</event>
<event>
 4    1  0.8391192E+003  0.2047215E+02  0.7546771E-02  0.1526936E+00
          2   -1    0    0  501    0  0.00000000000E+00  0.00000000000E+00  0.32038013828E+01  0.32038013828E+01  0.00000000000E+00 0.  1.
          2   -1    0    0  502    0 -0.00000000000E+00 -0.00000000000E+00 -0.34795694816E+03  0.34795694816E+03  0.00000000000E+00 0.  1.
          2    1    1    2  501    0 -0.18843673891E+02 -0.80015523306E+01 -0.31107896643E+03  0.31175187608E+03  0.00000000000E+00 0.  1.
          2    1    1    2  502    0  0.18843673891E+02  0.80015523306E+01 -0.33674180347E+02  0.39408873461E+02  0.00000000000E+00 0.  1.
</event>
<event>
 4    1  0.8391192E+003  0.3444425E+02  0.7546771E-02  0.1384513E+00
          2   -1    0    0  501    0  0.00000000000E+00  0.00000000000E+00  0.65095757810E+03  0.65095757810E+03  0.00000000000E+00 0.  1.
          2   -1    0    0  502    0 -0.00000000000E+00 -0.00000000000E+00 -0.30404010778E+02  0.30404010778E+02  0.00000000000E+00 0. -1.
          2    1    1    2  501    0 -0.28420277430E+02  0.19460059064E+02 -0.20035241177E+02  0.39847420958E+02  0.00000000000E+00 0. -1.
          2    1    1    2  502    0  0.28420277430E+02 -0.19460059064E+02  0.64058880850E+03  0.64151416792E+03  0.00000000000E+00 0.  1.
</event>
<event>
 4    1  0.8391192E+003  0.2474960E+02  0.7546771E-02  0.1471624E+00
          2   -1    0    0  501    0  0.00000000000E+00  0.00000000000E+00  0.96936391110E+03  0.96936391110E+03  0.00000000000E+00 0. -1.
          2   -1    0    0  502    0 -0.00000000000E+00 -0.00000000000E+00 -0.92146878154E+02  0.92146878154E+02  0.00000000000E+00 0.  1.
          2    1    1    2  501    0 -0.23039276989E+02 -0.90407151025E+01 -0.90323906700E+02  0.93653355174E+02  0.00000000000E+00 0.  1.
          2    1    1    2  502    0  0.23039276989E+02  0.90407151025E+01  0.96754093965E+03  0.96785743408E+03  0.00000000000E+00 0. -1.
</event>
<event>
 4    1  0.8391192E+003  0.2918038E+02  0.7546771E-02  0.1426855E+00
          2   -1    0    0  502    0  0.00000000000E+00  0.00000000000E+00  0.42409275344E+03  0.42409275344E+03  0.00000000000E+00 0. -1.
          2   -1    0    0  501    0 -0.00000000000E+00 -0.00000000000E+00 -0.88545175087E+03  0.88545175087E+03  0.00000000000E+00 0.  1.
          2    1    1    2  501    0  0.23884680310E+00 -0.29179404237E+02  0.42334996889E+03  0.42435444011E+03  0.00000000000E+00 0. -1.
          2    1    1    2  502    0 -0.23884680310E+00  0.29179404237E+02 -0.88470896632E+03  0.88519006420E+03  0.00000000000E+00 0.  1.
</event>
<event>
 4    1  0.8391192E+003  0.2032280E+02  0.7546771E-02  0.1529157E+00
          2   -1    0    0  502    0  0.00000000000E+00  0.00000000000E+00  0.90202162276E+03  0.90202162276E+03  0.00000000000E+00 0.  1.
          2   -1    0    0  501    0 -0.00000000000E+00 -0.00000000000E+00 -0.92723345533E+02  0.92723345533E+02  0.00000000000E+00 0. -1.
          2    1    1    2  501    0 -0.14746170359E+02  0.13984509132E+02  0.90079206261E+03  0.90102128505E+03  0.00000000000E+00 0.  1.
          2    1    1    2  502    0  0.14746170359E+02 -0.13984509132E+02 -0.91493785390E+02  0.93723683244E+02  0.00000000000E+00 0. -1.
</event>
<event>
 4    1  0.8391192E+003  0.2919520E+02  0.7546771E-02  0.1426721E+00
          2   -1    0    0  502    0  0.00000000000E+00  0.00000000000E+00  0.26266343745E+04  0.26266343745E+04  0.00000000000E+00 0. -1.
          2   -1    0    0  501    0 -0.00000000000E+00 -0.00000000000E+00 -0.32554241742E+00  0.32554241742E+00  0.00000000000E+00 0. -1.
          2    1    1    2  501    0 -0.29194360363E+02 -0.22094364552E+00  0.12390546388E+04  0.12393985466E+04  0.00000000000E+00 0. -1.
          2    1    1    2  502    0  0.29194360363E+02  0.22094364552E+00  0.13872541933E+04  0.13875613703E+04  0.00000000000E+00 0. -1.
</event>
<event>
 4    1  0.8391192E+003  0.3097201E+02  0.7546771E-02  0.1411333E+00
          2   -1    0    0  501    0  0.00000000000E+00  0.00000000000E+00  0.15522459322E+04  0.15522459322E+04  0.00000000000E+00 0.  1.
          2   -1    0    0  502    0 -0.00000000000E+00 -0.00000000000E+00 -0.50887429324E+01  0.50887429324E+01  0.00000000000E+00 0.  1.
          2    1    1    2  501    0  0.30827880034E+02  0.29845205265E+01  0.43722476074E+02  0.53580971102E+02  0.00000000000E+00 0.  1.
          2    1    1    2  502    0 -0.30827880034E+02 -0.29845205265E+01  0.15034347132E+04  0.15037537040E+04  0.00000000000E+00 0.  1.
</event>
<event>
 4    1  0.8391192E+003  0.3811598E+02  0.7546771E-02  0.1359894E+00
          2   -1    0    0  501    0  0.00000000000E+00  0.00000000000E+00  0.52680393115E+01  0.52680393115E+01  0.00000000000E+00 0.  1.
          2   -1    0    0  502    0 -0.00000000000E+00 -0.00000000000E+00 -0.39486556273E+03  0.39486556273E+03  0.00000000000E+00 0. -1.
          2    1    1    2  501    0  0.30882671939E+02  0.22340296532E+02 -0.30466823675E+03  0.30704325878E+03  0.00000000000E+00 0. -1.
          2    1    1    2  502    0 -0.30882671939E+02 -0.22340296532E+02 -0.84929286665E+02  0.93090343262E+02  0.00000000000E+00 0.  1.
</event>
<event>
 4    1  0.8391192E+003  0.3201278E+02  0.7546771E-02  0.1402876E+00
          2   -1    0    0  501    0  0.00000000000E+00  0.00000000000E+00  0.55111337442E+02  0.55111337442E+02  0.00000000000E+00 0.  1.
          2   -1    0    0  502    0 -0.00000000000E+00 -0.00000000000E+00 -0.77758658470E+02  0.77758658470E+02  0.00000000000E+00 0.  1.
          2    1    1    2  501    0  0.31057279295E+02  0.77629578838E+01 -0.69273006523E+02  0.76312302711E+02  0.00000000000E+00 0.  1.
          2    1    1    2  502    0 -0.31057279295E+02 -0.77629578838E+01  0.46625685496E+02  0.56557693201E+02  0.00000000000E+00 0.  1.
</event>
<event>
 4    1  0.8391192E+003  0.5290880E+02  0.7546771E-02  0.1286031E+00
          2   -1    0    0  502    0  0.00000000000E+00  0.00000000000E+00  0.21715610223E+01  0.21715610223E+01  0.00000000000E+00 0. -1.
          2   -1    0    0  501    0 -0.00000000000E+00 -0.00000000000E+00 -0.12959142768E+04  0.12959142768E+04  0.00000000000E+00 0.  1.
          2    1    1    2  501    0 -0.39646766677E+02  0.35035339906E+02 -0.69396492025E+03  0.69597891612E+03  0.00000000000E+00 0. -1.
          2    1    1    2  502    0  0.39646766677E+02 -0.35035339906E+02 -0.59977779556E+03  0.60210692173E+03  0.00000000000E+00 0.  1.
</event>
<event>
 4    1  0.8391192E+003  0.5138108E+02  0.7546771E-02  0.1292293E+00
          2   -1    0    0  501    0  0.00000000000E+00  0.00000000000E+00  0.22279495237E+03  0.22279495237E+03  0.00000000000E+00 0. -1.
          2   -1    0    0  502    0 -0.00000000000E+00 -0.00000000000E+00 -0.12071528129E+03  0.12071528129E+03  0.00000000000E+00 0.  1.
          2    1    1    2  501    0  0.15525730919E+02 -0.48979248501E+02 -0.11206776508E+03  0.12328503184E+03  0.00000000000E+00 0.  1.
          2    1    1    2  502    0 -0.15525730919E+02  0.48979248501E+02  0.21414743616E+03  0.22022520183E+03  0.00000000000E+00 0. -1.
</event>
<event>
 4    1  0.8391192E+003  0.2015232E+02  0.7546771E-02  0.1531720E+00
          2   -1    0    0  501    0  0.00000000000E+00  0.00000000000E+00  0.43390625831E+02  0.43390625831E+02  0.00000000000E+00 0.  1.
          2   -1    0    0  502    0 -0.00000000000E+00 -0.00000000000E+00 -0.29847208106E+03  0.29847208106E+03  0.00000000000E+00 0.  1.
          2    1    1    2  501    0 -0.50365703100E+01  0.19512791646E+02 -0.29577068844E+03  0.29645643224E+03  0.00000000000E+00 0.  1.
          2    1    1    2  502    0  0.50365703100E+01 -0.19512791646E+02  0.40689233209E+02  0.45406274649E+02  0.00000000000E+00 0.  1.
</event>
<event>
 4    1  0.8391192E+003  0.2672904E+02  0.7546771E-02  0.1450349E+00
          2   -1    0    0  501    0  0.00000000000E+00  0.00000000000E+00  0.11418226687E+04  0.11418226687E+04  0.00000000000E+00 0. -1.
          2   -1    0    0  502    0 -0.00000000000E+00 -0.00000000000E+00 -0.69528275587E+00  0.69528275587E+00  0.00000000000E+00 0. -1.
          2    1    1    2  501    0 -0.18464295419E+02  0.19326441804E+02  0.38984852386E+03  0.39076375614E+03  0.00000000000E+00 0. -1.
          2    1    1    2  502    0  0.18464295419E+02 -0.19326441804E+02  0.75127886211E+03  0.75175419534E+03  0.00000000000E+00 0. -1.
</event>
<event>
 4    1  0.8391192E+003  0.2493281E+02  0.7546771E-02  0.1469556E+00
          2   -1    0    0  501    0  0.00000000000E+00  0.00000000000E+00  0.58472262815E+02  0.58472262815E+02  0.00000000000E+00 0.  1.
          2   -1    0    0  502    0 -0.00000000000E+00 -0.00000000000E+00 -0.27999181112E+02  0.27999181112E+02  0.00000000000E+00 0. -1.
          2    1    1    2  501    0 -0.22098786991E+02  0.11545066216E+02 -0.18815378286E+02  0.31235611095E+02  0.00000000000E+00 0. -1.
          2    1    1    2  502    0  0.22098786991E+02 -0.11545066216E+02  0.49288459990E+02  0.55235832832E+02  0.00000000000E+00 0.  1.
</event>
<event>
 4    1  0.8391192E+003  0.3077997E+02  0.7546771E-02  0.1412937E+00
          2   -1    0    0  502    0  0.00000000000E+00  0.00000000000E+00  0.34280780077E+02  0.34280780077E+02  0.00000000000E+00 0. -1.
          2   -1    0    0  501    0 -0.00000000000E+00 -0.00000000000E+00 -0.10187282773E+04  0.10187282773E+04  0.00000000000E+00 0.  1.
          2    1    1    2  501    0  0.29577392087E+02  0.85196656155E+01  0.27090009338E+02  0.41003358774E+02  0.00000000000E+00 0. -1.
          2    1    1    2  502    0 -0.29577392087E+02 -0.85196656155E+01 -0.10115375065E+04  0.10120056986E+04  0.00000000000E+00 0.  1.
</event>
<event>
 4    1  0.8391192E+003  0.2208588E+02  0.7546771E-02  0.1504307E+00
          2   -1    0    0  501    0  0.00000000000E+00  0.00000000000E+00  0.17081298806E+03  0.17081298806E+03  0.00000000000E+00 0.  1.
          2   -1    0    0  502    0 -0.00000000000E+00 -0.00000000000E+00 -0.65973246542E+01  0.65973246542E+01  0.00000000000E+00 0.  1.
          2    1    1    2  501    0 -0.12330953566E+02 -0.18323031622E+02  0.15304725069E+02  0.26870439392E+02  0.00000000000E+00 0.  1.
          2    1    1    2  502    0  0.12330953566E+02  0.18323031622E+02  0.14891093833E+03  0.15053987332E+03  0.00000000000E+00 0.  1.
</event>
<event>
 4    1  0.8391192E+003  0.2229199E+02  0.7546771E-02  0.1501585E+00
          2   -1    0    0  502    0  0.00000000000E+00  0.00000000000E+00  0.18242661972E+02  0.18242661972E+02  0.00000000000E+00 0. -1.
          2   -1    0    0  501    0 -0.00000000000E+00 -0.00000000000E+00 -0.10927113183E+03  0.10927113183E+03  0.00000000000E+00 0.  1.
          2    1    1    2  501    0  0.25856913603E+01  0.22141523862E+02  0.97270028460E+01  0.24321748768E+02  0.00000000000E+00 0. -1.
          2    1    1    2  502    0 -0.25856913603E+01 -0.22141523862E+02 -0.10075547270E+03  0.10319204504E+03  0.00000000000E+00 0.  1.
</event>
<event>
 4    1  0.8391192E+003  0.3097451E+02  0.7546771E-02  0.1411313E+00
          2   -1    0    0  501    0  0.00000000000E+00  0.00000000000E+00  0.36056706490E+03  0.36056706490E+03  0.00000000000E+00 0.  1.
          2   -1    0    0  502    0 -0.00000000000E+00 -0.00000000000E+00 -0.27815188536E+01  0.27815188536E+01  0.00000000000E+00 0.  1.
          2    1    1    2  501    0  0.22735155614E+01 -0.30890957348E+02  0.14105514610E+03  0.14441597682E+03  0.00000000000E+00 0.  1.
          2    1    1    2  502    0 -0.22735155614E+01  0.30890957348E+02  0.21673039995E+03  0.21893260694E+03  0.00000000000E+00 0.  1.
</event>
<event>
 4    1  0.8391192E+003  0.2896584E+02  0.7546771E-02  0.1428801E+00
          2   -1    0    0  502    0  0.00000000000E+00  0.00000000000E+00  0.64892014807E+03  0.64892014807E+03  0.00000000000E+00 0. -1.
          2   -1    0    0  501    0 -0.00000000000E+00 -0.00000000000E+00 -0.56288217100E+02  0.56288217100E+02  0.00000000000E+00 0.  1.
          2    1    1    2  501    0  0.15011313542E+02 -0.24772575123E+02  0.64484693861E+03  0.64549716827E+03  0.00000000000E+00 0. -1.
          2    1    1    2  502    0 -0.15011313542E+02  0.24772575123E+02 -0.52215007639E+02  0.59711196900E+02  0.00000000000E+00 0.  1.
</event>
<event>
 4    1  0.8391192E+003  0.2133682E+02  0.7546771E-02  0.1514510E+00
          2   -1    0    0  502    0  0.00000000000E+00  0.00000000000E+00  0.17337953207E+03  0.17337953207E+03  0.00000000000E+00 0. -1.
          2   -1    0    0  501    0 -0.00000000000E+00 -0.00000000000E+00 -0.82425725575E+03  0.82425725575E+03  0.00000000000E+00 0.  1.
          2    1    1    2  501    0  0.18603579327E+02 -0.10448287442E+02  0.17258436658E+03  0.17389831357E+03  0.00000000000E+00 0. -1.
          2    1    1    2  502    0 -0.18603579327E+02  0.10448287442E+02 -0.82346209026E+03  0.82373847426E+03  0.00000000000E+00 0.  1.
</event>
<event>
 4    1  0.8391192E+003  0.2290131E+02  0.7546771E-02  0.1493741E+00
          2   -1    0    0  501    0  0.00000000000E+00  0.00000000000E+00  0.10785250273E+04  0.10785250273E+04  0.00000000000E+00 0.  1.
          2   -1    0    0  502    0 -0.00000000000E+00 -0.00000000000E+00 -0.57522791736E+00  0.57522791736E+00  0.00000000000E+00 0. -1.
          2    1    1    2  501    0 -0.15392767857E+02 -0.16956785914E+02  0.32681222437E+03  0.32761364423E+03  0.00000000000E+00 0. -1.
          2    1    1    2  502    0  0.15392767857E+02  0.16956785914E+02  0.75113757503E+03  0.75148661100E+03  0.00000000000E+00 0.  1.
</event>
<event>
 4    1  0.8391192E+003  0.3567116E+02  0.7546771E-02  0.1375905E+00
          2   -1    0    0  502    0  0.00000000000E+00  0.00000000000E+00  0.72627334220E+01  0.72627334220E+01  0.00000000000E+00 0.  1.
          2   -1    0    0  501    0 -0.00000000000E+00 -0.00000000000E+00 -0.11444420853E+04  0.11444420853E+04  0.00000000000E+00 0. -1.
          2    1    1    2  501    0  0.23337937756E+02  0.26977255131E+02 -0.38645178452E+02  0.52591648108E+02  0.00000000000E+00 0.  1.
          2    1    1    2  502    0 -0.23337937756E+02 -0.26977255131E+02 -0.10985341734E+04  0.10991131706E+04  0.00000000000E+00 0. -1.
</event>
<event>
 4    1  0.8391192E+003  0.2388450E+02  0.7546771E-02  0.1481680E+00
          2   -1    0    0  502    0  0.00000000000E+00  0.00000000000E+00  0.53240955484E+01  0.53240955484E+01  0.00000000000E+00 0. -1.
          2   -1    0    0  501    0 -0.00000000000E+00 -0.00000000000E+00 -0.82465865801E+03  0.82465865801E+03  0.00000000000E+00 0. -1.
          2    1    1    2  501    0  0.21289060983E+02  0.10827978801E+02 -0.22573703725E+02  0.32863982448E+02  0.00000000000E+00 0. -1.
          2    1    1    2  502    0 -0.21289060983E+02 -0.10827978801E+02 -0.79676085874E+03  0.79711877111E+03  0.00000000000E+00 0. -1.
</event>
<event>
 4    1  0.8391192E+003  0.5428610E+02  0.7546771E-02  0.1280587E+00
          2   -1    0    0  502    0  0.00000000000E+00  0.00000000000E+00  0.14590551577E+03  0.14590551577E+03  0.00000000000E+00 0. -1.
          2   -1    0    0  501    0 -0.00000000000E+00 -0.00000000000E+00 -0.25978972734E+02  0.25978972734E+02  0.00000000000E+00 0. -1.
          2    1    1    2  501    0 -0.34129842477E+02 -0.42215332368E+02  0.10050489162E+03  0.11422877779E+03  0.00000000000E+00 0. -1.
          2    1    1    2  502    0  0.34129842477E+02  0.42215332368E+02  0.19421651409E+02  0.57655710714E+02  0.00000000000E+00 0. -1.
</event>
<event>
 4    1  0.8391192E+003  0.2476573E+02  0.7546771E-02  0.1471441E+00
          2   -1    0    0  502    0  0.00000000000E+00  0.00000000000E+00  0.17099547781E+01  0.17099547781E+01  0.00000000000E+00 0. -1.
          2   -1    0    0  501    0 -0.00000000000E+00 -0.00000000000E+00 -0.67717266888E+03  0.67717266888E+03  0.00000000000E+00 0.  1.
          2    1    1    2  501    0  0.52831325508E+01 -0.24195662312E+02 -0.10494435257E+03  0.10782698503E+03  0.00000000000E+00 0. -1.
          2    1    1    2  502    0 -0.52831325508E+01  0.24195662312E+02 -0.57051836153E+03  0.57105563863E+03  0.00000000000E+00 0.  1.
</event>
<event>
 4    1  0.8391192E+003  0.2131848E+02  0.7546771E-02  0.1514766E+00
          2   -1    0    0  502    0  0.00000000000E+00  0.00000000000E+00  0.83448576215E+00  0.83448576215E+00  0.00000000000E+00 0. -1.
          2   -1    0    0  501    0 -0.00000000000E+00 -0.00000000000E+00 -0.54625057766E+03  0.54625057766E+03  0.00000000000E+00 0.  1.
          2    1    1    2  501    0 -0.33072089182E+01 -0.21060393064E+02 -0.25776374720E+03  0.25864382297E+03  0.00000000000E+00 0. -1.
          2    1    1    2  502    0  0.33072089182E+01  0.21060393064E+02 -0.28765234470E+03  0.28844124046E+03  0.00000000000E+00 0.  1.
</event>
<event>
 4    1  0.8391192E+003  0.2210873E+02  0.7546771E-02  0.1504004E+00
          2   -1    0    0  502    0  0.00000000000E+00  0.00000000000E+00  0.13031011980E+04  0.13031011980E+04  0.00000000000E+00 0.  1.
          2   -1    0    0  501    0 -0.00000000000E+00 -0.00000000000E+00 -0.53560040741E+02  0.53560040741E+02  0.00000000000E+00 0. -1.
          2    1    1    2  501    0 -0.17809765234E+02 -0.13099928183E+02  0.13007217168E+04  0.13009095973E+04  0.00000000000E+00 0.  1.
          2    1    1    2  502    0  0.17809765234E+02  0.13099928183E+02 -0.51180559493E+02  0.55751641465E+02  0.00000000000E+00 0. -1.
</event>
<event>
 4    1  0.8391192E+003  0.4007639E+02  0.7546771E-02  0.1348039E+00
          2   -1    0    0  502    0  0.00000000000E+00  0.00000000000E+00  0.20124801856E+03  0.20124801856E+03  0.00000000000E+00 0. -1.
          2   -1    0    0  501    0 -0.00000000000E+00 -0.00000000000E+00 -0.17005147962E+03  0.17005147962E+03  0.00000000000E+00 0.  1.
          2    1    1    2  501    0 -0.28694454139E+02  0.27977585559E+02  0.19683925162E+03  0.20087759450E+03  0.00000000000E+00 0. -1.
          2    1    1    2  502    0  0.28694454139E+02 -0.27977585559E+02 -0.16564271268E+03  0.17042190369E+03  0.00000000000E+00 0.  1.
</event>
<event>
 4    1  0.8391192E+003  0.2394331E+02  0.7546771E-02  0.1480981E+00
          2   -1    0    0  501    0  0.00000000000E+00  0.00000000000E+00  0.17477723742E+03  0.17477723742E+03  0.00000000000E+00 0. -1.
          2   -1    0    0  502    0 -0.00000000000E+00 -0.00000000000E+00 -0.12400150469E+02  0.12400150469E+02  0.00000000000E+00 0. -1.
          2    1    1    2  501    0  0.42202094141E+01 -0.23568454621E+02  0.92669529379E+00  0.23961239218E+02  0.00000000000E+00 0. -1.
          2    1    1    2  502    0 -0.42202094141E+01  0.23568454621E+02  0.16145039166E+03  0.16321614867E+03  0.00000000000E+00 0. -1.
</event>
<event>
 4    1  0.8391192E+003  0.2512918E+02  0.7546771E-02  0.1467363E+00
          2   -1    0    0  502    0  0.00000000000E+00  0.00000000000E+00  0.27895999610E+03  0.27895999610E+03  0.00000000000E+00 0.  1.
          2   -1    0    0  501    0 -0.00000000000E+00 -0.00000000000E+00 -0.38222170927E+02  0.38222170927E+02  0.00000000000E+00 0.  1.
          2    1    1    2  501    0 -0.12248722914E+02 -0.21941843352E+02  0.27419210834E+03  0.27534122099E+03  0.00000000000E+00 0.  1.
          2    1    1    2  502    0  0.12248722914E+02  0.21941843352E+02 -0.33454283167E+02  0.41840946033E+02  0.00000000000E+00 0.  1.
</event>
<event>
 4    1  0.8391192E+003  0.4367697E+02  0.7546771E-02  0.1328189E+00
          2   -1    0    0  501    0  0.00000000000E+00  0.00000000000E+00  0.68134895704E+03  0.68134895704E+03  0.00000000000E+00 0. -1.
          2   -1    0    0  502    0 -0.00000000000E+00 -0.00000000000E+00 -0.46454647010E+03  0.46454647010E+03  0.00000000000E+00 0.  1.
          2    1    1    2  501    0 -0.40644829956E+02 -0.15989854371E+02 -0.46281726268E+03  0.46487363474E+03  0.00000000000E+00 0.  1.
          2    1    1    2  502    0  0.40644829956E+02  0.15989854371E+02  0.67961974962E+03  0.68102179240E+03  0.00000000000E+00 0. -1.
</event>
<event>
 4    1  0.8391192E+003  0.2484825E+02  0.7546771E-02  0.1470508E+00
          2   -1    0    0  501    0  0.00000000000E+00  0.00000000000E+00  0.78627912219E+02  0.78627912219E+02  0.00000000000E+00 0.  1.
          2   -1    0    0  502    0 -0.00000000000E+00 -0.00000000000E+00 -0.19718942294E+03  0.19718942294E+03  0.00000000000E+00 0.  1.
          2    1    1    2  501    0  0.93284219495E+01 -0.23030763632E+02 -0.19441557558E+03  0.19599707028E+03  0.00000000000E+00 0.  1.
          2    1    1    2  502    0 -0.93284219495E+01  0.23030763632E+02  0.75854064861E+02  0.79820264879E+02  0.00000000000E+00 0.  1.
</event>
<event>
 4    1  0.8391192E+003  0.3628628E+02  0.7546771E-02  0.1371739E+00
          2   -1    0    0  502    0  0.00000000000E+00  0.00000000000E+00  0.89231503414E+02  0.89231503414E+02  0.00000000000E+00 0.  1.
          2   -1    0    0  501    0 -0.00000000000E+00 -0.00000000000E+00 -0.54984214103E+02  0.54984214103E+02  0.00000000000E+00 0.  1.
          2    1    1    2  501    0 -0.36209905841E+02 -0.23530390153E+01  0.78801508969E+02  0.86754664943E+02  0.00000000000E+00 0.  1.
          2    1    1    2  502    0  0.36209905841E+02  0.23530390153E+01 -0.44554219658E+02  0.57461052574E+02  0.00000000000E+00 0.  1.
</event>
<event>
 4    1  0.8391192E+003  0.2960878E+02  0.7546771E-02  0.1423027E+00
          2   -1    0    0  502    0  0.00000000000E+00  0.00000000000E+00  0.63868094950E+01  0.63868094950E+01  0.00000000000E+00 0. -1.
          2   -1    0    0  501    0 -0.00000000000E+00 -0.00000000000E+00 -0.15727281803E+03  0.15727281803E+03  0.00000000000E+00 0.  1.
          2    1    1    2  501    0 -0.28762853205E+02 -0.70269390383E+01 -0.10463034064E+03  0.10873908120E+03  0.00000000000E+00 0.  1.
          2    1    1    2  502    0  0.28762853205E+02  0.70269390383E+01 -0.46255667894E+02  0.54920546329E+02  0.00000000000E+00 0. -1.
</event>
<event>
 4    1  0.8391192E+003  0.9460184E+02  0.7546771E-02  0.1173506E+00
          2   -1    0    0  502    0  0.00000000000E+00  0.00000000000E+00  0.11768145871E+03  0.11768145871E+03  0.00000000000E+00 0.  1.
          2   -1    0    0  501    0 -0.00000000000E+00 -0.00000000000E+00 -0.76121172161E+02  0.76121172161E+02  0.00000000000E+00 0.  1.
          2    1    1    2  501    0 -0.84741228756E+02 -0.42052742734E+02  0.23772348710E+02  0.97542983273E+02  0.00000000000E+00 0.  1.
          2    1    1    2  502    0  0.84741228756E+02  0.42052742734E+02  0.17787937835E+02  0.96259647594E+02  0.00000000000E+00 0.  1.
</event>
<event>
 4    1  0.8391192E+003  0.2806228E+02  0.7546771E-02  0.1437220E+00
          2   -1    0    0  501    0  0.00000000000E+00  0.00000000000E+00  0.18687491042E+02  0.18687491042E+02  0.00000000000E+00 0.  1.
          2   -1    0    0  502    0 -0.00000000000E+00 -0.00000000000E+00 -0.91888386137E+03  0.91888386137E+03  0.00000000000E+00 0. -1.
          2    1    1    2  501    0 -0.14320578336E+02 -0.24133222863E+02 -0.90800845213E+03  0.90844198524E+03  0.00000000000E+00 0. -1.
          2    1    1    2  502    0  0.14320578336E+02  0.24133222863E+02  0.78120818024E+01  0.29129367170E+02  0.00000000000E+00 0.  1.
</event>
<event>
 4    1  0.8391192E+003  0.2208261E+02  0.7546771E-02  0.1504351E+00
          2   -1    0    0  502    0  0.00000000000E+00  0.00000000000E+00  0.34137584680E+03  0.34137584680E+03  0.00000000000E+00 0. -1.
          2   -1    0    0  501    0 -0.00000000000E+00 -0.00000000000E+00 -0.17041364107E+02  0.17041364107E+02  0.00000000000E+00 0. -1.
          2    1    1    2  501    0 -0.31574759890E+01  0.21855708213E+02  0.33370057695E+03  0.33443043626E+03  0.00000000000E+00 0. -1.
          2    1    1    2  502    0  0.31574759890E+01 -0.21855708213E+02 -0.93660942656E+01  0.23986774645E+02  0.00000000000E+00 0. -1.
</event>
<event>
 4    1  0.8391192E+003  0.2667629E+02  0.7546771E-02  0.1450887E+00
          2   -1    0    0  502    0  0.00000000000E+00  0.00000000000E+00  0.88236009550E+02  0.88236009550E+02  0.00000000000E+00 0. -1.
          2   -1    0    0  501    0 -0.00000000000E+00 -0.00000000000E+00 -0.14041514402E+02  0.14041514402E+02  0.00000000000E+00 0.  1.
          2    1    1    2  501    0 -0.42469634727E+01 -0.26336054514E+02  0.70460377617E+02  0.75341152633E+02  0.00000000000E+00 0. -1.
          2    1    1    2  502    0  0.42469634727E+01  0.26336054514E+02  0.37341175306E+01  0.26936371319E+02  0.00000000000E+00 0.  1.
</event>
<event>
 4    1  0.8391192E+003  0.3969511E+02  0.7546771E-02  0.1350282E+00
          2   -1    0    0  501    0  0.00000000000E+00  0.00000000000E+00  0.40981827438E+01  0.40981827438E+01  0.00000000000E+00 0. -1.
          2   -1    0    0  502    0 -0.00000000000E+00 -0.00000000000E+00 -0.51936676262E+03  0.51936676262E+03  0.00000000000E+00 0. -1.
          2    1    1    2  501    0 -0.36403287899E+02 -0.15827278537E+02 -0.39101477939E+03  0.39302450282E+03  0.00000000000E+00 0. -1.
          2    1    1    2  502    0  0.36403287899E+02  0.15827278537E+02 -0.12425380049E+03  0.13044044255E+03  0.00000000000E+00 0. -1.
</event>
<event>
 4    1  0.8391192E+003  0.4404921E+02  0.7546771E-02  0.1326263E+00
          2   -1    0    0  502    0  0.00000000000E+00  0.00000000000E+00  0.33219605617E+04  0.33219605617E+04  0.00000000000E+00 0.  1.
          2   -1    0    0  501    0 -0.00000000000E+00 -0.00000000000E+00 -0.22611985251E+01  0.22611985251E+01  0.00000000000E+00 0.  1.
          2    1    1    2  501    0  0.25141352569E+02 -0.36169669423E+02  0.30912822419E+04  0.30915960654E+04  0.00000000000E+00 0.  1.
          2    1    1    2  502    0 -0.25141352569E+02  0.36169669423E+02  0.22841712129E+03  0.23262569483E+03  0.00000000000E+00 0.  1.
</event>
<event>
 4    1  0.8391192E+003  0.2126196E+02  0.7546771E-02  0.1515557E+00
          2   -1    0    0  501    0  0.00000000000E+00  0.00000000000E+00  0.18058683799E+01  0.18058683799E+01  0.00000000000E+00 0.  1.
          2   -1    0    0  502    0 -0.00000000000E+00 -0.00000000000E+00 -0.26338967872E+03  0.26338967872E+03  0.00000000000E+00 0.  1.
          2    1    1    2  501    0  0.56000406081E+01 -0.20511226483E+02 -0.16031289733E+03  0.16171671502E+03  0.00000000000E+00 0.  1.
          2    1    1    2  502    0 -0.56000406081E+01  0.20511226483E+02 -0.10127091302E+03  0.10347883209E+03  0.00000000000E+00 0.  1.
</event>
<event>
 4    1  0.8931544E+003  0.3791276E+02  0.7546771E-02  0.1361171E+00
          2   -1    0    0  501    0  0.00000000000E+00  0.00000000000E+00  0.69483778883E+03  0.69483778883E+03  0.00000000000E+00 0.  1.
          2   -1    0    0  502    0 -0.00000000000E+00 -0.00000000000E+00 -0.90580431166E+03  0.90580431166E+03  0.00000000000E+00 0.  1.
          2    1    1    2  501    0  0.33084673970E+02  0.18514361866E+02 -0.90488991345E+03  0.90568379289E+03  0.00000000000E+00 0.  1.
          2    1    1    2  502    0 -0.33084673970E+02 -0.18514361866E+02  0.69392339062E+03  0.69495830760E+03  0.00000000000E+00 0.  1.
</event>
<event>
 4    1  0.8391192E+003  0.3818068E+02  0.7546771E-02  0.1359490E+00
          2   -1    0    0  502    0  0.00000000000E+00  0.00000000000E+00  0.97564367983E+01  0.97564367983E+01  0.00000000000E+00 0.  1.
          2   -1    0    0  501    0 -0.00000000000E+00 -0.00000000000E+00 -0.63851602730E+03  0.63851602730E+03  0.00000000000E+00 0. -1.
          2    1    1    2  501    0  0.37945959267E+02 -0.42271012954E+01 -0.30691979824E+02  0.48987364040E+02  0.00000000000E+00 0.  1.
          2    1    1    2  502    0 -0.37945959267E+02  0.42271012954E+01 -0.59806761068E+03  0.59928510006E+03  0.00000000000E+00 0. -1.
</event>
<event>
 4    1  0.8391192E+003  0.3887163E+02  0.7546771E-02  0.1355228E+00
          2   -1    0    0  502    0  0.00000000000E+00  0.00000000000E+00  0.86635209252E+02  0.86635209252E+02  0.00000000000E+00 0.  1.
          2   -1    0    0  501    0 -0.00000000000E+00 -0.00000000000E+00 -0.55114110880E+02  0.55114110880E+02  0.00000000000E+00 0. -1.
          2    1    1    2  501    0 -0.38689358378E+02  0.37599112367E+01  0.74357553583E+02  0.83905000799E+02  0.00000000000E+00 0.  1.
          2    1    1    2  502    0  0.38689358378E+02 -0.37599112367E+01 -0.42836455211E+02  0.57844319334E+02  0.00000000000E+00 0. -1.
</event>
<event>
 4    1  0.8391192E+003  0.2294400E+02  0.7546771E-02  0.1493203E+00
          2   -1    0    0  501    0  0.00000000000E+00  0.00000000000E+00  0.11629285229E+01  0.11629285229E+01  0.00000000000E+00 0. -1.
          2   -1    0    0  502    0 -0.00000000000E+00 -0.00000000000E+00 -0.13530469456E+04  0.13530469456E+04  0.00000000000E+00 0. -1.
          2    1    1    2  501    0  0.97283114845E+01 -0.20779483645E+02 -0.12282875775E+04  0.12285018519E+04  0.00000000000E+00 0. -1.
          2    1    1    2  502    0 -0.97283114845E+01  0.20779483645E+02 -0.12359643958E+03  0.12570802227E+03  0.00000000000E+00 0. -1.
</event>
<event>
 4    1  0.8391192E+003  0.4093162E+02  0.7546771E-02  0.1343111E+00
          2   -1    0    0  501    0  0.00000000000E+00  0.00000000000E+00  0.17618205336E+02  0.17618205336E+02  0.00000000000E+00 0. -1.
          2   -1    0    0  502    0 -0.00000000000E+00 -0.00000000000E+00 -0.10017183646E+04  0.10017183646E+04  0.00000000000E+00 0. -1.
          2    1    1    2  501    0 -0.18966053179E+02 -0.36272386487E+02 -0.97692344385E+03  0.97778055428E+03  0.00000000000E+00 0. -1.
          2    1    1    2  502    0  0.18966053179E+02  0.36272386487E+02 -0.71767154428E+01  0.41556015680E+02  0.00000000000E+00 0. -1.
</event>
<event>
 4    1  0.8391192E+003  0.2449334E+02  0.7546771E-02  0.1474552E+00
          2   -1    0    0  502    0  0.00000000000E+00  0.00000000000E+00  0.31740056716E+01  0.31740056716E+01  0.00000000000E+00 0.  1.
          2   -1    0    0  501    0 -0.00000000000E+00 -0.00000000000E+00 -0.38655390422E+03  0.38655390422E+03  0.00000000000E+00 0.  1.
          2    1    1    2  501    0 -0.71888438023E+01 -0.23414612338E+02 -0.52388171947E+02  0.57831168984E+02  0.00000000000E+00 0.  1.
          2    1    1    2  502    0  0.71888438023E+01  0.23414612338E+02 -0.33099172661E+03  0.33189674091E+03  0.00000000000E+00 0.  1.
</event>
<event>
 4    1  0.8391192E+003  0.3637376E+02  0.7546771E-02  0.1371154E+00
          2   -1    0    0  502    0  0.00000000000E+00  0.00000000000E+00  0.69642672327E+01  0.69642672327E+01  0.00000000000E+00 0.  1.
          2   -1    0    0  501    0 -0.00000000000E+00 -0.00000000000E+00 -0.23669061370E+03  0.23669061370E+03  0.00000000000E+00 0.  1.
          2    1    1    2  501    0  0.35781521289E+02 -0.65370840312E+01 -0.16898547308E+03  0.17285583833E+03  0.00000000000E+00 0.  1.
          2    1    1    2  502    0 -0.35781521289E+02  0.65370840312E+01 -0.60740873390E+02  0.70799042603E+02  0.00000000000E+00 0.  1.
</event>
<event>
 4    1  0.8391192E+003  0.2055259E+02  0.7546771E-02  0.1525750E+00
          2   -1    0    0  501    0  0.00000000000E+00  0.00000000000E+00  0.10411079974E+04  0.10411079974E+04  0.00000000000E+00 0.  1.
          2   -1    0    0  502    0 -0.00000000000E+00 -0.00000000000E+00 -0.35704903608E+03  0.35704903608E+03  0.00000000000E+00 0.  1.
          2    1    1    2  501    0  0.19416905491E+02 -0.67374062901E+01 -0.35665172675E+03  0.35724342269E+03  0.00000000000E+00 0.  1.
          2    1    1    2  502    0 -0.19416905491E+02  0.67374062901E+01  0.10407106881E+04  0.10409136108E+04  0.00000000000E+00 0.  1.
</event>
<event>
 4    1  0.8391192E+003  0.3360568E+02  0.7546771E-02  0.1390640E+00
          2   -1    0    0  502    0  0.00000000000E+00  0.00000000000E+00  0.28343682976E+03  0.28343682976E+03  0.00000000000E+00 0. -1.
          2   -1    0    0  501    0 -0.00000000000E+00 -0.00000000000E+00 -0.45821076783E+03  0.45821076783E+03  0.00000000000E+00 0. -1.
          2    1    1    2  501    0 -0.32320471162E+02  0.92048463479E+01  0.28182102551E+03  0.28381760423E+03  0.00000000000E+00 0. -1.
          2    1    1    2  502    0  0.32320471162E+02 -0.92048463479E+01 -0.45659496358E+03  0.45782999336E+03  0.00000000000E+00 0. -1.
</event>
<event>
 4    1  0.8391192E+003  0.2445239E+02  0.7546771E-02  0.1475024E+00
          2   -1    0    0  501    0  0.00000000000E+00  0.00000000000E+00  0.30116837721E+01  0.30116837721E+01  0.00000000000E+00 0. -1.
          2   -1    0    0  502    0 -0.00000000000E+00 -0.00000000000E+00 -0.69642818443E+03  0.69642818443E+03  0.00000000000E+00 0. -1.
          2    1    1    2  501    0 -0.22021188239E+02 -0.10629511703E+02 -0.64240809020E+03  0.64287329514E+03  0.00000000000E+00 0. -1.
          2    1    1    2  502    0  0.22021188239E+02  0.10629511703E+02 -0.51008410458E+02  0.56566573062E+02  0.00000000000E+00 0. -1.
</event>
<event>
 4    1  0.8391192E+003  0.3865490E+02  0.7546771E-02  0.1356554E+00
          2   -1    0    0  502    0  0.00000000000E+00  0.00000000000E+00  0.23063258081E+02  0.23063258081E+02  0.00000000000E+00 0.  1.
          2   -1    0    0  501    0 -0.00000000000E+00 -0.00000000000E+00 -0.28668762207E+03  0.28668762207E+03  0.00000000000E+00 0. -1.
          2    1    1    2  501    0 -0.25897234157E+02 -0.28697291784E+02  0.44443269484E+01  0.38909553258E+02  0.00000000000E+00 0.  1.
          2    1    1    2  502    0  0.25897234157E+02  0.28697291784E+02 -0.26806869093E+03  0.27084132689E+03  0.00000000000E+00 0. -1.
</event>
<event>
 4    1  0.8391192E+003  0.2702031E+02  0.7546771E-02  0.1447404E+00
          2   -1    0    0  502    0  0.00000000000E+00  0.00000000000E+00  0.55646075101E+03  0.55646075101E+03  0.00000000000E+00 0. -1.
          2   -1    0    0  501    0 -0.00000000000E+00 -0.00000000000E+00 -0.35216009901E+01  0.35216009901E+01  0.00000000000E+00 0.  1.
          2    1    1    2  501    0 -0.15495359525E+02 -0.22135742011E+02  0.49825220888E+03  0.49898432931E+03  0.00000000000E+00 0. -1.
          2    1    1    2  502    0  0.15495359525E+02  0.22135742011E+02  0.54686941143E+02  0.60998022695E+02  0.00000000000E+00 0.  1.
</event>
<event>
 4    1  0.8391192E+003  0.3000479E+02  0.7546771E-02  0.1419555E+00
          2   -1    0    0  501    0  0.00000000000E+00  0.00000000000E+00  0.36661297538E+01  0.36661297538E+01  0.00000000000E+00 0.  1.
          2   -1    0    0  502    0 -0.00000000000E+00 -0.00000000000E+00 -0.32330570530E+03  0.32330570530E+03  0.00000000000E+00 0. -1.
          2    1    1    2  501    0  0.30004781206E+02  0.22267007989E-01 -0.23998520453E+03  0.24185364538E+03  0.00000000000E+00 0. -1.
          2    1    1    2  502    0 -0.30004781206E+02 -0.22267007989E-01 -0.79654371015E+02  0.85118189671E+02  0.00000000000E+00 0.  1.
</event>
<event>
 4    1  0.8391192E+003  0.2403623E+02  0.7546771E-02  0.1479881E+00
          2   -1    0    0  501    0  0.00000000000E+00  0.00000000000E+00  0.76931865706E+00  0.76931865706E+00  0.00000000000E+00 0.  1.
          2   -1    0    0  502    0 -0.00000000000E+00 -0.00000000000E+00 -0.16628058765E+04  0.16628058765E+04  0.00000000000E+00 0.  1.
          2    1    1    2  501    0 -0.11770837717E+02  0.20956805849E+02 -0.14469724837E+04  0.14471721076E+04  0.00000000000E+00 0.  1.
          2    1    1    2  502    0  0.11770837717E+02 -0.20956805849E+02 -0.21506407411E+03  0.21640308756E+03  0.00000000000E+00 0.  1.
</event>
<event>
 4    1  0.8391192E+003  0.2400284E+02  0.7546771E-02  0.1480275E+00
          2   -1    0    0  502    0  0.00000000000E+00  0.00000000000E+00  0.21805227172E+03  0.21805227172E+03  0.00000000000E+00 0. -1.
          2   -1    0    0  501    0 -0.00000000000E+00 -0.00000000000E+00 -0.15827838570E+03  0.15827838570E+03  0.00000000000E+00 0. -1.
          2    1    1    2  501    0 -0.17689432793E+02 -0.16224060508E+02  0.21647510927E+03  0.21780176562E+03  0.00000000000E+00 0. -1.
          2    1    1    2  502    0  0.17689432793E+02  0.16224060508E+02 -0.15670122325E+03  0.15852889181E+03  0.00000000000E+00 0. -1.
</event>
<event>
 4    1  0.8391192E+003  0.2084802E+02  0.7546771E-02  0.1521446E+00
          2   -1    0    0  501    0  0.00000000000E+00  0.00000000000E+00  0.46975004620E+03  0.46975004620E+03  0.00000000000E+00 0.  1.
          2   -1    0    0  502    0 -0.00000000000E+00 -0.00000000000E+00 -0.30735357879E+01  0.30735357879E+01  0.00000000000E+00 0.  1.
          2    1    1    2  501    0  0.13616784151E+01 -0.20803503973E+02  0.35688980892E+02  0.41332109827E+02  0.00000000000E+00 0.  1.
          2    1    1    2  502    0 -0.13616784151E+01  0.20803503973E+02  0.43098752952E+03  0.43149147216E+03  0.00000000000E+00 0.  1.
</event>
<event>
 4    1  0.8391192E+003  0.6141298E+02  0.7546771E-02  0.1255106E+00
          2   -1    0    0  501    0  0.00000000000E+00  0.00000000000E+00  0.21755402272E+03  0.21755402272E+03  0.00000000000E+00 0.  1.
          2   -1    0    0  502    0 -0.00000000000E+00 -0.00000000000E+00 -0.29496144505E+03  0.29496144505E+03  0.00000000000E+00 0.  1.
          2    1    1    2  501    0  0.25667156943E+02 -0.55792030703E+02 -0.28731672346E+03  0.29380682977E+03  0.00000000000E+00 0.  1.
          2    1    1    2  502    0 -0.25667156943E+02  0.55792030703E+02  0.20990930114E+03  0.21870863801E+03  0.00000000000E+00 0.  1.
</event>
<event>
 4    1  0.8391192E+003  0.2370593E+02  0.7546771E-02  0.1483819E+00
          2   -1    0    0  502    0  0.00000000000E+00  0.00000000000E+00  0.96068234058E+02  0.96068234058E+02  0.00000000000E+00 0.  1.
          2   -1    0    0  501    0 -0.00000000000E+00 -0.00000000000E+00 -0.41005278388E+03  0.41005278388E+03  0.00000000000E+00 0. -1.
          2    1    1    2  501    0 -0.93211854162E+01 -0.21796485728E+02  0.94256701380E+02  0.97192062653E+02  0.00000000000E+00 0.  1.
          2    1    1    2  502    0  0.93211854162E+01  0.21796485728E+02 -0.40824125120E+03  0.40892895529E+03  0.00000000000E+00 0. -1.
</event>
<event>
 4    1  0.8391192E+003  0.2478123E+02  0.7546771E-02  0.1471266E+00
          2   -1    0    0  502    0  0.00000000000E+00  0.00000000000E+00  0.69495489888E+00  0.69495489888E+00  0.00000000000E+00 0. -1.
          2   -1    0    0  501    0 -0.00000000000E+00 -0.00000000000E+00 -0.10275205650E+04  0.10275205650E+04  0.00000000000E+00 0. -1.
          2    1    1    2  501    0 -0.18164320236E+02  0.16857246477E+02 -0.70577421746E+03  0.70620914418E+03  0.00000000000E+00 0. -1.
          2    1    1    2  502    0  0.18164320236E+02 -0.16857246477E+02 -0.32105139259E+03  0.32200637567E+03  0.00000000000E+00 0. -1.
</event>
<event>
 4    1  0.8391192E+003  0.3443687E+02  0.7546771E-02  0.1384566E+00
          2   -1    0    0  501    0  0.00000000000E+00  0.00000000000E+00  0.26726709976E+03  0.26726709976E+03  0.00000000000E+00 0.  1.
          2   -1    0    0  502    0 -0.00000000000E+00 -0.00000000000E+00 -0.43235775012E+03  0.43235775012E+03  0.00000000000E+00 0.  1.
          2    1    1    2  501    0  0.17523609159E+02 -0.29644923355E+02 -0.43055812305E+03  0.43193309168E+03  0.00000000000E+00 0.  1.
          2    1    1    2  502    0 -0.17523609159E+02  0.29644923355E+02  0.26546747269E+03  0.26769175821E+03  0.00000000000E+00 0.  1.
</event>
<event>
 4    1  0.8391192E+003  0.2792149E+02  0.7546771E-02  0.1438565E+00
          2   -1    0    0  502    0  0.00000000000E+00  0.00000000000E+00  0.86607377400E+00  0.86607377400E+00  0.00000000000E+00 0. -1.
          2   -1    0    0  501    0 -0.00000000000E+00 -0.00000000000E+00 -0.12038947133E+04  0.12038947133E+04  0.00000000000E+00 0.  1.
          2    1    1    2  501    0  0.27463137073E+02 -0.50384025064E+01 -0.29894831362E+03  0.30024940235E+03  0.00000000000E+00 0. -1.
          2    1    1    2  502    0 -0.27463137073E+02  0.50384025064E+01 -0.90408032590E+03  0.90451138471E+03  0.00000000000E+00 0.  1.
</event>
<event>
 4    1  0.8391192E+003  0.2715497E+02  0.7546771E-02  0.1446058E+00
          2   -1    0    0  501    0  0.00000000000E+00  0.00000000000E+00  0.60685335470E+01  0.60685335470E+01  0.00000000000E+00 0. -1.
          2   -1    0    0  502    0 -0.00000000000E+00 -0.00000000000E+00 -0.25785667554E+03  0.25785667554E+03  0.00000000000E+00 0. -1.
          2    1    1    2  501    0  0.25436092383E+02  0.95077766919E+01 -0.22185238897E+03  0.22350810971E+03  0.00000000000E+00 0. -1.
          2    1    1    2  502    0 -0.25436092383E+02 -0.95077766919E+01 -0.29935753029E+02  0.40417099386E+02  0.00000000000E+00 0. -1.
</event>
<event>
 4    1  0.8391192E+003  0.3537823E+02  0.7546771E-02  0.1377923E+00
          2   -1    0    0  501    0  0.00000000000E+00  0.00000000000E+00  0.24867380328E+02  0.24867380328E+02  0.00000000000E+00 0.  1.
          2   -1    0    0  502    0 -0.00000000000E+00 -0.00000000000E+00 -0.18594929105E+03  0.18594929105E+03  0.00000000000E+00 0. -1.
          2    1    1    2  501    0 -0.28254655334E+02 -0.21290694733E+02 -0.17056024800E+03  0.17419075013E+03  0.00000000000E+00 0. -1.
          2    1    1    2  502    0  0.28254655334E+02  0.21290694733E+02  0.94783372775E+01  0.36625921256E+02  0.00000000000E+00 0.  1.
</event>
<event>
 4    1  0.8391192E+003  0.2006327E+02  0.7546771E-02  0.1533071E+00
          2   -1    0    0  502    0  0.00000000000E+00  0.00000000000E+00  0.14372872563E+01  0.14372872563E+01  0.00000000000E+00 0.  1.
          2   -1    0    0  501    0 -0.00000000000E+00 -0.00000000000E+00 -0.71052849769E+03  0.71052849769E+03  0.00000000000E+00 0. -1.
          2    1    1    2  501    0 -0.18506999872E+02 -0.77476183818E+01 -0.77464910122E+02  0.80020915610E+02  0.00000000000E+00 0.  1.
          2    1    1    2  502    0  0.18506999872E+02  0.77476183818E+01 -0.63162630031E+03  0.63194486934E+03  0.00000000000E+00 0. -1.
</event>
<event>
 4    1  0.8391192E+003  0.3568762E+02  0.7546771E-02  0.1375792E+00
          2   -1    0    0  502    0  0.00000000000E+00  0.00000000000E+00  0.70784638294E+03  0.70784638294E+03  0.00000000000E+00 0.  1.
          2   -1    0    0  501    0 -0.00000000000E+00 -0.00000000000E+00 -0.30147267171E+03  0.30147267171E+03  0.00000000000E+00 0. -1.
          2    1    1    2  501    0 -0.27310310716E+02  0.22972884794E+02  0.70633815759E+03  0.70723913875E+03  0.00000000000E+00 0.  1.
          2    1    1    2  502    0  0.27310310716E+02 -0.22972884794E+02 -0.29996444636E+03  0.30207991590E+03  0.00000000000E+00 0. -1.
</event>
<event>
 4    1  0.8391192E+003  0.5933767E+02  0.7546771E-02  0.1262100E+00
          2   -1    0    0  501    0  0.00000000000E+00  0.00000000000E+00  0.18618275071E+04  0.18618275071E+04  0.00000000000E+00 0. -1.
          2   -1    0    0  502    0 -0.00000000000E+00 -0.00000000000E+00 -0.16106785052E+03  0.16106785052E+03  0.00000000000E+00 0. -1.
          2    1    1    2  501    0 -0.56538089680E+02 -0.18011217944E+02 -0.15511251009E+03  0.16607483356E+03  0.00000000000E+00 0. -1.
          2    1    1    2  502    0  0.56538089680E+02  0.18011217944E+02  0.18558721667E+04  0.18568205241E+04  0.00000000000E+00 0. -1.
</event>
<event>
 4    1  0.8391192E+003  0.2718480E+02  0.7546771E-02  0.1445761E+00
          2   -1    0    0  502    0  0.00000000000E+00  0.00000000000E+00  0.86458331753E+02  0.86458331753E+02  0.00000000000E+00 0. -1.
          2   -1    0    0  501    0 -0.00000000000E+00 -0.00000000000E+00 -0.62397830045E+02  0.62397830045E+02  0.00000000000E+00 0. -1.
          2    1    1    2  501    0  0.10609578762E+02 -0.25028984525E+02  0.81172860355E+02  0.85604009755E+02  0.00000000000E+00 0. -1.
          2    1    1    2  502    0 -0.10609578762E+02  0.25028984525E+02 -0.57112358647E+02  0.63252152043E+02  0.00000000000E+00 0. -1.
</event>
<event>
 4    1  0.8391192E+003  0.2045441E+02  0.7546771E-02  0.1527199E+00
          2   -1    0    0  501    0  0.00000000000E+00  0.00000000000E+00  0.68272411614E+01  0.68272411614E+01  0.00000000000E+00 0. -1.
          2   -1    0    0  502    0 -0.00000000000E+00 -0.00000000000E+00 -0.53946353349E+03  0.53946353349E+03  0.00000000000E+00 0. -1.
          2    1    1    2  501    0  0.41161021501E+01 -0.20035981544E+02 -0.52348174813E+03  0.52388121123E+03  0.00000000000E+00 0. -1.
          2    1    1    2  502    0 -0.41161021501E+01  0.20035981544E+02 -0.91545442000E+01  0.22409563424E+02  0.00000000000E+00 0. -1.
</event>
<event>
 4    1  0.8391192E+003  0.2854048E+02  0.7546771E-02  0.1432719E+00
          2   -1    0    0  502    0  0.00000000000E+00  0.00000000000E+00  0.81306927471E+01  0.81306927471E+01  0.00000000000E+00 0. -1.
          2   -1    0    0  501    0 -0.00000000000E+00 -0.00000000000E+00 -0.20237340200E+04  0.20237340200E+04  0.00000000000E+00 0. -1.
          2    1    1    2  501    0  0.12840967170E+02 -0.25488599615E+02 -0.17334906533E+02  0.33392486171E+02  0.00000000000E+00 0. -1.
          2    1    1    2  502    0 -0.12840967170E+02  0.25488599615E+02 -0.19982684207E+04  0.19984722266E+04  0.00000000000E+00 0. -1.
</event>
<event>
 4    1  0.8391192E+003  0.3588818E+02  0.7546771E-02  0.1374424E+00
          2   -1    0    0  502    0  0.00000000000E+00  0.00000000000E+00  0.17687783313E+03  0.17687783313E+03  0.00000000000E+00 0. -1.
          2   -1    0    0  501    0 -0.00000000000E+00 -0.00000000000E+00 -0.21781509438E+02  0.21781509438E+02  0.00000000000E+00 0. -1.
          2    1    1    2  501    0 -0.30778516336E+02 -0.18456552644E+02  0.15859143981E+03  0.16260137202E+03  0.00000000000E+00 0. -1.
          2    1    1    2  502    0  0.30778516336E+02  0.18456552644E+02 -0.34951161134E+01  0.36057970548E+02  0.00000000000E+00 0. -1.
</event>
<event>
 4    1  0.9707298E+003  0.2211363E+02  0.7546771E-02  0.1503939E+00
          2   -1    0    0  502    0  0.00000000000E+00  0.00000000000E+00  0.43687481742E+03  0.43687481742E+03  0.00000000000E+00 0. -1.
          2   -1    0    0  501    0 -0.00000000000E+00 -0.00000000000E+00 -0.13746900360E+04  0.13746900360E+04  0.00000000000E+00 0.  1.
          2    1    1    2  501    0 -0.50141617765E+01 -0.21537656170E+02  0.43650597535E+03  0.43706576047E+03  0.00000000000E+00 0. -1.
          2    1    1    2  502    0  0.50141617765E+01  0.21537656170E+02 -0.13743211939E+04  0.13744990929E+04  0.00000000000E+00 0.  1.
</event>
<event>
 4    1  0.8391192E+003  0.2908379E+02  0.7546771E-02  0.1427729E+00
          2   -1    0    0  502    0  0.00000000000E+00  0.00000000000E+00  0.22850595301E+03  0.22850595301E+03  0.00000000000E+00 0.  1.
          2   -1    0    0  501    0 -0.00000000000E+00 -0.00000000000E+00 -0.42021263092E+02  0.42021263092E+02  0.00000000000E+00 0.  1.
          2    1    1    2  501    0  0.19788907295E+02  0.21313515816E+02  0.22241082051E+03  0.22430434656E+03  0.00000000000E+00 0.  1.
          2    1    1    2  502    0 -0.19788907295E+02 -0.21313515816E+02 -0.35926130595E+02  0.46222869533E+02  0.00000000000E+00 0.  1.
</event>
<event>
 4    1  0.8391192E+003  0.2667032E+02  0.7546771E-02  0.1450948E+00
          2   -1    0    0  502    0  0.00000000000E+00  0.00000000000E+00  0.21217541984E+02  0.21217541984E+02  0.00000000000E+00 0. -1.
          2   -1    0    0  501    0 -0.00000000000E+00 -0.00000000000E+00 -0.42312376535E+03  0.42312376535E+03  0.00000000000E+00 0. -1.
          2    1    1    2  501    0 -0.52023549873E+01 -0.26158011323E+02  0.12234559600E+02  0.29342639663E+02  0.00000000000E+00 0. -1.
          2    1    1    2  502    0  0.52023549873E+01  0.26158011323E+02 -0.41414078297E+03  0.41499866768E+03  0.00000000000E+00 0. -1.
</event>
<event>
 4    1  0.8391192E+003  0.2524483E+02  0.7546771E-02  0.1466083E+00
          2   -1    0    0  501    0  0.00000000000E+00  0.00000000000E+00  0.13036333523E+03  0.13036333523E+03  0.00000000000E+00 0. -1.
          2   -1    0    0  502    0 -0.00000000000E+00 -0.00000000000E+00 -0.65026667528E+02  0.65026667528E+02  0.00000000000E+00 0.  1.
          2    1    1    2  501    0  0.19138825634E+02 -0.16462287265E+02 -0.61282605151E+02  0.66278648468E+02  0.00000000000E+00 0.  1.
          2    1    1    2  502    0 -0.19138825634E+02  0.16462287265E+02  0.12661927286E+03  0.12911135429E+03  0.00000000000E+00 0. -1.
</event>
<event>
 4    1  0.8391192E+003  0.3344332E+02  0.7546771E-02  0.1391850E+00
          2   -1    0    0  502    0  0.00000000000E+00  0.00000000000E+00  0.12404297572E+04  0.12404297572E+04  0.00000000000E+00 0. -1.
          2   -1    0    0  501    0 -0.00000000000E+00 -0.00000000000E+00 -0.43037185564E+02  0.43037185564E+02  0.00000000000E+00 0. -1.
          2    1    1    2  501    0 -0.32072376540E+02  0.94772693573E+01  0.12336717236E+04  0.12341249440E+04  0.00000000000E+00 0. -1.
          2    1    1    2  502    0  0.32072376540E+02 -0.94772693573E+01 -0.36279151942E+02  0.49341998713E+02  0.00000000000E+00 0. -1.
</event>
<event>
 4    1  0.8391192E+003  0.3120929E+02  0.7546771E-02  0.1409371E+00
          2   -1    0    0  502    0  0.00000000000E+00  0.00000000000E+00  0.54301993787E+01  0.54301993787E+01  0.00000000000E+00 0.  1.
          2   -1    0    0  501    0 -0.00000000000E+00 -0.00000000000E+00 -0.19974362482E+03  0.19974362482E+03  0.00000000000E+00 0.  1.
          2    1    1    2  501    0  0.92851317600E+01  0.29796073232E+02 -0.64393970415E+02  0.71558389289E+02  0.00000000000E+00 0.  1.
          2    1    1    2  502    0 -0.92851317600E+01 -0.29796073232E+02 -0.12991945503E+03  0.13361543491E+03  0.00000000000E+00 0.  1.
</event>
<event>
 4    1  0.8391192E+003  0.2175544E+02  0.7546771E-02  0.1508747E+00
          2   -1    0    0  501    0  0.00000000000E+00  0.00000000000E+00  0.42272600088E+03  0.42272600088E+03  0.00000000000E+00 0. -1.
          2   -1    0    0  502    0 -0.00000000000E+00 -0.00000000000E+00 -0.19248349620E+01  0.19248349620E+01  0.00000000000E+00 0.  1.
          2    1    1    2  501    0  0.21459358505E+02 -0.35769993468E+01  0.73073243743E+02  0.76243018978E+02  0.00000000000E+00 0.  1.
          2    1    1    2  502    0 -0.21459358505E+02  0.35769993468E+01  0.34772792217E+03  0.34840781686E+03  0.00000000000E+00 0. -1.
</event>
<event>
 4    1  0.8391192E+003  0.2799025E+02  0.7546771E-02  0.1437907E+00
          2   -1    0    0  501    0  0.00000000000E+00  0.00000000000E+00  0.20395696855E+04  0.20395696855E+04  0.00000000000E+00 0. -1.
          2   -1    0    0  502    0 -0.00000000000E+00 -0.00000000000E+00 -0.51018105240E+00  0.51018105240E+00  0.00000000000E+00 0.  1.
          2    1    1    2  501    0  0.11631941876E+02 -0.25458827259E+02  0.51250020143E+03  0.51326397733E+03  0.00000000000E+00 0.  1.
          2    1    1    2  502    0 -0.11631941876E+02  0.25458827259E+02  0.15265593030E+04  0.15268158892E+04  0.00000000000E+00 0. -1.
</event>
<event>
 4    1  0.8391192E+003  0.2400035E+02  0.7546771E-02  0.1480305E+00
          2   -1    0    0  502    0  0.00000000000E+00  0.00000000000E+00  0.45984123639E+01  0.45984123639E+01  0.00000000000E+00 0. -1.
          2   -1    0    0  501    0 -0.00000000000E+00 -0.00000000000E+00 -0.37947253147E+03  0.37947253147E+03  0.00000000000E+00 0. -1.
          2    1    1    2  501    0 -0.16856066123E+02  0.17084783216E+02 -0.30261102934E+02  0.38623194242E+02  0.00000000000E+00 0. -1.
          2    1    1    2  502    0  0.16856066123E+02 -0.17084783216E+02 -0.34461301617E+03  0.34544774959E+03  0.00000000000E+00 0. -1.
</event>
<event>
 4    1  0.8391192E+003  0.2004906E+02  0.7546771E-02  0.1533287E+00
          2   -1    0    0  501    0  0.00000000000E+00  0.00000000000E+00  0.24231826970E+02  0.24231826970E+02  0.00000000000E+00 0.  1.
          2   -1    0    0  502    0 -0.00000000000E+00 -0.00000000000E+00 -0.17279365842E+03  0.17279365842E+03  0.00000000000E+00 0. -1.
          2    1    1    2  501    0 -0.18906732130E+02  0.66708679269E+01 -0.16794572733E+03  0.16913820481E+03  0.00000000000E+00 0. -1.
          2    1    1    2  502    0  0.18906732130E+02 -0.66708679269E+01  0.19383895878E+02  0.27887280580E+02  0.00000000000E+00 0.  1.
</event>
<event>
 4    1  0.8391192E+003  0.3259311E+02  0.7546771E-02  0.1398323E+00
          2   -1    0    0  502    0  0.00000000000E+00  0.00000000000E+00  0.14809858509E+04  0.14809858509E+04  0.00000000000E+00 0.  1.
          2   -1    0    0  501    0 -0.00000000000E+00 -0.00000000000E+00 -0.22778632028E+03  0.22778632028E+03  0.00000000000E+00 0. -1.
          2    1    1    2  501    0  0.50604940129E+00 -0.32589178402E+02  0.14796395583E+04  0.14799984909E+04  0.00000000000E+00 0.  1.
          2    1    1    2  502    0 -0.50604940129E+00  0.32589178402E+02 -0.22644002769E+03  0.22877368025E+03  0.00000000000E+00 0. -1.
</event>
<event>
 4    1  0.8391192E+003  0.2235025E+02  0.7546771E-02  0.1500822E+00
          2   -1    0    0  501    0  0.00000000000E+00  0.00000000000E+00  0.23688437234E+02  0.23688437234E+02  0.00000000000E+00 0.  1.
          2   -1    0    0  502    0 -0.00000000000E+00 -0.00000000000E+00 -0.12801066510E+03  0.12801066510E+03  0.00000000000E+00 0.  1.
          2    1    1    2  501    0  0.60014880300E+01 -0.21529418207E+02 -0.12148222528E+03  0.12352111061E+03  0.00000000000E+00 0.  1.
          2    1    1    2  502    0 -0.60014880300E+01  0.21529418207E+02  0.17159997410E+02  0.28177991731E+02  0.00000000000E+00 0.  1.
</event>
<event>
 4    1  0.8391192E+003  0.2616995E+02  0.7546771E-02  0.1456129E+00
          2   -1    0    0  501    0  0.00000000000E+00  0.00000000000E+00  0.32853398964E+03  0.32853398964E+03  0.00000000000E+00 0.  1.
          2   -1    0    0  502    0 -0.00000000000E+00 -0.00000000000E+00 -0.22351907768E+03  0.22351907768E+03  0.00000000000E+00 0. -1.
          2    1    1    2  501    0 -0.26095432612E+02  0.19734807990E+01 -0.22222890501E+03  0.22376450221E+03  0.00000000000E+00 0. -1.
          2    1    1    2  502    0  0.26095432612E+02 -0.19734807990E+01  0.32724381698E+03  0.32828856511E+03  0.00000000000E+00 0.  1.
</event>
<event>
 4    1  0.8391192E+003  0.3977041E+02  0.7546771E-02  0.1349836E+00
          2   -1    0    0  502    0  0.00000000000E+00  0.00000000000E+00  0.23202200246E+04  0.23202200246E+04  0.00000000000E+00 0.  1.
          2   -1    0    0  501    0 -0.00000000000E+00 -0.00000000000E+00 -0.21752849204E+01  0.21752849204E+01  0.00000000000E+00 0.  1.
          2    1    1    2  501    0 -0.32531586575E+02  0.22877533801E+02  0.21212183904E+04  0.21215911824E+04  0.00000000000E+00 0.  1.
          2    1    1    2  502    0  0.32531586575E+02 -0.22877533801E+02  0.19682634929E+03  0.20080412708E+03  0.00000000000E+00 0.  1.
</event>
<event>
 4    1  0.8391192E+003  0.3566996E+02  0.7546771E-02  0.1375913E+00
          2   -1    0    0  501    0  0.00000000000E+00  0.00000000000E+00  0.40604539692E+03  0.40604539692E+03  0.00000000000E+00 0.  1.
          2   -1    0    0  502    0 -0.00000000000E+00 -0.00000000000E+00 -0.10252835951E+03  0.10252835951E+03  0.00000000000E+00 0. -1.
          2    1    1    2  501    0  0.22813628805E+02  0.27420506124E+02 -0.98612406487E+02  0.10486540196E+03  0.00000000000E+00 0. -1.
          2    1    1    2  502    0 -0.22813628805E+02 -0.27420506124E+02  0.40212944390E+03  0.40370835446E+03  0.00000000000E+00 0.  1.
</event>
<event>
 4    1  0.8391192E+003  0.8351641E+02  0.7546771E-02  0.1195911E+00
          2   -1    0    0  501    0  0.00000000000E+00  0.00000000000E+00  0.26614139933E+04  0.26614139933E+04  0.00000000000E+00 0.  1.
          2   -1    0    0  502    0 -0.00000000000E+00 -0.00000000000E+00 -0.62013786785E+01  0.62013786785E+01  0.00000000000E+00 0.  1.
          2    1    1    2  501    0 -0.76395918560E+02 -0.33743946619E+02  0.31409945015E+03  0.32501300726E+03  0.00000000000E+00 0.  1.
          2    1    1    2  502    0  0.76395918560E+02  0.33743946619E+02  0.23411131645E+04  0.23426023647E+04  0.00000000000E+00 0.  1.
</event>
<event>
 4    1  0.8391192E+003  0.2645753E+02  0.7546771E-02  0.1453135E+00
          2   -1    0    0  502    0  0.00000000000E+00  0.00000000000E+00  0.84809133442E+02  0.84809133442E+02  0.00000000000E+00 0.  1.
          2   -1    0    0  501    0 -0.00000000000E+00 -0.00000000000E+00 -0.32007438233E+02  0.32007438233E+02  0.00000000000E+00 0. -1.
          2    1    1    2  501    0  0.26020222165E+02  0.47905174133E+01  0.76717727835E+02  0.81151776214E+02  0.00000000000E+00 0.  1.
          2    1    1    2  502    0 -0.26020222165E+02 -0.47905174133E+01 -0.23916032626E+02  0.35664795460E+02  0.00000000000E+00 0. -1.
</event>
<event>
 4    1  0.8391192E+003  0.2566936E+02  0.7546771E-02  0.1461453E+00
          2   -1    0    0  502    0  0.00000000000E+00  0.00000000000E+00  0.24154388641E+02  0.24154388641E+02  0.00000000000E+00 0.  1.
          2   -1    0    0  501    0 -0.00000000000E+00 -0.00000000000E+00 -0.14785203227E+04  0.14785203227E+04  0.00000000000E+00 0.  1.
          2    1    1    2  501    0  0.17705458541E+02 -0.18585827896E+02  0.17190864282E+02  0.30894045956E+02  0.00000000000E+00 0.  1.
          2    1    1    2  502    0 -0.17705458541E+02  0.18585827896E+02 -0.14715567983E+04  0.14717806654E+04  0.00000000000E+00 0.  1.
</event>
<event>
 4    1  0.8391192E+003  0.2240598E+02  0.7546771E-02  0.1500095E+00
          2   -1    0    0  501    0  0.00000000000E+00  0.00000000000E+00  0.15723382370E+03  0.15723382370E+03  0.00000000000E+00 0. -1.
          2   -1    0    0  502    0 -0.00000000000E+00 -0.00000000000E+00 -0.52626122424E+01  0.52626122424E+01  0.00000000000E+00 0. -1.
          2    1    1    2  501    0 -0.64994597963E+01 -0.21442592639E+02  0.25032472945E+02  0.33595423177E+02  0.00000000000E+00 0. -1.
          2    1    1    2  502    0  0.64994597963E+01  0.21442592639E+02  0.12693873851E+03  0.12890101276E+03  0.00000000000E+00 0. -1.
</event>
<event>
 4    1  0.8391192E+003  0.2067396E+02  0.7546771E-02  0.1523971E+00
          2   -1    0    0  502    0  0.00000000000E+00  0.00000000000E+00  0.65154315473E+03  0.65154315473E+03  0.00000000000E+00 0. -1.
          2   -1    0    0  501    0 -0.00000000000E+00 -0.00000000000E+00 -0.14719224355E+02  0.14719224355E+02  0.00000000000E+00 0. -1.
          2    1    1    2  501    0  0.13009288690E+02 -0.16067707179E+02  0.64403511571E+03  0.64436685442E+03  0.00000000000E+00 0. -1.
          2    1    1    2  502    0 -0.13009288690E+02  0.16067707179E+02 -0.72111853395E+01  0.21895524661E+02  0.00000000000E+00 0. -1.
</event>
<event>
 4    1  0.8391192E+003  0.1115841E+03  0.7546771E-02  0.1145120E+00
          2   -1    0    0  501    0  0.00000000000E+00  0.00000000000E+00  0.32287449097E+02  0.32287449097E+02  0.00000000000E+00 0. -1.
          2   -1    0    0  502    0 -0.00000000000E+00 -0.00000000000E+00 -0.17182824222E+04  0.17182824222E+04  0.00000000000E+00 0. -1.
          2    1    1    2  501    0 -0.60829876934E+00 -0.11158247494E+03 -0.16138309813E+04  0.16176839787E+04  0.00000000000E+00 0. -1.
          2    1    1    2  502    0  0.60829876934E+00  0.11158247494E+03 -0.72163991830E+02  0.13288589262E+03  0.00000000000E+00 0. -1.
</event>
<event>
 4    1  0.8391192E+003  0.2238387E+02  0.7546771E-02  0.1500383E+00
          2   -1    0    0  502    0  0.00000000000E+00  0.00000000000E+00  0.10158337015E+03  0.10158337015E+03  0.00000000000E+00 0.  1.
          2   -1    0    0  501    0 -0.00000000000E+00 -0.00000000000E+00 -0.15978631072E+02  0.15978631072E+02  0.00000000000E+00 0.  1.
          2    1    1    2  501    0 -0.23184840550E+01 -0.22263472794E+02  0.91676226982E+02  0.94369318016E+02  0.00000000000E+00 0.  1.
          2    1    1    2  502    0  0.23184840550E+01  0.22263472794E+02 -0.60714879003E+01  0.23192683210E+02  0.00000000000E+00 0.  1.
</event>
<event>
 4    1  0.8391192E+003  0.3900577E+02  0.7546771E-02  0.1354413E+00
          2   -1    0    0  502    0  0.00000000000E+00  0.00000000000E+00  0.81330816909E+01  0.81330816909E+01  0.00000000000E+00 0.  1.
          2   -1    0    0  501    0 -0.00000000000E+00 -0.00000000000E+00 -0.68420419311E+03  0.68420419311E+03  0.00000000000E+00 0.  1.
          2    1    1    2  501    0 -0.31266574335E+01  0.38880252202E+02 -0.42960857998E+02  0.58026591473E+02  0.00000000000E+00 0.  1.
          2    1    1    2  502    0  0.31266574335E+01 -0.38880252202E+02 -0.63311025342E+03  0.63431068333E+03  0.00000000000E+00 0.  1.
</event>
<event>
 4    1  0.8391192E+003  0.2065108E+02  0.7546771E-02  0.1524305E+00
          2   -1    0    0  502    0  0.00000000000E+00  0.00000000000E+00  0.29254673276E+03  0.29254673276E+03  0.00000000000E+00 0. -1.
          2   -1    0    0  501    0 -0.00000000000E+00 -0.00000000000E+00 -0.41606466350E+01  0.41606466350E+01  0.00000000000E+00 0.  1.
          2    1    1    2  501    0  0.14982546984E+02  0.14212335610E+02  0.26376536917E+03  0.26457255559E+03  0.00000000000E+00 0. -1.
          2    1    1    2  502    0 -0.14982546984E+02 -0.14212335610E+02  0.24620716953E+02  0.32134823804E+02  0.00000000000E+00 0.  1.
</event>
<event>
 4    1  0.8391192E+003  0.2957948E+02  0.7546771E-02  0.1423286E+00
          2   -1    0    0  501    0  0.00000000000E+00  0.00000000000E+00  0.26568370385E+02  0.26568370385E+02  0.00000000000E+00 0. -1.
          2   -1    0    0  502    0 -0.00000000000E+00 -0.00000000000E+00 -0.16500913698E+03  0.16500913698E+03  0.00000000000E+00 0. -1.
          2    1    1    2  501    0 -0.17303466896E+02  0.23990326054E+02 -0.15491915322E+03  0.15771775342E+03  0.00000000000E+00 0. -1.
          2    1    1    2  502    0  0.17303466896E+02 -0.23990326054E+02  0.16478386629E+02  0.33859753937E+02  0.00000000000E+00 0. -1.
</event>
<event>
 4    1  0.8391192E+003  0.2228649E+02  0.7546771E-02  0.1501657E+00
          2   -1    0    0  501    0  0.00000000000E+00  0.00000000000E+00  0.16929733734E+03  0.16929733734E+03  0.00000000000E+00 0.  1.
          2   -1    0    0  502    0 -0.00000000000E+00 -0.00000000000E+00 -0.19683128096E+02  0.19683128096E+02  0.00000000000E+00 0. -1.
          2    1    1    2  501    0  0.88322408764E+01  0.20461650124E+02 -0.12357129502E+02  0.25483058180E+02  0.00000000000E+00 0. -1.
          2    1    1    2  502    0 -0.88322408764E+01 -0.20461650124E+02  0.16197133875E+03  0.16349740726E+03  0.00000000000E+00 0.  1.
</event>
<event>
 4    1  0.8391192E+003  0.2695475E+02  0.7546771E-02  0.1448063E+00
          2   -1    0    0  502    0  0.00000000000E+00  0.00000000000E+00  0.67038521330E+02  0.67038521330E+02  0.00000000000E+00 0. -1.
          2   -1    0    0  501    0 -0.00000000000E+00 -0.00000000000E+00 -0.25424915377E+02  0.25424915377E+02  0.00000000000E+00 0. -1.
          2    1    1    2  501    0 -0.58968717343E+01  0.26301816869E+02  0.55824943515E+02  0.61991797726E+02  0.00000000000E+00 0. -1.
          2    1    1    2  502    0  0.58968717343E+01 -0.26301816869E+02 -0.14211337563E+02  0.30471638981E+02  0.00000000000E+00 0. -1.
</event>
<event>
 4    1  0.8391192E+003  0.3966863E+02  0.7546771E-02  0.1350439E+00
          2   -1    0    0  502    0  0.00000000000E+00  0.00000000000E+00  0.15811557433E+02  0.15811557433E+02  0.00000000000E+00 0. -1.
          2   -1    0    0  501    0 -0.00000000000E+00 -0.00000000000E+00 -0.73368174434E+03  0.73368174434E+03  0.00000000000E+00 0. -1.
          2    1    1    2  501    0  0.36949844996E+02 -0.14432929837E+02 -0.10531054881E+02  0.41042704904E+02  0.00000000000E+00 0. -1.
          2    1    1    2  502    0 -0.36949844996E+02  0.14432929837E+02 -0.70733913203E+03  0.70845059687E+03  0.00000000000E+00 0. -1.
</event>
<event>
 4    1  0.8391192E+003  0.8241395E+02  0.7546771E-02  0.1198352E+00
          2   -1    0    0  502    0  0.00000000000E+00  0.00000000000E+00  0.28082040167E+02  0.28082040167E+02  0.00000000000E+00 0.  1.
          2   -1    0    0  501    0 -0.00000000000E+00 -0.00000000000E+00 -0.67973217563E+03  0.67973217563E+03  0.00000000000E+00 0. -1.
          2    1    1    2  501    0  0.66444275988E+02 -0.48756721221E+02 -0.41777144425E+02  0.92397994957E+02  0.00000000000E+00 0.  1.
          2    1    1    2  502    0 -0.66444275988E+02  0.48756721221E+02 -0.60987299104E+03  0.61541622084E+03  0.00000000000E+00 0. -1.
</event>
<event>
 4    1  0.8391192E+003  0.2231531E+02  0.7546771E-02  0.1501280E+00
          2   -1    0    0  502    0  0.00000000000E+00  0.00000000000E+00  0.13971661200E+04  0.13971661200E+04  0.00000000000E+00 0.  1.
          2   -1    0    0  501    0 -0.00000000000E+00 -0.00000000000E+00 -0.64309732733E+00  0.64309732733E+00  0.00000000000E+00 0.  1.
          2    1    1    2  501    0  0.71021835544E+01  0.21154952996E+02  0.11648982008E+04  0.11651119222E+04  0.00000000000E+00 0.  1.
          2    1    1    2  502    0 -0.71021835544E+01 -0.21154952996E+02  0.23162482180E+03  0.23269729504E+03  0.00000000000E+00 0.  1.
</event>
<event>
 4    1  0.8391192E+003  0.2505058E+02  0.7546771E-02  0.1468238E+00
          2   -1    0    0  501    0  0.00000000000E+00  0.00000000000E+00  0.47430300575E+03  0.47430300575E+03  0.00000000000E+00 0. -1.
          2   -1    0    0  502    0 -0.00000000000E+00 -0.00000000000E+00 -0.19468157828E+01  0.19468157828E+01  0.00000000000E+00 0. -1.
          2    1    1    2  501    0  0.16520018148E+02 -0.18831370170E+02  0.10139060971E+03  0.10443939506E+03  0.00000000000E+00 0. -1.
          2    1    1    2  502    0 -0.16520018148E+02  0.18831370170E+02  0.37096558025E+03  0.37181042647E+03  0.00000000000E+00 0. -1.
</event>
<event>
 4    1  0.8391192E+003  0.2547850E+02  0.7546771E-02  0.1463521E+00
          2   -1    0    0  501    0  0.00000000000E+00  0.00000000000E+00  0.12646305763E+01  0.12646305763E+01  0.00000000000E+00 0. -1.
          2   -1    0    0  502    0 -0.00000000000E+00 -0.00000000000E+00 -0.12464597717E+04  0.12464597717E+04  0.00000000000E+00 0. -1.
          2    1    1    2  501    0  0.11905465104E+02 -0.22525853349E+02 -0.11010561372E+04  0.11013508848E+04  0.00000000000E+00 0. -1.
          2    1    1    2  502    0 -0.11905465104E+02  0.22525853349E+02 -0.14413900395E+03  0.14637351751E+03  0.00000000000E+00 0. -1.
</event>
<event>
 4    1  0.8391192E+003  0.2182070E+02  0.7546771E-02  0.1507862E+00
          2   -1    0    0  502    0  0.00000000000E+00  0.00000000000E+00  0.51302459414E+00  0.51302459414E+00  0.00000000000E+00 0. -1.
          2   -1    0    0  501    0 -0.00000000000E+00 -0.00000000000E+00 -0.18147430105E+04  0.18147430105E+04  0.00000000000E+00 0. -1.
          2    1    1    2  501    0  0.21708844419E+02 -0.22065975091E+01 -0.15415284677E+04  0.15416828986E+04  0.00000000000E+00 0. -1.
          2    1    1    2  502    0 -0.21708844419E+02  0.22065975091E+01 -0.27270151822E+03  0.27357313654E+03  0.00000000000E+00 0. -1.
</event>
<event>
 4    1  0.8391192E+003  0.2503664E+02  0.7546771E-02  0.1468394E+00
          2   -1    0    0  501    0  0.00000000000E+00  0.00000000000E+00  0.10462768666E+04  0.10462768666E+04  0.00000000000E+00 0. -1.
          2   -1    0    0  502    0 -0.00000000000E+00 -0.00000000000E+00 -0.21851084624E+01  0.21851084624E+01  0.00000000000E+00 0. -1.
          2    1    1    2  501    0 -0.20567755992E+02 -0.14275888591E+02  0.75426311094E+02  0.79473026788E+02  0.00000000000E+00 0. -1.
          2    1    1    2  502    0  0.20567755992E+02  0.14275888591E+02  0.96866544706E+03  0.96898894830E+03  0.00000000000E+00 0. -1.
</event>
<event>
 4    1  0.8391192E+003  0.2580526E+02  0.7546771E-02  0.1459993E+00
          2   -1    0    0  502    0  0.00000000000E+00  0.00000000000E+00  0.40896275279E+02  0.40896275279E+02  0.00000000000E+00 0.  1.
          2   -1    0    0  501    0 -0.00000000000E+00 -0.00000000000E+00 -0.18855796020E+03  0.18855796020E+03  0.00000000000E+00 0.  1.
          2    1    1    2  501    0  0.14328025185E+02 -0.21462036472E+02  0.35830816294E+02  0.44156072193E+02  0.00000000000E+00 0.  1.
          2    1    1    2  502    0 -0.14328025185E+02  0.21462036472E+02 -0.18349250121E+03  0.18529816328E+03  0.00000000000E+00 0.  1.
</event>
<event>
 4    1  0.8391192E+003  0.2243900E+02  0.7546771E-02  0.1499665E+00
          2   -1    0    0  501    0  0.00000000000E+00  0.00000000000E+00  0.11111128910E+04  0.11111128910E+04  0.00000000000E+00 0.  1.
          2   -1    0    0  502    0 -0.00000000000E+00 -0.00000000000E+00 -0.36980005165E+03  0.36980005165E+03  0.00000000000E+00 0. -1.
          2    1    1    2  501    0 -0.10401461833E+02  0.19882617081E+02 -0.36934623062E+03  0.37002722460E+03  0.00000000000E+00 0. -1.
          2    1    1    2  502    0  0.10401461833E+02 -0.19882617081E+02  0.11106590699E+04  0.11108857180E+04  0.00000000000E+00 0.  1.
</event>
<event>
 4    1  0.8391192E+003  0.2110140E+02  0.7546771E-02  0.1517822E+00
          2   -1    0    0  501    0  0.00000000000E+00  0.00000000000E+00  0.12191667680E+04  0.12191667680E+04  0.00000000000E+00 0. -1.
          2   -1    0    0  502    0 -0.00000000000E+00 -0.00000000000E+00 -0.37741237368E+02  0.37741237368E+02  0.00000000000E+00 0.  1.
          2    1    1    2  501    0 -0.90667763368E+01  0.19054201721E+02 -0.34693052855E+02  0.40606365914E+02  0.00000000000E+00 0.  1.
          2    1    1    2  502    0  0.90667763368E+01 -0.19054201721E+02  0.12161185835E+04  0.12163016394E+04  0.00000000000E+00 0. -1.
</event>
<event>
 4    1  0.8391192E+003  0.5034632E+02  0.7546771E-02  0.1296678E+00
          2   -1    0    0  502    0  0.00000000000E+00  0.00000000000E+00  0.10392792188E+04  0.10392792188E+04  0.00000000000E+00 0.  1.
          2   -1    0    0  501    0 -0.00000000000E+00 -0.00000000000E+00 -0.52301528690E+01  0.52301528690E+01  0.00000000000E+00 0.  1.
          2    1    1    2  501    0 -0.15375034612E+02 -0.47941215855E+02  0.89854752859E+03  0.89995689508E+03  0.00000000000E+00 0.  1.
          2    1    1    2  502    0  0.15375034612E+02  0.47941215855E+02  0.13550153738E+03  0.14455247663E+03  0.00000000000E+00 0.  1.
</event>
<event>
 4    1  0.8391193E+003  0.3651837E+02  0.7546771E-02  0.1370192E+00
          2   -1    0    0  502    0  0.00000000000E+00  0.00000000000E+00  0.43497299982E+03  0.43497299982E+03  0.00000000000E+00 0.  1.
          2   -1    0    0  501    0 -0.00000000000E+00 -0.00000000000E+00 -0.15280092172E+04  0.15280092172E+04  0.00000000000E+00 0. -1.
          2    1    1    2  501    0 -0.88025151086E+01  0.35441596486E+02  0.43398783526E+03  0.43552156340E+03  0.00000000000E+00 0.  1.
          2    1    1    2  502    0  0.88025151086E+01 -0.35441596486E+02 -0.15270240526E+04  0.15274606536E+04  0.00000000000E+00 0. -1.
</event>
<event>
 4    1  0.8391192E+003  0.3821600E+02  0.7546771E-02  0.1359269E+00
          2   -1    0    0  502    0  0.00000000000E+00  0.00000000000E+00  0.40557082170E+02  0.40557082170E+02  0.00000000000E+00 0.  1.
          2   -1    0    0  501    0 -0.00000000000E+00 -0.00000000000E+00 -0.27369732959E+03  0.27369732959E+03  0.00000000000E+00 0.  1.
          2    1    1    2  501    0 -0.11939116545E+02  0.36303166967E+02  0.29856173573E+02  0.48495912572E+02  0.00000000000E+00 0.  1.
          2    1    1    2  502    0  0.11939116545E+02 -0.36303166967E+02 -0.26299642099E+03  0.26575849919E+03  0.00000000000E+00 0.  1.
</event>
<event>
 4    1  0.8391192E+003  0.2025191E+02  0.7546771E-02  0.1530219E+00
          2   -1    0    0  502    0  0.00000000000E+00  0.00000000000E+00  0.17573817863E+04  0.17573817863E+04  0.00000000000E+00 0. -1.
          2   -1    0    0  501    0 -0.00000000000E+00 -0.00000000000E+00 -0.24307384941E+00  0.24307384941E+00  0.00000000000E+00 0. -1.
          2    1    1    2  501    0  0.12558002426E+02 -0.15888250976E+02  0.10540573393E+04  0.10542518743E+04  0.00000000000E+00 0. -1.
          2    1    1    2  502    0 -0.12558002426E+02  0.15888250976E+02  0.70308137321E+03  0.70337298591E+03  0.00000000000E+00 0. -1.
</event>
<event>
 4    1  0.8391192E+003  0.2091053E+02  0.7546771E-02  0.1520546E+00
          2   -1    0    0  502    0  0.00000000000E+00  0.00000000000E+00  0.28316813598E+03  0.28316813598E+03  0.00000000000E+00 0.  1.
          2   -1    0    0  501    0 -0.00000000000E+00 -0.00000000000E+00 -0.28200901873E+02  0.28200901873E+02  0.00000000000E+00 0. -1.
          2    1    1    2  501    0  0.10962377878E+02  0.17806646349E+02  0.27884589369E+03  0.27962883044E+03  0.00000000000E+00 0.  1.
          2    1    1    2  502    0 -0.10962377878E+02 -0.17806646349E+02 -0.23878659588E+02  0.31740207414E+02  0.00000000000E+00 0. -1.
</event>
<event>
 4    1  0.8391192E+003  0.2112092E+02  0.7546771E-02  0.1517545E+00
          2   -1    0    0  502    0  0.00000000000E+00  0.00000000000E+00  0.39847520643E+03  0.39847520643E+03  0.00000000000E+00 0.  1.
          2   -1    0    0  501    0 -0.00000000000E+00 -0.00000000000E+00 -0.11059215935E+02  0.11059215935E+02  0.00000000000E+00 0. -1.
          2    1    1    2  501    0 -0.54737948330E+01 -0.20399289660E+02  0.38783466670E+03  0.38840934868E+03  0.00000000000E+00 0.  1.
          2    1    1    2  502    0  0.54737948330E+01  0.20399289660E+02 -0.41867620193E+00  0.21125073687E+02  0.00000000000E+00 0. -1.
</event>
<event>
 4    1  0.8391192E+003  0.2060910E+02  0.7546771E-02  0.1524920E+00
          2   -1    0    0  502    0  0.00000000000E+00  0.00000000000E+00  0.14076418863E+03  0.14076418863E+03  0.00000000000E+00 0.  1.
          2   -1    0    0  501    0 -0.00000000000E+00 -0.00000000000E+00 -0.71056231967E+01  0.71056231967E+01  0.00000000000E+00 0. -1.
          2    1    1    2  501    0 -0.20309033566E+02 -0.35040043010E+01  0.12291062085E+03  0.12462646432E+03  0.00000000000E+00 0.  1.
          2    1    1    2  502    0  0.20309033566E+02  0.35040043010E+01  0.10747944577E+02  0.23243347503E+02  0.00000000000E+00 0. -1.
</event>
<event>
 4    1  0.8391192E+003  0.2367459E+02  0.7546771E-02  0.1484197E+00
          2   -1    0    0  502    0  0.00000000000E+00  0.00000000000E+00  0.25100422163E+03  0.25100422163E+03  0.00000000000E+00 0. -1.
          2   -1    0    0  501    0 -0.00000000000E+00 -0.00000000000E+00 -0.66216469318E+03  0.66216469318E+03  0.00000000000E+00 0. -1.
          2    1    1    2  501    0  0.23659541104E+02 -0.84405319134E+00  0.25023371622E+03  0.25135114689E+03  0.00000000000E+00 0. -1.
          2    1    1    2  502    0 -0.23659541104E+02  0.84405319134E+00 -0.66139418777E+03  0.66181776792E+03  0.00000000000E+00 0. -1.
</event>
<event>
 4    1  0.8391192E+003  0.2353195E+02  0.7546771E-02  0.1485924E+00
          2   -1    0    0  502    0  0.00000000000E+00  0.00000000000E+00  0.72035122568E+03  0.72035122568E+03  0.00000000000E+00 0. -1.
          2   -1    0    0  501    0 -0.00000000000E+00 -0.00000000000E+00 -0.39156688477E+02  0.39156688477E+02  0.00000000000E+00 0.  1.
          2    1    1    2  501    0  0.22740580926E+02 -0.60513537529E+01  0.71660507311E+03  0.71699134144E+03  0.00000000000E+00 0. -1.
          2    1    1    2  502    0 -0.22740580926E+02  0.60513537529E+01 -0.35410535899E+02  0.42516572719E+02  0.00000000000E+00 0.  1.
</event>
<event>
 4    1  0.8391192E+003  0.2087012E+02  0.7546771E-02  0.1521127E+00
          2   -1    0    0  502    0  0.00000000000E+00  0.00000000000E+00  0.95498805124E+02  0.95498805124E+02  0.00000000000E+00 0. -1.
          2   -1    0    0  501    0 -0.00000000000E+00 -0.00000000000E+00 -0.92869300107E+02  0.92869300107E+02  0.00000000000E+00 0.  1.
          2    1    1    2  501    0  0.11630298224E+02  0.17329105168E+02  0.93156949522E+02  0.95466114234E+02  0.00000000000E+00 0. -1.
          2    1    1    2  502    0 -0.11630298224E+02 -0.17329105168E+02 -0.90527444505E+02  0.92901990997E+02  0.00000000000E+00 0.  1.
</event>
<event>
 4    1  0.8391192E+003  0.2865723E+02  0.7546771E-02  0.1431635E+00
          2   -1    0    0  502    0  0.00000000000E+00  0.00000000000E+00  0.10461900754E+02  0.10461900754E+02  0.00000000000E+00 0.  1.
          2   -1    0    0  501    0 -0.00000000000E+00 -0.00000000000E+00 -0.24105971869E+03  0.24105971869E+03  0.00000000000E+00 0.  1.
          2    1    1    2  501    0  0.88856927343E+01  0.27244840947E+02 -0.12024594444E+02  0.31077769630E+02  0.00000000000E+00 0.  1.
          2    1    1    2  502    0 -0.88856927343E+01 -0.27244840947E+02 -0.21857322349E+03  0.22044384981E+03  0.00000000000E+00 0.  1.
</event>
<event>
 4    1  0.8391192E+003  0.2428155E+02  0.7546771E-02  0.1477004E+00
          2   -1    0    0  502    0  0.00000000000E+00  0.00000000000E+00  0.12556732022E+03  0.12556732022E+03  0.00000000000E+00 0.  1.
          2   -1    0    0  501    0 -0.00000000000E+00 -0.00000000000E+00 -0.27598104314E+02  0.27598104314E+02  0.00000000000E+00 0.  1.
          2    1    1    2  501    0 -0.97071062678E+01  0.22256809318E+02  0.11874905354E+03  0.12120615161E+03  0.00000000000E+00 0.  1.
          2    1    1    2  502    0  0.97071062678E+01 -0.22256809318E+02 -0.20779837635E+02  0.31959272915E+02  0.00000000000E+00 0.  1.
</event>
<event>
 4    1  0.8391192E+003  0.2184729E+02  0.7546771E-02  0.1507503E+00
          2   -1    0    0  502    0  0.00000000000E+00  0.00000000000E+00  0.12463122823E+03  0.12463122823E+03  0.00000000000E+00 0.  1.
          2   -1    0    0  501    0 -0.00000000000E+00 -0.00000000000E+00 -0.11986798358E+02  0.11986798358E+02  0.00000000000E+00 0. -1.
          2    1    1    2  501    0 -0.19271377936E+02 -0.10291658059E+02  0.11267214786E+03  0.11477071550E+03  0.00000000000E+00 0.  1.
          2    1    1    2  502    0  0.19271377936E+02  0.10291658059E+02 -0.27717995051E-01  0.21847311080E+02  0.00000000000E+00 0. -1.
</event>
<event>
 4    1  0.8391192E+003  0.3116693E+02  0.7546771E-02  0.1409720E+00
          2   -1    0    0  502    0  0.00000000000E+00  0.00000000000E+00  0.81269524617E+01  0.81269524617E+01  0.00000000000E+00 0. -1.
          2   -1    0    0  501    0 -0.00000000000E+00 -0.00000000000E+00 -0.43563787939E+03  0.43563787939E+03  0.00000000000E+00 0.  1.
          2    1    1    2  501    0  0.26483482378E+02  0.16431758508E+02 -0.24747168239E+02  0.39796983081E+02  0.00000000000E+00 0. -1.
          2    1    1    2  502    0 -0.26483482378E+02 -0.16431758508E+02 -0.40276375869E+03  0.40396784877E+03  0.00000000000E+00 0.  1.
</event>
<event>
 4    1  0.8391192E+003  0.2730354E+02  0.7546771E-02  0.1444583E+00
          2   -1    0    0  501    0  0.00000000000E+00  0.00000000000E+00  0.85353091583E+01  0.85353091583E+01  0.00000000000E+00 0. -1.
          2   -1    0    0  502    0 -0.00000000000E+00 -0.00000000000E+00 -0.61101112295E+03  0.61101112295E+03  0.00000000000E+00 0. -1.
          2    1    1    2  501    0  0.16681626176E+02 -0.21614969413E+02 -0.58801743814E+03  0.58865099262E+03  0.00000000000E+00 0. -1.
          2    1    1    2  502    0 -0.16681626176E+02  0.21614969413E+02 -0.14458375648E+02  0.30895439486E+02  0.00000000000E+00 0. -1.
</event>
<event>
 4    1  0.8391192E+003  0.4798734E+02  0.7546771E-02  0.1307143E+00
          2   -1    0    0  501    0  0.00000000000E+00  0.00000000000E+00  0.39286868851E+02  0.39286868851E+02  0.00000000000E+00 0.  1.
          2   -1    0    0  502    0 -0.00000000000E+00 -0.00000000000E+00 -0.60750080237E+02  0.60750080237E+02  0.00000000000E+00 0. -1.
          2    1    1    2  501    0 -0.37974107845E+02  0.29338576402E+02 -0.13537693937E+01  0.48006433147E+02  0.00000000000E+00 0. -1.
          2    1    1    2  502    0  0.37974107845E+02 -0.29338576402E+02 -0.20109441992E+02  0.52030515941E+02  0.00000000000E+00 0.  1.
</event>
<event>
 4    1  0.8391192E+003  0.2579848E+02  0.7546771E-02  0.1460066E+00
          2   -1    0    0  501    0  0.00000000000E+00  0.00000000000E+00  0.65240941168E+02  0.65240941168E+02  0.00000000000E+00 0. -1.
          2   -1    0    0  502    0 -0.00000000000E+00 -0.00000000000E+00 -0.66254231088E+02  0.66254231088E+02  0.00000000000E+00 0. -1.
          2    1    1    2  501    0 -0.15713100696E+02 -0.20461188955E+02 -0.60980968194E+02  0.66213595801E+02  0.00000000000E+00 0. -1.
          2    1    1    2  502    0  0.15713100696E+02  0.20461188955E+02  0.59967678274E+02  0.65281576455E+02  0.00000000000E+00 0. -1.
</event>
<event>
 4    1  0.8391192E+003  0.2698286E+02  0.7546771E-02  0.1447780E+00
          2   -1    0    0  502    0  0.00000000000E+00  0.00000000000E+00  0.31504348742E+01  0.31504348742E+01  0.00000000000E+00 0. -1.
          2   -1    0    0  501    0 -0.00000000000E+00 -0.00000000000E+00 -0.73225984019E+03  0.73225984019E+03  0.00000000000E+00 0.  1.
          2    1    1    2  501    0  0.15657278738E+02  0.21975534930E+02 -0.60358365106E+02  0.66115102293E+02  0.00000000000E+00 0. -1.
          2    1    1    2  502    0 -0.15657278738E+02 -0.21975534930E+02 -0.66875104021E+03  0.66929517277E+03  0.00000000000E+00 0.  1.
</event>
<event>
 4    1  0.8391192E+003  0.2017516E+02  0.7546771E-02  0.1531375E+00
          2   -1    0    0  501    0  0.00000000000E+00  0.00000000000E+00  0.17709767270E+03  0.17709767270E+03  0.00000000000E+00 0. -1.
          2   -1    0    0  502    0 -0.00000000000E+00 -0.00000000000E+00 -0.15318966719E+02  0.15318966719E+02  0.00000000000E+00 0. -1.
          2    1    1    2  501    0 -0.84470710962E+01 -0.18321680030E+02 -0.78085278801E+01  0.21633540553E+02  0.00000000000E+00 0. -1.
          2    1    1    2  502    0  0.84470710962E+01  0.18321680030E+02  0.16958723386E+03  0.17078309887E+03  0.00000000000E+00 0. -1.
</event>
<event>
 4    1  0.8391192E+003  0.2385448E+02  0.7546771E-02  0.1482038E+00
          2   -1    0    0  501    0  0.00000000000E+00  0.00000000000E+00  0.91993276604E+01  0.91993276604E+01  0.00000000000E+00 0.  1.
          2   -1    0    0  502    0 -0.00000000000E+00 -0.00000000000E+00 -0.44178838635E+03  0.44178838635E+03  0.00000000000E+00 0. -1.
          2    1    1    2  501    0 -0.19964617863E+01 -0.23770789789E+02 -0.42540730079E+03  0.42607558939E+03  0.00000000000E+00 0. -1.
          2    1    1    2  502    0  0.19964617863E+01  0.23770789789E+02 -0.71817579048E+01  0.24912124628E+02  0.00000000000E+00 0.  1.
</event>
<event>
 4    1  0.8391192E+003  0.2704853E+02  0.7546771E-02  0.1447121E+00
          2   -1    0    0  501    0  0.00000000000E+00  0.00000000000E+00  0.38503771435E+01  0.38503771435E+01  0.00000000000E+00 0. -1.
          2   -1    0    0  502    0 -0.00000000000E+00 -0.00000000000E+00 -0.16239470060E+04  0.16239470060E+04  0.00000000000E+00 0.  1.
          2    1    1    2  501    0 -0.18852998441E+02 -0.19395544728E+02 -0.15748502298E+04  0.15750824960E+04  0.00000000000E+00 0.  1.
          2    1    1    2  502    0  0.18852998441E+02  0.19395544728E+02 -0.45246399047E+02  0.52714887197E+02  0.00000000000E+00 0. -1.
</event>
<event>
 4    1  0.8391192E+003  0.2235869E+02  0.7546771E-02  0.1500712E+00
          2   -1    0    0  502    0  0.00000000000E+00  0.00000000000E+00  0.94179237801E+02  0.94179237801E+02  0.00000000000E+00 0.  1.
          2   -1    0    0  501    0 -0.00000000000E+00 -0.00000000000E+00 -0.72361441893E+02  0.72361441893E+02  0.00000000000E+00 0. -1.
          2    1    1    2  501    0  0.13621790469E+01  0.22317154889E+02  0.91066923198E+02  0.93771506519E+02  0.00000000000E+00 0.  1.
          2    1    1    2  502    0 -0.13621790469E+01 -0.22317154889E+02 -0.69249127290E+02  0.72769173174E+02  0.00000000000E+00 0. -1.
</event>
<event>
 4    1  0.8391192E+003  0.4062053E+02  0.7546771E-02  0.1344887E+00
          2   -1    0    0  501    0  0.00000000000E+00  0.00000000000E+00  0.47307359161E+02  0.47307359161E+02  0.00000000000E+00 0.  1.
          2   -1    0    0  502    0 -0.00000000000E+00 -0.00000000000E+00 -0.24206517595E+04  0.24206517595E+04  0.00000000000E+00 0.  1.
          2    1    1    2  501    0  0.35070729461E+02 -0.20495644976E+02 -0.24117293719E+04  0.24120714316E+04  0.00000000000E+00 0.  1.
          2    1    1    2  502    0 -0.35070729461E+02  0.20495644976E+02  0.38384971576E+02  0.55887687113E+02  0.00000000000E+00 0.  1.
</event>
<event>
 4    1  0.8391192E+003  0.2066582E+02  0.7546771E-02  0.1524090E+00
          2   -1    0    0  501    0  0.00000000000E+00  0.00000000000E+00  0.32866838953E+01  0.32866838953E+01  0.00000000000E+00 0.  1.
          2   -1    0    0  502    0 -0.00000000000E+00 -0.00000000000E+00 -0.58350444580E+03  0.58350444580E+03  0.00000000000E+00 0.  1.
          2    1    1    2  501    0  0.43997736433E+01 -0.20192027249E+02 -0.54878142834E+03  0.54917040349E+03  0.00000000000E+00 0.  1.
          2    1    1    2  502    0 -0.43997736433E+01  0.20192027249E+02 -0.31436333558E+02  0.37620726204E+02  0.00000000000E+00 0.  1.
</event>
<event>
 4    1  0.8391192E+003  0.2875280E+02  0.7546771E-02  0.1430753E+00
          2   -1    0    0  501    0  0.00000000000E+00  0.00000000000E+00  0.30560244178E+02  0.30560244178E+02  0.00000000000E+00 0.  1.
          2   -1    0    0  502    0 -0.00000000000E+00 -0.00000000000E+00 -0.87009842808E+02  0.87009842808E+02  0.00000000000E+00 0.  1.
          2    1    1    2  501    0 -0.15010306514E+02  0.24523750706E+02 -0.77023101520E+02  0.82214851567E+02  0.00000000000E+00 0.  1.
          2    1    1    2  502    0  0.15010306514E+02 -0.24523750706E+02  0.20573502890E+02  0.35355235419E+02  0.00000000000E+00 0.  1.
</event>
<event>
 4    1  0.8391192E+003  0.5357188E+02  0.7546771E-02  0.1283387E+00
          2   -1    0    0  502    0  0.00000000000E+00  0.00000000000E+00  0.12531448968E+02  0.12531448968E+02  0.00000000000E+00 0.  1.
          2   -1    0    0  501    0 -0.00000000000E+00 -0.00000000000E+00 -0.32550995424E+04  0.32550995424E+04  0.00000000000E+00 0.  1.
          2    1    1    2  501    0 -0.24294814808E+02 -0.47746288510E+02 -0.45992001807E+02  0.70606021863E+02  0.00000000000E+00 0.  1.
          2    1    1    2  502    0  0.24294814808E+02  0.47746288510E+02 -0.31965760917E+04  0.31970249695E+04  0.00000000000E+00 0.  1.
</event>
<event>
 4    1  0.8391192E+003  0.2172506E+02  0.7546771E-02  0.1509160E+00
          2   -1    0    0  501    0  0.00000000000E+00  0.00000000000E+00  0.14612113679E+04  0.14612113679E+04  0.00000000000E+00 0.  1.
          2   -1    0    0  502    0 -0.00000000000E+00 -0.00000000000E+00 -0.33695237693E+00  0.33695237693E+00  0.00000000000E+00 0.  1.
          2    1    1    2  501    0 -0.84445412147E+01  0.20016689800E+02  0.58175815637E+03  0.58216366311E+03  0.00000000000E+00 0.  1.
          2    1    1    2  502    0  0.84445412147E+01 -0.20016689800E+02  0.87911625910E+03  0.87938465711E+03  0.00000000000E+00 0.  1.
</event>
<event>
 4    1  0.8391192E+003  0.2086628E+02  0.7546771E-02  0.1521183E+00
          2   -1    0    0  501    0  0.00000000000E+00  0.00000000000E+00  0.20017829270E+03  0.20017829270E+03  0.00000000000E+00 0.  1.
          2   -1    0    0  502    0 -0.00000000000E+00 -0.00000000000E+00 -0.17281264383E+03  0.17281264383E+03  0.00000000000E+00 0. -1.
          2    1    1    2  501    0 -0.16934152382E+02  0.12191647438E+02 -0.17163528450E+03  0.17289902449E+03  0.00000000000E+00 0. -1.
          2    1    1    2  502    0  0.16934152382E+02 -0.12191647438E+02  0.19900093336E+03  0.20009191204E+03  0.00000000000E+00 0.  1.
</event>
<event>
 4    1  0.8391192E+003  0.2399523E+02  0.7546771E-02  0.1480365E+00
          2   -1    0    0  502    0  0.00000000000E+00  0.00000000000E+00  0.53750652888E+02  0.53750652888E+02  0.00000000000E+00 0. -1.
          2   -1    0    0  501    0 -0.00000000000E+00 -0.00000000000E+00 -0.35467721408E+02  0.35467721408E+02  0.00000000000E+00 0.  1.
          2    1    1    2  501    0  0.12669981359E+02 -0.20377501942E+02  0.46410353741E+02  0.52246453922E+02  0.00000000000E+00 0. -1.
          2    1    1    2  502    0 -0.12669981359E+02  0.20377501942E+02 -0.28127422261E+02  0.36971920374E+02  0.00000000000E+00 0.  1.
</event>
<event>
 4    1  0.8391192E+003  0.2468673E+02  0.7546771E-02  0.1472339E+00
          2   -1    0    0  501    0  0.00000000000E+00  0.00000000000E+00  0.39189197554E+01  0.39189197554E+01  0.00000000000E+00 0.  1.
          2   -1    0    0  502    0 -0.00000000000E+00 -0.00000000000E+00 -0.15560339575E+03  0.15560339575E+03  0.00000000000E+00 0.  1.
          2    1    1    2  501    0 -0.18265112980E+02 -0.16607845507E+02 -0.73897974585E+02  0.77912422196E+02  0.00000000000E+00 0.  1.
          2    1    1    2  502    0  0.18265112980E+02  0.16607845507E+02 -0.77786501411E+02  0.81609893311E+02  0.00000000000E+00 0.  1.
</event>
<event>
 4    1  0.8391192E+003  0.3204920E+02  0.7546771E-02  0.1402587E+00
          2   -1    0    0  502    0  0.00000000000E+00  0.00000000000E+00  0.57171319538E+00  0.57171319538E+00  0.00000000000E+00 0.  1.
          2   -1    0    0  501    0 -0.00000000000E+00 -0.00000000000E+00 -0.18189185691E+04  0.18189185691E+04  0.00000000000E+00 0.  1.
          2    1    1    2  501    0  0.68105687724E+01 -0.31317202197E+02 -0.10099031781E+04  0.10104115895E+04  0.00000000000E+00 0.  1.
          2    1    1    2  502    0 -0.68105687724E+01  0.31317202197E+02 -0.80844367778E+03  0.80907869280E+03  0.00000000000E+00 0.  1.
</event>
<event>
 4    1  0.8391192E+003  0.2072576E+02  0.7546771E-02  0.1523217E+00
          2   -1    0    0  502    0  0.00000000000E+00  0.00000000000E+00  0.13530071925E+03  0.13530071925E+03  0.00000000000E+00 0. -1.
          2   -1    0    0  501    0 -0.00000000000E+00 -0.00000000000E+00 -0.36797060083E+03  0.36797060083E+03  0.00000000000E+00 0. -1.
          2    1    1    2  501    0  0.18804079004E+02  0.87157210095E+01  0.13421281729E+03  0.13580367264E+03  0.00000000000E+00 0. -1.
          2    1    1    2  502    0 -0.18804079004E+02 -0.87157210095E+01 -0.36688269887E+03  0.36746764743E+03  0.00000000000E+00 0. -1.
</event>
<event>
 4    1  0.8391192E+003  0.2587449E+02  0.7546771E-02  0.1459254E+00
          2   -1    0    0  501    0  0.00000000000E+00  0.00000000000E+00  0.17228963000E+03  0.17228963000E+03  0.00000000000E+00 0.  1.
          2   -1    0    0  502    0 -0.00000000000E+00 -0.00000000000E+00 -0.24278377767E+02  0.24278377767E+02  0.00000000000E+00 0. -1.
          2    1    1    2  501    0 -0.20863002058E+02 -0.15304392977E+02 -0.16070289431E+02  0.30458882147E+02  0.00000000000E+00 0. -1.
          2    1    1    2  502    0  0.20863002058E+02  0.15304392977E+02  0.16408154166E+03  0.16610912562E+03  0.00000000000E+00 0.  1.
</event>
<event>
 4    1  0.8391192E+003  0.3711525E+02  0.7546771E-02  0.1366273E+00
          2   -1    0    0  502    0  0.00000000000E+00  0.00000000000E+00  0.13939857364E+03  0.13939857364E+03  0.00000000000E+00 0.  1.
          2   -1    0    0  501    0 -0.00000000000E+00 -0.00000000000E+00 -0.10872806685E+02  0.10872806685E+02  0.00000000000E+00 0.  1.
          2    1    1    2  501    0 -0.33162096483E+02  0.16667857784E+02  0.86943841081E+02  0.94534510250E+02  0.00000000000E+00 0.  1.
          2    1    1    2  502    0  0.33162096483E+02 -0.16667857784E+02  0.41581925871E+02  0.55736870072E+02  0.00000000000E+00 0.  1.
</event>
<event>
 4    1  0.8391192E+003  0.4366129E+02  0.7546771E-02  0.1328271E+00
          2   -1    0    0  501    0  0.00000000000E+00  0.00000000000E+00  0.32169585983E+03  0.32169585983E+03  0.00000000000E+00 0. -1.
          2   -1    0    0  502    0 -0.00000000000E+00 -0.00000000000E+00 -0.47429197882E+02  0.47429197882E+02  0.00000000000E+00 0. -1.
          2    1    1    2  501    0  0.40767758901E+02  0.15630027822E+02 -0.35515016862E+02  0.56281652056E+02  0.00000000000E+00 0. -1.
          2    1    1    2  502    0 -0.40767758901E+02 -0.15630027822E+02  0.30978167881E+03  0.31284340565E+03  0.00000000000E+00 0. -1.
</event>
<event>
 4    1  0.8391192E+003  0.2979625E+02  0.7546771E-02  0.1421376E+00
          2   -1    0    0  501    0  0.00000000000E+00  0.00000000000E+00  0.99198650106E+00  0.99198650106E+00  0.00000000000E+00 0.  1.
          2   -1    0    0  502    0 -0.00000000000E+00 -0.00000000000E+00 -0.20182093826E+04  0.20182093826E+04  0.00000000000E+00 0.  1.
          2    1    1    2  501    0 -0.26645093485E+02  0.13336237780E+02 -0.17617893624E+04  0.17620413087E+04  0.00000000000E+00 0.  1.
          2    1    1    2  502    0  0.26645093485E+02 -0.13336237780E+02 -0.25542803371E+03  0.25716006037E+03  0.00000000000E+00 0.  1.
</event>
<event>
 4    1  0.8391192E+003  0.2643484E+02  0.7546771E-02  0.1453369E+00
          2   -1    0    0  501    0  0.00000000000E+00  0.00000000000E+00  0.24466338135E+02  0.24466338135E+02  0.00000000000E+00 0.  1.
          2   -1    0    0  502    0 -0.00000000000E+00 -0.00000000000E+00 -0.30441911866E+03  0.30441911866E+03  0.00000000000E+00 0.  1.
          2    1    1    2  501    0  0.15405756415E+02  0.21481696692E+02 -0.29651484141E+03  0.29769086617E+03  0.00000000000E+00 0.  1.
          2    1    1    2  502    0 -0.15405756415E+02 -0.21481696692E+02  0.16562060887E+02  0.31194590626E+02  0.00000000000E+00 0.  1.
</event>
<event>
 4    1  0.8391192E+003  0.2132655E+02  0.7546771E-02  0.1514653E+00
          2   -1    0    0  501    0  0.00000000000E+00  0.00000000000E+00  0.42868775435E+00  0.42868775435E+00  0.00000000000E+00 0.  1.
          2   -1    0    0  502    0 -0.00000000000E+00 -0.00000000000E+00 -0.14609805615E+04  0.14609805615E+04  0.00000000000E+00 0.  1.
          2    1    1    2  501    0 -0.10315505622E+02 -0.18665801184E+02 -0.11126243014E+04  0.11128286741E+04  0.00000000000E+00 0.  1.
          2    1    1    2  502    0  0.10315505622E+02  0.18665801184E+02 -0.34792757227E+03  0.34858057509E+03  0.00000000000E+00 0.  1.
</event>
<event>
 4    1  0.8391192E+003  0.2001822E+02  0.7546771E-02  0.1533757E+00
          2   -1    0    0  502    0  0.00000000000E+00  0.00000000000E+00  0.42511199973E+02  0.42511199973E+02  0.00000000000E+00 0. -1.
          2   -1    0    0  501    0 -0.00000000000E+00 -0.00000000000E+00 -0.71436181411E+02  0.71436181411E+02  0.00000000000E+00 0. -1.
          2    1    1    2  501    0 -0.16246753332E+01 -0.19952184593E+02  0.38619255441E+02  0.43499150921E+02  0.00000000000E+00 0. -1.
          2    1    1    2  502    0  0.16246753332E+01  0.19952184593E+02 -0.67544236879E+02  0.70448230464E+02  0.00000000000E+00 0. -1.
</event>
<event>
 4    1  0.8391192E+003  0.2862557E+02  0.7546771E-02  0.1431929E+00
          2   -1    0    0  502    0  0.00000000000E+00  0.00000000000E+00  0.15663993076E+04  0.15663993076E+04  0.00000000000E+00 0. -1.
          2   -1    0    0  501    0 -0.00000000000E+00 -0.00000000000E+00 -0.20121074059E+01  0.20121074059E+01  0.00000000000E+00 0.  1.
          2    1    1    2  501    0  0.44151148605E+01  0.28283031148E+02  0.14567979853E+04  0.14570791993E+04  0.00000000000E+00 0. -1.
          2    1    1    2  502    0 -0.44151148605E+01 -0.28283031148E+02  0.10758921491E+03  0.11133221572E+03  0.00000000000E+00 0.  1.
</event>
<event>
 4    1  0.8391192E+003  0.2036414E+02  0.7546771E-02  0.1528540E+00
          2   -1    0    0  501    0  0.00000000000E+00  0.00000000000E+00  0.12154443414E+02  0.12154443414E+02  0.00000000000E+00 0. -1.
          2   -1    0    0  502    0 -0.00000000000E+00 -0.00000000000E+00 -0.80558976044E+03  0.80558976044E+03  0.00000000000E+00 0. -1.
          2    1    1    2  501    0 -0.16661199408E+02  0.11709087242E+02 -0.79683762714E+03  0.79709779972E+03  0.00000000000E+00 0. -1.
          2    1    1    2  502    0  0.16661199408E+02 -0.11709087242E+02  0.34023101114E+01  0.20646404138E+02  0.00000000000E+00 0. -1.
</event>
<event>
 4    1  0.8391192E+003  0.2659686E+02  0.7546771E-02  0.1451700E+00
          2   -1    0    0  501    0  0.00000000000E+00  0.00000000000E+00  0.36564289559E+03  0.36564289559E+03  0.00000000000E+00 0. -1.
          2   -1    0    0  502    0 -0.00000000000E+00 -0.00000000000E+00 -0.40105591979E+02  0.40105591979E+02  0.00000000000E+00 0.  1.
          2    1    1    2  501    0  0.17448840006E+02 -0.20073135643E+02 -0.35151884807E+02  0.44080015853E+02  0.00000000000E+00 0.  1.
          2    1    1    2  502    0 -0.17448840006E+02  0.20073135643E+02  0.36068918842E+03  0.36166847171E+03  0.00000000000E+00 0. -1.
</event>
<event>
 4    1  0.8391192E+003  0.4174176E+02  0.7546771E-02  0.1338571E+00
          2   -1    0    0  501    0  0.00000000000E+00  0.00000000000E+00  0.73162520331E+03  0.73162520331E+03  0.00000000000E+00 0. -1.
          2   -1    0    0  502    0 -0.00000000000E+00 -0.00000000000E+00 -0.21902944890E+02  0.21902944890E+02  0.00000000000E+00 0. -1.
          2    1    1    2  501    0 -0.36508872076E+01  0.41581794472E+02 -0.83084757902E+00  0.41750028942E+02  0.00000000000E+00 0. -1.
          2    1    1    2  502    0  0.36508872076E+01 -0.41581794472E+02  0.71055310600E+03  0.71177811926E+03  0.00000000000E+00 0. -1.
</event>
<event>
 4    1  0.8391192E+003  0.2029920E+02  0.7546771E-02  0.1529510E+00
          2   -1    0    0  501    0  0.00000000000E+00  0.00000000000E+00  0.68904818853E+01  0.68904818853E+01  0.00000000000E+00 0.  1.
          2   -1    0    0  502    0 -0.00000000000E+00 -0.00000000000E+00 -0.84456173869E+02  0.84456173869E+02  0.00000000000E+00 0.  1.
          2    1    1    2  501    0  0.33678320702E+01 -0.20017872805E+02 -0.63460349573E+02  0.66627873239E+02  0.00000000000E+00 0.  1.
          2    1    1    2  502    0 -0.33678320702E+01  0.20017872805E+02 -0.14105342411E+02  0.24718782515E+02  0.00000000000E+00 0.  1.
</event>
<event>
 4    1  0.8391192E+003  0.2198585E+02  0.7546771E-02  0.1505641E+00
          2   -1    0    0  502    0  0.00000000000E+00  0.00000000000E+00  0.14660126059E+02  0.14660126059E+02  0.00000000000E+00 0. -1.
          2   -1    0    0  501    0 -0.00000000000E+00 -0.00000000000E+00 -0.14596594076E+03  0.14596594076E+03  0.00000000000E+00 0. -1.
          2    1    1    2  501    0 -0.21687176014E+02  0.36116517097E+01  0.50093200878E+01  0.22549299752E+02  0.00000000000E+00 0. -1.
          2    1    1    2  502    0  0.21687176014E+02 -0.36116517097E+01 -0.13631513479E+03  0.13807676707E+03  0.00000000000E+00 0. -1.
</event>
<event>
 4    1  0.8391192E+003  0.2467663E+02  0.7546771E-02  0.1472454E+00
          2   -1    0    0  501    0  0.00000000000E+00  0.00000000000E+00  0.53419650474E+00  0.53419650474E+00  0.00000000000E+00 0. -1.
          2   -1    0    0  502    0 -0.00000000000E+00 -0.00000000000E+00 -0.18068430255E+04  0.18068430255E+04  0.00000000000E+00 0.  1.
          2    1    1    2  501    0  0.22392247831E+02  0.10369344175E+02 -0.14521889122E+04  0.14523985585E+04  0.00000000000E+00 0.  1.
          2    1    1    2  502    0 -0.22392247831E+02 -0.10369344175E+02 -0.35411991686E+03  0.35497866355E+03  0.00000000000E+00 0. -1.
</event>
<event>
 4    1  0.8391192E+003  0.3970322E+02  0.7546771E-02  0.1350234E+00
          2   -1    0    0  502    0  0.00000000000E+00  0.00000000000E+00  0.22599472954E+03  0.22599472954E+03  0.00000000000E+00 0. -1.
          2   -1    0    0  501    0 -0.00000000000E+00 -0.00000000000E+00 -0.15980134115E+04  0.15980134115E+04  0.00000000000E+00 0. -1.
          2    1    1    2  501    0 -0.36126314063E+02  0.16469206027E+02  0.22400215719E+03  0.22749354220E+03  0.00000000000E+00 0. -1.
          2    1    1    2  502    0  0.36126314063E+02 -0.16469206027E+02 -0.15960208392E+04  0.15965145989E+04  0.00000000000E+00 0. -1.
</event>
<event>
 4    1  0.8391192E+003  0.2008711E+02  0.7546771E-02  0.1532708E+00
          2   -1    0    0  502    0  0.00000000000E+00  0.00000000000E+00  0.14254815947E+04  0.14254815947E+04  0.00000000000E+00 0. -1.
          2   -1    0    0  501    0 -0.00000000000E+00 -0.00000000000E+00 -0.50513934669E+02  0.50513934669E+02  0.00000000000E+00 0.  1.
          2    1    1    2  501    0 -0.66979217113E+01  0.18937525220E+02  0.14234109916E+04  0.14235527187E+04  0.00000000000E+00 0. -1.
          2    1    1    2  502    0  0.66979217113E+01 -0.18937525220E+02 -0.48443331553E+02  0.52442810648E+02  0.00000000000E+00 0.  1.
</event>
<event>
 4    1  0.8391192E+003  0.2707429E+02  0.7546771E-02  0.1446863E+00
          2   -1    0    0  501    0  0.00000000000E+00  0.00000000000E+00  0.12904116808E+02  0.12904116808E+02  0.00000000000E+00 0. -1.
          2   -1    0    0  502    0 -0.00000000000E+00 -0.00000000000E+00 -0.71101872573E+03  0.71101872573E+03  0.00000000000E+00 0.  1.
          2    1    1    2  501    0 -0.26860857035E+02 -0.33928802393E+01 -0.69625882545E+03  0.69678502373E+03  0.00000000000E+00 0.  1.
          2    1    1    2  502    0  0.26860857035E+02  0.33928802393E+01 -0.18557834642E+01  0.27137818801E+02  0.00000000000E+00 0. -1.
</event>
<event>
 4    1  0.1543902E+004  0.2100013E+02  0.7546771E-02  0.1519263E+00
          2   -1    0    0  501    0  0.00000000000E+00  0.00000000000E+00  0.87451614637E+03  0.87451614637E+03  0.00000000000E+00 0. -1.
          2   -1    0    0  502    0 -0.00000000000E+00 -0.00000000000E+00 -0.13483064136E+04  0.13483064136E+04  0.00000000000E+00 0. -1.
          2    1    1    2  501    0 -0.31708276031E+01  0.20759369252E+02 -0.13480985525E+04  0.13482621084E+04  0.00000000000E+00 0. -1.
          2    1    1    2  502    0  0.31708276031E+01 -0.20759369252E+02  0.87430828535E+03  0.87456045154E+03  0.00000000000E+00 0. -1.
</event>
<event>
 4    1  0.8391192E+003  0.2142569E+02  0.7546771E-02  0.1513273E+00
          2   -1    0    0  502    0  0.00000000000E+00  0.00000000000E+00  0.67290200003E+03  0.67290200003E+03  0.00000000000E+00 0.  1.
          2   -1    0    0  501    0 -0.00000000000E+00 -0.00000000000E+00 -0.66759299025E+01  0.66759299025E+01  0.00000000000E+00 0. -1.
          2    1    1    2  501    0 -0.43405710897E+01 -0.20981414857E+02  0.65507281089E+03  0.65542310602E+03  0.00000000000E+00 0.  1.
          2    1    1    2  502    0  0.43405710897E+01  0.20981414857E+02  0.11153259228E+02  0.24154823912E+02  0.00000000000E+00 0. -1.
</event>
<event>
 4    1  0.8391192E+003  0.2491191E+02  0.7546771E-02  0.1469791E+00
          2   -1    0    0  501    0  0.00000000000E+00  0.00000000000E+00  0.19995849483E+02  0.19995849483E+02  0.00000000000E+00 0. -1.
          2   -1    0    0  502    0 -0.00000000000E+00 -0.00000000000E+00 -0.31188777716E+03  0.31188777716E+03  0.00000000000E+00 0.  1.
          2    1    1    2  501    0  0.23194898859E+02 -0.90884538442E+01 -0.30341485618E+03  0.30443583606E+03  0.00000000000E+00 0.  1.
          2    1    1    2  502    0 -0.23194898859E+02  0.90884538442E+01  0.11522928508E+02  0.27447790580E+02  0.00000000000E+00 0. -1.
</event>
<event>
 4    1  0.8391192E+003  0.2754520E+02  0.7546771E-02  0.1442207E+00
          2   -1    0    0  502    0  0.00000000000E+00  0.00000000000E+00  0.23095163980E+02  0.23095163980E+02  0.00000000000E+00 0.  1.
          2   -1    0    0  501    0 -0.00000000000E+00 -0.00000000000E+00 -0.12298253883E+04  0.12298253883E+04  0.00000000000E+00 0. -1.
          2    1    1    2  501    0 -0.23198372844E+02  0.14851724954E+02  0.14671115436E+02  0.31208650481E+02  0.00000000000E+00 0.  1.
          2    1    1    2  502    0  0.23198372844E+02 -0.14851724954E+02 -0.12214013397E+04  0.12217119018E+04  0.00000000000E+00 0. -1.
</event>
<event>
 4    1  0.8391192E+003  0.4120870E+02  0.7546771E-02  0.1341545E+00
          2   -1    0    0  501    0  0.00000000000E+00  0.00000000000E+00  0.55532487965E+03  0.55532487965E+03  0.00000000000E+00 0. -1.
          2   -1    0    0  502    0 -0.00000000000E+00 -0.00000000000E+00 -0.13031892077E+02  0.13031892077E+02  0.00000000000E+00 0. -1.
          2    1    1    2  501    0  0.12909857076E+02  0.39134291093E+02  0.22535304879E+02  0.46968043552E+02  0.00000000000E+00 0. -1.
          2    1    1    2  502    0 -0.12909857076E+02 -0.39134291093E+02  0.51975768270E+03  0.52138872818E+03  0.00000000000E+00 0. -1.
</event>
<event>
 4    1  0.8391192E+003  0.3191825E+02  0.7546771E-02  0.1403628E+00
          2   -1    0    0  501    0  0.00000000000E+00  0.00000000000E+00  0.95090181268E+03  0.95090181268E+03  0.00000000000E+00 0. -1.
          2   -1    0    0  502    0 -0.00000000000E+00 -0.00000000000E+00 -0.73590758721E+02  0.73590758721E+02  0.00000000000E+00 0.  1.
          2    1    1    2  501    0  0.12274164232E+02 -0.29463868965E+02 -0.69848296814E+02  0.76795567904E+02  0.00000000000E+00 0.  1.
          2    1    1    2  502    0 -0.12274164232E+02  0.29463868965E+02  0.94715935077E+03  0.94769700350E+03  0.00000000000E+00 0. -1.
</event>
<event>
 4    1  0.8391192E+003  0.2130891E+02  0.7546771E-02  0.1514900E+00
          2   -1    0    0  501    0  0.00000000000E+00  0.00000000000E+00  0.82416364278E+03  0.82416364278E+03  0.00000000000E+00 0. -1.
          2   -1    0    0  502    0 -0.00000000000E+00 -0.00000000000E+00 -0.22811604147E+02  0.22811604147E+02  0.00000000000E+00 0. -1.
          2    1    1    2  501    0 -0.91572016411E+01  0.19240976904E+02 -0.17666310616E+02  0.27679741055E+02  0.00000000000E+00 0. -1.
          2    1    1    2  502    0  0.91572016411E+01 -0.19240976904E+02  0.81901834925E+03  0.81929550587E+03  0.00000000000E+00 0. -1.
</event>
<event>
 4    1  0.8391192E+003  0.3128941E+02  0.7546771E-02  0.1408713E+00
          2   -1    0    0  501    0  0.00000000000E+00  0.00000000000E+00  0.32205811669E+01  0.32205811669E+01  0.00000000000E+00 0. -1.
          2   -1    0    0  502    0 -0.00000000000E+00 -0.00000000000E+00 -0.31916247927E+03  0.31916247927E+03  0.00000000000E+00 0. -1.
          2    1    1    2  501    0 -0.89916632507E+01 -0.29969604334E+02 -0.19311505328E+03  0.19563346083E+03  0.00000000000E+00 0. -1.
          2    1    1    2  502    0  0.89916632507E+01  0.29969604334E+02 -0.12282684482E+03  0.12674959961E+03  0.00000000000E+00 0. -1.
</event>
<event>
 4    1  0.8391192E+003  0.4703639E+02  0.7546771E-02  0.1311560E+00
          2   -1    0    0  502    0  0.00000000000E+00  0.00000000000E+00  0.31672262953E+01  0.31672262953E+01  0.00000000000E+00 0.  1.
          2   -1    0    0  501    0 -0.00000000000E+00 -0.00000000000E+00 -0.13980387578E+04  0.13980387578E+04  0.00000000000E+00 0. -1.
          2    1    1    2  501    0 -0.46326994994E+02  0.81382495486E+01 -0.20186337949E+03  0.20727094719E+03  0.00000000000E+00 0.  1.
          2    1    1    2  502    0  0.46326994994E+02 -0.81382495486E+01 -0.11930081521E+04  0.11939350369E+04  0.00000000000E+00 0. -1.
</event>
<event>
 4    1  0.8391192E+003  0.2373586E+02  0.7546771E-02  0.1483459E+00
          2   -1    0    0  501    0  0.00000000000E+00  0.00000000000E+00  0.47815079172E+01  0.47815079172E+01  0.00000000000E+00 0. -1.
          2   -1    0    0  502    0 -0.00000000000E+00 -0.00000000000E+00 -0.14140090647E+04  0.14140090647E+04  0.00000000000E+00 0.  1.
          2    1    1    2  501    0  0.17845921951E+02  0.15649734279E+02 -0.13838098921E+04  0.13840134423E+04  0.00000000000E+00 0.  1.
          2    1    1    2  502    0 -0.17845921951E+02 -0.15649734279E+02 -0.25417664744E+02  0.34777130335E+02  0.00000000000E+00 0. -1.
</event>
<event>
 4    1  0.8391192E+003  0.2036570E+02  0.7546771E-02  0.1528517E+00
          2   -1    0    0  502    0  0.00000000000E+00  0.00000000000E+00  0.10546049561E+03  0.10546049561E+03  0.00000000000E+00 0.  1.
          2   -1    0    0  501    0 -0.00000000000E+00 -0.00000000000E+00 -0.46292621222E+01  0.46292621222E+01  0.00000000000E+00 0.  1.
          2    1    1    2  501    0 -0.17375785411E+02  0.10622804360E+02  0.71765205841E+02  0.74598972248E+02  0.00000000000E+00 0.  1.
          2    1    1    2  502    0  0.17375785411E+02 -0.10622804360E+02  0.29066027650E+02  0.35490785487E+02  0.00000000000E+00 0.  1.
</event>
<event>
 4    1  0.8391192E+003  0.2905596E+02  0.7546771E-02  0.1427981E+00
          2   -1    0    0  501    0  0.00000000000E+00  0.00000000000E+00  0.58480772488E+01  0.58480772488E+01  0.00000000000E+00 0. -1.
          2   -1    0    0  502    0 -0.00000000000E+00 -0.00000000000E+00 -0.10888172961E+04  0.10888172961E+04  0.00000000000E+00 0. -1.
          2    1    1    2  501    0  0.98753048118E+01 -0.27326312420E+02 -0.10512428251E+04  0.10516442965E+04  0.00000000000E+00 0. -1.
          2    1    1    2  502    0 -0.98753048118E+01  0.27326312420E+02 -0.31726393802E+02  0.43021076919E+02  0.00000000000E+00 0. -1.
</event>
<event>
 4    1  0.8391192E+003  0.3333407E+02  0.7546771E-02  0.1392669E+00
          2   -1    0    0  502    0  0.00000000000E+00  0.00000000000E+00  0.64240578865E+01  0.64240578865E+01  0.00000000000E+00 0.  1.
          2   -1    0    0  501    0 -0.00000000000E+00 -0.00000000000E+00 -0.17312090413E+03  0.17312090413E+03  0.00000000000E+00 0.  1.
          2    1    1    2  501    0 -0.22546536867E+02 -0.24552266999E+02 -0.80685493439E+02  0.87300108769E+02  0.00000000000E+00 0.  1.
          2    1    1    2  502    0  0.22546536867E+02  0.24552266999E+02 -0.86011352804E+02  0.92244853248E+02  0.00000000000E+00 0.  1.
</event>
<event>
 4    1  0.8391192E+003  0.2607538E+02  0.7546771E-02  0.1457124E+00
          2   -1    0    0  501    0  0.00000000000E+00  0.00000000000E+00  0.10094771430E+04  0.10094771430E+04  0.00000000000E+00 0.  1.
          2   -1    0    0  502    0 -0.00000000000E+00 -0.00000000000E+00 -0.37607950869E+01  0.37607950869E+01  0.00000000000E+00 0.  1.
          2    1    1    2  501    0  0.15513251624E+02 -0.20958631021E+02  0.43842270648E+02  0.51010487998E+02  0.00000000000E+00 0.  1.
          2    1    1    2  502    0 -0.15513251624E+02  0.20958631021E+02  0.96187407731E+03  0.96222745013E+03  0.00000000000E+00 0.  1.
</event>
<event>
 4    1  0.8391192E+003  0.2024434E+02  0.7546771E-02  0.1530333E+00
          2   -1    0    0  501    0  0.00000000000E+00  0.00000000000E+00  0.25210524306E+01  0.25210524306E+01  0.00000000000E+00 0. -1.
          2   -1    0    0  502    0 -0.00000000000E+00 -0.00000000000E+00 -0.19225169559E+03  0.19225169559E+03  0.00000000000E+00 0.  1.
          2    1    1    2  501    0  0.18244722945E+02 -0.87728721713E+01 -0.13313448166E+03  0.13466485587E+03  0.00000000000E+00 0.  1.
          2    1    1    2  502    0 -0.18244722945E+02  0.87728721713E+01 -0.56596161500E+02  0.60107892145E+02  0.00000000000E+00 0. -1.
</event>
<event>
 4    1  0.8391192E+003  0.2506007E+02  0.7546771E-02  0.1468132E+00
          2   -1    0    0  502    0  0.00000000000E+00  0.00000000000E+00  0.25205306929E+02  0.25205306929E+02  0.00000000000E+00 0. -1.
          2   -1    0    0  501    0 -0.00000000000E+00 -0.00000000000E+00 -0.62173076525E+02  0.62173076525E+02  0.00000000000E+00 0. -1.
          2    1    1    2  501    0  0.14025908925E+02 -0.20767303941E+02 -0.52304317425E+02  0.57997833196E+02  0.00000000000E+00 0. -1.
          2    1    1    2  502    0 -0.14025908925E+02  0.20767303941E+02  0.15336547829E+02  0.29380550258E+02  0.00000000000E+00 0. -1.
</event>
<event>
 4    1  0.8391192E+003  0.4585236E+02  0.7546771E-02  0.1317231E+00
          2   -1    0    0  502    0  0.00000000000E+00  0.00000000000E+00  0.41061600800E+02  0.41061600800E+02  0.00000000000E+00 0.  1.
          2   -1    0    0  501    0 -0.00000000000E+00 -0.00000000000E+00 -0.18375363934E+03  0.18375363934E+03  0.00000000000E+00 0. -1.
          2    1    1    2  501    0 -0.37257449976E+02  0.26726785357E+02  0.24124707390E+02  0.51811583076E+02  0.00000000000E+00 0.  1.
          2    1    1    2  502    0  0.37257449976E+02 -0.26726785357E+02 -0.16681674593E+03  0.17300365706E+03  0.00000000000E+00 0. -1.
</event>
<event>
 4    1  0.8391192E+003  0.2394807E+02  0.7546771E-02  0.1480924E+00
          2   -1    0    0  502    0  0.00000000000E+00  0.00000000000E+00  0.28562063142E+04  0.28562063142E+04  0.00000000000E+00 0. -1.
          2   -1    0    0  501    0 -0.00000000000E+00 -0.00000000000E+00 -0.20918711182E+00  0.20918711182E+00  0.00000000000E+00 0. -1.
          2    1    1    2  501    0  0.22063806463E+02  0.93112021503E+01  0.17140715293E+04  0.17142388158E+04  0.00000000000E+00 0. -1.
          2    1    1    2  502    0 -0.22063806463E+02 -0.93112021503E+01  0.11419255978E+04  0.11421766855E+04  0.00000000000E+00 0. -1.
</event>
<event>
 4    1  0.8391192E+003  0.2580244E+02  0.7546771E-02  0.1460023E+00
          2   -1    0    0  501    0  0.00000000000E+00  0.00000000000E+00  0.16840251572E+04  0.16840251572E+04  0.00000000000E+00 0.  1.
          2   -1    0    0  502    0 -0.00000000000E+00 -0.00000000000E+00 -0.40573938121E+02  0.40573938121E+02  0.00000000000E+00 0. -1.
          2    1    1    2  501    0  0.23590931908E+02 -0.10451491009E+02 -0.36362643139E+02  0.44587078270E+02  0.00000000000E+00 0. -1.
          2    1    1    2  502    0 -0.23590931908E+02  0.10451491009E+02  0.16798138622E+04  0.16800120171E+04  0.00000000000E+00 0.  1.
</event>
<event>
 4    1  0.8391192E+003  0.4800642E+02  0.7546771E-02  0.1307055E+00
          2   -1    0    0  501    0  0.00000000000E+00  0.00000000000E+00  0.19963410327E+01  0.19963410327E+01  0.00000000000E+00 0. -1.
          2   -1    0    0  502    0 -0.00000000000E+00 -0.00000000000E+00 -0.11975032923E+04  0.11975032923E+04  0.00000000000E+00 0. -1.
          2    1    1    2  501    0  0.22236728406E+02  0.42545786192E+02 -0.48399435852E+03  0.48636936076E+03  0.00000000000E+00 0. -1.
          2    1    1    2  502    0 -0.22236728406E+02 -0.42545786192E+02 -0.71151259280E+03  0.71313027262E+03  0.00000000000E+00 0. -1.
</event>
<event>
 4    1  0.8391192E+003  0.6431196E+02  0.7546771E-02  0.1245846E+00
          2   -1    0    0  501    0  0.00000000000E+00  0.00000000000E+00  0.51420694548E+03  0.51420694548E+03  0.00000000000E+00 0. -1.
          2   -1    0    0  502    0 -0.00000000000E+00 -0.00000000000E+00 -0.56265323581E+02  0.56265323581E+02  0.00000000000E+00 0.  1.
          2    1    1    2  501    0  0.80661063044E+01 -0.63804125409E+02 -0.35091186268E+02  0.73262677018E+02  0.00000000000E+00 0.  1.
          2    1    1    2  502    0 -0.80661063044E+01  0.63804125409E+02  0.49303280817E+03  0.49720959204E+03  0.00000000000E+00 0. -1.
</event>
<event>
 4    1  0.8391192E+003  0.2319704E+02  0.7546771E-02  0.1490039E+00
          2   -1    0    0  501    0  0.00000000000E+00  0.00000000000E+00  0.25225967288E+03  0.25225967288E+03  0.00000000000E+00 0.  1.
          2   -1    0    0  502    0 -0.00000000000E+00 -0.00000000000E+00 -0.34629288119E+01  0.34629288119E+01  0.00000000000E+00 0.  1.
          2    1    1    2  501    0 -0.22777174295E+02 -0.43935058511E+01  0.45164591086E+02  0.50773446313E+02  0.00000000000E+00 0.  1.
          2    1    1    2  502    0  0.22777174295E+02  0.43935058511E+01  0.20363215298E+03  0.20494915538E+03  0.00000000000E+00 0.  1.
</event>
<event>
 4    1  0.8391192E+003  0.3501604E+02  0.7546771E-02  0.1380450E+00
          2   -1    0    0  501    0  0.00000000000E+00  0.00000000000E+00  0.23199575374E+02  0.23199575374E+02  0.00000000000E+00 0.  1.
          2   -1    0    0  502    0 -0.00000000000E+00 -0.00000000000E+00 -0.52140510658E+03  0.52140510658E+03  0.00000000000E+00 0.  1.
          2    1    1    2  501    0 -0.29537582882E+02 -0.18805691102E+02 -0.50723578887E+03  0.50844298435E+03  0.00000000000E+00 0.  1.
          2    1    1    2  502    0  0.29537582882E+02  0.18805691102E+02  0.90302576644E+01  0.36161697607E+02  0.00000000000E+00 0.  1.
</event>
<event>
 4    1  0.8391192E+003  0.2474938E+02  0.7546771E-02  0.1471627E+00
          2   -1    0    0  501    0  0.00000000000E+00  0.00000000000E+00  0.83554696833E+01  0.83554696833E+01  0.00000000000E+00 0.  1.
          2   -1    0    0  502    0 -0.00000000000E+00 -0.00000000000E+00 -0.11470024166E+04  0.11470024166E+04  0.00000000000E+00 0.  1.
          2    1    1    2  501    0  0.18631777497E+02 -0.16290756849E+02 -0.11282368421E+04  0.11285082648E+04  0.00000000000E+00 0.  1.
          2    1    1    2  502    0 -0.18631777497E+02  0.16290756849E+02 -0.10410104845E+02  0.26849621493E+02  0.00000000000E+00 0.  1.
</event>
<event>
 4    1  0.8391192E+003  0.2264100E+02  0.7546771E-02  0.1497056E+00
          2   -1    0    0  501    0  0.00000000000E+00  0.00000000000E+00  0.57676371023E+03  0.57676371023E+03  0.00000000000E+00 0.  1.
          2   -1    0    0  502    0 -0.00000000000E+00 -0.00000000000E+00 -0.11681891630E+02  0.11681891630E+02  0.00000000000E+00 0. -1.
          2    1    1    2  501    0 -0.17849946786E+02  0.13928181491E+02 -0.26801874500E+00  0.22642585408E+02  0.00000000000E+00 0. -1.
          2    1    1    2  502    0  0.17849946786E+02 -0.13928181491E+02  0.56534983734E+03  0.56580301645E+03  0.00000000000E+00 0.  1.
</event>
<event>
 4    1  0.8391192E+003  0.2138875E+02  0.7546771E-02  0.1513786E+00
          2   -1    0    0  502    0  0.00000000000E+00  0.00000000000E+00  0.14541072433E+04  0.14541072433E+04  0.00000000000E+00 0.  1.
          2   -1    0    0  501    0 -0.00000000000E+00 -0.00000000000E+00 -0.40048443418E+00  0.40048443418E+00  0.00000000000E+00 0.  1.
          2    1    1    2  501    0  0.30951646986E+01  0.21163613214E+02  0.10636144460E+04  0.10638294827E+04  0.00000000000E+00 0.  1.
          2    1    1    2  502    0 -0.30951646986E+01 -0.21163613214E+02  0.39009231290E+03  0.39067824504E+03  0.00000000000E+00 0.  1.
</event>
<event>
 4    1  0.8391192E+003  0.2423504E+02  0.7546771E-02  0.1477546E+00
          2   -1    0    0  502    0  0.00000000000E+00  0.00000000000E+00  0.12326695145E+02  0.12326695145E+02  0.00000000000E+00 0. -1.
          2   -1    0    0  501    0 -0.00000000000E+00 -0.00000000000E+00 -0.78131449379E+03  0.78131449379E+03  0.00000000000E+00 0. -1.
          2    1    1    2  501    0  0.22114491202E+02  0.99139494806E+01  0.36546896915E-01  0.24235066559E+02  0.00000000000E+00 0. -1.
          2    1    1    2  502    0 -0.22114491202E+02 -0.99139494806E+01 -0.76902434554E+03  0.76940612237E+03  0.00000000000E+00 0. -1.
</event>
<event>
 4    1  0.8391192E+003  0.2241732E+02  0.7546771E-02  0.1499947E+00
          2   -1    0    0  501    0  0.00000000000E+00  0.00000000000E+00  0.19532209210E+03  0.19532209210E+03  0.00000000000E+00 0. -1.
          2   -1    0    0  502    0 -0.00000000000E+00 -0.00000000000E+00 -0.15795476740E+02  0.15795476740E+02  0.00000000000E+00 0.  1.
          2    1    1    2  501    0 -0.22417318626E+02 -0.26363892761E-02 -0.68165885486E+01  0.23430793003E+02  0.00000000000E+00 0.  1.
          2    1    1    2  502    0  0.22417318626E+02  0.26363892761E-02  0.18634320391E+03  0.18768677583E+03  0.00000000000E+00 0. -1.
</event>
<event>
 4    1  0.8391192E+003  0.6655671E+02  0.7546771E-02  0.1239047E+00
          2   -1    0    0  501    0  0.00000000000E+00  0.00000000000E+00  0.17101913007E+04  0.17101913007E+04  0.00000000000E+00 0. -1.
          2   -1    0    0  502    0 -0.00000000000E+00 -0.00000000000E+00 -0.24926593545E+03  0.24926593545E+03  0.00000000000E+00 0. -1.
          2    1    1    2  501    0 -0.47938944389E+02  0.46169826778E+02 -0.24416224307E+03  0.25307112881E+03  0.00000000000E+00 0. -1.
          2    1    1    2  502    0  0.47938944389E+02 -0.46169826778E+02  0.17050876083E+04  0.17063861073E+04  0.00000000000E+00 0. -1.
</event>
<event>
 4    1  0.8391192E+003  0.2625898E+02  0.7546771E-02  0.1455197E+00
          2   -1    0    0  502    0  0.00000000000E+00  0.00000000000E+00  0.21067802850E+03  0.21067802850E+03  0.00000000000E+00 0. -1.
          2   -1    0    0  501    0 -0.00000000000E+00 -0.00000000000E+00 -0.11637465352E+03  0.11637465352E+03  0.00000000000E+00 0.  1.
          2    1    1    2  501    0 -0.92936973098E+01 -0.24559336479E+02  0.20836211734E+03  0.21001025156E+03  0.00000000000E+00 0. -1.
          2    1    1    2  502    0  0.92936973098E+01  0.24559336479E+02 -0.11405874236E+03  0.11704243046E+03  0.00000000000E+00 0.  1.
</event>
<event>
 4    1  0.8391192E+003  0.2180750E+02  0.7546771E-02  0.1508041E+00
          2   -1    0    0  501    0  0.00000000000E+00  0.00000000000E+00  0.79139836486E+03  0.79139836486E+03  0.00000000000E+00 0.  1.
          2   -1    0    0  502    0 -0.00000000000E+00 -0.00000000000E+00 -0.24012272435E+01  0.24012272435E+01  0.00000000000E+00 0. -1.
          2    1    1    2  501    0 -0.28779529026E+01  0.21616765769E+02  0.50831792987E+02  0.55312189918E+02  0.00000000000E+00 0. -1.
          2    1    1    2  502    0  0.28779529026E+01 -0.21616765769E+02  0.73816534463E+03  0.73848740219E+03  0.00000000000E+00 0.  1.
</event>
<event>
 4    1  0.8391192E+003  0.2114660E+02  0.7546771E-02  0.1517182E+00
          2   -1    0    0  501    0  0.00000000000E+00  0.00000000000E+00  0.59827658682E+02  0.59827658682E+02  0.00000000000E+00 0.  1.
          2   -1    0    0  502    0 -0.00000000000E+00 -0.00000000000E+00 -0.74422297956E+02  0.74422297956E+02  0.00000000000E+00 0. -1.
          2    1    1    2  501    0  0.16288395845E+02  0.13485807532E+02 -0.70962347153E+02  0.74046158289E+02  0.00000000000E+00 0. -1.
          2    1    1    2  502    0 -0.16288395845E+02 -0.13485807532E+02  0.56367707879E+02  0.60203798348E+02  0.00000000000E+00 0.  1.
</event>
<event>
 4    1  0.8391192E+003  0.4345601E+02  0.7546771E-02  0.1329343E+00
          2   -1    0    0  501    0  0.00000000000E+00  0.00000000000E+00  0.12366894800E+03  0.12366894800E+03  0.00000000000E+00 0. -1.
          2   -1    0    0  502    0 -0.00000000000E+00 -0.00000000000E+00 -0.23059226048E+03  0.23059226048E+03  0.00000000000E+00 0. -1.
          2    1    1    2  501    0  0.43002242109E+02  0.62635424081E+01 -0.22462694866E+03  0.22879180679E+03  0.00000000000E+00 0. -1.
          2    1    1    2  502    0 -0.43002242109E+02 -0.62635424081E+01  0.11770363618E+03  0.12546940169E+03  0.00000000000E+00 0. -1.
</event>
<event>
 4    1  0.8391192E+003  0.2390484E+02  0.7546771E-02  0.1481438E+00
          2   -1    0    0  502    0  0.00000000000E+00  0.00000000000E+00  0.44923671245E+02  0.44923671245E+02  0.00000000000E+00 0. -1.
          2   -1    0    0  501    0 -0.00000000000E+00 -0.00000000000E+00 -0.13183382724E+03  0.13183382724E+03  0.00000000000E+00 0.  1.
          2    1    1    2  501    0  0.99193708321E+01 -0.21749658889E+02  0.40551830754E+02  0.47073267966E+02  0.00000000000E+00 0. -1.
          2    1    1    2  502    0 -0.99193708321E+01  0.21749658889E+02 -0.12746198675E+03  0.12968423052E+03  0.00000000000E+00 0.  1.
</event>
<event>
 4    1  0.8391192E+003  0.2908573E+02  0.7546771E-02  0.1427711E+00
          2   -1    0    0  502    0  0.00000000000E+00  0.00000000000E+00  0.69702504738E+03  0.69702504738E+03  0.00000000000E+00 0. -1.
          2   -1    0    0  501    0 -0.00000000000E+00 -0.00000000000E+00 -0.22348362771E+01  0.22348362771E+01  0.00000000000E+00 0. -1.
          2    1    1    2  501    0  0.12250592566E+02  0.26379964574E+02  0.58372983083E+03  0.58445401440E+03  0.00000000000E+00 0. -1.
          2    1    1    2  502    0 -0.12250592566E+02 -0.26379964574E+02  0.11106038027E+03  0.11480586925E+03  0.00000000000E+00 0. -1.
</event>
<event>
 4    1  0.8391192E+003  0.2032168E+02  0.7546771E-02  0.1529174E+00
          2   -1    0    0  502    0  0.00000000000E+00  0.00000000000E+00  0.11818797499E+04  0.11818797499E+04  0.00000000000E+00 0.  1.
          2   -1    0    0  501    0 -0.00000000000E+00 -0.00000000000E+00 -0.54799889907E+03  0.54799889907E+03  0.00000000000E+00 0. -1.
          2    1    1    2  501    0  0.18203762437E+02  0.90329211279E+01  0.11816039519E+04  0.11817786890E+04  0.00000000000E+00 0.  1.
          2    1    1    2  502    0 -0.18203762437E+02 -0.90329211279E+01 -0.54772310109E+03  0.54809995995E+03  0.00000000000E+00 0. -1.
</event>
<event>
 4    1  0.8391192E+003  0.2766468E+02  0.7546771E-02  0.1441043E+00
          2   -1    0    0  502    0  0.00000000000E+00  0.00000000000E+00  0.94525166799E+03  0.94525166799E+03  0.00000000000E+00 0. -1.
          2   -1    0    0  501    0 -0.00000000000E+00 -0.00000000000E+00 -0.13708144462E+02  0.13708144462E+02  0.00000000000E+00 0.  1.
          2    1    1    2  501    0 -0.17588421568E+01 -0.27608710805E+02  0.93087609180E+03  0.93128708395E+03  0.00000000000E+00 0. -1.
          2    1    1    2  502    0  0.17588421568E+01  0.27608710805E+02  0.66743172985E+00  0.27672728510E+02  0.00000000000E+00 0.  1.
</event>
<event>
 4    1  0.8391192E+003  0.3184653E+02  0.7546771E-02  0.1404201E+00
          2   -1    0    0  502    0  0.00000000000E+00  0.00000000000E+00  0.21942863955E+02  0.21942863955E+02  0.00000000000E+00 0. -1.
          2   -1    0    0  501    0 -0.00000000000E+00 -0.00000000000E+00 -0.37490239453E+03  0.37490239453E+03  0.00000000000E+00 0.  1.
          2    1    1    2  501    0  0.14507773886E+01  0.31813465798E+02  0.93093420658E+01  0.33179288884E+02  0.00000000000E+00 0. -1.
          2    1    1    2  502    0 -0.14507773886E+01 -0.31813465798E+02 -0.36226887264E+03  0.36366596960E+03  0.00000000000E+00 0.  1.
</event>
<event>
 4    1  0.8391192E+003  0.3960754E+02  0.7546771E-02  0.1350801E+00
          2   -1    0    0  502    0  0.00000000000E+00  0.00000000000E+00  0.48670215355E+02  0.48670215355E+02  0.00000000000E+00 0. -1.
          2   -1    0    0  501    0 -0.00000000000E+00 -0.00000000000E+00 -0.91531061197E+03  0.91531061197E+03  0.00000000000E+00 0.  1.
          2    1    1    2  501    0 -0.29752477392E+02  0.26144743957E+02  0.40107581831E+02  0.56368215049E+02  0.00000000000E+00 0. -1.
          2    1    1    2  502    0  0.29752477392E+02 -0.26144743957E+02 -0.90674797845E+03  0.90761261228E+03  0.00000000000E+00 0.  1.
</event>
<event>
 4    1  0.8391192E+003  0.2654162E+02  0.7546771E-02  0.1452268E+00
          2   -1    0    0  501    0  0.00000000000E+00  0.00000000000E+00  0.81057678835E+03  0.81057678835E+03  0.00000000000E+00 0. -1.
          2   -1    0    0  502    0 -0.00000000000E+00 -0.00000000000E+00 -0.27343605597E+02  0.27343605597E+02  0.00000000000E+00 0. -1.
          2    1    1    2  501    0  0.33345720207E+01  0.26331317909E+02 -0.20631782876E+02  0.33617378512E+02  0.00000000000E+00 0. -1.
          2    1    1    2  502    0 -0.33345720207E+01 -0.26331317909E+02  0.80386496562E+03  0.80430301543E+03  0.00000000000E+00 0. -1.
</event>
<event>
 4    1  0.8391192E+003  0.2287942E+02  0.7546771E-02  0.1494018E+00
          2   -1    0    0  502    0  0.00000000000E+00  0.00000000000E+00  0.52906272569E+01  0.52906272569E+01  0.00000000000E+00 0. -1.
          2   -1    0    0  501    0 -0.00000000000E+00 -0.00000000000E+00 -0.10092067810E+03  0.10092067810E+03  0.00000000000E+00 0. -1.
          2    1    1    2  501    0  0.19789170866E+02 -0.11482891026E+02 -0.40380049287E+02  0.46411382766E+02  0.00000000000E+00 0. -1.
          2    1    1    2  502    0 -0.19789170866E+02  0.11482891026E+02 -0.55250001557E+02  0.59799922591E+02  0.00000000000E+00 0. -1.
</event>
<event>
 4    1  0.8391192E+003  0.2908829E+02  0.7546771E-02  0.1427688E+00
          2   -1    0    0  501    0  0.00000000000E+00  0.00000000000E+00  0.54232231819E+03  0.54232231819E+03  0.00000000000E+00 0.  1.
          2   -1    0    0  502    0 -0.00000000000E+00 -0.00000000000E+00 -0.70412701024E+03  0.70412701024E+03  0.00000000000E+00 0.  1.
          2    1    1    2  501    0  0.19289106744E+02 -0.21772898128E+02 -0.70343616086E+03  0.70403732936E+03  0.00000000000E+00 0.  1.
          2    1    1    2  502    0 -0.19289106744E+02  0.21772898128E+02  0.54163146880E+03  0.54241199906E+03  0.00000000000E+00 0.  1.
</event>
<event>
 4    1  0.8391192E+003  0.2267012E+02  0.7546771E-02  0.1496683E+00
          2   -1    0    0  501    0  0.00000000000E+00  0.00000000000E+00  0.50830659996E+02  0.50830659996E+02  0.00000000000E+00 0. -1.
          2   -1    0    0  502    0 -0.00000000000E+00 -0.00000000000E+00 -0.89792553771E+02  0.89792553771E+02  0.00000000000E+00 0.  1.
          2    1    1    2  501    0 -0.22481430794E+02 -0.29188502551E+01 -0.85715792742E+02  0.88663022409E+02  0.00000000000E+00 0.  1.
          2    1    1    2  502    0  0.22481430794E+02  0.29188502551E+01  0.46753898967E+02  0.51960191358E+02  0.00000000000E+00 0. -1.
</event>
<event>
 4    1  0.8391192E+003  0.5036844E+02  0.7546771E-02  0.1296583E+00
          2   -1    0    0  501    0  0.00000000000E+00  0.00000000000E+00  0.83544834953E+01  0.83544834953E+01  0.00000000000E+00 0.  1.
          2   -1    0    0  502    0 -0.00000000000E+00 -0.00000000000E+00 -0.31711891650E+03  0.31711891650E+03  0.00000000000E+00 0. -1.
          2    1    1    2  501    0  0.60440051669E+01  0.50004498387E+02 -0.18789948381E+03  0.19453327703E+03  0.00000000000E+00 0. -1.
          2    1    1    2  502    0 -0.60440051669E+01 -0.50004498387E+02 -0.12086494920E+03  0.13094012296E+03  0.00000000000E+00 0.  1.
</event>
<event>
 4    1  0.8391192E+003  0.4554974E+02  0.7546771E-02  0.1318713E+00
          2   -1    0    0  502    0  0.00000000000E+00  0.00000000000E+00  0.40306169335E+03  0.40306169335E+03  0.00000000000E+00 0.  1.
          2   -1    0    0  501    0 -0.00000000000E+00 -0.00000000000E+00 -0.12423703655E+04  0.12423703655E+04  0.00000000000E+00 0. -1.
          2    1    1    2  501    0 -0.23320424730E+02 -0.39127183733E+02  0.40135553359E+03  0.40393197826E+03  0.00000000000E+00 0.  1.
          2    1    1    2  502    0  0.23320424730E+02  0.39127183733E+02 -0.12406642058E+04  0.12415000806E+04  0.00000000000E+00 0. -1.
</event>
<event>
 4    1  0.8391192E+003  0.3053357E+02  0.7546771E-02  0.1415015E+00
          2   -1    0    0  501    0  0.00000000000E+00  0.00000000000E+00  0.14685000451E+02  0.14685000451E+02  0.00000000000E+00 0.  1.
          2   -1    0    0  502    0 -0.00000000000E+00 -0.00000000000E+00 -0.73843379568E+03  0.73843379568E+03  0.00000000000E+00 0. -1.
          2    1    1    2  501    0 -0.29064299845E+02 -0.93576524015E+01 -0.72188280380E+03  0.72252825661E+03  0.00000000000E+00 0. -1.
          2    1    1    2  502    0  0.29064299845E+02  0.93576524015E+01 -0.18659914293E+01  0.30590539517E+02  0.00000000000E+00 0.  1.
</event>
<event>
 4    1  0.8391192E+003  0.2245856E+02  0.7546771E-02  0.1499411E+00
          2   -1    0    0  502    0  0.00000000000E+00  0.00000000000E+00  0.17131798040E+03  0.17131798040E+03  0.00000000000E+00 0.  1.
          2   -1    0    0  501    0 -0.00000000000E+00 -0.00000000000E+00 -0.10922453569E+02  0.10922453569E+02  0.00000000000E+00 0.  1.
          2    1    1    2  501    0 -0.15658653057E+01 -0.22403904099E+02  0.15807486110E+03  0.15966229538E+03  0.00000000000E+00 0.  1.
          2    1    1    2  502    0  0.15658653057E+01  0.22403904099E+02  0.23206657352E+01  0.22578138596E+02  0.00000000000E+00 0.  1.
</event>
<event>
 4    1  0.8391192E+003  0.2710107E+02  0.7546771E-02  0.1446595E+00
          2   -1    0    0  501    0  0.00000000000E+00  0.00000000000E+00  0.64138233936E+02  0.64138233936E+02  0.00000000000E+00 0.  1.
          2   -1    0    0  502    0 -0.00000000000E+00 -0.00000000000E+00 -0.45605306714E+03  0.45605306714E+03  0.00000000000E+00 0. -1.
          2    1    1    2  501    0 -0.90473165708E+01  0.25546315688E+02 -0.45276685207E+03  0.45357721560E+03  0.00000000000E+00 0. -1.
          2    1    1    2  502    0  0.90473165708E+01 -0.25546315688E+02  0.60852018869E+02  0.66614085469E+02  0.00000000000E+00 0.  1.
</event>
<event>
 4    1  0.8391192E+003  0.2156079E+02  0.7546771E-02  0.1511407E+00
          2   -1    0    0  502    0  0.00000000000E+00  0.00000000000E+00  0.33620944008E+03  0.33620944008E+03  0.00000000000E+00 0. -1.
          2   -1    0    0  501    0 -0.00000000000E+00 -0.00000000000E+00 -0.20128972779E+01  0.20128972779E+01  0.00000000000E+00 0.  1.
          2    1    1    2  501    0 -0.19933689886E+02 -0.82168004233E+01  0.26172393987E+03  0.26261052626E+03  0.00000000000E+00 0. -1.
          2    1    1    2  502    0  0.19933689886E+02  0.82168004233E+01  0.72472602932E+02  0.75611811097E+02  0.00000000000E+00 0.  1.
</event>
<event>
 4    1  0.8391192E+003  0.2167664E+02  0.7546771E-02  0.1509819E+00
          2   -1    0    0  501    0  0.00000000000E+00  0.00000000000E+00  0.72606587258E+01  0.72606587258E+01  0.00000000000E+00 0.  1.
          2   -1    0    0  502    0 -0.00000000000E+00 -0.00000000000E+00 -0.50597159894E+03  0.50597159894E+03  0.00000000000E+00 0. -1.
          2    1    1    2  501    0 -0.75241919302E+01  0.20328879157E+02 -0.48899930720E+03  0.48947951871E+03  0.00000000000E+00 0. -1.
          2    1    1    2  502    0  0.75241919302E+01 -0.20328879157E+02 -0.97116330062E+01  0.23752738950E+02  0.00000000000E+00 0.  1.
</event>
<event>
 4    1  0.8391192E+003  0.3124677E+02  0.7546771E-02  0.1409063E+00
          2   -1    0    0  502    0  0.00000000000E+00  0.00000000000E+00  0.93661050420E+03  0.93661050420E+03  0.00000000000E+00 0. -1.
          2   -1    0    0  501    0 -0.00000000000E+00 -0.00000000000E+00 -0.16783988050E+01  0.16783988050E+01  0.00000000000E+00 0. -1.
          2    1    1    2  501    0  0.26083219621E+02 -0.17205423111E+02  0.75625013364E+03  0.75689538614E+03  0.00000000000E+00 0. -1.
          2    1    1    2  502    0 -0.26083219621E+02  0.17205423111E+02  0.17868197176E+03  0.18139351687E+03  0.00000000000E+00 0. -1.
</event>
<event>
 4    1  0.8391192E+003  0.2003280E+02  0.7546771E-02  0.1533535E+00
          2   -1    0    0  501    0  0.00000000000E+00  0.00000000000E+00  0.52519565141E+01  0.52519565141E+01  0.00000000000E+00 0.  1.
          2   -1    0    0  502    0 -0.00000000000E+00 -0.00000000000E+00 -0.80118477051E+03  0.80118477051E+03  0.00000000000E+00 0.  1.
          2    1    1    2  501    0 -0.84466716639E+01  0.18164991787E+02 -0.78147478436E+03  0.78173150875E+03  0.00000000000E+00 0.  1.
          2    1    1    2  502    0  0.84466716639E+01 -0.18164991787E+02 -0.14458029637E+02  0.24705218271E+02  0.00000000000E+00 0.  1.
</event>
<event>
 4    1  0.8391192E+003  0.2217037E+02  0.7546771E-02  0.1503187E+00
          2   -1    0    0  502    0  0.00000000000E+00  0.00000000000E+00  0.26959112724E+02  0.26959112724E+02  0.00000000000E+00 0. -1.
          2   -1    0    0  501    0 -0.00000000000E+00 -0.00000000000E+00 -0.30051664515E+02  0.30051664515E+02  0.00000000000E+00 0. -1.
          2    1    1    2  501    0 -0.15019226122E+02 -0.16307915462E+02  0.16330561827E+02  0.27535658874E+02  0.00000000000E+00 0. -1.
          2    1    1    2  502    0  0.15019226122E+02  0.16307915462E+02 -0.19423113618E+02  0.29475118365E+02  0.00000000000E+00 0. -1.
</event>
<event>
 4    1  0.8391192E+003  0.3255481E+02  0.7546771E-02  0.1398620E+00
          2   -1    0    0  502    0  0.00000000000E+00  0.00000000000E+00  0.60434615909E+01  0.60434615909E+01  0.00000000000E+00 0. -1.
          2   -1    0    0  501    0 -0.00000000000E+00 -0.00000000000E+00 -0.38765919464E+03  0.38765919464E+03  0.00000000000E+00 0.  1.
          2    1    1    2  501    0 -0.28488142945E+02 -0.15755680686E+02 -0.45133993701E+02  0.55649736295E+02  0.00000000000E+00 0. -1.
          2    1    1    2  502    0  0.28488142945E+02  0.15755680686E+02 -0.33648173934E+03  0.33805291993E+03  0.00000000000E+00 0.  1.
</event>
<event>
 4    1  0.8391192E+003  0.2476669E+02  0.7546771E-02  0.1471430E+00
          2   -1    0    0  502    0  0.00000000000E+00  0.00000000000E+00  0.67796669035E+02  0.67796669035E+02  0.00000000000E+00 0. -1.
          2   -1    0    0  501    0 -0.00000000000E+00 -0.00000000000E+00 -0.17579091657E+04  0.17579091657E+04  0.00000000000E+00 0. -1.
          2    1    1    2  501    0  0.23079537611E+02 -0.89846532905E+01  0.65444535765E+02  0.69974111731E+02  0.00000000000E+00 0. -1.
          2    1    1    2  502    0 -0.23079537611E+02  0.89846532905E+01 -0.17555570324E+04  0.17557317230E+04  0.00000000000E+00 0. -1.
</event>
<event>
 4    1  0.8391192E+003  0.2115045E+02  0.7546771E-02  0.1517128E+00
          2   -1    0    0  502    0  0.00000000000E+00  0.00000000000E+00  0.62991360532E+03  0.62991360532E+03  0.00000000000E+00 0.  1.
          2   -1    0    0  501    0 -0.00000000000E+00 -0.00000000000E+00 -0.77427774212E+00  0.77427774212E+00  0.00000000000E+00 0. -1.
          2    1    1    2  501    0  0.68835538057E+01 -0.19998957134E+02  0.40531276886E+03  0.40586424109E+03  0.00000000000E+00 0.  1.
          2    1    1    2  502    0 -0.68835538057E+01  0.19998957134E+02  0.22382655872E+03  0.22482364197E+03  0.00000000000E+00 0. -1.
</event>
<event>
 4    1  0.8391192E+003  0.3081169E+02  0.7546771E-02  0.1412671E+00
          2   -1    0    0  502    0  0.00000000000E+00  0.00000000000E+00  0.50499143815E+02  0.50499143815E+02  0.00000000000E+00 0.  1.
          2   -1    0    0  501    0 -0.00000000000E+00 -0.00000000000E+00 -0.11476002978E+04  0.11476002978E+04  0.00000000000E+00 0. -1.
          2    1    1    2  501    0 -0.28593978338E+02 -0.11477996741E+02  0.45572186775E+02  0.55010764526E+02  0.00000000000E+00 0.  1.
          2    1    1    2  502    0  0.28593978338E+02  0.11477996741E+02 -0.11426733408E+04  0.11430886771E+04  0.00000000000E+00 0. -1.
</event>
<event>
 4    1  0.8391192E+003  0.2354791E+02  0.7546771E-02  0.1485730E+00
          2   -1    0    0  502    0  0.00000000000E+00  0.00000000000E+00  0.40051752702E+02  0.40051752702E+02  0.00000000000E+00 0. -1.
          2   -1    0    0  501    0 -0.00000000000E+00 -0.00000000000E+00 -0.72490905415E+02  0.72490905415E+02  0.00000000000E+00 0. -1.
          2    1    1    2  501    0 -0.21525644865E+02  0.95472927608E+01  0.34393810357E+02  0.41682590812E+02  0.00000000000E+00 0. -1.
          2    1    1    2  502    0  0.21525644865E+02 -0.95472927608E+01 -0.66832963069E+02  0.70860067305E+02  0.00000000000E+00 0. -1.
</event>
<event>
 4    1  0.8391192E+003  0.2547679E+02  0.7546771E-02  0.1463540E+00
          2   -1    0    0  502    0  0.00000000000E+00  0.00000000000E+00  0.35053653105E+03  0.35053653105E+03  0.00000000000E+00 0.  1.
          2   -1    0    0  501    0 -0.00000000000E+00 -0.00000000000E+00 -0.22456908561E+02  0.22456908561E+02  0.00000000000E+00 0.  1.
          2    1    1    2  501    0 -0.38746789556E+01 -0.25180422772E+02  0.34268255115E+03  0.34362828419E+03  0.00000000000E+00 0.  1.
          2    1    1    2  502    0  0.38746789556E+01  0.25180422772E+02 -0.14602928659E+02  0.29365155430E+02  0.00000000000E+00 0.  1.
</event>
<event>
 4    1  0.8391192E+003  0.3129191E+02  0.7546771E-02  0.1408692E+00
          2   -1    0    0  502    0  0.00000000000E+00  0.00000000000E+00  0.15290260287E+03  0.15290260287E+03  0.00000000000E+00 0.  1.
          2   -1    0    0  501    0 -0.00000000000E+00 -0.00000000000E+00 -0.10826709142E+02  0.10826709142E+02  0.00000000000E+00 0. -1.
          2    1    1    2  501    0  0.18313707577E+02 -0.25373057283E+02  0.12336108604E+03  0.12726799075E+03  0.00000000000E+00 0.  1.
          2    1    1    2  502    0 -0.18313707577E+02  0.25373057283E+02  0.18714807686E+02  0.36461321258E+02  0.00000000000E+00 0. -1.
</event>
<event>
 4    1  0.8391192E+003  0.3251969E+02  0.7546771E-02  0.1398893E+00
          2   -1    0    0  501    0  0.00000000000E+00  0.00000000000E+00  0.47355495204E+02  0.47355495204E+02  0.00000000000E+00 0. -1.
          2   -1    0    0  502    0 -0.00000000000E+00 -0.00000000000E+00 -0.37036443435E+03  0.37036443435E+03  0.00000000000E+00 0.  1.
          2    1    1    2  501    0  0.14793639504E+02 -0.28959943219E+02 -0.36396976503E+03  0.36541964908E+03  0.00000000000E+00 0.  1.
          2    1    1    2  502    0 -0.14793639504E+02  0.28959943219E+02  0.40960825879E+02  0.52300280475E+02  0.00000000000E+00 0. -1.
</event>
<event>
 4    1  0.8391192E+003  0.3421878E+02  0.7546771E-02  0.1386140E+00
          2   -1    0    0  501    0  0.00000000000E+00  0.00000000000E+00  0.48667638037E+01  0.48667638037E+01  0.00000000000E+00 0.  1.
          2   -1    0    0  502    0 -0.00000000000E+00 -0.00000000000E+00 -0.81773397322E+03  0.81773397322E+03  0.00000000000E+00 0.  1.
          2    1    1    2  501    0 -0.34175900735E+02 -0.17125273914E+01 -0.75196922393E+03  0.75274739367E+03  0.00000000000E+00 0.  1.
          2    1    1    2  502    0  0.34175900735E+02  0.17125273914E+01 -0.60897985480E+02  0.69853343346E+02  0.00000000000E+00 0.  1.
</event>
<event>
 4    1  0.8391192E+003  0.2026707E+02  0.7546771E-02  0.1529991E+00
          2   -1    0    0  502    0  0.00000000000E+00  0.00000000000E+00  0.10762046392E+04  0.10762046392E+04  0.00000000000E+00 0. -1.
          2   -1    0    0  501    0 -0.00000000000E+00 -0.00000000000E+00 -0.40133296559E+00  0.40133296559E+00  0.00000000000E+00 0. -1.
          2    1    1    2  501    0 -0.48278197052E+01  0.19683654868E+02  0.65705554871E+03  0.65736804622E+03  0.00000000000E+00 0. -1.
          2    1    1    2  502    0  0.48278197052E+01 -0.19683654868E+02  0.41874775753E+03  0.41923792594E+03  0.00000000000E+00 0. -1.
</event>
<event>
 4    1  0.8391192E+003  0.2483595E+02  0.7546771E-02  0.1470647E+00
          2   -1    0    0  502    0  0.00000000000E+00  0.00000000000E+00  0.71480972713E+03  0.71480972713E+03  0.00000000000E+00 0.  1.
          2   -1    0    0  501    0 -0.00000000000E+00 -0.00000000000E+00 -0.84254442870E+02  0.84254442870E+02  0.00000000000E+00 0.  1.
          2    1    1    2  501    0  0.18133974490E+02  0.16970068578E+02  0.71275848874E+03  0.71319105962E+03  0.00000000000E+00 0.  1.
          2    1    1    2  502    0 -0.18133974490E+02 -0.16970068578E+02 -0.82203204481E+02  0.85873110374E+02  0.00000000000E+00 0.  1.
</event>
<event>
 4    1  0.8391192E+003  0.4472002E+02  0.7546771E-02  0.1322845E+00
          2   -1    0    0  502    0  0.00000000000E+00  0.00000000000E+00  0.29802186645E+02  0.29802186645E+02  0.00000000000E+00 0.  1.
          2   -1    0    0  501    0 -0.00000000000E+00 -0.00000000000E+00 -0.61657252211E+03  0.61657252211E+03  0.00000000000E+00 0.  1.
          2    1    1    2  501    0  0.53086088610E+01  0.44403812953E+02  0.11708528371E+02  0.46227368186E+02  0.00000000000E+00 0.  1.
          2    1    1    2  502    0 -0.53086088610E+01 -0.44403812953E+02 -0.59847886384E+03  0.60014734057E+03  0.00000000000E+00 0.  1.
</event>
<event>
 4    1  0.8391192E+003  0.2113570E+02  0.7546771E-02  0.1517336E+00
          2   -1    0    0  502    0  0.00000000000E+00  0.00000000000E+00  0.40630677770E+02  0.40630677770E+02  0.00000000000E+00 0.  1.
          2   -1    0    0  501    0 -0.00000000000E+00 -0.00000000000E+00 -0.14513724947E+04  0.14513724947E+04  0.00000000000E+00 0.  1.
          2    1    1    2  501    0  0.82580899205E+00  0.21119557069E+02  0.37799711221E+02  0.43307456860E+02  0.00000000000E+00 0.  1.
          2    1    1    2  502    0 -0.82580899205E+00 -0.21119557069E+02 -0.14485415281E+04  0.14486957156E+04  0.00000000000E+00 0.  1.
</event>
<event>
 4    1  0.8391192E+003  0.2421574E+02  0.7546771E-02  0.1477771E+00
          2   -1    0    0  501    0  0.00000000000E+00  0.00000000000E+00  0.10911581420E+02  0.10911581420E+02  0.00000000000E+00 0. -1.
          2   -1    0    0  502    0 -0.00000000000E+00 -0.00000000000E+00 -0.10649983158E+03  0.10649983158E+03  0.00000000000E+00 0.  1.
          2    1    1    2  501    0 -0.23654460887E+02  0.51834745108E+01 -0.89113377055E+02  0.92344983069E+02  0.00000000000E+00 0.  1.
          2    1    1    2  502    0  0.23654460887E+02 -0.51834745108E+01 -0.64748731066E+01  0.25066429933E+02  0.00000000000E+00 0. -1.
</event>
<event>
 4    1  0.1351368E+004  0.2224606E+02  0.7546771E-02  0.1502189E+00
          2   -1    0    0  501    0  0.00000000000E+00  0.00000000000E+00  0.59284572415E+03  0.59284572415E+03  0.00000000000E+00 0.  1.
          2   -1    0    0  502    0 -0.00000000000E+00 -0.00000000000E+00 -0.12435802357E+04  0.12435802357E+04  0.00000000000E+00 0.  1.
          2    1    1    2  501    0 -0.13435083246E+02 -0.17730930910E+02 -0.12432720040E+04  0.12434710143E+04  0.00000000000E+00 0.  1.
          2    1    1    2  502    0  0.13435083246E+02  0.17730930910E+02  0.59253749252E+03  0.59295494552E+03  0.00000000000E+00 0.  1.
</event>
<event>
 4    1  0.8391192E+003  0.2355057E+02  0.7546771E-02  0.1485698E+00
          2   -1    0    0  501    0  0.00000000000E+00  0.00000000000E+00  0.47260732167E+02  0.47260732167E+02  0.00000000000E+00 0.  1.
          2   -1    0    0  502    0 -0.00000000000E+00 -0.00000000000E+00 -0.72885989285E+02  0.72885989285E+02  0.00000000000E+00 0.  1.
          2    1    1    2  501    0  0.22313351259E+02  0.75328269066E+01 -0.67837598001E+02  0.71809253082E+02  0.00000000000E+00 0.  1.
          2    1    1    2  502    0 -0.22313351259E+02 -0.75328269066E+01  0.42212340883E+02  0.48337468370E+02  0.00000000000E+00 0.  1.
</event>
<event>
 4    1  0.8391192E+003  0.3498016E+02  0.7546771E-02  0.1380703E+00
          2   -1    0    0  502    0  0.00000000000E+00  0.00000000000E+00  0.70631830113E+03  0.70631830113E+03  0.00000000000E+00 0.  1.
          2   -1    0    0  501    0 -0.00000000000E+00 -0.00000000000E+00 -0.11642395145E+02  0.11642395145E+02  0.00000000000E+00 0. -1.
          2    1    1    2  501    0  0.34768038640E+02 -0.38464321105E+01  0.67853516363E+03  0.67943622204E+03  0.00000000000E+00 0.  1.
          2    1    1    2  502    0 -0.34768038640E+02  0.38464321105E+01  0.16140742361E+02  0.38524474232E+02  0.00000000000E+00 0. -1.
</event>
<event>
 4    1  0.8391192E+003  0.3291237E+02  0.7546771E-02  0.1395865E+00
          2   -1    0    0  502    0  0.00000000000E+00  0.00000000000E+00  0.69285944916E+03  0.69285944916E+03  0.00000000000E+00 0. -1.
          2   -1    0    0  501    0 -0.00000000000E+00 -0.00000000000E+00 -0.81192794862E+02  0.81192794862E+02  0.00000000000E+00 0. -1.
          2    1    1    2  501    0  0.20147875648E+02  0.26024740910E+02  0.68911513882E+03  0.68990064400E+03  0.00000000000E+00 0. -1.
          2    1    1    2  502    0 -0.20147875648E+02 -0.26024740910E+02 -0.77448484522E+02  0.84151600028E+02  0.00000000000E+00 0. -1.
</event>
<event>
 4    1  0.8391192E+003  0.3017999E+02  0.7546771E-02  0.1418039E+00
          2   -1    0    0  501    0  0.00000000000E+00  0.00000000000E+00  0.58454741168E+02  0.58454741168E+02  0.00000000000E+00 0.  1.
          2   -1    0    0  502    0 -0.00000000000E+00 -0.00000000000E+00 -0.27934130774E+03  0.27934130774E+03  0.00000000000E+00 0.  1.
          2    1    1    2  501    0  0.25635561445E+02 -0.15926386139E+02 -0.27456310128E+03  0.27621681406E+03  0.00000000000E+00 0.  1.
          2    1    1    2  502    0 -0.25635561445E+02  0.15926386139E+02  0.53676534707E+02  0.61579234846E+02  0.00000000000E+00 0.  1.
</event>
<event>
 4    1  0.8391192E+003  0.2316744E+02  0.7546771E-02  0.1490406E+00
          2   -1    0    0  502    0  0.00000000000E+00  0.00000000000E+00  0.14431683664E+03  0.14431683664E+03  0.00000000000E+00 0. -1.
          2   -1    0    0  501    0 -0.00000000000E+00 -0.00000000000E+00 -0.72755815962E+01  0.72755815962E+01  0.00000000000E+00 0.  1.
          2    1    1    2  501    0 -0.66839336992E+01 -0.22182314741E+02  0.12151421933E+03  0.12370301353E+03  0.00000000000E+00 0. -1.
          2    1    1    2  502    0  0.66839336992E+01  0.22182314741E+02  0.15527035719E+02  0.27889404712E+02  0.00000000000E+00 0.  1.
</event>
<event>
 4    1  0.1099537E+004  0.2369122E+02  0.7546771E-02  0.1483996E+00
          2   -1    0    0  501    0  0.00000000000E+00  0.00000000000E+00  0.52424725236E+03  0.52424725236E+03  0.00000000000E+00 0.  1.
          2   -1    0    0  502    0 -0.00000000000E+00 -0.00000000000E+00 -0.88463330547E+03  0.88463330547E+03  0.00000000000E+00 0. -1.
          2    1    1    2  501    0  0.23553146340E+02 -0.25541001331E+01 -0.88420690152E+03  0.88452423303E+03  0.00000000000E+00 0. -1.
          2    1    1    2  502    0 -0.23553146340E+02  0.25541001331E+01  0.52382084840E+03  0.52435632479E+03  0.00000000000E+00 0.  1.
</event>
<event>
 4    1  0.8391192E+003  0.2396853E+02  0.7546771E-02  0.1480682E+00
          2   -1    0    0  501    0  0.00000000000E+00  0.00000000000E+00  0.59757701337E+00  0.59757701337E+00  0.00000000000E+00 0.  1.
          2   -1    0    0  502    0 -0.00000000000E+00 -0.00000000000E+00 -0.11034185933E+04  0.11034185933E+04  0.00000000000E+00 0.  1.
          2    1    1    2  501    0  0.24539320659E+01  0.23842575835E+02 -0.74947194225E+03  0.74985510762E+03  0.00000000000E+00 0.  1.
          2    1    1    2  502    0 -0.24539320659E+01 -0.23842575835E+02 -0.35334907407E+03  0.35416106273E+03  0.00000000000E+00 0.  1.
</event>
<event>
 4    1  0.8391192E+003  0.2004743E+02  0.7546771E-02  0.1533312E+00
          2   -1    0    0  502    0  0.00000000000E+00  0.00000000000E+00  0.15200953448E+03  0.15200953448E+03  0.00000000000E+00 0.  1.
          2   -1    0    0  501    0 -0.00000000000E+00 -0.00000000000E+00 -0.69380010875E+02  0.69380010875E+02  0.00000000000E+00 0. -1.
          2    1    1    2  501    0 -0.54937057092E+01 -0.19280010054E+02  0.14987988865E+03  0.15121468385E+03  0.00000000000E+00 0.  1.
          2    1    1    2  502    0  0.54937057092E+01  0.19280010054E+02 -0.67250365039E+02  0.70174861510E+02  0.00000000000E+00 0. -1.
</event>
<event>
 4    1  0.8391192E+003  0.3365372E+02  0.7546771E-02  0.1390283E+00
          2   -1    0    0  502    0  0.00000000000E+00  0.00000000000E+00  0.18622732938E+03  0.18622732938E+03  0.00000000000E+00 0.  1.
          2   -1    0    0  501    0 -0.00000000000E+00 -0.00000000000E+00 -0.95991670580E+02  0.95991670580E+02  0.00000000000E+00 0.  1.
          2    1    1    2  501    0 -0.31286972755E+02 -0.12397510429E+02  0.18168410991E+03  0.18477469720E+03  0.00000000000E+00 0.  1.
          2    1    1    2  502    0  0.31286972755E+02  0.12397510429E+02 -0.91448451116E+02  0.97444302761E+02  0.00000000000E+00 0.  1.
</event>
<event>
 4    1  0.8391192E+003  0.2035459E+02  0.7546771E-02  0.1528682E+00
          2   -1    0    0  502    0  0.00000000000E+00  0.00000000000E+00  0.99779048187E+03  0.99779048187E+03  0.00000000000E+00 0. -1.
          2   -1    0    0  501    0 -0.00000000000E+00 -0.00000000000E+00 -0.45967866475E+03  0.45967866475E+03  0.00000000000E+00 0. -1.
          2    1    1    2  501    0 -0.20264040524E+02 -0.19178477769E+01  0.99746127518E+03  0.99766893555E+03  0.00000000000E+00 0. -1.
          2    1    1    2  502    0  0.20264040524E+02  0.19178477769E+01 -0.45934945806E+03  0.45980021107E+03  0.00000000000E+00 0. -1.
</event>
<event>
 4    1  0.8391192E+003  0.2183590E+02  0.7546771E-02  0.1507657E+00
          2   -1    0    0  501    0  0.00000000000E+00  0.00000000000E+00  0.38771299381E+02  0.38771299381E+02  0.00000000000E+00 0. -1.
          2   -1    0    0  502    0 -0.00000000000E+00 -0.00000000000E+00 -0.53862178578E+03  0.53862178578E+03  0.00000000000E+00 0. -1.
          2    1    1    2  501    0 -0.21835884858E+02 -0.21685422649E-01 -0.53530696687E+03  0.53575213963E+03  0.00000000000E+00 0. -1.
          2    1    1    2  502    0  0.21835884858E+02  0.21685422649E-01  0.35456480468E+02  0.41640945534E+02  0.00000000000E+00 0. -1.
</event>
<event>
 4    1  0.8391192E+003  0.4223200E+02  0.7546771E-02  0.1335880E+00
          2   -1    0    0  501    0  0.00000000000E+00  0.00000000000E+00  0.26759582901E+02  0.26759582901E+02  0.00000000000E+00 0. -1.
          2   -1    0    0  502    0 -0.00000000000E+00 -0.00000000000E+00 -0.51367887602E+03  0.51367887602E+03  0.00000000000E+00 0. -1.
          2    1    1    2  501    0 -0.30764894553E+02 -0.28932041734E+02 -0.49553936433E+03  0.49733570491E+03  0.00000000000E+00 0. -1.
          2    1    1    2  502    0  0.30764894553E+02  0.28932041734E+02  0.86200712113E+01  0.43102754012E+02  0.00000000000E+00 0. -1.
</event>
<event>
 4    1  0.8391192E+003  0.3947579E+02  0.7546771E-02  0.1351585E+00
          2   -1    0    0  502    0  0.00000000000E+00  0.00000000000E+00  0.61978677898E+03  0.61978677898E+03  0.00000000000E+00 0.  1.
          2   -1    0    0  501    0 -0.00000000000E+00 -0.00000000000E+00 -0.48227132340E+03  0.48227132340E+03  0.00000000000E+00 0. -1.
          2    1    1    2  501    0 -0.26803646441E+02 -0.28981074690E+02  0.61834851165E+03  0.61960731114E+03  0.00000000000E+00 0.  1.
          2    1    1    2  502    0  0.26803646441E+02  0.28981074690E+02 -0.48083305607E+03  0.48245079124E+03  0.00000000000E+00 0. -1.
</event>
<event>
 4    1  0.8391192E+003  0.3504694E+02  0.7546771E-02  0.1380233E+00
          2   -1    0    0  502    0  0.00000000000E+00  0.00000000000E+00  0.16752403309E+02  0.16752403309E+02  0.00000000000E+00 0.  1.
          2   -1    0    0  501    0 -0.00000000000E+00 -0.00000000000E+00 -0.74615560529E+03  0.74615560529E+03  0.00000000000E+00 0. -1.
          2    1    1    2  501    0 -0.34134492320E+02 -0.79450926667E+01 -0.24736807207E+01  0.35134130980E+02  0.00000000000E+00 0.  1.
          2    1    1    2  502    0  0.34134492320E+02  0.79450926667E+01 -0.72692952126E+03  0.72777387762E+03  0.00000000000E+00 0. -1.
</event>
<event>
 4    1  0.8391192E+003  0.2278561E+02  0.7546771E-02  0.1495208E+00
          2   -1    0    0  502    0  0.00000000000E+00  0.00000000000E+00  0.14009425787E+02  0.14009425787E+02  0.00000000000E+00 0.  1.
          2   -1    0    0  501    0 -0.00000000000E+00 -0.00000000000E+00 -0.88774202752E+02  0.88774202752E+02  0.00000000000E+00 0.  1.
          2    1    1    2  501    0 -0.22747403239E+02 -0.13189626767E+01  0.18420798522E+01  0.22859949143E+02  0.00000000000E+00 0.  1.
          2    1    1    2  502    0  0.22747403239E+02  0.13189626767E+01 -0.76606856818E+02  0.79923679396E+02  0.00000000000E+00 0.  1.
</event>
<event>
 4    1  0.8391192E+003  0.2576194E+02  0.7546771E-02  0.1460457E+00
          2   -1    0    0  502    0  0.00000000000E+00  0.00000000000E+00  0.12659874259E+04  0.12659874259E+04  0.00000000000E+00 0.  1.
          2   -1    0    0  501    0 -0.00000000000E+00 -0.00000000000E+00 -0.67199747303E+00  0.67199747303E+00  0.00000000000E+00 0. -1.
          2    1    1    2  501    0  0.24111496745E+02  0.90726693396E+01  0.92963620808E+03  0.92999309512E+03  0.00000000000E+00 0.  1.
          2    1    1    2  502    0 -0.24111496745E+02 -0.90726693396E+01  0.33567922035E+03  0.33666632825E+03  0.00000000000E+00 0. -1.
</event>
<event>
 4    1  0.1110653E+004  0.3397918E+02  0.7546771E-02  0.1387885E+00
          2   -1    0    0  502    0  0.00000000000E+00  0.00000000000E+00  0.68376060331E+03  0.68376060331E+03  0.00000000000E+00 0. -1.
          2   -1    0    0  501    0 -0.00000000000E+00 -0.00000000000E+00 -0.16520433362E+04  0.16520433362E+04  0.00000000000E+00 0.  1.
          2    1    1    2  501    0  0.30205659968E+01  0.33844654185E+02  0.68316358507E+03  0.68400809089E+03  0.00000000000E+00 0. -1.
          2    1    1    2  502    0 -0.30205659968E+01 -0.33844654185E+02 -0.16514463179E+04  0.16517958486E+04  0.00000000000E+00 0.  1.
</event>
<event>
 4    1  0.8391192E+003  0.2752500E+02  0.7546771E-02  0.1442404E+00
          2   -1    0    0  501    0  0.00000000000E+00  0.00000000000E+00  0.57566030133E+02  0.57566030133E+02  0.00000000000E+00 0. -1.
          2   -1    0    0  502    0 -0.00000000000E+00 -0.00000000000E+00 -0.22624604674E+03  0.22624604674E+03  0.00000000000E+00 0. -1.
          2    1    1    2  501    0  0.13367431950E+02  0.24061123382E+02 -0.22205679300E+03  0.22375621826E+03  0.00000000000E+00 0. -1.
          2    1    1    2  502    0 -0.13367431950E+02 -0.24061123382E+02  0.53376776391E+02  0.60055858609E+02  0.00000000000E+00 0. -1.
</event>
<event>
 4    1  0.8391192E+003  0.2811076E+02  0.7546771E-02  0.1436758E+00
          2   -1    0    0  501    0  0.00000000000E+00  0.00000000000E+00  0.46688734014E+03  0.46688734014E+03  0.00000000000E+00 0. -1.
          2   -1    0    0  502    0 -0.00000000000E+00 -0.00000000000E+00 -0.37750889989E+02  0.37750889989E+02  0.00000000000E+00 0. -1.
          2    1    1    2  501    0  0.28110107277E+02  0.19189427033E+00 -0.32029812606E+02  0.42616004624E+02  0.00000000000E+00 0. -1.
          2    1    1    2  502    0 -0.28110107277E+02 -0.19189427033E+00  0.46116626276E+03  0.46202222551E+03  0.00000000000E+00 0. -1.
</event>
<event>
 4    1  0.8391192E+003  0.3480111E+02  0.7546771E-02  0.1381967E+00
          2   -1    0    0  502    0  0.00000000000E+00  0.00000000000E+00  0.12431823181E+02  0.12431823181E+02  0.00000000000E+00 0.  1.
          2   -1    0    0  501    0 -0.00000000000E+00 -0.00000000000E+00 -0.47455789130E+03  0.47455789130E+03  0.00000000000E+00 0.  1.
          2    1    1    2  501    0 -0.31870106862E+02 -0.13979043916E+02 -0.13995509783E+02  0.37509887687E+02  0.00000000000E+00 0.  1.
          2    1    1    2  502    0  0.31870106862E+02  0.13979043916E+02 -0.44813055833E+03  0.44947982679E+03  0.00000000000E+00 0.  1.
</event>
<event>
 4    1  0.8391192E+003  0.2281010E+02  0.7546771E-02  0.1494897E+00
          2   -1    0    0  501    0  0.00000000000E+00  0.00000000000E+00  0.80222912929E+00  0.80222912929E+00  0.00000000000E+00 0. -1.
          2   -1    0    0  502    0 -0.00000000000E+00 -0.00000000000E+00 -0.66387183240E+03  0.66387183240E+03  0.00000000000E+00 0.  1.
          2    1    1    2  501    0 -0.87775687777E+01 -0.21053617546E+02 -0.28107681331E+03  0.28200084309E+03  0.00000000000E+00 0. -1.
          2    1    1    2  502    0  0.87775687777E+01  0.21053617546E+02 -0.38199278996E+03  0.38267321844E+03  0.00000000000E+00 0.  1.
</event>
<event>
 4    1  0.8391192E+003  0.2683952E+02  0.7546771E-02  0.1449227E+00
          2   -1    0    0  502    0  0.00000000000E+00  0.00000000000E+00  0.10715892855E+03  0.10715892855E+03  0.00000000000E+00 0.  1.
          2   -1    0    0  501    0 -0.00000000000E+00 -0.00000000000E+00 -0.10184820873E+02  0.10184820873E+02  0.00000000000E+00 0.  1.
          2    1    1    2  501    0  0.24705317576E+02 -0.10488425413E+02  0.82696524551E+02  0.86942940811E+02  0.00000000000E+00 0.  1.
          2    1    1    2  502    0 -0.24705317576E+02  0.10488425413E+02  0.14277583124E+02  0.30400808608E+02  0.00000000000E+00 0.  1.
</event>
<event>
 4    1  0.8391192E+003  0.2684891E+02  0.7546771E-02  0.1449132E+00
          2   -1    0    0  501    0  0.00000000000E+00  0.00000000000E+00  0.17569835484E+04  0.17569835484E+04  0.00000000000E+00 0.  1.
          2   -1    0    0  502    0 -0.00000000000E+00 -0.00000000000E+00 -0.98617180978E+00  0.98617180978E+00  0.00000000000E+00 0.  1.
          2    1    1    2  501    0  0.18003655700E+02 -0.19918147086E+02  0.20630135491E+03  0.20804113353E+03  0.00000000000E+00 0.  1.
          2    1    1    2  502    0 -0.18003655700E+02  0.19918147086E+02  0.15496960217E+04  0.15499285867E+04  0.00000000000E+00 0.  1.
</event>
<event>
 4    1  0.8391192E+003  0.2353910E+02  0.7546771E-02  0.1485837E+00
          2   -1    0    0  501    0  0.00000000000E+00  0.00000000000E+00  0.22427703212E+02  0.22427703212E+02  0.00000000000E+00 0.  1.
          2   -1    0    0  502    0 -0.00000000000E+00 -0.00000000000E+00 -0.68871951557E+03  0.68871951557E+03  0.00000000000E+00 0. -1.
          2    1    1    2  501    0  0.21614328350E+02 -0.93225637768E+01 -0.68228374798E+03  0.68268968217E+03  0.00000000000E+00 0. -1.
          2    1    1    2  502    0 -0.21614328350E+02  0.93225637768E+01  0.15991935617E+02  0.28457536615E+02  0.00000000000E+00 0.  1.
</event>
<event>
 4    1  0.8391192E+003  0.2171794E+02  0.7546771E-02  0.1509257E+00
          2   -1    0    0  502    0  0.00000000000E+00  0.00000000000E+00  0.19916610979E+03  0.19916610979E+03  0.00000000000E+00 0. -1.
          2   -1    0    0  501    0 -0.00000000000E+00 -0.00000000000E+00 -0.55236196266E+02  0.55236196266E+02  0.00000000000E+00 0. -1.
          2    1    1    2  501    0 -0.11809546522E+02 -0.18226446250E+02  0.19640940260E+03  0.19760648310E+03  0.00000000000E+00 0. -1.
          2    1    1    2  502    0  0.11809546522E+02  0.18226446250E+02 -0.52479489077E+02  0.56795822960E+02  0.00000000000E+00 0. -1.
</event>
<event>
 4    1  0.8391192E+003  0.2241348E+02  0.7546771E-02  0.1499997E+00
          2   -1    0    0  502    0  0.00000000000E+00  0.00000000000E+00  0.14622334700E+04  0.14622334700E+04  0.00000000000E+00 0.  1.
          2   -1    0    0  501    0 -0.00000000000E+00 -0.00000000000E+00 -0.52205623152E+01  0.52205623152E+01  0.00000000000E+00 0. -1.
          2    1    1    2  501    0 -0.13389622122E+02 -0.17974489563E+02  0.14376797430E+04  0.14378544460E+04  0.00000000000E+00 0.  1.
          2    1    1    2  502    0  0.13389622122E+02  0.17974489563E+02  0.19333164604E+02  0.29599586301E+02  0.00000000000E+00 0. -1.
</event>
<event>
 4    1  0.8391192E+003  0.5241109E+02  0.7546771E-02  0.1288044E+00
          2   -1    0    0  502    0  0.00000000000E+00  0.00000000000E+00  0.12518876347E+04  0.12518876347E+04  0.00000000000E+00 0. -1.
          2   -1    0    0  501    0 -0.00000000000E+00 -0.00000000000E+00 -0.19445681627E+04  0.19445681627E+04  0.00000000000E+00 0. -1.
          2    1    1    2  501    0 -0.47288899663E+02  0.22598286257E+02  0.12509856708E+04  0.12520830927E+04  0.00000000000E+00 0. -1.
          2    1    1    2  502    0  0.47288899663E+02 -0.22598286257E+02 -0.19436661987E+04  0.19443727047E+04  0.00000000000E+00 0. -1.
</event>
<event>
 4    1  0.8391192E+003  0.2444023E+02  0.7546771E-02  0.1475164E+00
          2   -1    0    0  501    0  0.00000000000E+00  0.00000000000E+00  0.15456783337E+03  0.15456783337E+03  0.00000000000E+00 0.  1.
          2   -1    0    0  502    0 -0.00000000000E+00 -0.00000000000E+00 -0.21547206366E+03  0.21547206366E+03  0.00000000000E+00 0.  1.
          2    1    1    2  501    0  0.87837252349E+01  0.22807253400E+02 -0.21380539454E+03  0.21519774946E+03  0.00000000000E+00 0.  1.
          2    1    1    2  502    0 -0.87837252349E+01 -0.22807253400E+02  0.15290116424E+03  0.15484214757E+03  0.00000000000E+00 0.  1.
</event>
<event>
 4    1  0.8391192E+003  0.2798041E+02  0.7546771E-02  0.1438001E+00
          2   -1    0    0  502    0  0.00000000000E+00  0.00000000000E+00  0.18234009654E+03  0.18234009654E+03  0.00000000000E+00 0. -1.
          2   -1    0    0  501    0 -0.00000000000E+00 -0.00000000000E+00 -0.51711670747E+01  0.51711670747E+01  0.00000000000E+00 0.  1.
          2    1    1    2  501    0 -0.21493966428E+02  0.17914038354E+02  0.12720626258E+03  0.13024721342E+03  0.00000000000E+00 0. -1.
          2    1    1    2  502    0  0.21493966428E+02 -0.17914038354E+02  0.49962666885E+02  0.57264050199E+02  0.00000000000E+00 0.  1.
</event>
<event>
 4    1  0.8391192E+003  0.2238816E+02  0.7546771E-02  0.1500327E+00
          2   -1    0    0  501    0  0.00000000000E+00  0.00000000000E+00  0.16975900464E+03  0.16975900464E+03  0.00000000000E+00 0. -1.
          2   -1    0    0  502    0 -0.00000000000E+00 -0.00000000000E+00 -0.11769908851E+04  0.11769908851E+04  0.00000000000E+00 0. -1.
          2    1    1    2  501    0 -0.14334135276E+02  0.17197735949E+02 -0.11761457419E+04  0.11763588040E+04  0.00000000000E+00 0. -1.
          2    1    1    2  502    0  0.14334135276E+02 -0.17197735949E+02  0.16891386138E+03  0.17039108581E+03  0.00000000000E+00 0. -1.
</event>
<event>
 4    1  0.8391192E+003  0.3179146E+02  0.7546771E-02  0.1404642E+00
          2   -1    0    0  502    0  0.00000000000E+00  0.00000000000E+00  0.21980322558E+01  0.21980322558E+01  0.00000000000E+00 0. -1.
          2   -1    0    0  501    0 -0.00000000000E+00 -0.00000000000E+00 -0.12921187478E+04  0.12921187478E+04  0.00000000000E+00 0. -1.
          2    1    1    2  501    0 -0.27395377960E+02  0.16130406479E+02 -0.12556354196E+03  0.12952567242E+03  0.00000000000E+00 0. -1.
          2    1    1    2  502    0  0.27395377960E+02 -0.16130406479E+02 -0.11643571736E+04  0.11647911076E+04  0.00000000000E+00 0. -1.
</event>
<event>
 4    1  0.8391192E+003  0.3574761E+02  0.7546771E-02  0.1375382E+00
          2   -1    0    0  501    0  0.00000000000E+00  0.00000000000E+00  0.31904973556E+03  0.31904973556E+03  0.00000000000E+00 0. -1.
          2   -1    0    0  502    0 -0.00000000000E+00 -0.00000000000E+00 -0.10043624762E+02  0.10043624762E+02  0.00000000000E+00 0. -1.
          2    1    1    2  501    0 -0.48333310719E+01  0.35419349909E+02  0.26917371435E+02  0.44748590170E+02  0.00000000000E+00 0. -1.
          2    1    1    2  502    0  0.48333310719E+01 -0.35419349909E+02  0.28208873937E+03  0.28434477015E+03  0.00000000000E+00 0. -1.
</event>
<event>
 4    1  0.8391192E+003  0.4883479E+02  0.7546771E-02  0.1303305E+00
          2   -1    0    0  502    0  0.00000000000E+00  0.00000000000E+00  0.26909994815E+03  0.26909994815E+03  0.00000000000E+00 0.  1.
          2   -1    0    0  501    0 -0.00000000000E+00 -0.00000000000E+00 -0.63534118472E+02  0.63534118472E+02  0.00000000000E+00 0.  1.
          2    1    1    2  501    0  0.22086858109E+02 -0.43554649616E+02  0.25706485734E+03  0.26166233524E+03  0.00000000000E+00 0.  1.
          2    1    1    2  502    0 -0.22086858109E+02  0.43554649616E+02 -0.51499027666E+02  0.70971731378E+02  0.00000000000E+00 0.  1.
</event>
<event>
 4    1  0.8391192E+003  0.4211181E+02  0.7546771E-02  0.1336536E+00
          2   -1    0    0  502    0  0.00000000000E+00  0.00000000000E+00  0.69532591724E+02  0.69532591724E+02  0.00000000000E+00 0.  1.
          2   -1    0    0  501    0 -0.00000000000E+00 -0.00000000000E+00 -0.10182753694E+03  0.10182753694E+03  0.00000000000E+00 0.  1.
          2    1    1    2  501    0 -0.21287194275E+02 -0.36335380638E+02  0.58030430881E+02  0.71700316837E+02  0.00000000000E+00 0.  1.
          2    1    1    2  502    0  0.21287194275E+02  0.36335380638E+02 -0.90325376093E+02  0.99659811823E+02  0.00000000000E+00 0.  1.
</event>
<event>
 4    1  0.8391192E+003  0.5868584E+02  0.7546771E-02  0.1264364E+00
          2   -1    0    0  502    0  0.00000000000E+00  0.00000000000E+00  0.33677616250E+02  0.33677616250E+02  0.00000000000E+00 0.  1.
          2   -1    0    0  501    0 -0.00000000000E+00 -0.00000000000E+00 -0.89089451042E+03  0.89089451042E+03  0.00000000000E+00 0. -1.
          2    1    1    2  501    0  0.16721248613E+02 -0.56253240950E+02  0.63364974091E+01  0.59026930057E+02  0.00000000000E+00 0.  1.
          2    1    1    2  502    0 -0.16721248613E+02  0.56253240950E+02 -0.86355339158E+03  0.86554519661E+03  0.00000000000E+00 0. -1.
</event>
<event>
 4    1  0.8391192E+003  0.2693230E+02  0.7546771E-02  0.1448289E+00
          2   -1    0    0  502    0  0.00000000000E+00  0.00000000000E+00  0.10145342545E+02  0.10145342545E+02  0.00000000000E+00 0.  1.
          2   -1    0    0  501    0 -0.00000000000E+00 -0.00000000000E+00 -0.60715416601E+03  0.60715416601E+03  0.00000000000E+00 0.  1.
          2    1    1    2  501    0 -0.15902762687E+02  0.21735932443E+02 -0.85962631649E+01  0.28270910149E+02  0.00000000000E+00 0.  1.
          2    1    1    2  502    0  0.15902762687E+02 -0.21735932443E+02 -0.58841256030E+03  0.58902859841E+03  0.00000000000E+00 0.  1.
</event>
<event>
 4    1  0.8391192E+003  0.8455423E+02  0.7546771E-02  0.1193652E+00
          2   -1    0    0  501    0  0.00000000000E+00  0.00000000000E+00  0.30335381405E+04  0.30335381405E+04  0.00000000000E+00 0.  1.
          2   -1    0    0  502    0 -0.00000000000E+00 -0.00000000000E+00 -0.51594946926E+01  0.51594946926E+01  0.00000000000E+00 0.  1.
          2    1    1    2  501    0  0.80825015122E+02 -0.24834143105E+02  0.39438422539E+03  0.40334642055E+03  0.00000000000E+00 0.  1.
          2    1    1    2  502    0 -0.80825015122E+02  0.24834143105E+02  0.26339944204E+04  0.26353512146E+04  0.00000000000E+00 0.  1.
</event>
<event>
 4    1  0.8391192E+003  0.4053706E+02  0.7546771E-02  0.1345367E+00
          2   -1    0    0  501    0  0.00000000000E+00  0.00000000000E+00  0.10525977684E+03  0.10525977684E+03  0.00000000000E+00 0.  1.
          2   -1    0    0  502    0 -0.00000000000E+00 -0.00000000000E+00 -0.11525811361E+04  0.11525811361E+04  0.00000000000E+00 0.  1.
          2    1    1    2  501    0 -0.14916046252E+02 -0.37693034143E+02 -0.11483073340E+04  0.11490226224E+04  0.00000000000E+00 0.  1.
          2    1    1    2  502    0  0.14916046252E+02  0.37693034143E+02  0.10098597480E+03  0.10881829058E+03  0.00000000000E+00 0.  1.
</event>
<event>
 4    1  0.8391192E+003  0.2210613E+02  0.7546771E-02  0.1504038E+00
          2   -1    0    0  502    0  0.00000000000E+00  0.00000000000E+00  0.12365054122E+03  0.12365054122E+03  0.00000000000E+00 0. -1.
          2   -1    0    0  501    0 -0.00000000000E+00 -0.00000000000E+00 -0.60166244969E+02  0.60166244969E+02  0.00000000000E+00 0.  1.
          2    1    1    2  501    0 -0.43131835183E+01  0.21681271143E+02  0.12058069961E+03  0.12259031849E+03  0.00000000000E+00 0. -1.
          2    1    1    2  502    0  0.43131835183E+01 -0.21681271143E+02 -0.57096403356E+02  0.61226467697E+02  0.00000000000E+00 0.  1.
</event>
<event>
 4    1  0.8391192E+003  0.2104589E+02  0.7546771E-02  0.1518611E+00
          2   -1    0    0  502    0  0.00000000000E+00  0.00000000000E+00  0.34484411271E+02  0.34484411271E+02  0.00000000000E+00 0.  1.
          2   -1    0    0  501    0 -0.00000000000E+00 -0.00000000000E+00 -0.33597764957E+03  0.33597764957E+03  0.00000000000E+00 0. -1.
          2    1    1    2  501    0 -0.18716697958E+02  0.96236567445E+01  0.30909240882E+02  0.37393993147E+02  0.00000000000E+00 0.  1.
          2    1    1    2  502    0  0.18716697958E+02 -0.96236567445E+01 -0.33240247918E+03  0.33306806770E+03  0.00000000000E+00 0. -1.
</event>
<event>
 4    1  0.8391192E+003  0.3531143E+02  0.7546771E-02  0.1378387E+00
          2   -1    0    0  501    0  0.00000000000E+00  0.00000000000E+00  0.99849134828E+03  0.99849134828E+03  0.00000000000E+00 0. -1.
          2   -1    0    0  502    0 -0.00000000000E+00 -0.00000000000E+00 -0.45186358225E+02  0.45186358225E+02  0.00000000000E+00 0.  1.
          2    1    1    2  501    0  0.33422941660E+02  0.11393163076E+02 -0.37925004957E+02  0.51818946295E+02  0.00000000000E+00 0.  1.
          2    1    1    2  502    0 -0.33422941660E+02 -0.11393163076E+02  0.99122999501E+03  0.99185876021E+03  0.00000000000E+00 0. -1.
</event>
<event>
 4    1  0.8391192E+003  0.2552539E+02  0.7546771E-02  0.1463011E+00
          2   -1    0    0  502    0  0.00000000000E+00  0.00000000000E+00  0.36890205165E+00  0.36890205165E+00  0.00000000000E+00 0. -1.
          2   -1    0    0  501    0 -0.00000000000E+00 -0.00000000000E+00 -0.20676795347E+04  0.20676795347E+04  0.00000000000E+00 0. -1.
          2    1    1    2  501    0 -0.25163913724E+02 -0.42805415546E+01 -0.63880180630E+03  0.63931157765E+03  0.00000000000E+00 0. -1.
          2    1    1    2  502    0  0.25163913724E+02  0.42805415546E+01 -0.14285088263E+04  0.14287368591E+04  0.00000000000E+00 0. -1.
</event>
<event>
 4    1  0.8391192E+003  0.2019386E+02  0.7546771E-02  0.1531093E+00
          2   -1    0    0  501    0  0.00000000000E+00  0.00000000000E+00  0.85086822907E+03  0.85086822907E+03  0.00000000000E+00 0.  1.
          2   -1    0    0  502    0 -0.00000000000E+00 -0.00000000000E+00 -0.35757541581E+01  0.35757541581E+01  0.00000000000E+00 0. -1.
          2    1    1    2  501    0 -0.20009307677E+02  0.27238830991E+01  0.26084565010E+02  0.32987822975E+02  0.00000000000E+00 0. -1.
          2    1    1    2  502    0  0.20009307677E+02 -0.27238830991E+01  0.82120790990E+03  0.82145616025E+03  0.00000000000E+00 0.  1.
</event>
<event>
 4    1  0.8391192E+003  0.5693203E+02  0.7546771E-02  0.1270628E+00
          2   -1    0    0  502    0  0.00000000000E+00  0.00000000000E+00  0.13847767305E+02  0.13847767305E+02  0.00000000000E+00 0.  1.
          2   -1    0    0  501    0 -0.00000000000E+00 -0.00000000000E+00 -0.60016751849E+03  0.60016751849E+03  0.00000000000E+00 0. -1.
          2    1    1    2  501    0  0.55424821968E+02  0.13013254579E+02 -0.53378612917E+02  0.78041860574E+02  0.00000000000E+00 0.  1.
          2    1    1    2  502    0 -0.55424821968E+02 -0.13013254579E+02 -0.53294113827E+03  0.53597342522E+03  0.00000000000E+00 0. -1.
</event>
<event>
 4    1  0.8391192E+003  0.2511233E+02  0.7546771E-02  0.1467551E+00
          2   -1    0    0  502    0  0.00000000000E+00  0.00000000000E+00  0.34125837517E+03  0.34125837517E+03  0.00000000000E+00 0. -1.
          2   -1    0    0  501    0 -0.00000000000E+00 -0.00000000000E+00 -0.21674505512E+02  0.21674505512E+02  0.00000000000E+00 0. -1.
          2    1    1    2  501    0  0.92355704778E+01  0.23352371952E+02  0.33335021431E+03  0.33429477175E+03  0.00000000000E+00 0. -1.
          2    1    1    2  502    0 -0.92355704778E+01 -0.23352371952E+02 -0.13766344657E+02  0.28638108929E+02  0.00000000000E+00 0. -1.
</event>
<event>
 4    1  0.8391192E+003  0.3882902E+02  0.7546771E-02  0.1355488E+00
          2   -1    0    0  502    0  0.00000000000E+00  0.00000000000E+00  0.96867270086E+03  0.96867270086E+03  0.00000000000E+00 0. -1.
          2   -1    0    0  501    0 -0.00000000000E+00 -0.00000000000E+00 -0.65491856540E+01  0.65491856540E+01  0.00000000000E+00 0. -1.
          2    1    1    2  501    0 -0.18976645877E+02  0.33875948854E+02  0.90680618530E+03  0.90763712501E+03  0.00000000000E+00 0. -1.
          2    1    1    2  502    0  0.18976645877E+02 -0.33875948854E+02  0.55317329907E+02  0.67584761504E+02  0.00000000000E+00 0. -1.
</event>
<event>
 4    1  0.8391192E+003  0.2582481E+02  0.7546771E-02  0.1459784E+00
          2   -1    0    0  501    0  0.00000000000E+00  0.00000000000E+00  0.10293205959E+02  0.10293205959E+02  0.00000000000E+00 0. -1.
          2   -1    0    0  502    0 -0.00000000000E+00 -0.00000000000E+00 -0.39262720637E+03  0.39262720637E+03  0.00000000000E+00 0. -1.
          2    1    1    2  501    0 -0.15968623648E+02  0.20295902554E+02 -0.37525550423E+03  0.37614307658E+03  0.00000000000E+00 0. -1.
          2    1    1    2  502    0  0.15968623648E+02 -0.20295902554E+02 -0.70784961780E+01  0.26777335749E+02  0.00000000000E+00 0. -1.
</event>
<event>
 4    1  0.8391192E+003  0.2665168E+02  0.7546771E-02  0.1451139E+00
          2   -1    0    0  501    0  0.00000000000E+00  0.00000000000E+00  0.14812129299E+04  0.14812129299E+04  0.00000000000E+00 0. -1.
          2   -1    0    0  502    0 -0.00000000000E+00 -0.00000000000E+00 -0.15493858049E+01  0.15493858049E+01  0.00000000000E+00 0. -1.
          2    1    1    2  501    0 -0.26450677565E+02  0.32670743620E+01  0.12377489840E+03  0.12661175930E+03  0.00000000000E+00 0. -1.
          2    1    1    2  502    0  0.26450677565E+02 -0.32670743620E+01  0.13558886457E+04  0.13561505564E+04  0.00000000000E+00 0. -1.
</event>
<event>
 4    1  0.8391192E+003  0.3014478E+02  0.7546771E-02  0.1418342E+00
          2   -1    0    0  502    0  0.00000000000E+00  0.00000000000E+00  0.22858622970E+01  0.22858622970E+01  0.00000000000E+00 0.  1.
          2   -1    0    0  501    0 -0.00000000000E+00 -0.00000000000E+00 -0.11578065745E+04  0.11578065745E+04  0.00000000000E+00 0. -1.
          2    1    1    2  501    0  0.15314413440E+02 -0.25964907145E+02 -0.10772633180E+03  0.11186451728E+03  0.00000000000E+00 0.  1.
          2    1    1    2  502    0 -0.15314413440E+02  0.25964907145E+02 -0.10477943804E+04  0.10482279195E+04  0.00000000000E+00 0. -1.
</event>
<event>
 4    1  0.8391192E+003  0.2175764E+02  0.7546771E-02  0.1508717E+00
          2   -1    0    0  502    0  0.00000000000E+00  0.00000000000E+00  0.44341377064E+03  0.44341377064E+03  0.00000000000E+00 0.  1.
          2   -1    0    0  501    0 -0.00000000000E+00 -0.00000000000E+00 -0.11869276630E+01  0.11869276630E+01  0.00000000000E+00 0.  1.
          2    1    1    2  501    0  0.78911405608E+01  0.20276209018E+02  0.29159459062E+03  0.29240519836E+03  0.00000000000E+00 0.  1.
          2    1    1    2  502    0 -0.78911405608E+01 -0.20276209018E+02  0.15063225235E+03  0.15219549993E+03  0.00000000000E+00 0.  1.
</event>
<event>
 4    1  0.8391192E+003  0.2243187E+02  0.7546771E-02  0.1499758E+00
          2   -1    0    0  501    0  0.00000000000E+00  0.00000000000E+00  0.16056379452E+03  0.16056379452E+03  0.00000000000E+00 0.  1.
          2   -1    0    0  502    0 -0.00000000000E+00 -0.00000000000E+00 -0.45651804863E+01  0.45651804863E+01  0.00000000000E+00 0.  1.
          2    1    1    2  501    0  0.82498534900E+01 -0.20859734391E+02  0.31768780744E+02  0.38890153400E+02  0.00000000000E+00 0.  1.
          2    1    1    2  502    0 -0.82498534900E+01  0.20859734391E+02  0.12422983329E+03  0.12623882161E+03  0.00000000000E+00 0.  1.
</event>
<event>
 4    1  0.8391192E+003  0.2147841E+02  0.7546771E-02  0.1512543E+00
          2   -1    0    0  501    0  0.00000000000E+00  0.00000000000E+00  0.10211243203E+03  0.10211243203E+03  0.00000000000E+00 0. -1.
          2   -1    0    0  502    0 -0.00000000000E+00 -0.00000000000E+00 -0.49473879060E+02  0.49473879060E+02  0.00000000000E+00 0. -1.
          2    1    1    2  501    0 -0.20947500869E+02 -0.47459683840E+01 -0.45930464253E+02  0.50704334677E+02  0.00000000000E+00 0. -1.
          2    1    1    2  502    0  0.20947500869E+02  0.47459683840E+01  0.98569017221E+02  0.10088197641E+03  0.00000000000E+00 0. -1.
</event>
<event>
 4    1  0.8391192E+003  0.2394771E+02  0.7546771E-02  0.1480929E+00
          2   -1    0    0  501    0  0.00000000000E+00  0.00000000000E+00  0.28777879610E+02  0.28777879610E+02  0.00000000000E+00 0. -1.
          2   -1    0    0  502    0 -0.00000000000E+00 -0.00000000000E+00 -0.30375246780E+03  0.30375246780E+03  0.00000000000E+00 0.  1.
          2    1    1    2  501    0 -0.99110003915E+01  0.21800571382E+02 -0.29820588129E+03  0.29916590795E+03  0.00000000000E+00 0.  1.
          2    1    1    2  502    0  0.99110003915E+01 -0.21800571382E+02  0.23231293103E+02  0.33364439461E+02  0.00000000000E+00 0. -1.
</event>
<event>
 4    1  0.8391192E+003  0.6023042E+02  0.7546771E-02  0.1259052E+00
          2   -1    0    0  501    0  0.00000000000E+00  0.00000000000E+00  0.10131209910E+04  0.10131209910E+04  0.00000000000E+00 0. -1.
          2   -1    0    0  502    0 -0.00000000000E+00 -0.00000000000E+00 -0.44043301609E+02  0.44043301609E+02  0.00000000000E+00 0. -1.
          2    1    1    2  501    0  0.91929754981E+01  0.59524718426E+02 -0.22101008153E+02  0.64157286910E+02  0.00000000000E+00 0. -1.
          2    1    1    2  502    0 -0.91929754981E+01 -0.59524718426E+02  0.99117869751E+03  0.99300700566E+03  0.00000000000E+00 0. -1.
</event>
<event>
 4    1  0.8391192E+003  0.2358696E+02  0.7546771E-02  0.1485256E+00
          2   -1    0    0  501    0  0.00000000000E+00  0.00000000000E+00  0.16922740108E+01  0.16922740108E+01  0.00000000000E+00 0.  1.
          2   -1    0    0  502    0 -0.00000000000E+00 -0.00000000000E+00 -0.76063891633E+03  0.76063891633E+03  0.00000000000E+00 0.  1.
          2    1    1    2  501    0 -0.19654474499E+02  0.13040188127E+02 -0.66668860223E+03  0.66710571667E+03  0.00000000000E+00 0.  1.
          2    1    1    2  502    0  0.19654474499E+02 -0.13040188127E+02 -0.92258040093E+02  0.95225473671E+02  0.00000000000E+00 0.  1.
</event>
<event>
 4    1  0.8391192E+003  0.3410420E+02  0.7546771E-02  0.1386973E+00
          2   -1    0    0  502    0  0.00000000000E+00  0.00000000000E+00  0.44000590193E+01  0.44000590193E+01  0.00000000000E+00 0. -1.
          2   -1    0    0  501    0 -0.00000000000E+00 -0.00000000000E+00 -0.12308904587E+04  0.12308904587E+04  0.00000000000E+00 0.  1.
          2    1    1    2  501    0  0.26661111947E+02  0.21266918662E+02 -0.65923792627E+02  0.74222928762E+02  0.00000000000E+00 0. -1.
          2    1    1    2  502    0 -0.26661111947E+02 -0.21266918662E+02 -0.11605666070E+04  0.11610675889E+04  0.00000000000E+00 0.  1.
</event>
<event>
 4    1  0.8391192E+003  0.3815818E+02  0.7546771E-02  0.1359630E+00
          2   -1    0    0  502    0  0.00000000000E+00  0.00000000000E+00  0.45572896393E+03  0.45572896393E+03  0.00000000000E+00 0.  1.
          2   -1    0    0  501    0 -0.00000000000E+00 -0.00000000000E+00 -0.24994685719E+02  0.24994685719E+02  0.00000000000E+00 0.  1.
          2    1    1    2  501    0 -0.38155008704E+02  0.49227897476E+00  0.43984159207E+03  0.44149368415E+03  0.00000000000E+00 0.  1.
          2    1    1    2  502    0  0.38155008704E+02 -0.49227897476E+00 -0.91073138563E+01  0.39229965504E+02  0.00000000000E+00 0.  1.
</event>
<event>
 4    1  0.8391192E+003  0.3809163E+02  0.7546771E-02  0.1360047E+00
          2   -1    0    0  501    0  0.00000000000E+00  0.00000000000E+00  0.45902469739E+03  0.45902469739E+03  0.00000000000E+00 0. -1.
          2   -1    0    0  502    0 -0.00000000000E+00 -0.00000000000E+00 -0.13598390518E+04  0.13598390518E+04  0.00000000000E+00 0. -1.
          2    1    1    2  501    0  0.34608257634E+02 -0.15913535225E+02 -0.13587814352E+04  0.13593152543E+04  0.00000000000E+00 0. -1.
          2    1    1    2  502    0 -0.34608257634E+02  0.15913535225E+02  0.45796708075E+03  0.45954849488E+03  0.00000000000E+00 0. -1.
</event>
<event>
 4    1  0.8391192E+003  0.3159557E+02  0.7546771E-02  0.1406220E+00
          2   -1    0    0  502    0  0.00000000000E+00  0.00000000000E+00  0.43090445537E+03  0.43090445537E+03  0.00000000000E+00 0. -1.
          2   -1    0    0  501    0 -0.00000000000E+00 -0.00000000000E+00 -0.25238200273E+03  0.25238200273E+03  0.00000000000E+00 0.  1.
          2    1    1    2  501    0 -0.25081037409E+02  0.19215139571E+02  0.42933280506E+03  0.43049382984E+03  0.00000000000E+00 0. -1.
          2    1    1    2  502    0  0.25081037409E+02 -0.19215139571E+02 -0.25081035242E+03  0.25279262826E+03  0.00000000000E+00 0.  1.
</event>
<event>
 4    1  0.8391192E+003  0.2412680E+02  0.7546771E-02  0.1478814E+00
          2   -1    0    0  501    0  0.00000000000E+00  0.00000000000E+00  0.10724081815E+02  0.10724081815E+02  0.00000000000E+00 0. -1.
          2   -1    0    0  502    0 -0.00000000000E+00 -0.00000000000E+00 -0.81627330818E+02  0.81627330818E+02  0.00000000000E+00 0. -1.
          2    1    1    2  501    0  0.70775819815E+01  0.23065352531E+02 -0.62178832714E+02  0.66695651221E+02  0.00000000000E+00 0. -1.
          2    1    1    2  502    0 -0.70775819815E+01 -0.23065352531E+02 -0.87244162889E+01  0.25655761413E+02  0.00000000000E+00 0. -1.
</event>
<event>
 4    1  0.8391192E+003  0.2908678E+02  0.7546771E-02  0.1427702E+00
          2   -1    0    0  501    0  0.00000000000E+00  0.00000000000E+00  0.49904091714E+02  0.49904091714E+02  0.00000000000E+00 0. -1.
          2   -1    0    0  502    0 -0.00000000000E+00 -0.00000000000E+00 -0.19750195006E+02  0.19750195006E+02  0.00000000000E+00 0. -1.
          2    1    1    2  501    0 -0.27590812516E+01  0.28955628222E+02  0.19710350743E+01  0.29153488888E+02  0.00000000000E+00 0. -1.
          2    1    1    2  502    0  0.27590812516E+01 -0.28955628222E+02  0.28182861633E+02  0.40500797831E+02  0.00000000000E+00 0. -1.
</event>
<event>
 4    1  0.8391192E+003  0.2065836E+02  0.7546771E-02  0.1524199E+00
          2   -1    0    0  502    0  0.00000000000E+00  0.00000000000E+00  0.32307480125E+01  0.32307480125E+01  0.00000000000E+00 0. -1.
          2   -1    0    0  501    0 -0.00000000000E+00 -0.00000000000E+00 -0.64889602305E+03  0.64889602305E+03  0.00000000000E+00 0. -1.
          2    1    1    2  501    0  0.15761535730E+02 -0.13354466994E+02 -0.31844100184E+02  0.37958062566E+02  0.00000000000E+00 0. -1.
          2    1    1    2  502    0 -0.15761535730E+02  0.13354466994E+02 -0.61382117486E+03  0.61416870850E+03  0.00000000000E+00 0. -1.
</event>
<event>
 4    1  0.8391192E+003  0.3485397E+02  0.7546771E-02  0.1381593E+00
          2   -1    0    0  502    0  0.00000000000E+00  0.00000000000E+00  0.10566503269E+04  0.10566503269E+04  0.00000000000E+00 0. -1.
          2   -1    0    0  501    0 -0.00000000000E+00 -0.00000000000E+00 -0.15347150906E+01  0.15347150906E+01  0.00000000000E+00 0. -1.
          2    1    1    2  501    0 -0.12640257366E+02 -0.32481117515E+02  0.79257471149E+03  0.79334070385E+03  0.00000000000E+00 0. -1.
          2    1    1    2  502    0  0.12640257366E+02  0.32481117515E+02  0.26254090029E+03  0.26484433811E+03  0.00000000000E+00 0. -1.
</event>
<event>
 4    1  0.8391192E+003  0.2151202E+02  0.7546771E-02  0.1512079E+00
          2   -1    0    0  502    0  0.00000000000E+00  0.00000000000E+00  0.51177355733E+00  0.51177355733E+00  0.00000000000E+00 0.  1.
          2   -1    0    0  501    0 -0.00000000000E+00 -0.00000000000E+00 -0.14171237485E+04  0.14171237485E+04  0.00000000000E+00 0.  1.
          2    1    1    2  501    0  0.10586585212E+02  0.18726756781E+02 -0.28188430931E+03  0.28270396361E+03  0.00000000000E+00 0.  1.
          2    1    1    2  502    0 -0.10586585212E+02 -0.18726756781E+02 -0.11347276656E+04  0.11349315584E+04  0.00000000000E+00 0.  1.
</event>
<event>
 4    1  0.8391192E+003  0.2301554E+02  0.7546771E-02  0.1492303E+00
          2   -1    0    0  501    0  0.00000000000E+00  0.00000000000E+00  0.12789108541E+04  0.12789108541E+04  0.00000000000E+00 0. -1.
          2   -1    0    0  502    0 -0.00000000000E+00 -0.00000000000E+00 -0.14382197740E+02  0.14382197740E+02  0.00000000000E+00 0. -1.
          2    1    1    2  501    0 -0.19459777007E+02 -0.12289517345E+02 -0.50028000279E+01  0.23552986347E+02  0.00000000000E+00 0. -1.
          2    1    1    2  502    0  0.19459777007E+02  0.12289517345E+02  0.12695314564E+04  0.12697400655E+04  0.00000000000E+00 0. -1.
</event>
<event>
 4    1  0.8391192E+003  0.2035831E+02  0.7546771E-02  0.1528627E+00
          2   -1    0    0  502    0  0.00000000000E+00  0.00000000000E+00  0.16549251073E+03  0.16549251073E+03  0.00000000000E+00 0. -1.
          2   -1    0    0  501    0 -0.00000000000E+00 -0.00000000000E+00 -0.23956360233E+02  0.23956360233E+02  0.00000000000E+00 0.  1.
          2    1    1    2  501    0 -0.20259624244E+02 -0.20021346955E+01  0.16040459985E+03  0.16169136208E+03  0.00000000000E+00 0. -1.
          2    1    1    2  502    0  0.20259624244E+02  0.20021346955E+01 -0.18868449359E+02  0.27757508877E+02  0.00000000000E+00 0.  1.
</event>
<event>
 4    1  0.8391192E+003  0.5274274E+02  0.7546771E-02  0.1286700E+00
          2   -1    0    0  502    0  0.00000000000E+00  0.00000000000E+00  0.11199450249E+03  0.11199450249E+03  0.00000000000E+00 0.  1.
          2   -1    0    0  501    0 -0.00000000000E+00 -0.00000000000E+00 -0.44784590910E+03  0.44784590910E+03  0.00000000000E+00 0.  1.
          2    1    1    2  501    0  0.50590393427E+02 -0.14913359046E+02  0.10412123031E+03  0.11671772268E+03  0.00000000000E+00 0.  1.
          2    1    1    2  502    0 -0.50590393427E+02  0.14913359046E+02 -0.43997263693E+03  0.44312268891E+03  0.00000000000E+00 0.  1.
</event>
<event>
 4    1  0.8391192E+003  0.2851227E+02  0.7546771E-02  0.1432981E+00
          2   -1    0    0  502    0  0.00000000000E+00  0.00000000000E+00  0.31568492403E+03  0.31568492403E+03  0.00000000000E+00 0. -1.
          2   -1    0    0  501    0 -0.00000000000E+00 -0.00000000000E+00 -0.60363797411E+01  0.60363797411E+01  0.00000000000E+00 0. -1.
          2    1    1    2  501    0  0.24295991560E+02 -0.14921603514E+02  0.27663178996E+03  0.27809727915E+03  0.00000000000E+00 0. -1.
          2    1    1    2  502    0 -0.24295991560E+02  0.14921603514E+02  0.33016754332E+02  0.43624024619E+02  0.00000000000E+00 0. -1.
</event>
<event>
 4    1  0.8391192E+003  0.2736942E+02  0.7546771E-02  0.1443932E+00
          2   -1    0    0  502    0  0.00000000000E+00  0.00000000000E+00  0.42828765136E+03  0.42828765136E+03  0.00000000000E+00 0.  1.
          2   -1    0    0  501    0 -0.00000000000E+00 -0.00000000000E+00 -0.28275188018E+02  0.28275188018E+02  0.00000000000E+00 0. -1.
          2    1    1    2  501    0 -0.27083944480E+02 -0.39427305105E+01  0.42111453058E+03  0.42200300122E+03  0.00000000000E+00 0.  1.
          2    1    1    2  502    0  0.27083944480E+02  0.39427305105E+01 -0.21102067233E+02  0.34559838165E+02  0.00000000000E+00 0. -1.
</event>
<event>
 4    1  0.8391192E+003  0.4442568E+02  0.7546771E-02  0.1324336E+00
          2   -1    0    0  502    0  0.00000000000E+00  0.00000000000E+00  0.31714453069E+01  0.31714453069E+01  0.00000000000E+00 0. -1.
          2   -1    0    0  501    0 -0.00000000000E+00 -0.00000000000E+00 -0.69688831681E+03  0.69688831681E+03  0.00000000000E+00 0. -1.
          2    1    1    2  501    0  0.76598417439E+01 -0.43760345706E+02 -0.23235659671E+03  0.23656548579E+03  0.00000000000E+00 0. -1.
          2    1    1    2  502    0 -0.76598417439E+01  0.43760345706E+02 -0.46136027479E+03  0.46349427633E+03  0.00000000000E+00 0. -1.
</event>
<event>
 4    1  0.8391192E+003  0.2143045E+02  0.7546771E-02  0.1513207E+00
          2   -1    0    0  502    0  0.00000000000E+00  0.00000000000E+00  0.44335285625E+03  0.44335285625E+03  0.00000000000E+00 0. -1.
          2   -1    0    0  501    0 -0.00000000000E+00 -0.00000000000E+00 -0.26274998573E+02  0.26274998573E+02  0.00000000000E+00 0. -1.
          2    1    1    2  501    0 -0.21424885228E+02 -0.48813045323E+00  0.43867755892E+03  0.43920071115E+03  0.00000000000E+00 0. -1.
          2    1    1    2  502    0  0.21424885228E+02  0.48813045323E+00 -0.21599701240E+02  0.30427143672E+02  0.00000000000E+00 0. -1.
</event>
<event>
 4    1  0.8391192E+003  0.2403743E+02  0.7546771E-02  0.1479866E+00
          2   -1    0    0  501    0  0.00000000000E+00  0.00000000000E+00  0.24474254130E+03  0.24474254130E+03  0.00000000000E+00 0.  1.
          2   -1    0    0  502    0 -0.00000000000E+00 -0.00000000000E+00 -0.47402723665E+03  0.47402723665E+03  0.00000000000E+00 0. -1.
          2    1    1    2  501    0 -0.13443718523E+01 -0.23999801371E+02 -0.47313118160E+03  0.47374139866E+03  0.00000000000E+00 0. -1.
          2    1    1    2  502    0  0.13443718523E+01  0.23999801371E+02  0.24384648625E+03  0.24502837929E+03  0.00000000000E+00 0.  1.
</event>
<event>
 4    1  0.8391192E+003  0.3951269E+02  0.7546771E-02  0.1351365E+00
          2   -1    0    0  502    0  0.00000000000E+00  0.00000000000E+00  0.96665581962E+02  0.96665581962E+02  0.00000000000E+00 0.  1.
          2   -1    0    0  501    0 -0.00000000000E+00 -0.00000000000E+00 -0.10715655751E+04  0.10715655751E+04  0.00000000000E+00 0.  1.
          2    1    1    2  501    0 -0.31051409873E+02  0.24434867417E+02  0.92246854718E+02  0.10035305180E+03  0.00000000000E+00 0.  1.
          2    1    1    2  502    0  0.31051409873E+02 -0.24434867417E+02 -0.10671468478E+04  0.10678781052E+04  0.00000000000E+00 0.  1.
</event>
<event>
 4    1  0.8391192E+003  0.2288080E+02  0.7546771E-02  0.1494000E+00
          2   -1    0    0  502    0  0.00000000000E+00  0.00000000000E+00  0.31236670195E+01  0.31236670195E+01  0.00000000000E+00 0.  1.
          2   -1    0    0  501    0 -0.00000000000E+00 -0.00000000000E+00 -0.17203585160E+03  0.17203585160E+03  0.00000000000E+00 0.  1.
          2    1    1    2  501    0  0.19380233671E+02  0.12162951694E+02 -0.70395098334E+02  0.74020272362E+02  0.00000000000E+00 0.  1.
          2    1    1    2  502    0 -0.19380233671E+02 -0.12162951694E+02 -0.98517086245E+02  0.10113924626E+03  0.00000000000E+00 0.  1.
</event>
<event>
 4    1  0.8391192E+003  0.2429727E+02  0.7546771E-02  0.1476821E+00
          2   -1    0    0  501    0  0.00000000000E+00  0.00000000000E+00  0.95794540660E+02  0.95794540660E+02  0.00000000000E+00 0. -1.
          2   -1    0    0  502    0 -0.00000000000E+00 -0.00000000000E+00 -0.15748567354E+04  0.15748567354E+04  0.00000000000E+00 0. -1.
          2    1    1    2  501    0 -0.19620344798E+02  0.14331753809E+02 -0.15732207317E+04  0.15734083474E+04  0.00000000000E+00 0. -1.
          2    1    1    2  502    0  0.19620344798E+02 -0.14331753809E+02  0.94158536933E+02  0.97242928661E+02  0.00000000000E+00 0. -1.
</event>
<event>
 4    1  0.8391192E+003  0.2030834E+02  0.7546771E-02  0.1529373E+00
          2   -1    0    0  502    0  0.00000000000E+00  0.00000000000E+00  0.20439089155E+02  0.20439089155E+02  0.00000000000E+00 0. -1.
          2   -1    0    0  501    0 -0.00000000000E+00 -0.00000000000E+00 -0.33677802302E+02  0.33677802302E+02  0.00000000000E+00 0.  1.
          2    1    1    2  501    0 -0.20276464443E+02 -0.11374567733E+01 -0.23750552925E+02  0.31249281311E+02  0.00000000000E+00 0.  1.
          2    1    1    2  502    0  0.20276464443E+02  0.11374567733E+01  0.10511839778E+02  0.22867610145E+02  0.00000000000E+00 0. -1.
</event>
<event>
 4    1  0.8391192E+003  0.2323911E+02  0.7546771E-02  0.1489517E+00
          2   -1    0    0  501    0  0.00000000000E+00  0.00000000000E+00  0.57361993425E+02  0.57361993425E+02  0.00000000000E+00 0. -1.
          2   -1    0    0  502    0 -0.00000000000E+00 -0.00000000000E+00 -0.50457831446E+03  0.50457831446E+03  0.00000000000E+00 0.  1.
          2    1    1    2  501    0  0.19100967565E+02 -0.13236657031E+02 -0.50194467451E+03  0.50248235025E+03  0.00000000000E+00 0.  1.
          2    1    1    2  502    0 -0.19100967565E+02  0.13236657031E+02  0.54728353474E+02  0.59457957628E+02  0.00000000000E+00 0. -1.
</event>
<event>
 4    1  0.8391192E+003  0.2784099E+02  0.7546771E-02  0.1439338E+00
          2   -1    0    0  501    0  0.00000000000E+00  0.00000000000E+00  0.12829315849E+01  0.12829315849E+01  0.00000000000E+00 0.  1.
          2   -1    0    0  502    0 -0.00000000000E+00 -0.00000000000E+00 -0.16760776312E+04  0.16760776312E+04  0.00000000000E+00 0.  1.
          2    1    1    2  501    0  0.27195235773E+02 -0.59615301953E+01 -0.15080940461E+04  0.15083510110E+04  0.00000000000E+00 0.  1.
          2    1    1    2  502    0 -0.27195235773E+02  0.59615301953E+01 -0.16670065351E+03  0.16900955172E+03  0.00000000000E+00 0.  1.
</event>
<event>
 4    1  0.8391192E+003  0.2036007E+02  0.7546771E-02  0.1528601E+00
          2   -1    0    0  502    0  0.00000000000E+00  0.00000000000E+00  0.34626926429E+02  0.34626926429E+02  0.00000000000E+00 0. -1.
          2   -1    0    0  501    0 -0.00000000000E+00 -0.00000000000E+00 -0.15794649682E+02  0.15794649682E+02  0.00000000000E+00 0. -1.
          2    1    1    2  501    0  0.62117942139E+01  0.19389325845E+02  0.21819759141E+02  0.29843495657E+02  0.00000000000E+00 0. -1.
          2    1    1    2  502    0 -0.62117942139E+01 -0.19389325845E+02 -0.29874823945E+01  0.20578080453E+02  0.00000000000E+00 0. -1.
</event>
<event>
 4    1  0.8391192E+003  0.2428532E+02  0.7546771E-02  0.1476960E+00
          2   -1    0    0  502    0  0.00000000000E+00  0.00000000000E+00  0.92214192264E+01  0.92214192264E+01  0.00000000000E+00 0. -1.
          2   -1    0    0  501    0 -0.00000000000E+00 -0.00000000000E+00 -0.10960241091E+04  0.10960241091E+04  0.00000000000E+00 0.  1.
          2    1    1    2  501    0 -0.24174827118E+02  0.23139283059E+01 -0.71447634359E+01  0.25314505228E+02  0.00000000000E+00 0. -1.
          2    1    1    2  502    0  0.24174827118E+02 -0.23139283059E+01 -0.10796579264E+04  0.10799310231E+04  0.00000000000E+00 0.  1.
</event>
<event>
 4    1  0.8391192E+003  0.6048163E+02  0.7546771E-02  0.1258205E+00
          2   -1    0    0  502    0  0.00000000000E+00  0.00000000000E+00  0.14086333137E+04  0.14086333137E+04  0.00000000000E+00 0. -1.
          2   -1    0    0  501    0 -0.00000000000E+00 -0.00000000000E+00 -0.17210534440E+03  0.17210534440E+03  0.00000000000E+00 0. -1.
          2    1    1    2  501    0 -0.32408781500E+02 -0.51065625189E+02  0.14026477881E+04  0.14039511546E+04  0.00000000000E+00 0. -1.
          2    1    1    2  502    0  0.32408781500E+02  0.51065625189E+02 -0.16611981877E+03  0.17678750347E+03  0.00000000000E+00 0. -1.
</event>
<event>
 4    1  0.8391192E+003  0.2344070E+02  0.7546771E-02  0.1487037E+00
          2   -1    0    0  502    0  0.00000000000E+00  0.00000000000E+00  0.21152622246E+01  0.21152622246E+01  0.00000000000E+00 0.  1.
          2   -1    0    0  501    0 -0.00000000000E+00 -0.00000000000E+00 -0.78881941539E+03  0.78881941539E+03  0.00000000000E+00 0.  1.
          2    1    1    2  501    0 -0.23325710781E+02  0.23190185013E+01 -0.69480479373E+02  0.73328054960E+02  0.00000000000E+00 0.  1.
          2    1    1    2  502    0  0.23325710781E+02 -0.23190185013E+01 -0.71722367379E+03  0.71760662265E+03  0.00000000000E+00 0.  1.
</event>
<event>
 4    1  0.8391192E+003  0.2881441E+02  0.7546771E-02  0.1430187E+00
          2   -1    0    0  502    0  0.00000000000E+00  0.00000000000E+00  0.22694389826E+03  0.22694389826E+03  0.00000000000E+00 0. -1.
          2   -1    0    0  501    0 -0.00000000000E+00 -0.00000000000E+00 -0.84926378270E+02  0.84926378270E+02  0.00000000000E+00 0.  1.
          2    1    1    2  501    0 -0.44928631953E+01 -0.28461978351E+02  0.22354821774E+03  0.22539759467E+03  0.00000000000E+00 0. -1.
          2    1    1    2  502    0  0.44928631953E+01  0.28461978351E+02 -0.81530697750E+02  0.86472681854E+02  0.00000000000E+00 0.  1.
</event>
<event>
 4    1  0.8391192E+003  0.3263860E+02  0.7546771E-02  0.1397971E+00
          2   -1    0    0  501    0  0.00000000000E+00  0.00000000000E+00  0.15879552073E+04  0.15879552073E+04  0.00000000000E+00 0.  1.
          2   -1    0    0  502    0 -0.00000000000E+00 -0.00000000000E+00 -0.89304252844E+00  0.89304252844E+00  0.00000000000E+00 0.  1.
          2    1    1    2  501    0 -0.14874449185E+02 -0.29052171621E+02  0.39726928119E+03  0.39860777676E+03  0.00000000000E+00 0.  1.
          2    1    1    2  502    0  0.14874449185E+02  0.29052171621E+02  0.11897928835E+04  0.11902404730E+04  0.00000000000E+00 0.  1.
</event>
<event>
 4    1  0.8391192E+003  0.5506354E+02  0.7546771E-02  0.1277595E+00
          2   -1    0    0  501    0  0.00000000000E+00  0.00000000000E+00  0.65589020357E+03  0.65589020357E+03  0.00000000000E+00 0.  1.
          2   -1    0    0  502    0 -0.00000000000E+00 -0.00000000000E+00 -0.12318517818E+03  0.12318517818E+03  0.00000000000E+00 0.  1.
          2    1    1    2  501    0 -0.33412146213E+02 -0.43767814391E+02 -0.11580628791E+03  0.12823061027E+03  0.00000000000E+00 0.  1.
          2    1    1    2  502    0  0.33412146213E+02  0.43767814391E+02  0.64851131329E+03  0.65084477148E+03  0.00000000000E+00 0.  1.
</event>
<event>
 4    1  0.8391192E+003  0.2511772E+02  0.7546771E-02  0.1467491E+00
          2   -1    0    0  501    0  0.00000000000E+00  0.00000000000E+00  0.48244849049E+02  0.48244849049E+02  0.00000000000E+00 0.  1.
          2   -1    0    0  502    0 -0.00000000000E+00 -0.00000000000E+00 -0.14656489589E+04  0.14656489589E+04  0.00000000000E+00 0. -1.
          2    1    1    2  501    0 -0.25056205326E+02 -0.17568593545E+01 -0.14622645175E+04  0.14624802286E+04  0.00000000000E+00 0. -1.
          2    1    1    2  502    0  0.25056205326E+02  0.17568593545E+01  0.44860407568E+02  0.51413579405E+02  0.00000000000E+00 0.  1.
</event>
<event>
 4    1  0.8391192E+003  0.4307758E+02  0.7546771E-02  0.1331337E+00
          2   -1    0    0  501    0  0.00000000000E+00  0.00000000000E+00  0.35300507924E+03  0.35300507924E+03  0.00000000000E+00 0.  1.
          2   -1    0    0  502    0 -0.00000000000E+00 -0.00000000000E+00 -0.26100157413E+02  0.26100157413E+02  0.00000000000E+00 0.  1.
          2    1    1    2  501    0  0.43072430675E+02  0.66607790621E+00 -0.59392043167E+01  0.43485078957E+02  0.00000000000E+00 0.  1.
          2    1    1    2  502    0 -0.43072430675E+02 -0.66607790621E+00  0.33284412615E+03  0.33562015770E+03  0.00000000000E+00 0.  1.
</event>
<event>
 4    1  0.8391192E+003  0.2046660E+02  0.7546771E-02  0.1527018E+00
          2   -1    0    0  502    0  0.00000000000E+00  0.00000000000E+00  0.34672201905E+00  0.34672201905E+00  0.00000000000E+00 0. -1.
          2   -1    0    0  501    0 -0.00000000000E+00 -0.00000000000E+00 -0.12099149683E+04  0.12099149683E+04  0.00000000000E+00 0.  1.
          2    1    1    2  501    0 -0.46740846537E+01 -0.19925728276E+02 -0.62809357168E+03  0.62842693808E+03  0.00000000000E+00 0. -1.
          2    1    1    2  502    0  0.46740846537E+01  0.19925728276E+02 -0.58147467459E+03  0.58183475223E+03  0.00000000000E+00 0.  1.
</event>
<event>
 4    1  0.8391192E+003  0.2295495E+02  0.7546771E-02  0.1493065E+00
          2   -1    0    0  502    0  0.00000000000E+00  0.00000000000E+00  0.32550917444E+01  0.32550917444E+01  0.00000000000E+00 0. -1.
          2   -1    0    0  501    0 -0.00000000000E+00 -0.00000000000E+00 -0.41362219372E+03  0.41362219372E+03  0.00000000000E+00 0. -1.
          2    1    1    2  501    0  0.61281034863E+00  0.22946772928E+02 -0.42570472150E+02  0.48365018592E+02  0.00000000000E+00 0. -1.
          2    1    1    2  502    0 -0.61281034863E+00 -0.22946772928E+02 -0.36779662983E+03  0.36851226688E+03  0.00000000000E+00 0. -1.
</event>
<event>
 4    1  0.8391192E+003  0.4691516E+02  0.7546771E-02  0.1312131E+00
          2   -1    0    0  502    0  0.00000000000E+00  0.00000000000E+00  0.73919608837E+01  0.73919608837E+01  0.00000000000E+00 0.  1.
          2   -1    0    0  501    0 -0.00000000000E+00 -0.00000000000E+00 -0.10873124750E+04  0.10873124750E+04  0.00000000000E+00 0.  1.
          2    1    1    2  501    0  0.96721746926E+01 -0.45907308506E+02 -0.73537067460E+02  0.87228047256E+02  0.00000000000E+00 0.  1.
          2    1    1    2  502    0 -0.96721746926E+01  0.45907308506E+02 -0.10063834466E+04  0.10074763886E+04  0.00000000000E+00 0.  1.
</event>
<event>
 4    1  0.8391192E+003  0.2553714E+02  0.7546771E-02  0.1462883E+00
          2   -1    0    0  501    0  0.00000000000E+00  0.00000000000E+00  0.15158728212E+03  0.15158728212E+03  0.00000000000E+00 0. -1.
          2   -1    0    0  502    0 -0.00000000000E+00 -0.00000000000E+00 -0.22063628656E+03  0.22063628656E+03  0.00000000000E+00 0. -1.
          2    1    1    2  501    0  0.21841473996E+02  0.13232374397E+02 -0.21881288841E+03  0.22029803869E+03  0.00000000000E+00 0. -1.
          2    1    1    2  502    0 -0.21841473996E+02 -0.13232374397E+02  0.14976388398E+03  0.15192552999E+03  0.00000000000E+00 0. -1.
</event>
<event>
 4    1  0.8391192E+003  0.2075116E+02  0.7546771E-02  0.1522847E+00
          2   -1    0    0  501    0  0.00000000000E+00  0.00000000000E+00  0.22117142254E+03  0.22117142254E+03  0.00000000000E+00 0. -1.
          2   -1    0    0  502    0 -0.00000000000E+00 -0.00000000000E+00 -0.24693762304E+01  0.24693762304E+01  0.00000000000E+00 0. -1.
          2    1    1    2  501    0  0.19734047791E+01  0.20657113015E+02  0.57918465513E+02  0.61523648234E+02  0.00000000000E+00 0. -1.
          2    1    1    2  502    0 -0.19734047791E+01 -0.20657113015E+02  0.16078358080E+03  0.16211715054E+03  0.00000000000E+00 0. -1.
</event>
<event>
 4    1  0.8391192E+003  0.2138452E+02  0.7546771E-02  0.1513845E+00
          2   -1    0    0  501    0  0.00000000000E+00  0.00000000000E+00  0.10763872388E+01  0.10763872388E+01  0.00000000000E+00 0. -1.
          2   -1    0    0  502    0 -0.00000000000E+00 -0.00000000000E+00 -0.10336235691E+04  0.10336235691E+04  0.00000000000E+00 0. -1.
          2    1    1    2  501    0 -0.23883774124E+01 -0.21250729369E+02 -0.91331232263E+03  0.91356263962E+03  0.00000000000E+00 0. -1.
          2    1    1    2  502    0  0.23883774124E+01  0.21250729369E+02 -0.11923485921E+03  0.12113731669E+03  0.00000000000E+00 0. -1.
</event>
<event>
 4    1  0.8391192E+003  0.2697719E+02  0.7546771E-02  0.1447837E+00
          2   -1    0    0  501    0  0.00000000000E+00  0.00000000000E+00  0.12004573274E+01  0.12004573274E+01  0.00000000000E+00 0.  1.
          2   -1    0    0  502    0 -0.00000000000E+00 -0.00000000000E+00 -0.19158334951E+04  0.19158334951E+04  0.00000000000E+00 0.  1.
          2    1    1    2  501    0 -0.13500922620E+02 -0.23355812548E+02 -0.17497971925E+04  0.17500051382E+04  0.00000000000E+00 0.  1.
          2    1    1    2  502    0  0.13500922620E+02  0.23355812548E+02 -0.16483584533E+03  0.16702881427E+03  0.00000000000E+00 0.  1.
</event>
<event>
 4    1  0.8391192E+003  0.2400972E+02  0.7546771E-02  0.1480194E+00
          2   -1    0    0  501    0  0.00000000000E+00  0.00000000000E+00  0.31175547178E+02  0.31175547178E+02  0.00000000000E+00 0.  1.
          2   -1    0    0  502    0 -0.00000000000E+00 -0.00000000000E+00 -0.76497501969E+03  0.76497501969E+03  0.00000000000E+00 0. -1.
          2    1    1    2  501    0 -0.22831773176E+02  0.74281158704E+01 -0.76013444733E+03  0.76051354018E+03  0.00000000000E+00 0. -1.
          2    1    1    2  502    0  0.22831773176E+02 -0.74281158704E+01  0.26334974827E+02  0.35637026684E+02  0.00000000000E+00 0.  1.
</event>
<event>
 4    1  0.8391192E+003  0.3429162E+02  0.7546771E-02  0.1385613E+00
          2   -1    0    0  501    0  0.00000000000E+00  0.00000000000E+00  0.33632760822E+03  0.33632760822E+03  0.00000000000E+00 0. -1.
          2   -1    0    0  502    0 -0.00000000000E+00 -0.00000000000E+00 -0.47308294761E+01  0.47308294761E+01  0.00000000000E+00 0.  1.
          2    1    1    2  501    0  0.86281915494E+01  0.33188390016E+02  0.78687139899E+02  0.85834613686E+02  0.00000000000E+00 0.  1.
          2    1    1    2  502    0 -0.86281915494E+01 -0.33188390016E+02  0.25290963884E+03  0.25522382401E+03  0.00000000000E+00 0. -1.
</event>
<event>
 4    1  0.8391192E+003  0.5344587E+02  0.7546771E-02  0.1283886E+00
          2   -1    0    0  502    0  0.00000000000E+00  0.00000000000E+00  0.57221247455E+03  0.57221247455E+03  0.00000000000E+00 0. -1.
          2   -1    0    0  501    0 -0.00000000000E+00 -0.00000000000E+00 -0.58720051749E+01  0.58720051749E+01  0.00000000000E+00 0. -1.
          2    1    1    2  501    0 -0.17880457298E+02  0.50366165850E+02  0.39506782684E+03  0.39866658904E+03  0.00000000000E+00 0. -1.
          2    1    1    2  502    0  0.17880457298E+02 -0.50366165850E+02  0.17127264254E+03  0.17941789069E+03  0.00000000000E+00 0. -1.
</event>
<event>
 4    1  0.8391192E+003  0.3022649E+02  0.7546771E-02  0.1417638E+00
          2   -1    0    0  502    0  0.00000000000E+00  0.00000000000E+00  0.28505703263E+03  0.28505703263E+03  0.00000000000E+00 0.  1.
          2   -1    0    0  501    0 -0.00000000000E+00 -0.00000000000E+00 -0.63388995329E+02  0.63388995329E+02  0.00000000000E+00 0. -1.
          2    1    1    2  501    0 -0.40186059620E+01 -0.29958158373E+02  0.28059531481E+03  0.28221865838E+03  0.00000000000E+00 0.  1.
          2    1    1    2  502    0  0.40186059620E+01  0.29958158373E+02 -0.58927277506E+02  0.66227369578E+02  0.00000000000E+00 0. -1.
</event>
<event>
 4    1  0.8391192E+003  0.2632023E+02  0.7546771E-02  0.1454559E+00
          2   -1    0    0  502    0  0.00000000000E+00  0.00000000000E+00  0.13431224618E+02  0.13431224618E+02  0.00000000000E+00 0. -1.
          2   -1    0    0  501    0 -0.00000000000E+00 -0.00000000000E+00 -0.18682399686E+03  0.18682399686E+03  0.00000000000E+00 0. -1.
          2    1    1    2  501    0 -0.24051512172E+02  0.10690149498E+02 -0.15041783883E+01  0.26363176718E+02  0.00000000000E+00 0. -1.
          2    1    1    2  502    0  0.24051512172E+02 -0.10690149498E+02 -0.17188859386E+03  0.17389204476E+03  0.00000000000E+00 0. -1.
</event>
<event>
 4    1  0.8391192E+003  0.3135406E+02  0.7546771E-02  0.1408184E+00
          2   -1    0    0  502    0  0.00000000000E+00  0.00000000000E+00  0.13649485370E+02  0.13649485370E+02  0.00000000000E+00 0.  1.
          2   -1    0    0  501    0 -0.00000000000E+00 -0.00000000000E+00 -0.35964884368E+03  0.35964884368E+03  0.00000000000E+00 0. -1.
          2    1    1    2  501    0 -0.19233344066E+02  0.24761980744E+02 -0.60826483480E+01  0.31938625914E+02  0.00000000000E+00 0.  1.
          2    1    1    2  502    0  0.19233344066E+02 -0.24761980744E+02 -0.33991670996E+03  0.34135970313E+03  0.00000000000E+00 0. -1.
</event>
<event>
 4    1  0.8391192E+003  0.2178436E+02  0.7546771E-02  0.1508354E+00
          2   -1    0    0  502    0  0.00000000000E+00  0.00000000000E+00  0.97073416902E+01  0.97073416902E+01  0.00000000000E+00 0. -1.
          2   -1    0    0  501    0 -0.00000000000E+00 -0.00000000000E+00 -0.60786775663E+03  0.60786775663E+03  0.00000000000E+00 0.  1.
          2    1    1    2  501    0 -0.13554305474E+02 -0.17054010156E+02 -0.29696924973E+01  0.21985848467E+02  0.00000000000E+00 0. -1.
          2    1    1    2  502    0  0.13554305474E+02  0.17054010156E+02 -0.59519072244E+03  0.59558924985E+03  0.00000000000E+00 0.  1.
</event>
<event>
 4    1  0.8391192E+003  0.5182122E+02  0.7546771E-02  0.1290464E+00
          2   -1    0    0  502    0  0.00000000000E+00  0.00000000000E+00  0.41685672699E+03  0.41685672699E+03  0.00000000000E+00 0. -1.
          2   -1    0    0  501    0 -0.00000000000E+00 -0.00000000000E+00 -0.24001960093E+02  0.24001960093E+02  0.00000000000E+00 0.  1.
          2    1    1    2  501    0 -0.14788724057E+02 -0.49666209542E+02  0.38496864126E+03  0.38844084940E+03  0.00000000000E+00 0. -1.
          2    1    1    2  502    0  0.14788724057E+02  0.49666209542E+02  0.78861256350E+01  0.52417837680E+02  0.00000000000E+00 0.  1.
</event>
<event>
 4    1  0.8391192E+003  0.2367196E+02  0.7546771E-02  0.1484228E+00
          2   -1    0    0  502    0  0.00000000000E+00  0.00000000000E+00  0.26884084809E+03  0.26884084809E+03  0.00000000000E+00 0.  1.
          2   -1    0    0  501    0 -0.00000000000E+00 -0.00000000000E+00 -0.47333111894E+03  0.47333111894E+03  0.00000000000E+00 0.  1.
          2    1    1    2  501    0  0.83318438029E+01 -0.22157213337E+02  0.26802288895E+03  0.26906621996E+03  0.00000000000E+00 0.  1.
          2    1    1    2  502    0 -0.83318438029E+01  0.22157213337E+02 -0.47251315980E+03  0.47310574707E+03  0.00000000000E+00 0.  1.
</event>
<event>
 4    1  0.8391192E+003  0.2941272E+02  0.7546771E-02  0.1424770E+00
          2   -1    0    0  501    0  0.00000000000E+00  0.00000000000E+00  0.21863455168E+02  0.21863455168E+02  0.00000000000E+00 0.  1.
          2   -1    0    0  502    0 -0.00000000000E+00 -0.00000000000E+00 -0.47964984829E+03  0.47964984829E+03  0.00000000000E+00 0. -1.
          2    1    1    2  501    0 -0.56753941873E+00 -0.29407240211E+02 -0.46908418151E+03  0.47000540127E+03  0.00000000000E+00 0. -1.
          2    1    1    2  502    0  0.56753941873E+00  0.29407240211E+02  0.11297788391E+02  0.31507902188E+02  0.00000000000E+00 0.  1.
</event>
<event>
 4    1  0.8391192E+003  0.2544941E+02  0.7546771E-02  0.1463838E+00
          2   -1    0    0  502    0  0.00000000000E+00  0.00000000000E+00  0.11684850022E+03  0.11684850022E+03  0.00000000000E+00 0. -1.
          2   -1    0    0  501    0 -0.00000000000E+00 -0.00000000000E+00 -0.47873562930E+03  0.47873562930E+03  0.00000000000E+00 0. -1.
          2    1    1    2  501    0  0.21214157449E+02  0.14058170928E+02  0.11511955053E+03  0.11789903970E+03  0.00000000000E+00 0. -1.
          2    1    1    2  502    0 -0.21214157449E+02 -0.14058170928E+02 -0.47700667961E+03  0.47768508982E+03  0.00000000000E+00 0. -1.
</event>
<event>
 4    1  0.8391192E+003  0.2377556E+02  0.7546771E-02  0.1482982E+00
          2   -1    0    0  501    0  0.00000000000E+00  0.00000000000E+00  0.48056686133E+01  0.48056686133E+01  0.00000000000E+00 0. -1.
          2   -1    0    0  502    0 -0.00000000000E+00 -0.00000000000E+00 -0.13062989817E+04  0.13062989817E+04  0.00000000000E+00 0. -1.
          2    1    1    2  501    0 -0.23207271223E+02  0.51671638006E+01 -0.12760878768E+04  0.12763093458E+04  0.00000000000E+00 0. -1.
          2    1    1    2  502    0  0.23207271223E+02 -0.51671638006E+01 -0.25405436311E+02  0.34795304476E+02  0.00000000000E+00 0. -1.
</event>
<event>
 4    1  0.8391192E+003  0.2114013E+02  0.7546771E-02  0.1517274E+00
          2   -1    0    0  502    0  0.00000000000E+00  0.00000000000E+00  0.15289178404E+04  0.15289178404E+04  0.00000000000E+00 0. -1.
          2   -1    0    0  501    0 -0.00000000000E+00 -0.00000000000E+00 -0.25072246801E+03  0.25072246801E+03  0.00000000000E+00 0. -1.
          2    1    1    2  501    0 -0.64269670337E+01 -0.20139488763E+02  0.15283989967E+04  0.15285451900E+04  0.00000000000E+00 0. -1.
          2    1    1    2  502    0  0.64269670337E+01  0.20139488763E+02 -0.25020362424E+03  0.25109511842E+03  0.00000000000E+00 0. -1.
</event>
<event>
 4    1  0.8391192E+003  0.2497862E+02  0.7546771E-02  0.1469043E+00
          2   -1    0    0  501    0  0.00000000000E+00  0.00000000000E+00  0.64242763555E+03  0.64242763555E+03  0.00000000000E+00 0. -1.
          2   -1    0    0  502    0 -0.00000000000E+00 -0.00000000000E+00 -0.42023165068E+01  0.42023165068E+01  0.00000000000E+00 0. -1.
          2    1    1    2  501    0 -0.17043999927E+02  0.18260155602E+02  0.35609974680E+02  0.43497143732E+02  0.00000000000E+00 0. -1.
          2    1    1    2  502    0  0.17043999927E+02 -0.18260155602E+02  0.60261534437E+03  0.60313280833E+03  0.00000000000E+00 0. -1.
</event>
<event>
 4    1  0.8391192E+003  0.2190539E+02  0.7546771E-02  0.1506720E+00
          2   -1    0    0  502    0  0.00000000000E+00  0.00000000000E+00  0.73111745676E+03  0.73111745676E+03  0.00000000000E+00 0.  1.
          2   -1    0    0  501    0 -0.00000000000E+00 -0.00000000000E+00 -0.12052595466E+01  0.12052595466E+01  0.00000000000E+00 0. -1.
          2    1    1    2  501    0 -0.21191273180E+02 -0.55476342848E+01  0.61206868189E+03  0.61246054376E+03  0.00000000000E+00 0.  1.
          2    1    1    2  502    0  0.21191273180E+02  0.55476342848E+01  0.11784351532E+03  0.11986217254E+03  0.00000000000E+00 0. -1.
</event>
<event>
 4    1  0.8391192E+003  0.2897945E+02  0.7546771E-02  0.1428677E+00
          2   -1    0    0  502    0  0.00000000000E+00  0.00000000000E+00  0.18391163086E+03  0.18391163086E+03  0.00000000000E+00 0.  1.
          2   -1    0    0  501    0 -0.00000000000E+00 -0.00000000000E+00 -0.21855940647E+02  0.21855940647E+02  0.00000000000E+00 0.  1.
          2    1    1    2  501    0 -0.22644839522E+02 -0.18083692526E+02  0.17253483718E+03  0.17495164684E+03  0.00000000000E+00 0.  1.
          2    1    1    2  502    0  0.22644839522E+02  0.18083692526E+02 -0.10479146960E+02  0.30815924672E+02  0.00000000000E+00 0.  1.
</event>
<event>
 4    1  0.8391192E+003  0.2365973E+02  0.7546771E-02  0.1484376E+00
          2   -1    0    0  501    0  0.00000000000E+00  0.00000000000E+00  0.16443444606E+03  0.16443444606E+03  0.00000000000E+00 0.  1.
          2   -1    0    0  502    0 -0.00000000000E+00 -0.00000000000E+00 -0.12748028665E+03  0.12748028665E+03  0.00000000000E+00 0.  1.
          2    1    1    2  501    0 -0.21312897194E+02 -0.10273433356E+02 -0.12551824245E+03  0.12772866635E+03  0.00000000000E+00 0.  1.
          2    1    1    2  502    0  0.21312897194E+02  0.10273433356E+02  0.16247240187E+03  0.16418606636E+03  0.00000000000E+00 0.  1.
</event>
<event>
 4    1  0.8391192E+003  0.2996266E+02  0.7546771E-02  0.1419921E+00
          2   -1    0    0  501    0  0.00000000000E+00  0.00000000000E+00  0.24973840862E+04  0.24973840862E+04  0.00000000000E+00 0.  1.
          2   -1    0    0  502    0 -0.00000000000E+00 -0.00000000000E+00 -0.36302810504E+00  0.36302810504E+00  0.00000000000E+00 0.  1.
          2    1    1    2  501    0 -0.22280784040E+02 -0.20033170347E+02  0.11250560445E+04  0.11254549589E+04  0.00000000000E+00 0.  1.
          2    1    1    2  502    0  0.22280784040E+02  0.20033170347E+02  0.13719650137E+04  0.13722921555E+04  0.00000000000E+00 0.  1.
</event>
<event>
 4    1  0.8391192E+003  0.2517651E+02  0.7546771E-02  0.1466838E+00
          2   -1    0    0  502    0  0.00000000000E+00  0.00000000000E+00  0.10159900565E+04  0.10159900565E+04  0.00000000000E+00 0. -1.
          2   -1    0    0  501    0 -0.00000000000E+00 -0.00000000000E+00 -0.10298650734E+01  0.10298650734E+01  0.00000000000E+00 0. -1.
          2    1    1    2  501    0 -0.41937867400E+01 -0.24824764556E+02  0.82675431798E+03  0.82713756962E+03  0.00000000000E+00 0. -1.
          2    1    1    2  502    0  0.41937867400E+01  0.24824764556E+02  0.18820587340E+03  0.18988235191E+03  0.00000000000E+00 0. -1.
</event>
<event>
 4    1  0.8391192E+003  0.3022775E+02  0.7546771E-02  0.1417627E+00
          2   -1    0    0  501    0  0.00000000000E+00  0.00000000000E+00  0.73703435857E+03  0.73703435857E+03  0.00000000000E+00 0. -1.
          2   -1    0    0  502    0 -0.00000000000E+00 -0.00000000000E+00 -0.41987071816E+03  0.41987071816E+03  0.00000000000E+00 0. -1.
          2    1    1    2  501    0 -0.18157474737E+02 -0.24166566334E+02 -0.41901611014E+03  0.42010500756E+03  0.00000000000E+00 0. -1.
          2    1    1    2  502    0  0.18157474737E+02  0.24166566334E+02  0.73617975055E+03  0.73680006917E+03  0.00000000000E+00 0. -1.
</event>
<event>
 4    1  0.8391192E+003  0.2196001E+02  0.7546771E-02  0.1505987E+00
          2   -1    0    0  502    0  0.00000000000E+00  0.00000000000E+00  0.74772158510E+03  0.74772158510E+03  0.00000000000E+00 0.  1.
          2   -1    0    0  501    0 -0.00000000000E+00 -0.00000000000E+00 -0.45693670188E+01  0.45693670188E+01  0.00000000000E+00 0. -1.
          2    1    1    2  501    0  0.37885049454E-01  0.21959976184E+02  0.72016655042E+03  0.72050128545E+03  0.00000000000E+00 0.  1.
          2    1    1    2  502    0 -0.37885049454E-01 -0.21959976184E+02  0.22985667667E+02  0.31789666676E+02  0.00000000000E+00 0. -1.
</event>
<event>
 4    1  0.8391192E+003  0.4159107E+02  0.7546771E-02  0.1339406E+00
          2   -1    0    0  502    0  0.00000000000E+00  0.00000000000E+00  0.11744904906E+04  0.11744904906E+04  0.00000000000E+00 0. -1.
          2   -1    0    0  501    0 -0.00000000000E+00 -0.00000000000E+00 -0.29209355155E+03  0.29209355155E+03  0.00000000000E+00 0.  1.
          2    1    1    2  501    0  0.33805103626E+02  0.24228742966E+02  0.11726394150E+04  0.11733767573E+04  0.00000000000E+00 0. -1.
          2    1    1    2  502    0 -0.33805103626E+02 -0.24228742966E+02 -0.29024247596E+03  0.29320728482E+03  0.00000000000E+00 0.  1.
</event>
<event>
 4    1  0.8391192E+003  0.2509964E+02  0.7546771E-02  0.1467692E+00
          2   -1    0    0  502    0  0.00000000000E+00  0.00000000000E+00  0.12735259425E+04  0.12735259425E+04  0.00000000000E+00 0. -1.
          2   -1    0    0  501    0 -0.00000000000E+00 -0.00000000000E+00 -0.10280700005E+01  0.10280700005E+01  0.00000000000E+00 0. -1.
          2    1    1    2  501    0 -0.16391639345E+02  0.19008058565E+02  0.10952756496E+04  0.10955632071E+04  0.00000000000E+00 0. -1.
          2    1    1    2  502    0  0.16391639345E+02 -0.19008058565E+02  0.17722222292E+03  0.17899080543E+03  0.00000000000E+00 0. -1.
</event>
<event>
 4    1  0.8391192E+003  0.3143176E+02  0.7546771E-02  0.1407549E+00
          2   -1    0    0  502    0  0.00000000000E+00  0.00000000000E+00  0.69066920247E+02  0.69066920247E+02  0.00000000000E+00 0. -1.
          2   -1    0    0  501    0 -0.00000000000E+00 -0.00000000000E+00 -0.22074278994E+03  0.22074278994E+03  0.00000000000E+00 0.  1.
          2    1    1    2  501    0 -0.94932613391E+01  0.29963868612E+02  0.64293312398E+02  0.71565253107E+02  0.00000000000E+00 0. -1.
          2    1    1    2  502    0  0.94932613391E+01 -0.29963868612E+02 -0.21596918209E+03  0.21824445708E+03  0.00000000000E+00 0.  1.
</event>
<event>
 4    1  0.8391192E+003  0.2299136E+02  0.7546771E-02  0.1492607E+00
          2   -1    0    0  501    0  0.00000000000E+00  0.00000000000E+00  0.48254886617E+01  0.48254886617E+01  0.00000000000E+00 0.  1.
          2   -1    0    0  502    0 -0.00000000000E+00 -0.00000000000E+00 -0.21074019617E+03  0.21074019617E+03  0.00000000000E+00 0. -1.
          2    1    1    2  501    0 -0.86404261930E+01  0.21306004225E+02 -0.17764663512E+03  0.17912824944E+03  0.00000000000E+00 0. -1.
          2    1    1    2  502    0  0.86404261930E+01 -0.21306004225E+02 -0.28268072391E+02  0.36437435386E+02  0.00000000000E+00 0.  1.
</event>
<event>
 4    1  0.8391192E+003  0.2188301E+02  0.7546771E-02  0.1507022E+00
          2   -1    0    0  501    0  0.00000000000E+00  0.00000000000E+00  0.64745141136E+03  0.64745141136E+03  0.00000000000E+00 0. -1.
          2   -1    0    0  502    0 -0.00000000000E+00 -0.00000000000E+00 -0.99447851645E+00  0.99447851645E+00  0.00000000000E+00 0. -1.
          2    1    1    2  501    0  0.14523897738E+02  0.16368338838E+02  0.48736229780E+03  0.48785333394E+03  0.00000000000E+00 0. -1.
          2    1    1    2  502    0 -0.14523897738E+02 -0.16368338838E+02  0.15909463505E+03  0.16059255594E+03  0.00000000000E+00 0. -1.
</event>
<event>
 4    1  0.8391192E+003  0.2674259E+02  0.7546771E-02  0.1450211E+00
          2   -1    0    0  501    0  0.00000000000E+00  0.00000000000E+00  0.60617645688E+02  0.60617645688E+02  0.00000000000E+00 0. -1.
          2   -1    0    0  502    0 -0.00000000000E+00 -0.00000000000E+00 -0.35560786629E+03  0.35560786629E+03  0.00000000000E+00 0.  1.
          2    1    1    2  501    0  0.24773693089E+02 -0.10071263197E+02 -0.35212647314E+03  0.35314050928E+03  0.00000000000E+00 0.  1.
          2    1    1    2  502    0 -0.24773693089E+02  0.10071263197E+02  0.57136252534E+02  0.63085002697E+02  0.00000000000E+00 0. -1.
</event>
<event>
 4    1  0.8391192E+003  0.3012027E+02  0.7546771E-02  0.1418554E+00
          2   -1    0    0  502    0  0.00000000000E+00  0.00000000000E+00  0.56249358616E+01  0.56249358616E+01  0.00000000000E+00 0. -1.
          2   -1    0    0  501    0 -0.00000000000E+00 -0.00000000000E+00 -0.10604767716E+04  0.10604767716E+04  0.00000000000E+00 0. -1.
          2    1    1    2  501    0 -0.26431370627E+02  0.14443444888E+02 -0.36581698111E+02  0.47386190923E+02  0.00000000000E+00 0. -1.
          2    1    1    2  502    0  0.26431370627E+02 -0.14443444888E+02 -0.10182701376E+04  0.10187155165E+04  0.00000000000E+00 0. -1.
</event>
<event>
 4    1  0.8391192E+003  0.3821460E+02  0.7546771E-02  0.1359278E+00
          2   -1    0    0  502    0  0.00000000000E+00  0.00000000000E+00  0.72787190551E+03  0.72787190551E+03  0.00000000000E+00 0. -1.
          2   -1    0    0  501    0 -0.00000000000E+00 -0.00000000000E+00 -0.85147125694E+01  0.85147125694E+01  0.00000000000E+00 0. -1.
          2    1    1    2  501    0 -0.16604562161E+01 -0.38178512051E+02  0.68158322346E+03  0.68265367969E+03  0.00000000000E+00 0. -1.
          2    1    1    2  502    0  0.16604562161E+01  0.38178512051E+02  0.37773969482E+02  0.53732938387E+02  0.00000000000E+00 0. -1.
</event>
<event>
 4    1  0.8391192E+003  0.2487725E+02  0.7546771E-02  0.1470181E+00
          2   -1    0    0  501    0  0.00000000000E+00  0.00000000000E+00  0.38687584578E+02  0.38687584578E+02  0.00000000000E+00 0. -1.
          2   -1    0    0  502    0 -0.00000000000E+00 -0.00000000000E+00 -0.32565712141E+03  0.32565712141E+03  0.00000000000E+00 0.  1.
          2    1    1    2  501    0  0.19326909759E+02 -0.15663584816E+02 -0.32112648539E+03  0.32208864766E+03  0.00000000000E+00 0.  1.
          2    1    1    2  502    0 -0.19326909759E+02  0.15663584816E+02  0.34156948563E+02  0.42256058326E+02  0.00000000000E+00 0. -1.
</event>
<event>
 4    1  0.8391192E+003  0.2560904E+02  0.7546771E-02  0.1462104E+00
          2   -1    0    0  502    0  0.00000000000E+00  0.00000000000E+00  0.24279069235E+02  0.24279069235E+02  0.00000000000E+00 0.  1.
          2   -1    0    0  501    0 -0.00000000000E+00 -0.00000000000E+00 -0.27911013253E+02  0.27911013253E+02  0.00000000000E+00 0. -1.
          2    1    1    2  501    0 -0.18422681765E+02  0.17788415249E+02 -0.64996393093E+01  0.26420980898E+02  0.00000000000E+00 0. -1.
          2    1    1    2  502    0  0.18422681765E+02 -0.17788415249E+02  0.28676952913E+01  0.25769101590E+02  0.00000000000E+00 0.  1.
</event>
<event>
 4    1  0.8391192E+003  0.2529895E+02  0.7546771E-02  0.1465487E+00
          2   -1    0    0  501    0  0.00000000000E+00  0.00000000000E+00  0.36724488504E+03  0.36724488504E+03  0.00000000000E+00 0. -1.
          2   -1    0    0  502    0 -0.00000000000E+00 -0.00000000000E+00 -0.13996688330E+04  0.13996688330E+04  0.00000000000E+00 0.  1.
          2    1    1    2  501    0  0.20818999422E+02 -0.14373803830E+02 -0.13991186406E+04  0.13993473505E+04  0.00000000000E+00 0.  1.
          2    1    1    2  502    0 -0.20818999422E+02  0.14373803830E+02  0.36669469259E+03  0.36756636754E+03  0.00000000000E+00 0. -1.
</event>
<event>
 4    1  0.8391192E+003  0.2400780E+02  0.7546771E-02  0.1480217E+00
          2   -1    0    0  502    0  0.00000000000E+00  0.00000000000E+00  0.24335452461E+03  0.24335452461E+03  0.00000000000E+00 0. -1.
          2   -1    0    0  501    0 -0.00000000000E+00 -0.00000000000E+00 -0.23286493137E+02  0.23286493137E+02  0.00000000000E+00 0. -1.
          2    1    1    2  501    0  0.25187126299E+01 -0.23875311535E+02  0.23639278446E+03  0.23760876027E+03  0.00000000000E+00 0. -1.
          2    1    1    2  502    0 -0.25187126299E+01  0.23875311535E+02 -0.16324752983E+02  0.29032257476E+02  0.00000000000E+00 0. -1.
</event>
<event>
 4    1  0.8391192E+003  0.4196224E+02  0.7546771E-02  0.1337355E+00
          2   -1    0    0  502    0  0.00000000000E+00  0.00000000000E+00  0.18000737227E+04  0.18000737227E+04  0.00000000000E+00 0. -1.
          2   -1    0    0  501    0 -0.00000000000E+00 -0.00000000000E+00 -0.20875071241E+01  0.20875071241E+01  0.00000000000E+00 0. -1.
          2    1    1    2  501    0  0.21364347130E+00  0.41961696595E+02  0.15558576748E+04  0.15564234430E+04  0.00000000000E+00 0. -1.
          2    1    1    2  502    0 -0.21364347130E+00 -0.41961696595E+02  0.24212854078E+03  0.24573778685E+03  0.00000000000E+00 0. -1.
</event>
<event>
 4    1  0.8391192E+003  0.2191659E+02  0.7546771E-02  0.1506570E+00
          2   -1    0    0  502    0  0.00000000000E+00  0.00000000000E+00  0.48478432225E+01  0.48478432225E+01  0.00000000000E+00 0.  1.
          2   -1    0    0  501    0 -0.00000000000E+00 -0.00000000000E+00 -0.34681296770E+03  0.34681296770E+03  0.00000000000E+00 0. -1.
          2    1    1    2  501    0 -0.21646161756E+02  0.34322981051E+01 -0.22376706418E+02  0.31321781226E+02  0.00000000000E+00 0.  1.
          2    1    1    2  502    0  0.21646161756E+02 -0.34322981051E+01 -0.31958841805E+03  0.32033902969E+03  0.00000000000E+00 0. -1.
</event>
<event>
 4    1  0.8391192E+003  0.2446960E+02  0.7546771E-02  0.1474825E+00
          2   -1    0    0  501    0  0.00000000000E+00  0.00000000000E+00  0.14041935572E+02  0.14041935572E+02  0.00000000000E+00 0. -1.
          2   -1    0    0  502    0 -0.00000000000E+00 -0.00000000000E+00 -0.43681575827E+02  0.43681575827E+02  0.00000000000E+00 0. -1.
          2    1    1    2  501    0  0.12335942799E+02  0.21132574343E+02 -0.19274589244E+02  0.31149172921E+02  0.00000000000E+00 0. -1.
          2    1    1    2  502    0 -0.12335942799E+02 -0.21132574343E+02 -0.10365051011E+02  0.26574338478E+02  0.00000000000E+00 0. -1.
</event>
<event>
 4    1  0.8391192E+003  0.2038992E+02  0.7546771E-02  0.1528156E+00
          2   -1    0    0  502    0  0.00000000000E+00  0.00000000000E+00  0.61279523834E+01  0.61279523834E+01  0.00000000000E+00 0.  1.
          2   -1    0    0  501    0 -0.00000000000E+00 -0.00000000000E+00 -0.18707954228E+03  0.18707954228E+03  0.00000000000E+00 0. -1.
          2    1    1    2  501    0  0.78986721714E+01  0.18797865964E+02 -0.13353045268E+02  0.24373194391E+02  0.00000000000E+00 0.  1.
          2    1    1    2  502    0 -0.78986721714E+01 -0.18797865964E+02 -0.16759854463E+03  0.16883430027E+03  0.00000000000E+00 0. -1.
</event>
<event>
 4    1  0.8391192E+003  0.2609509E+02  0.7546771E-02  0.1456916E+00
          2   -1    0    0  501    0  0.00000000000E+00  0.00000000000E+00  0.12435321475E+03  0.12435321475E+03  0.00000000000E+00 0. -1.
          2   -1    0    0  502    0 -0.00000000000E+00 -0.00000000000E+00 -0.15674300003E+03  0.15674300003E+03  0.00000000000E+00 0. -1.
          2    1    1    2  501    0 -0.78486352985E+01 -0.24886800814E+02 -0.15426608352E+03  0.15645759315E+03  0.00000000000E+00 0. -1.
          2    1    1    2  502    0  0.78486352985E+01  0.24886800814E+02  0.12187629823E+03  0.12463862163E+03  0.00000000000E+00 0. -1.
</event>
<event>
 4    1  0.8391192E+003  0.2114136E+02  0.7546771E-02  0.1517256E+00
          2   -1    0    0  502    0  0.00000000000E+00  0.00000000000E+00  0.22446633942E+02  0.22446633942E+02  0.00000000000E+00 0.  1.
          2   -1    0    0  501    0 -0.00000000000E+00 -0.00000000000E+00 -0.31734994601E+02  0.31734994601E+02  0.00000000000E+00 0. -1.
          2    1    1    2  501    0  0.17447025738E+02  0.11939779694E+02  0.11891301682E+02  0.24256135346E+02  0.00000000000E+00 0.  1.
          2    1    1    2  502    0 -0.17447025738E+02 -0.11939779694E+02 -0.21179662341E+02  0.29925493198E+02  0.00000000000E+00 0. -1.
</event>
<event>
 4    1  0.8391192E+003  0.2192745E+02  0.7546771E-02  0.1506424E+00
          2   -1    0    0  501    0  0.00000000000E+00  0.00000000000E+00  0.12250174637E+02  0.12250174637E+02  0.00000000000E+00 0. -1.
          2   -1    0    0  502    0 -0.00000000000E+00 -0.00000000000E+00 -0.44188527596E+02  0.44188527596E+02  0.00000000000E+00 0. -1.
          2    1    1    2  501    0 -0.21259221003E+02  0.53720100902E+01 -0.25403568429E+02  0.33558221929E+02  0.00000000000E+00 0. -1.
          2    1    1    2  502    0  0.21259221003E+02 -0.53720100902E+01 -0.65347845302E+01  0.22880480304E+02  0.00000000000E+00 0. -1.
</event>
<event>
 4    1  0.8391192E+003  0.2071850E+02  0.7546771E-02  0.1523322E+00
          2   -1    0    0  501    0  0.00000000000E+00  0.00000000000E+00  0.69192564119E+01  0.69192564119E+01  0.00000000000E+00 0. -1.
          2   -1    0    0  502    0 -0.00000000000E+00 -0.00000000000E+00 -0.12521824034E+03  0.12521824034E+03  0.00000000000E+00 0. -1.
          2    1    1    2  501    0 -0.78443708919E+01 -0.19176086446E+02 -0.10607976798E+03  0.10808410438E+03  0.00000000000E+00 0. -1.
          2    1    1    2  502    0  0.78443708919E+01  0.19176086446E+02 -0.12219215954E+02  0.24053392373E+02  0.00000000000E+00 0. -1.
</event>
<event>
 4    1  0.8391192E+003  0.2233562E+02  0.7546771E-02  0.1501014E+00
          2   -1    0    0  501    0  0.00000000000E+00  0.00000000000E+00  0.48055687772E+01  0.48055687772E+01  0.00000000000E+00 0. -1.
          2   -1    0    0  502    0 -0.00000000000E+00 -0.00000000000E+00 -0.23618121777E+03  0.23618121777E+03  0.00000000000E+00 0.  1.
          2    1    1    2  501    0  0.11901282363E+02 -0.18900779287E+02 -0.20589323734E+03  0.20710119546E+03  0.00000000000E+00 0.  1.
          2    1    1    2  502    0 -0.11901282363E+02  0.18900779287E+02 -0.25482411653E+02  0.33885591085E+02  0.00000000000E+00 0. -1.
</event>
<event>
 4    1  0.8391192E+003  0.4233961E+02  0.7546771E-02  0.1335295E+00
          2   -1    0    0  501    0  0.00000000000E+00  0.00000000000E+00  0.11381143617E+01  0.11381143617E+01  0.00000000000E+00 0.  1.
          2   -1    0    0  502    0 -0.00000000000E+00 -0.00000000000E+00 -0.31920439458E+04  0.31920439458E+04  0.00000000000E+00 0.  1.
          2    1    1    2  501    0 -0.31012906126E+02  0.28824338477E+02 -0.27317891775E+04  0.27321172657E+04  0.00000000000E+00 0.  1.
          2    1    1    2  502    0  0.31012906126E+02 -0.28824338477E+02 -0.45911665393E+03  0.46106479453E+03  0.00000000000E+00 0.  1.
</event>
<event>
 4    1  0.8391192E+003  0.2071330E+02  0.7546771E-02  0.1523398E+00
          2   -1    0    0  502    0  0.00000000000E+00  0.00000000000E+00  0.24859964427E+03  0.24859964427E+03  0.00000000000E+00 0. -1.
          2   -1    0    0  501    0 -0.00000000000E+00 -0.00000000000E+00 -0.40593402239E+01  0.40593402239E+01  0.00000000000E+00 0. -1.
          2    1    1    2  501    0  0.20630217242E+02 -0.18533124015E+01  0.21805171366E+03  0.21903330902E+03  0.00000000000E+00 0. -1.
          2    1    1    2  502    0 -0.20630217242E+02  0.18533124015E+01  0.26488590378E+02  0.33625675466E+02  0.00000000000E+00 0. -1.
</event>
<event>
 4    1  0.8391192E+003  0.2546724E+02  0.7546771E-02  0.1463644E+00
          2   -1    0    0  502    0  0.00000000000E+00  0.00000000000E+00  0.12754875304E+04  0.12754875304E+04  0.00000000000E+00 0.  1.
          2   -1    0    0  501    0 -0.00000000000E+00 -0.00000000000E+00 -0.40439862251E+02  0.40439862251E+02  0.00000000000E+00 0.  1.
          2    1    1    2  501    0 -0.15772261931E+02 -0.19995406365E+02  0.12713377831E+04  0.12715928355E+04  0.00000000000E+00 0.  1.
          2    1    1    2  502    0  0.15772261931E+02  0.19995406365E+02 -0.36290114911E+02  0.44334557203E+02  0.00000000000E+00 0.  1.
</event>
<event>
 4    1  0.8391192E+003  0.2318734E+02  0.7546771E-02  0.1490159E+00
          2   -1    0    0  501    0  0.00000000000E+00  0.00000000000E+00  0.14436408530E+03  0.14436408530E+03  0.00000000000E+00 0. -1.
          2   -1    0    0  502    0 -0.00000000000E+00 -0.00000000000E+00 -0.16130115924E+02  0.16130115924E+02  0.00000000000E+00 0. -1.
          2    1    1    2  501    0  0.11353580486E+02 -0.20217536924E+02 -0.62588541086E+01  0.24017198919E+02  0.00000000000E+00 0. -1.
          2    1    1    2  502    0 -0.11353580486E+02  0.20217536924E+02  0.13449282349E+03  0.13647700231E+03  0.00000000000E+00 0. -1.
</event>
<event>
 4    1  0.8391192E+003  0.2163768E+02  0.7546771E-02  0.1510352E+00
          2   -1    0    0  501    0  0.00000000000E+00  0.00000000000E+00  0.66050384253E+03  0.66050384253E+03  0.00000000000E+00 0. -1.
          2   -1    0    0  502    0 -0.00000000000E+00 -0.00000000000E+00 -0.72161814041E+00  0.72161814041E+00  0.00000000000E+00 0.  1.
          2    1    1    2  501    0  0.18282934220E+02  0.11572536229E+02  0.28589057756E+03  0.28670823430E+03  0.00000000000E+00 0.  1.
          2    1    1    2  502    0 -0.18282934220E+02 -0.11572536229E+02  0.37389164683E+03  0.37451722637E+03  0.00000000000E+00 0. -1.
</event>
<event>
 4    1  0.8391192E+003  0.2846252E+02  0.7546771E-02  0.1433445E+00
          2   -1    0    0  501    0  0.00000000000E+00  0.00000000000E+00  0.17859453345E+04  0.17859453345E+04  0.00000000000E+00 0. -1.
          2   -1    0    0  502    0 -0.00000000000E+00 -0.00000000000E+00 -0.83770810476E+01  0.83770810476E+01  0.00000000000E+00 0.  1.
          2    1    1    2  501    0  0.25437910543E+02  0.12768231137E+02  0.16250881778E+02  0.32775084709E+02  0.00000000000E+00 0.  1.
          2    1    1    2  502    0 -0.25437910543E+02 -0.12768231137E+02  0.17613173717E+04  0.17615473309E+04  0.00000000000E+00 0. -1.
</event>
<event>
 4    1  0.8391192E+003  0.2778045E+02  0.7546771E-02  0.1439922E+00
          2   -1    0    0  501    0  0.00000000000E+00  0.00000000000E+00  0.93922517866E+03  0.93922517866E+03  0.00000000000E+00 0.  1.
          2   -1    0    0  502    0 -0.00000000000E+00 -0.00000000000E+00 -0.84810542305E+00  0.84810542305E+00  0.00000000000E+00 0. -1.
          2    1    1    2  501    0  0.12772635803E+02 -0.24670090513E+02  0.38623763683E+03  0.38723541380E+03  0.00000000000E+00 0. -1.
          2    1    1    2  502    0 -0.12772635803E+02  0.24670090513E+02  0.55213943640E+03  0.55283787028E+03  0.00000000000E+00 0.  1.
</event>
<event>
 4    1  0.8391192E+003  0.2120195E+02  0.7546771E-02  0.1516401E+00
          2   -1    0    0  501    0  0.00000000000E+00  0.00000000000E+00  0.46335658102E+03  0.46335658102E+03  0.00000000000E+00 0. -1.
          2   -1    0    0  502    0 -0.00000000000E+00 -0.00000000000E+00 -0.97164099822E+00  0.97164099822E+00  0.00000000000E+00 0.  1.
          2    1    1    2  501    0  0.20248332497E+02 -0.62870996849E+01  0.24030539272E+03  0.24123889480E+03  0.00000000000E+00 0. -1.
          2    1    1    2  502    0 -0.20248332497E+02  0.62870996849E+01  0.22207954730E+03  0.22308932722E+03  0.00000000000E+00 0.  1.
</event>
<event>
 4    1  0.8391192E+003  0.2081547E+02  0.7546771E-02  0.1521916E+00
          2   -1    0    0  502    0  0.00000000000E+00  0.00000000000E+00  0.11894432834E+04  0.11894432834E+04  0.00000000000E+00 0.  1.
          2   -1    0    0  501    0 -0.00000000000E+00 -0.00000000000E+00 -0.20751810643E+03  0.20751810643E+03  0.00000000000E+00 0.  1.
          2    1    1    2  501    0  0.20810395214E+02  0.45965425337E+00  0.11888299624E+04  0.11890121796E+04  0.00000000000E+00 0.  1.
          2    1    1    2  502    0 -0.20810395214E+02 -0.45965425337E+00 -0.20690478538E+03  0.20794921025E+03  0.00000000000E+00 0.  1.
</event>
<event>
 4    1  0.8391192E+003  0.2181256E+02  0.7546771E-02  0.1507972E+00
          2   -1    0    0  502    0  0.00000000000E+00  0.00000000000E+00  0.14245797425E+03  0.14245797425E+03  0.00000000000E+00 0. -1.
          2   -1    0    0  501    0 -0.00000000000E+00 -0.00000000000E+00 -0.96610394542E+01  0.96610394542E+01  0.00000000000E+00 0.  1.
          2    1    1    2  501    0  0.11248251057E+02 -0.18688625186E+02  0.12792197361E+03  0.12976832893E+03  0.00000000000E+00 0. -1.
          2    1    1    2  502    0 -0.11248251057E+02  0.18688625186E+02  0.48749611936E+01  0.22350684773E+02  0.00000000000E+00 0.  1.
</event>
<event>
 4    1  0.8391192E+003  0.2470019E+02  0.7546771E-02  0.1472185E+00
          2   -1    0    0  501    0  0.00000000000E+00  0.00000000000E+00  0.10284532049E+04  0.10284532049E+04  0.00000000000E+00 0.  1.
          2   -1    0    0  502    0 -0.00000000000E+00 -0.00000000000E+00 -0.23274851462E+03  0.23274851462E+03  0.00000000000E+00 0. -1.
          2    1    1    2  501    0 -0.15467793555E+02 -0.19257382915E+02 -0.23194437636E+03  0.23325585343E+03  0.00000000000E+00 0. -1.
          2    1    1    2  502    0  0.15467793555E+02  0.19257382915E+02  0.10276490666E+04  0.10279458661E+04  0.00000000000E+00 0.  1.
</event>
<event>
 4    1  0.8391192E+003  0.5322623E+02  0.7546771E-02  0.1284760E+00
          2   -1    0    0  501    0  0.00000000000E+00  0.00000000000E+00  0.16912317731E+04  0.16912317731E+04  0.00000000000E+00 0.  1.
          2   -1    0    0  502    0 -0.00000000000E+00 -0.00000000000E+00 -0.21576490274E+01  0.21576490274E+01  0.00000000000E+00 0.  1.
          2    1    1    2  501    0  0.52200553564E+02 -0.10398727117E+02  0.44413699939E+03  0.44731499589E+03  0.00000000000E+00 0.  1.
          2    1    1    2  502    0 -0.52200553564E+02  0.10398727117E+02  0.12449371247E+04  0.12460744263E+04  0.00000000000E+00 0.  1.
</event>
<event>
 4    1  0.8391192E+003  0.2360215E+02  0.7546771E-02  0.1485072E+00
          2   -1    0    0  501    0  0.00000000000E+00  0.00000000000E+00  0.29594724802E+02  0.29594724802E+02  0.00000000000E+00 0.  1.
          2   -1    0    0  502    0 -0.00000000000E+00 -0.00000000000E+00 -0.62841778256E+02  0.62841778256E+02  0.00000000000E+00 0. -1.
          2    1    1    2  501    0  0.21589628098E+02 -0.95367392698E+01 -0.55305469879E+02  0.60131160273E+02  0.00000000000E+00 0. -1.
          2    1    1    2  502    0 -0.21589628098E+02  0.95367392698E+01  0.22058416424E+02  0.32305342785E+02  0.00000000000E+00 0.  1.
</event>
<event>
 4    1  0.8391192E+003  0.2109898E+02  0.7546771E-02  0.1517856E+00
          2   -1    0    0  502    0  0.00000000000E+00  0.00000000000E+00  0.43140359560E+02  0.43140359560E+02  0.00000000000E+00 0. -1.
          2   -1    0    0  501    0 -0.00000000000E+00 -0.00000000000E+00 -0.10526288707E+02  0.10526288707E+02  0.00000000000E+00 0.  1.
          2    1    1    2  501    0  0.47090562009E+01 -0.20566762548E+02  0.20072224017E+02  0.29121488784E+02  0.00000000000E+00 0. -1.
          2    1    1    2  502    0 -0.47090562009E+01  0.20566762548E+02  0.12541846836E+02  0.24545159483E+02  0.00000000000E+00 0.  1.
</event>
<event>
 4    1  0.8391192E+003  0.4167510E+02  0.7546771E-02  0.1338940E+00
          2   -1    0    0  502    0  0.00000000000E+00  0.00000000000E+00  0.30728378969E+03  0.30728378969E+03  0.00000000000E+00 0.  1.
          2   -1    0    0  501    0 -0.00000000000E+00 -0.00000000000E+00 -0.39154351259E+03  0.39154351259E+03  0.00000000000E+00 0.  1.
          2    1    1    2  501    0  0.32944651816E+02 -0.25523787906E+02  0.30475263124E+03  0.30758897913E+03  0.00000000000E+00 0.  1.
          2    1    1    2  502    0 -0.32944651816E+02  0.25523787906E+02 -0.38901235414E+03  0.39123832315E+03  0.00000000000E+00 0.  1.
</event>
<event>
 4    1  0.8391192E+003  0.2823691E+02  0.7546771E-02  0.1435564E+00
          2   -1    0    0  502    0  0.00000000000E+00  0.00000000000E+00  0.46357226636E+01  0.46357226636E+01  0.00000000000E+00 0.  1.
          2   -1    0    0  501    0 -0.00000000000E+00 -0.00000000000E+00 -0.49162083892E+03  0.49162083892E+03  0.00000000000E+00 0.  1.
          2    1    1    2  501    0 -0.26931733791E+02 -0.84855550540E+01 -0.43422637488E+02  0.51796219707E+02  0.00000000000E+00 0.  1.
          2    1    1    2  502    0  0.26931733791E+02  0.84855550540E+01 -0.44356247877E+03  0.44446034188E+03  0.00000000000E+00 0.  1.
</event>
<event>
 4    1  0.8391192E+003  0.2697255E+02  0.7546771E-02  0.1447884E+00
          2   -1    0    0  502    0  0.00000000000E+00  0.00000000000E+00  0.10119454154E+03  0.10119454154E+03  0.00000000000E+00 0. -1.
          2   -1    0    0  501    0 -0.00000000000E+00 -0.00000000000E+00 -0.58216680524E+02  0.58216680524E+02  0.00000000000E+00 0. -1.
          2    1    1    2  501    0 -0.49226241458E+01 -0.26519546869E+02  0.96110913368E+02  0.99823976394E+02  0.00000000000E+00 0. -1.
          2    1    1    2  502    0  0.49226241458E+01  0.26519546869E+02 -0.53133052351E+02  0.59587245672E+02  0.00000000000E+00 0. -1.
</event>
<event>
 4    1  0.8391192E+003  0.3703478E+02  0.7546771E-02  0.1366796E+00
          2   -1    0    0  502    0  0.00000000000E+00  0.00000000000E+00  0.63326861004E+00  0.63326861004E+00  0.00000000000E+00 0. -1.
          2   -1    0    0  501    0 -0.00000000000E+00 -0.00000000000E+00 -0.21667635100E+04  0.21667635100E+04  0.00000000000E+00 0. -1.
          2    1    1    2  501    0 -0.16702790138E+02 -0.33054371520E+02 -0.11051262570E+04  0.11057466340E+04  0.00000000000E+00 0. -1.
          2    1    1    2  502    0  0.16702790138E+02  0.33054371520E+02 -0.10610039844E+04  0.10616501446E+04  0.00000000000E+00 0. -1.
</event>
<event>
 4    1  0.8391192E+003  0.2354240E+02  0.7546771E-02  0.1485797E+00
          2   -1    0    0  502    0  0.00000000000E+00  0.00000000000E+00  0.33307984830E+00  0.33307984830E+00  0.00000000000E+00 0. -1.
          2   -1    0    0  501    0 -0.00000000000E+00 -0.00000000000E+00 -0.16722666056E+04  0.16722666056E+04  0.00000000000E+00 0. -1.
          2    1    1    2  501    0  0.22964178790E+02 -0.51856711785E+01 -0.77716550327E+03  0.77752200237E+03  0.00000000000E+00 0. -1.
          2    1    1    2  502    0 -0.22964178790E+02  0.51856711785E+01 -0.89476802252E+03  0.89507768312E+03  0.00000000000E+00 0. -1.
</event>
<event>
 4    1  0.8391192E+003  0.2108147E+02  0.7546771E-02  0.1518105E+00
          2   -1    0    0  501    0  0.00000000000E+00  0.00000000000E+00  0.30028949702E+03  0.30028949702E+03  0.00000000000E+00 0. -1.
          2   -1    0    0  502    0 -0.00000000000E+00 -0.00000000000E+00 -0.18550661514E+01  0.18550661514E+01  0.00000000000E+00 0.  1.
          2    1    1    2  501    0  0.18233478599E+02 -0.10581521177E+02  0.81287583479E+02  0.83976779887E+02  0.00000000000E+00 0.  1.
          2    1    1    2  502    0 -0.18233478599E+02  0.10581521177E+02  0.21714684739E+03  0.21816778328E+03  0.00000000000E+00 0. -1.
</event>
<event>
 4    1  0.8391192E+003  0.2387915E+02  0.7546771E-02  0.1481744E+00
          2   -1    0    0  501    0  0.00000000000E+00  0.00000000000E+00  0.74446592755E+02  0.74446592755E+02  0.00000000000E+00 0.  1.
          2   -1    0    0  502    0 -0.00000000000E+00 -0.00000000000E+00 -0.73780894970E+02  0.73780894970E+02  0.00000000000E+00 0.  1.
          2    1    1    2  501    0 -0.17347834600E+02  0.16409345266E+02 -0.69828547550E+02  0.73798645179E+02  0.00000000000E+00 0.  1.
          2    1    1    2  502    0  0.17347834600E+02 -0.16409345266E+02  0.70494245335E+02  0.74428842546E+02  0.00000000000E+00 0.  1.
</event>
<event>
 4    1  0.8391192E+003  0.2567782E+02  0.7546771E-02  0.1461362E+00
          2   -1    0    0  501    0  0.00000000000E+00  0.00000000000E+00  0.99291002828E+01  0.99291002828E+01  0.00000000000E+00 0.  1.
          2   -1    0    0  502    0 -0.00000000000E+00 -0.00000000000E+00 -0.13779107911E+03  0.13779107911E+03  0.00000000000E+00 0.  1.
          2    1    1    2  501    0  0.25664272305E+02 -0.83386458152E+00 -0.11709325762E+03  0.11987569054E+03  0.00000000000E+00 0.  1.
          2    1    1    2  502    0 -0.25664272305E+02  0.83386458152E+00 -0.10768721214E+02  0.27844488857E+02  0.00000000000E+00 0.  1.
</event>
<event>
 4    1  0.8391192E+003  0.3462926E+02  0.7546771E-02  0.1383188E+00
          2   -1    0    0  501    0  0.00000000000E+00  0.00000000000E+00  0.73344921640E+02  0.73344921640E+02  0.00000000000E+00 0. -1.
          2   -1    0    0  502    0 -0.00000000000E+00 -0.00000000000E+00 -0.41574053448E+02  0.41574053448E+02  0.00000000000E+00 0. -1.
          2    1    1    2  501    0  0.23966385219E+02 -0.24995958593E+02 -0.28871307410E+02  0.45085895333E+02  0.00000000000E+00 0. -1.
          2    1    1    2  502    0 -0.23966385219E+02  0.24995958593E+02  0.60642175601E+02  0.69833079755E+02  0.00000000000E+00 0. -1.
</event>
<event>
 4    1  0.8391192E+003  0.3694658E+02  0.7546771E-02  0.1367372E+00
          2   -1    0    0  501    0  0.00000000000E+00  0.00000000000E+00  0.57154384749E+03  0.57154384749E+03  0.00000000000E+00 0. -1.
          2   -1    0    0  502    0 -0.00000000000E+00 -0.00000000000E+00 -0.65406427049E+01  0.65406427049E+01  0.00000000000E+00 0.  1.
          2    1    1    2  501    0  0.20643366511E+02  0.30641495956E+02  0.52201142633E+02  0.63953179339E+02  0.00000000000E+00 0.  1.
          2    1    1    2  502    0 -0.20643366511E+02 -0.30641495956E+02  0.51280206216E+03  0.51413131086E+03  0.00000000000E+00 0. -1.
</event>
<event>
 4    1  0.8391192E+003  0.2225721E+02  0.7546771E-02  0.1502042E+00
          2   -1    0    0  502    0  0.00000000000E+00  0.00000000000E+00  0.23605199925E+04  0.23605199925E+04  0.00000000000E+00 0.  1.
          2   -1    0    0  501    0 -0.00000000000E+00 -0.00000000000E+00 -0.22353343741E+00  0.22353343741E+00  0.00000000000E+00 0.  1.
          2    1    1    2  501    0  0.17225153406E+02  0.14095297814E+02  0.14720625733E+04  0.14722308253E+04  0.00000000000E+00 0.  1.
          2    1    1    2  502    0 -0.17225153406E+02 -0.14095297814E+02  0.88823388576E+03  0.88851270061E+03  0.00000000000E+00 0.  1.
</event>
<event>
 4    1  0.8391192E+003  0.4539247E+02  0.7546771E-02  0.1319488E+00
          2   -1    0    0  502    0  0.00000000000E+00  0.00000000000E+00  0.13320740735E+02  0.13320740735E+02  0.00000000000E+00 0.  1.
          2   -1    0    0  501    0 -0.00000000000E+00 -0.00000000000E+00 -0.38094688046E+03  0.38094688046E+03  0.00000000000E+00 0. -1.
          2    1    1    2  501    0 -0.26656015579E+02 -0.36741430686E+02 -0.31885114919E+02  0.55471942897E+02  0.00000000000E+00 0.  1.
          2    1    1    2  502    0  0.26656015579E+02  0.36741430686E+02 -0.33574102481E+03  0.33879567830E+03  0.00000000000E+00 0. -1.
</event>
<event>
 4    1  0.8391192E+003  0.4157053E+02  0.7546771E-02  0.1339520E+00
          2   -1    0    0  502    0  0.00000000000E+00  0.00000000000E+00  0.13098942219E+01  0.13098942219E+01  0.00000000000E+00 0. -1.
          2   -1    0    0  501    0 -0.00000000000E+00 -0.00000000000E+00 -0.13210714735E+04  0.13210714735E+04  0.00000000000E+00 0. -1.
          2    1    1    2  501    0 -0.36780688332E+02  0.19372407484E+02 -0.63549079158E+03  0.63684900517E+03  0.00000000000E+00 0. -1.
          2    1    1    2  502    0  0.36780688332E+02 -0.19372407484E+02 -0.68427078765E+03  0.68553236250E+03  0.00000000000E+00 0. -1.
</event>
<event>
 4    1  0.8391192E+003  0.2055662E+02  0.7546771E-02  0.1525690E+00
          2   -1    0    0  502    0  0.00000000000E+00  0.00000000000E+00  0.25397808856E+03  0.25397808856E+03  0.00000000000E+00 0. -1.
          2   -1    0    0  501    0 -0.00000000000E+00 -0.00000000000E+00 -0.12760566877E+03  0.12760566877E+03  0.00000000000E+00 0.  1.
          2    1    1    2  501    0 -0.10563826901E+02  0.17634627336E+02  0.25273016030E+03  0.25356480127E+03  0.00000000000E+00 0. -1.
          2    1    1    2  502    0  0.10563826901E+02 -0.17634627336E+02 -0.12635774052E+03  0.12801895605E+03  0.00000000000E+00 0.  1.
</event>
<event>
 4    1  0.8391192E+003  0.2236223E+02  0.7546771E-02  0.1500666E+00
          2   -1    0    0  501    0  0.00000000000E+00  0.00000000000E+00  0.10593902062E+04  0.10593902062E+04  0.00000000000E+00 0.  1.
          2   -1    0    0  502    0 -0.00000000000E+00 -0.00000000000E+00 -0.22022218112E+01  0.22022218112E+01  0.00000000000E+00 0.  1.
          2    1    1    2  501    0  0.21188394973E+02 -0.71499205056E+01  0.58111179316E+02  0.62265388510E+02  0.00000000000E+00 0.  1.
          2    1    1    2  502    0 -0.21188394973E+02  0.71499205056E+01  0.99907680508E+03  0.99932703951E+03  0.00000000000E+00 0.  1.
</event>
<event>
 4    1  0.8391192E+003  0.2321999E+02  0.7546771E-02  0.1489754E+00
          2   -1    0    0  501    0  0.00000000000E+00  0.00000000000E+00  0.40855928938E+03  0.40855928938E+03  0.00000000000E+00 0. -1.
          2   -1    0    0  502    0 -0.00000000000E+00 -0.00000000000E+00 -0.59341171544E+01  0.59341171544E+01  0.00000000000E+00 0. -1.
          2    1    1    2  501    0  0.12658934436E+02  0.19465855182E+02  0.18557753627E+02  0.29724709565E+02  0.00000000000E+00 0. -1.
          2    1    1    2  502    0 -0.12658934436E+02 -0.19465855182E+02  0.38406741859E+03  0.38476869696E+03  0.00000000000E+00 0. -1.
</event>
<event>
 4    1  0.8391192E+003  0.2442795E+02  0.7546771E-02  0.1475306E+00
          2   -1    0    0  501    0  0.00000000000E+00  0.00000000000E+00  0.22162571067E+03  0.22162571067E+03  0.00000000000E+00 0.  1.
          2   -1    0    0  502    0 -0.00000000000E+00 -0.00000000000E+00 -0.11293877086E+02  0.11293877086E+02  0.00000000000E+00 0. -1.
          2    1    1    2  501    0  0.16238435152E+02 -0.18249332391E+02  0.35319804402E+01  0.24681973072E+02  0.00000000000E+00 0. -1.
          2    1    1    2  502    0 -0.16238435152E+02  0.18249332391E+02  0.20679985314E+03  0.20823761468E+03  0.00000000000E+00 0.  1.
</event>
<event>
 4    1  0.8391192E+003  0.2068712E+02  0.7546771E-02  0.1523779E+00
          2   -1    0    0  501    0  0.00000000000E+00  0.00000000000E+00  0.13325452306E+03  0.13325452306E+03  0.00000000000E+00 0.  1.
          2   -1    0    0  502    0 -0.00000000000E+00 -0.00000000000E+00 -0.16082051017E+02  0.16082051017E+02  0.00000000000E+00 0. -1.
          2    1    1    2  501    0 -0.10735469239E+00 -0.20686838107E+02 -0.82116606939E+01  0.22257317162E+02  0.00000000000E+00 0. -1.
          2    1    1    2  502    0  0.10735469239E+00  0.20686838107E+02  0.12538413274E+03  0.12707925691E+03  0.00000000000E+00 0.  1.
</event>
<event>
 4    1  0.8391192E+003  0.2421159E+02  0.7546771E-02  0.1477820E+00
          2   -1    0    0  501    0  0.00000000000E+00  0.00000000000E+00  0.14941232720E+03  0.14941232720E+03  0.00000000000E+00 0. -1.
          2   -1    0    0  502    0 -0.00000000000E+00 -0.00000000000E+00 -0.52672903614E+01  0.52672903614E+01  0.00000000000E+00 0.  1.
          2    1    1    2  501    0 -0.18395136438E+02  0.15742294831E+02  0.33006864649E+02  0.40934753024E+02  0.00000000000E+00 0.  1.
          2    1    1    2  502    0  0.18395136438E+02 -0.15742294831E+02  0.11113817219E+03  0.11374486453E+03  0.00000000000E+00 0. -1.
</event>
<event>
 4    1  0.8391192E+003  0.6151408E+02  0.7546771E-02  0.1254773E+00
          2   -1    0    0  502    0  0.00000000000E+00  0.00000000000E+00  0.35524470858E+01  0.35524470858E+01  0.00000000000E+00 0.  1.
          2   -1    0    0  501    0 -0.00000000000E+00 -0.00000000000E+00 -0.28300023534E+04  0.28300023534E+04  0.00000000000E+00 0. -1.
          2    1    1    2  501    0  0.68497250759E+01 -0.61131526690E+02 -0.29440763345E+03  0.30076541843E+03  0.00000000000E+00 0.  1.
          2    1    1    2  502    0 -0.68497250759E+01  0.61131526690E+02 -0.25320422729E+04  0.25327893821E+04  0.00000000000E+00 0. -1.
</event>
<event>
 4    1  0.8391192E+003  0.2661844E+02  0.7546771E-02  0.1451479E+00
          2   -1    0    0  501    0  0.00000000000E+00  0.00000000000E+00  0.47871182086E+01  0.47871182086E+01  0.00000000000E+00 0. -1.
          2   -1    0    0  502    0 -0.00000000000E+00 -0.00000000000E+00 -0.78541794139E+03  0.78541794139E+03  0.00000000000E+00 0.  1.
          2    1    1    2  501    0  0.26294309619E+02  0.41413240648E+01 -0.74624831929E+03  0.74672290398E+03  0.00000000000E+00 0.  1.
          2    1    1    2  502    0 -0.26294309619E+02 -0.41413240648E+01 -0.34382503883E+02  0.43482155612E+02  0.00000000000E+00 0. -1.
</event>
<event>
 4    1  0.8391192E+003  0.3964528E+02  0.7546771E-02  0.1350577E+00
          2   -1    0    0  501    0  0.00000000000E+00  0.00000000000E+00  0.97733666648E+01  0.97733666648E+01  0.00000000000E+00 0.  1.
          2   -1    0    0  502    0 -0.00000000000E+00 -0.00000000000E+00 -0.52814968773E+03  0.52814968773E+03  0.00000000000E+00 0.  1.
          2    1    1    2  501    0 -0.22487821000E+02  0.32650367537E+02 -0.48349365878E+03  0.48511634344E+03  0.00000000000E+00 0.  1.
          2    1    1    2  502    0  0.22487821000E+02 -0.32650367537E+02 -0.34882662286E+02  0.52806710954E+02  0.00000000000E+00 0.  1.
</event>
<event>
 4    1  0.8391192E+003  0.2877427E+02  0.7546771E-02  0.1430556E+00
          2   -1    0    0  501    0  0.00000000000E+00  0.00000000000E+00  0.42510407842E+02  0.42510407842E+02  0.00000000000E+00 0.  1.
          2   -1    0    0  502    0 -0.00000000000E+00 -0.00000000000E+00 -0.22541189860E+02  0.22541189860E+02  0.00000000000E+00 0.  1.
          2    1    1    2  501    0 -0.22877228558E+02  0.17452534039E+02  0.21977536198E+02  0.36207328377E+02  0.00000000000E+00 0.  1.
          2    1    1    2  502    0  0.22877228558E+02 -0.17452534039E+02 -0.20083182159E+01  0.28844269325E+02  0.00000000000E+00 0.  1.
</event>
<event>
 4    1  0.8391192E+003  0.2552029E+02  0.7546771E-02  0.1463066E+00
          2   -1    0    0  502    0  0.00000000000E+00  0.00000000000E+00  0.79124957581E+03  0.79124957581E+03  0.00000000000E+00 0.  1.
          2   -1    0    0  501    0 -0.00000000000E+00 -0.00000000000E+00 -0.13368770360E+01  0.13368770360E+01  0.00000000000E+00 0. -1.
          2    1    1    2  501    0  0.23173066279E+02 -0.10690835724E+02  0.64062757142E+03  0.64113568785E+03  0.00000000000E+00 0.  1.
          2    1    1    2  502    0 -0.23173066279E+02  0.10690835724E+02  0.14928512735E+03  0.15145076499E+03  0.00000000000E+00 0. -1.
</event>
<event>
 4    1  0.8391192E+003  0.2065785E+02  0.7546771E-02  0.1524206E+00
          2   -1    0    0  502    0  0.00000000000E+00  0.00000000000E+00  0.90220738922E+03  0.90220738922E+03  0.00000000000E+00 0.  1.
          2   -1    0    0  501    0 -0.00000000000E+00 -0.00000000000E+00 -0.23153747178E+03  0.23153747178E+03  0.00000000000E+00 0.  1.
          2    1    1    2  501    0  0.59388961163E+01  0.19785759497E+02  0.90162806740E+03  0.90186468979E+03  0.00000000000E+00 0.  1.
          2    1    1    2  502    0 -0.59388961163E+01 -0.19785759497E+02 -0.23095814996E+03  0.23188017121E+03  0.00000000000E+00 0.  1.
</event>
<event>
 4    1  0.8391192E+003  0.2572125E+02  0.7546771E-02  0.1460894E+00
          2   -1    0    0  502    0  0.00000000000E+00  0.00000000000E+00  0.42533090254E+01  0.42533090254E+01  0.00000000000E+00 0.  1.
          2   -1    0    0  501    0 -0.00000000000E+00 -0.00000000000E+00 -0.36146414348E+03  0.36146414348E+03  0.00000000000E+00 0.  1.
          2    1    1    2  501    0 -0.25480775159E+02 -0.35089451650E+01 -0.40588910086E+02  0.48052494429E+02  0.00000000000E+00 0.  1.
          2    1    1    2  502    0  0.25480775159E+02  0.35089451650E+01 -0.31662192437E+03  0.31766495808E+03  0.00000000000E+00 0.  1.
</event>
<event>
 4    1  0.8391192E+003  0.2063060E+02  0.7546771E-02  0.1524605E+00
          2   -1    0    0  502    0  0.00000000000E+00  0.00000000000E+00  0.45481996325E+03  0.45481996325E+03  0.00000000000E+00 0. -1.
          2   -1    0    0  501    0 -0.00000000000E+00 -0.00000000000E+00 -0.50516123943E+02  0.50516123943E+02  0.00000000000E+00 0. -1.
          2    1    1    2  501    0  0.18135184832E+02  0.98354878826E+01  0.45246870668E+03  0.45293879528E+03  0.00000000000E+00 0. -1.
          2    1    1    2  502    0 -0.18135184832E+02 -0.98354878826E+01 -0.48164867370E+02  0.52397291910E+02  0.00000000000E+00 0. -1.
</event>
<event>
 4    1  0.8391192E+003  0.2222477E+02  0.7546771E-02  0.1502469E+00
          2   -1    0    0  501    0  0.00000000000E+00  0.00000000000E+00  0.39248858562E+02  0.39248858562E+02  0.00000000000E+00 0. -1.
          2   -1    0    0  502    0 -0.00000000000E+00 -0.00000000000E+00 -0.25539454123E+02  0.25539454123E+02  0.00000000000E+00 0. -1.
          2    1    1    2  501    0 -0.60765780862E+01 -0.21377918668E+02 -0.16216662196E+02  0.27512185311E+02  0.00000000000E+00 0. -1.
          2    1    1    2  502    0  0.60765780862E+01  0.21377918668E+02  0.29926066635E+02  0.37276127375E+02  0.00000000000E+00 0. -1.
</event>
<event>
 4    1  0.8391192E+003  0.2641031E+02  0.7546771E-02  0.1453623E+00
          2   -1    0    0  501    0  0.00000000000E+00  0.00000000000E+00  0.48980975796E+03  0.48980975796E+03  0.00000000000E+00 0.  1.
          2   -1    0    0  502    0 -0.00000000000E+00 -0.00000000000E+00 -0.17558257076E+01  0.17558257076E+01  0.00000000000E+00 0.  1.
          2    1    1    2  501    0  0.18770339998E+02 -0.18578990608E+02  0.13718419846E+03  0.13970328866E+03  0.00000000000E+00 0.  1.
          2    1    1    2  502    0 -0.18770339998E+02  0.18578990608E+02  0.35086973379E+03  0.35186229501E+03  0.00000000000E+00 0.  1.
</event>
<event>
 4    1  0.8391192E+003  0.2197236E+02  0.7546771E-02  0.1505822E+00
          2   -1    0    0  501    0  0.00000000000E+00  0.00000000000E+00  0.16446304113E+02  0.16446304113E+02  0.00000000000E+00 0. -1.
          2   -1    0    0  502    0 -0.00000000000E+00 -0.00000000000E+00 -0.38003065788E+03  0.38003065788E+03  0.00000000000E+00 0.  1.
          2    1    1    2  501    0 -0.32284989296E+01 -0.21733875222E+02 -0.37222040709E+03  0.37286836282E+03  0.00000000000E+00 0.  1.
          2    1    1    2  502    0  0.32284989296E+01  0.21733875222E+02  0.86360533301E+01  0.23608599167E+02  0.00000000000E+00 0. -1.
</event>
<event>
 4    1  0.8391192E+003  0.1013705E+03  0.7546771E-02  0.1161454E+00
          2   -1    0    0  501    0  0.00000000000E+00  0.00000000000E+00  0.81280692073E+03  0.81280692073E+03  0.00000000000E+00 0. -1.
          2   -1    0    0  502    0 -0.00000000000E+00 -0.00000000000E+00 -0.13550002303E+02  0.13550002303E+02  0.00000000000E+00 0. -1.
          2    1    1    2  501    0  0.40954559100E+02  0.92729147643E+02  0.29270465110E+03  0.30976117173E+03  0.00000000000E+00 0. -1.
          2    1    1    2  502    0 -0.40954559100E+02 -0.92729147643E+02  0.50655226732E+03  0.51659575130E+03  0.00000000000E+00 0. -1.
</event>
<event>
 4    1  0.8391192E+003  0.2533585E+02  0.7546771E-02  0.1465081E+00
          2   -1    0    0  501    0  0.00000000000E+00  0.00000000000E+00  0.56254443368E+03  0.56254443368E+03  0.00000000000E+00 0. -1.
          2   -1    0    0  502    0 -0.00000000000E+00 -0.00000000000E+00 -0.12239507506E+02  0.12239507506E+02  0.00000000000E+00 0.  1.
          2    1    1    2  501    0 -0.20144566686E+02  0.15365608592E+02  0.14848037154E+01  0.25379324979E+02  0.00000000000E+00 0.  1.
          2    1    1    2  502    0  0.20144566686E+02 -0.15365608592E+02  0.54882012246E+03  0.54940461621E+03  0.00000000000E+00 0. -1.
</event>
<event>
 4    1  0.8391192E+003  0.4679088E+02  0.7546771E-02  0.1312720E+00
          2   -1    0    0  501    0  0.00000000000E+00  0.00000000000E+00  0.58096790909E+02  0.58096790909E+02  0.00000000000E+00 0. -1.
          2   -1    0    0  502    0 -0.00000000000E+00 -0.00000000000E+00 -0.73743525093E+02  0.73743525093E+02  0.00000000000E+00 0. -1.
          2    1    1    2  501    0 -0.46531374077E+02  0.49211040479E+01 -0.53918958752E+02  0.71390756765E+02  0.00000000000E+00 0. -1.
          2    1    1    2  502    0  0.46531374077E+02 -0.49211040479E+01  0.38272224568E+02  0.60449559237E+02  0.00000000000E+00 0. -1.
</event>
<event>
 4    1  0.8391192E+003  0.5175020E+02  0.7546771E-02  0.1290757E+00
          2   -1    0    0  501    0  0.00000000000E+00  0.00000000000E+00  0.91452870300E+03  0.91452870300E+03  0.00000000000E+00 0. -1.
          2   -1    0    0  502    0 -0.00000000000E+00 -0.00000000000E+00 -0.46169917644E+01  0.46169917644E+01  0.00000000000E+00 0. -1.
          2    1    1    2  501    0  0.47128190303E+02  0.21377952842E+02  0.17702271680E+03  0.18443189922E+03  0.00000000000E+00 0. -1.
          2    1    1    2  502    0 -0.47128190303E+02 -0.21377952842E+02  0.73288899443E+03  0.73471379554E+03  0.00000000000E+00 0. -1.
</event>
<event>
 4    1  0.8391192E+003  0.2223978E+02  0.7546771E-02  0.1502271E+00
          2   -1    0    0  501    0  0.00000000000E+00  0.00000000000E+00  0.33147806697E+03  0.33147806697E+03  0.00000000000E+00 0. -1.
          2   -1    0    0  502    0 -0.00000000000E+00 -0.00000000000E+00 -0.16799732149E+01  0.16799732149E+01  0.00000000000E+00 0.  1.
          2    1    1    2  501    0  0.12949808865E+02  0.18080653887E+02  0.22060089154E+03  0.22171910369E+03  0.00000000000E+00 0. -1.
          2    1    1    2  502    0 -0.12949808865E+02 -0.18080653887E+02  0.10919720222E+03  0.11143893649E+03  0.00000000000E+00 0.  1.
</event>
<event>
 4    1  0.8391192E+003  0.3184128E+02  0.7546771E-02  0.1404243E+00
          2   -1    0    0  502    0  0.00000000000E+00  0.00000000000E+00  0.80461058621E+02  0.80461058621E+02  0.00000000000E+00 0. -1.
          2   -1    0    0  501    0 -0.00000000000E+00 -0.00000000000E+00 -0.25607478871E+03  0.25607478871E+03  0.00000000000E+00 0. -1.
          2    1    1    2  501    0  0.22487217277E+02 -0.22543118577E+02  0.76268841251E+02  0.82648673805E+02  0.00000000000E+00 0. -1.
          2    1    1    2  502    0 -0.22487217277E+02  0.22543118577E+02 -0.25188257134E+03  0.25388717352E+03  0.00000000000E+00 0. -1.
</event>
<event>
 4    1  0.8391192E+003  0.2129101E+02  0.7546771E-02  0.1515150E+00
          2   -1    0    0  502    0  0.00000000000E+00  0.00000000000E+00  0.45477909849E+03  0.45477909849E+03  0.00000000000E+00 0.  1.
          2   -1    0    0  501    0 -0.00000000000E+00 -0.00000000000E+00 -0.62984483848E+01  0.62984483848E+01  0.00000000000E+00 0. -1.
          2    1    1    2  501    0  0.12889073984E+02 -0.16946355644E+02  0.43575190392E+03  0.43627173753E+03  0.00000000000E+00 0.  1.
          2    1    1    2  502    0 -0.12889073984E+02  0.16946355644E+02  0.12728746186E+02  0.24805809345E+02  0.00000000000E+00 0. -1.
</event>
<event>
 4    1  0.8391192E+003  0.2083180E+02  0.7546771E-02  0.1521680E+00
          2   -1    0    0  501    0  0.00000000000E+00  0.00000000000E+00  0.73970657296E+01  0.73970657296E+01  0.00000000000E+00 0.  1.
          2   -1    0    0  502    0 -0.00000000000E+00 -0.00000000000E+00 -0.28980814932E+03  0.28980814932E+03  0.00000000000E+00 0.  1.
          2    1    1    2  501    0  0.20627811734E+02 -0.29081546464E+01 -0.27391739880E+03  0.27470840057E+03  0.00000000000E+00 0.  1.
          2    1    1    2  502    0 -0.20627811734E+02  0.29081546464E+01 -0.84936847945E+01  0.22496814480E+02  0.00000000000E+00 0.  1.
</event>
<event>
 4    1  0.8391192E+003  0.2163185E+02  0.7546771E-02  0.1510432E+00
          2   -1    0    0  501    0  0.00000000000E+00  0.00000000000E+00  0.22773901769E+02  0.22773901769E+02  0.00000000000E+00 0.  1.
          2   -1    0    0  502    0 -0.00000000000E+00 -0.00000000000E+00 -0.82611206652E+02  0.82611206652E+02  0.00000000000E+00 0. -1.
          2    1    1    2  501    0  0.13035860855E+02 -0.17262771517E+02 -0.75590662768E+02  0.78624965795E+02  0.00000000000E+00 0. -1.
          2    1    1    2  502    0 -0.13035860855E+02  0.17262771517E+02  0.15753357885E+02  0.26760142625E+02  0.00000000000E+00 0.  1.
</event>
<event>
 4    1  0.8391192E+003  0.2163894E+02  0.7546771E-02  0.1510335E+00
          2   -1    0    0  501    0  0.00000000000E+00  0.00000000000E+00  0.10924561629E+03  0.10924561629E+03  0.00000000000E+00 0. -1.
          2   -1    0    0  502    0 -0.00000000000E+00 -0.00000000000E+00 -0.62238183377E+01  0.62238183377E+01  0.00000000000E+00 0. -1.
          2    1    1    2  501    0  0.21510773599E+02  0.23517101042E+01  0.19296690351E+02  0.28993209201E+02  0.00000000000E+00 0. -1.
          2    1    1    2  502    0 -0.21510773599E+02 -0.23517101042E+01  0.83725107606E+02  0.86476225431E+02  0.00000000000E+00 0. -1.
</event>
<event>
 4    1  0.8391192E+003  0.3527918E+02  0.7546771E-02  0.1378611E+00
          2   -1    0    0  501    0  0.00000000000E+00  0.00000000000E+00  0.31749207347E+03  0.31749207347E+03  0.00000000000E+00 0.  1.
          2   -1    0    0  502    0 -0.00000000000E+00 -0.00000000000E+00 -0.40437190556E+01  0.40437190556E+01  0.00000000000E+00 0.  1.
          2    1    1    2  501    0 -0.32364149382E+02  0.14042158124E+02  0.12862183158E+03  0.13337239568E+03  0.00000000000E+00 0.  1.
          2    1    1    2  502    0  0.32364149382E+02 -0.14042158124E+02  0.18482652284E+03  0.18816339685E+03  0.00000000000E+00 0.  1.
</event>
<event>
 4    1  0.8391192E+003  0.2945321E+02  0.7546771E-02  0.1424408E+00
          2   -1    0    0  502    0  0.00000000000E+00  0.00000000000E+00  0.43829000036E+02  0.43829000036E+02  0.00000000000E+00 0. -1.
          2   -1    0    0  501    0 -0.00000000000E+00 -0.00000000000E+00 -0.18039211339E+03  0.18039211339E+03  0.00000000000E+00 0. -1.
          2    1    1    2  501    0  0.17002875479E+02  0.24049817195E+02  0.37499962192E+02  0.47683735656E+02  0.00000000000E+00 0. -1.
          2    1    1    2  502    0 -0.17002875479E+02 -0.24049817195E+02 -0.17406307555E+03  0.17653737777E+03  0.00000000000E+00 0. -1.
</event>
<event>
 4    1  0.8391192E+003  0.2525465E+02  0.7546771E-02  0.1465975E+00
          2   -1    0    0  502    0  0.00000000000E+00  0.00000000000E+00  0.69863579156E+01  0.69863579156E+01  0.00000000000E+00 0.  1.
          2   -1    0    0  501    0 -0.00000000000E+00 -0.00000000000E+00 -0.65606378722E+03  0.65606378722E+03  0.00000000000E+00 0.  1.
          2    1    1    2  501    0  0.29412105540E+00  0.25252939848E+02 -0.16943267265E+02  0.30411704717E+02  0.00000000000E+00 0.  1.
          2    1    1    2  502    0 -0.29412105540E+00 -0.25252939848E+02 -0.63213416204E+03  0.63263844042E+03  0.00000000000E+00 0.  1.
</event>
<event>
 4    1  0.8391192E+003  0.2020672E+02  0.7546771E-02  0.1530899E+00
          2   -1    0    0  502    0  0.00000000000E+00  0.00000000000E+00  0.29920224034E+02  0.29920224034E+02  0.00000000000E+00 0. -1.
          2   -1    0    0  501    0 -0.00000000000E+00 -0.00000000000E+00 -0.43688918336E+03  0.43688918336E+03  0.00000000000E+00 0.  1.
          2    1    1    2  501    0  0.18099648076E+02 -0.89841215617E+01  0.26245987281E+02  0.33123459196E+02  0.00000000000E+00 0. -1.
          2    1    1    2  502    0 -0.18099648076E+02  0.89841215617E+01 -0.43321494661E+03  0.43368594820E+03  0.00000000000E+00 0.  1.
</event>
<event>
 4    1  0.8391192E+003  0.5460772E+02  0.7546771E-02  0.1279343E+00
          2   -1    0    0  502    0  0.00000000000E+00  0.00000000000E+00  0.45592702009E+01  0.45592702009E+01  0.00000000000E+00 0.  1.
          2   -1    0    0  501    0 -0.00000000000E+00 -0.00000000000E+00 -0.10870114040E+04  0.10870114040E+04  0.00000000000E+00 0.  1.
          2    1    1    2  501    0 -0.48832025007E+02  0.24442506377E+02 -0.19677457254E+03  0.20421125136E+03  0.00000000000E+00 0.  1.
          2    1    1    2  502    0  0.48832025007E+02 -0.24442506377E+02 -0.88567756124E+03  0.88735942282E+03  0.00000000000E+00 0.  1.
</event>
<event>
 4    1  0.8391192E+003  0.2520758E+02  0.7546771E-02  0.1466495E+00
          2   -1    0    0  502    0  0.00000000000E+00  0.00000000000E+00  0.10480055248E+04  0.10480055248E+04  0.00000000000E+00 0. -1.
          2   -1    0    0  501    0 -0.00000000000E+00 -0.00000000000E+00 -0.49572871933E+02  0.49572871933E+02  0.00000000000E+00 0. -1.
          2    1    1    2  501    0  0.20270667286E+02 -0.14984060874E+02  0.10446391362E+04  0.10449432266E+04  0.00000000000E+00 0. -1.
          2    1    1    2  502    0 -0.20270667286E+02  0.14984060874E+02 -0.46206483310E+02  0.52635170109E+02  0.00000000000E+00 0. -1.
</event>
<event>
 4    1  0.8391192E+003  0.2993897E+02  0.7546771E-02  0.1420128E+00
          2   -1    0    0  501    0  0.00000000000E+00  0.00000000000E+00  0.11074382967E+04  0.11074382967E+04  0.00000000000E+00 0.  1.
          2   -1    0    0  502    0 -0.00000000000E+00 -0.00000000000E+00 -0.18663742774E+01  0.18663742774E+01  0.00000000000E+00 0. -1.
          2    1    1    2  501    0 -0.21569645719E+01  0.29861170095E+02  0.13538145610E+03  0.13865237333E+03  0.00000000000E+00 0. -1.
          2    1    1    2  502    0  0.21569645719E+01 -0.29861170095E+02  0.97019046637E+03  0.97065229769E+03  0.00000000000E+00 0.  1.
</event>
<event>
 4    1  0.8391192E+003  0.2923122E+02  0.7546771E-02  0.1426397E+00
          2   -1    0    0  501    0  0.00000000000E+00  0.00000000000E+00  0.46730763832E+02  0.46730763832E+02  0.00000000000E+00 0.  1.
          2   -1    0    0  502    0 -0.00000000000E+00 -0.00000000000E+00 -0.32639810206E+02  0.32639810206E+02  0.00000000000E+00 0.  1.
          2    1    1    2  501    0 -0.19727645086E+02 -0.21570448780E+02 -0.19272770133E+02  0.35012910616E+02  0.00000000000E+00 0.  1.
          2    1    1    2  502    0  0.19727645086E+02  0.21570448780E+02  0.33363723759E+02  0.44357663422E+02  0.00000000000E+00 0.  1.
</event>
<event>
 4    1  0.8391192E+003  0.4052390E+02  0.7546771E-02  0.1345443E+00
          2   -1    0    0  502    0  0.00000000000E+00  0.00000000000E+00  0.25931262702E+04  0.25931262702E+04  0.00000000000E+00 0.  1.
          2   -1    0    0  501    0 -0.00000000000E+00 -0.00000000000E+00 -0.43636330371E+01  0.43636330371E+01  0.00000000000E+00 0.  1.
          2    1    1    2  501    0  0.24206773497E+01  0.40451532734E+02  0.24951918233E+04  0.24955208717E+04  0.00000000000E+00 0.  1.
          2    1    1    2  502    0 -0.24206773497E+01 -0.40451532734E+02  0.93570813857E+02  0.10196903150E+03  0.00000000000E+00 0.  1.
</event>
<event>
 4    1  0.8391192E+003  0.2405846E+02  0.7546771E-02  0.1479618E+00
          2   -1    0    0  502    0  0.00000000000E+00  0.00000000000E+00  0.21208931573E+03  0.21208931573E+03  0.00000000000E+00 0.  1.
          2   -1    0    0  501    0 -0.00000000000E+00 -0.00000000000E+00 -0.19043489229E+03  0.19043489229E+03  0.00000000000E+00 0. -1.
          2    1    1    2  501    0 -0.17775735249E+02 -0.16212115043E+02  0.21064198869E+03  0.21201145450E+03  0.00000000000E+00 0.  1.
          2    1    1    2  502    0  0.17775735249E+02  0.16212115043E+02 -0.18898756524E+03  0.19051275352E+03  0.00000000000E+00 0. -1.
</event>
<event>
 4    1  0.8391192E+003  0.2615442E+02  0.7546771E-02  0.1456292E+00
          2   -1    0    0  502    0  0.00000000000E+00  0.00000000000E+00  0.15985916707E+02  0.15985916707E+02  0.00000000000E+00 0. -1.
          2   -1    0    0  501    0 -0.00000000000E+00 -0.00000000000E+00 -0.48357898804E+02  0.48357898804E+02  0.00000000000E+00 0. -1.
          2    1    1    2  501    0  0.25994485706E+02 -0.28879319207E+01 -0.52703415652E+01  0.26680141269E+02  0.00000000000E+00 0. -1.
          2    1    1    2  502    0 -0.25994485706E+02  0.28879319207E+01 -0.27101640532E+02  0.37663674242E+02  0.00000000000E+00 0. -1.
</event>
<event>
 4    1  0.8391192E+003  0.2676933E+02  0.7546771E-02  0.1449939E+00
          2   -1    0    0  502    0  0.00000000000E+00  0.00000000000E+00  0.31412011429E+02  0.31412011429E+02  0.00000000000E+00 0.  1.
          2   -1    0    0  501    0 -0.00000000000E+00 -0.00000000000E+00 -0.12756354728E+04  0.12756354728E+04  0.00000000000E+00 0.  1.
          2    1    1    2  501    0  0.26305070810E+02  0.49639137767E+01  0.25541999678E+02  0.36999877538E+02  0.00000000000E+00 0.  1.
          2    1    1    2  502    0 -0.26305070810E+02 -0.49639137767E+01 -0.12697654611E+04  0.12700476067E+04  0.00000000000E+00 0.  1.
</event>
<event>
 4    1  0.8391192E+003  0.2498354E+02  0.7546771E-02  0.1468988E+00
          2   -1    0    0  501    0  0.00000000000E+00  0.00000000000E+00  0.44115010606E+01  0.44115010606E+01  0.00000000000E+00 0. -1.
          2   -1    0    0  502    0 -0.00000000000E+00 -0.00000000000E+00 -0.15024289634E+04  0.15024289634E+04  0.00000000000E+00 0. -1.
          2    1    1    2  501    0 -0.13832530345E+02 -0.20804763353E+02 -0.14660759246E+04  0.14662887826E+04  0.00000000000E+00 0. -1.
          2    1    1    2  502    0  0.13832530345E+02  0.20804763353E+02 -0.31941537708E+02  0.40551681902E+02  0.00000000000E+00 0. -1.
</event>
<event>
 4    1  0.8391192E+003  0.3960916E+02  0.7546771E-02  0.1350791E+00
          2   -1    0    0  501    0  0.00000000000E+00  0.00000000000E+00  0.36539191351E+01  0.36539191351E+01  0.00000000000E+00 0.  1.
          2   -1    0    0  502    0 -0.00000000000E+00 -0.00000000000E+00 -0.11313372761E+04  0.11313372761E+04  0.00000000000E+00 0.  1.
          2    1    1    2  501    0  0.33328243631E+02  0.21403597589E+02 -0.10108593228E+04  0.10116350411E+04  0.00000000000E+00 0.  1.
          2    1    1    2  502    0 -0.33328243631E+02 -0.21403597589E+02 -0.11682403413E+03  0.12335615413E+03  0.00000000000E+00 0.  1.
</event>
<event>
 4    1  0.8391192E+003  0.2098452E+02  0.7546771E-02  0.1519486E+00
          2   -1    0    0  501    0  0.00000000000E+00  0.00000000000E+00  0.49171851459E+03  0.49171851459E+03  0.00000000000E+00 0.  1.
          2   -1    0    0  502    0 -0.00000000000E+00 -0.00000000000E+00 -0.15632669643E+02  0.15632669643E+02  0.00000000000E+00 0.  1.
          2    1    1    2  501    0  0.12016641378E+02  0.17203209984E+02 -0.82594892602E+01  0.22551480364E+02  0.00000000000E+00 0.  1.
          2    1    1    2  502    0 -0.12016641378E+02 -0.17203209984E+02  0.48434533421E+03  0.48479970387E+03  0.00000000000E+00 0.  1.
</event>
<event>
 4    1  0.8391192E+003  0.2045817E+02  0.7546771E-02  0.1527143E+00
          2   -1    0    0  501    0  0.00000000000E+00  0.00000000000E+00  0.20781358180E+02  0.20781358180E+02  0.00000000000E+00 0. -1.
          2   -1    0    0  502    0 -0.00000000000E+00 -0.00000000000E+00 -0.63057338900E+02  0.63057338900E+02  0.00000000000E+00 0. -1.
          2    1    1    2  501    0  0.20429367668E+02  0.10852268187E+01 -0.55721020471E+02  0.59357972531E+02  0.00000000000E+00 0. -1.
          2    1    1    2  502    0 -0.20429367668E+02 -0.10852268187E+01  0.13445039751E+02  0.24480724550E+02  0.00000000000E+00 0. -1.
</event>
<event>
 4    1  0.8391192E+003  0.4437743E+02  0.7546771E-02  0.1324582E+00
          2   -1    0    0  502    0  0.00000000000E+00  0.00000000000E+00  0.42481088759E+03  0.42481088759E+03  0.00000000000E+00 0.  1.
          2   -1    0    0  501    0 -0.00000000000E+00 -0.00000000000E+00 -0.15969198627E+03  0.15969198627E+03  0.00000000000E+00 0. -1.
          2    1    1    2  501    0 -0.11811385501E+02 -0.42776712310E+02  0.42053763196E+03  0.42287262366E+03  0.00000000000E+00 0.  1.
          2    1    1    2  502    0  0.11811385501E+02  0.42776712310E+02 -0.15541873064E+03  0.16163025019E+03  0.00000000000E+00 0. -1.
</event>
<event>
 4    1  0.8391192E+003  0.3764855E+02  0.7546771E-02  0.1362845E+00
          2   -1    0    0  501    0  0.00000000000E+00  0.00000000000E+00  0.52725798570E+01  0.52725798570E+01  0.00000000000E+00 0. -1.
          2   -1    0    0  502    0 -0.00000000000E+00 -0.00000000000E+00 -0.64554201789E+03  0.64554201789E+03  0.00000000000E+00 0.  1.
          2    1    1    2  501    0 -0.33671028972E+02  0.16842667630E+02 -0.56871764760E+03  0.56996243415E+03  0.00000000000E+00 0.  1.
          2    1    1    2  502    0  0.33671028972E+02 -0.16842667630E+02 -0.71551790434E+02  0.80852163603E+02  0.00000000000E+00 0. -1.
</event>
<event>
 4    1  0.8391192E+003  0.3989104E+02  0.7546771E-02  0.1349125E+00
          2   -1    0    0  501    0  0.00000000000E+00  0.00000000000E+00  0.18293341390E+03  0.18293341390E+03  0.00000000000E+00 0. -1.
          2   -1    0    0  502    0 -0.00000000000E+00 -0.00000000000E+00 -0.16911777798E+03  0.16911777798E+03  0.00000000000E+00 0.  1.
          2    1    1    2  501    0  0.38588918506E+02  0.10108924218E+02 -0.16453097876E+03  0.16929777893E+03  0.00000000000E+00 0.  1.
          2    1    1    2  502    0 -0.38588918506E+02 -0.10108924218E+02  0.17834661468E+03  0.18275341295E+03  0.00000000000E+00 0. -1.
</event>
<event>
 4    1  0.8391192E+003  0.2737686E+02  0.7546771E-02  0.1443859E+00
          2   -1    0    0  502    0  0.00000000000E+00  0.00000000000E+00  0.97430412932E+03  0.97430412932E+03  0.00000000000E+00 0.  1.
          2   -1    0    0  501    0 -0.00000000000E+00 -0.00000000000E+00 -0.82677046087E+01  0.82677046087E+01  0.00000000000E+00 0.  1.
          2    1    1    2  501    0  0.79794306909E+01  0.26188189803E+02  0.95089063817E+03  0.95128465685E+03  0.00000000000E+00 0.  1.
          2    1    1    2  502    0 -0.79794306909E+01 -0.26188189803E+02  0.15145786533E+02  0.31287177070E+02  0.00000000000E+00 0.  1.
</event>
<event>
 4    1  0.8391192E+003  0.2247357E+02  0.7546771E-02  0.1499216E+00
          2   -1    0    0  501    0  0.00000000000E+00  0.00000000000E+00  0.39146516492E+00  0.39146516492E+00  0.00000000000E+00 0. -1.
          2   -1    0    0  502    0 -0.00000000000E+00 -0.00000000000E+00 -0.17098007744E+04  0.17098007744E+04  0.00000000000E+00 0. -1.
          2    1    1    2  501    0  0.12844162535E+02 -0.18441498097E+02 -0.12783179334E+04  0.12785154674E+04  0.00000000000E+00 0. -1.
          2    1    1    2  502    0 -0.12844162535E+02  0.18441498097E+02 -0.43109137580E+03  0.43167677219E+03  0.00000000000E+00 0. -1.
</event>
<event>
 4    1  0.8391192E+003  0.2541170E+02  0.7546771E-02  0.1464250E+00
          2   -1    0    0  502    0  0.00000000000E+00  0.00000000000E+00  0.43722835025E+03  0.43722835025E+03  0.00000000000E+00 0.  1.
          2   -1    0    0  501    0 -0.00000000000E+00 -0.00000000000E+00 -0.15352856438E+01  0.15352856438E+01  0.00000000000E+00 0. -1.
          2    1    1    2  501    0  0.10378890714E+02  0.23195536504E+02  0.17507456525E+03  0.17690917920E+03  0.00000000000E+00 0. -1.
          2    1    1    2  502    0 -0.10378890714E+02 -0.23195536504E+02  0.26061849935E+03  0.26185445669E+03  0.00000000000E+00 0.  1.
</event>
<event>
 4    1  0.8391192E+003  0.2271861E+02  0.7546771E-02  0.1496062E+00
          2   -1    0    0  501    0  0.00000000000E+00  0.00000000000E+00  0.98368965026E+02  0.98368965026E+02  0.00000000000E+00 0.  1.
          2   -1    0    0  502    0 -0.00000000000E+00 -0.00000000000E+00 -0.60099106948E+01  0.60099106948E+01  0.00000000000E+00 0.  1.
          2    1    1    2  501    0  0.12527420649E+02 -0.18952541494E+02  0.27584136091E+02  0.35735411864E+02  0.00000000000E+00 0.  1.
          2    1    1    2  502    0 -0.12527420649E+02  0.18952541494E+02  0.64774918241E+02  0.68643463857E+02  0.00000000000E+00 0.  1.
</event>
<event>
 4    1  0.8391192E+003  0.3858834E+02  0.7546771E-02  0.1356963E+00
          2   -1    0    0  501    0  0.00000000000E+00  0.00000000000E+00  0.16321294655E+03  0.16321294655E+03  0.00000000000E+00 0.  1.
          2   -1    0    0  502    0 -0.00000000000E+00 -0.00000000000E+00 -0.13369232196E+03  0.13369232196E+03  0.00000000000E+00 0. -1.
          2    1    1    2  501    0 -0.17815777233E+02 -0.34229487333E+02 -0.12853747992E+03  0.13420485634E+03  0.00000000000E+00 0. -1.
          2    1    1    2  502    0  0.17815777233E+02  0.34229487333E+02  0.15805810450E+03  0.16270041217E+03  0.00000000000E+00 0.  1.
</event>
<event>
 4    1  0.8391192E+003  0.5822573E+02  0.7546771E-02  0.1265983E+00
          2   -1    0    0  501    0  0.00000000000E+00  0.00000000000E+00  0.32441355174E+03  0.32441355174E+03  0.00000000000E+00 0.  1.
          2   -1    0    0  502    0 -0.00000000000E+00 -0.00000000000E+00 -0.44588634502E+03  0.44588634502E+03  0.00000000000E+00 0.  1.
          2    1    1    2  501    0 -0.12528687524E+02 -0.56861829328E+02 -0.44134615633E+03  0.44517037789E+03  0.00000000000E+00 0.  1.
          2    1    1    2  502    0  0.12528687524E+02  0.56861829328E+02  0.31987336306E+03  0.32512951887E+03  0.00000000000E+00 0.  1.
</event>
<event>
 4    1  0.8391192E+003  0.2621263E+02  0.7546771E-02  0.1455682E+00
          2   -1    0    0  501    0  0.00000000000E+00  0.00000000000E+00  0.56388804954E+02  0.56388804954E+02  0.00000000000E+00 0.  1.
          2   -1    0    0  502    0 -0.00000000000E+00 -0.00000000000E+00 -0.64534242255E+02  0.64534242255E+02  0.00000000000E+00 0.  1.
          2    1    1    2  501    0  0.49860429700E+01  0.25734052241E+02 -0.58527854992E+02  0.64129648987E+02  0.00000000000E+00 0.  1.
          2    1    1    2  502    0 -0.49860429700E+01 -0.25734052241E+02  0.50382417691E+02  0.56793398222E+02  0.00000000000E+00 0.  1.
</event>
<event>
 4    1  0.8391192E+003  0.2025030E+02  0.7546771E-02  0.1530243E+00
          2   -1    0    0  502    0  0.00000000000E+00  0.00000000000E+00  0.44987308221E+03  0.44987308221E+03  0.00000000000E+00 0. -1.
          2   -1    0    0  501    0 -0.00000000000E+00 -0.00000000000E+00 -0.43615402649E+03  0.43615402649E+03  0.00000000000E+00 0.  1.
          2    1    1    2  501    0 -0.17336161421E+02 -0.10465760411E+02  0.44940990506E+03  0.44986591047E+03  0.00000000000E+00 0. -1.
          2    1    1    2  502    0  0.17336161421E+02  0.10465760411E+02 -0.43569084934E+03  0.43616119822E+03  0.00000000000E+00 0.  1.
</event>
<event>
 4    1  0.8391192E+003  0.2401205E+02  0.7546771E-02  0.1480166E+00
          2   -1    0    0  502    0  0.00000000000E+00  0.00000000000E+00  0.21703276283E+03  0.21703276283E+03  0.00000000000E+00 0.  1.
          2   -1    0    0  501    0 -0.00000000000E+00 -0.00000000000E+00 -0.16453350114E+03  0.16453350114E+03  0.00000000000E+00 0. -1.
          2    1    1    2  501    0 -0.23824202322E+02  0.29976584889E+01  0.21548625318E+03  0.21681998036E+03  0.00000000000E+00 0.  1.
          2    1    1    2  502    0  0.23824202322E+02 -0.29976584889E+01 -0.16298699149E+03  0.16474628362E+03  0.00000000000E+00 0. -1.
</event>
<event>
 4    1  0.8391192E+003  0.2132871E+02  0.7546771E-02  0.1514623E+00
          2   -1    0    0  502    0  0.00000000000E+00  0.00000000000E+00  0.15180900215E+04  0.15180900215E+04  0.00000000000E+00 0. -1.
          2   -1    0    0  501    0 -0.00000000000E+00 -0.00000000000E+00 -0.38958040465E+02  0.38958040465E+02  0.00000000000E+00 0. -1.
          2    1    1    2  501    0  0.93708991771E+01  0.19159862176E+02  0.15150900693E+04  0.15152401896E+04  0.00000000000E+00 0. -1.
          2    1    1    2  502    0 -0.93708991771E+01 -0.19159862176E+02 -0.35958088332E+02  0.41807872303E+02  0.00000000000E+00 0. -1.
</event>
<event>
 4    1  0.8391192E+003  0.4104206E+02  0.7546771E-02  0.1342485E+00
          2   -1    0    0  501    0  0.00000000000E+00  0.00000000000E+00  0.22263242312E+03  0.22263242312E+03  0.00000000000E+00 0. -1.
          2   -1    0    0  502    0 -0.00000000000E+00 -0.00000000000E+00 -0.18505920530E+03  0.18505920530E+03  0.00000000000E+00 0.  1.
          2    1    1    2  501    0 -0.30135123060E+02 -0.27862616080E+02 -0.18084864673E+03  0.18544725407E+03  0.00000000000E+00 0.  1.
          2    1    1    2  502    0  0.30135123060E+02  0.27862616080E+02  0.21842186455E+03  0.22224437435E+03  0.00000000000E+00 0. -1.
</event>
<event>
 4    1  0.8391192E+003  0.3475006E+02  0.7546771E-02  0.1382329E+00
          2   -1    0    0  501    0  0.00000000000E+00  0.00000000000E+00  0.10841831431E+03  0.10841831431E+03  0.00000000000E+00 0.  1.
          2   -1    0    0  502    0 -0.00000000000E+00 -0.00000000000E+00 -0.20539822092E+04  0.20539822092E+04  0.00000000000E+00 0.  1.
          2    1    1    2  501    0  0.25175697839E+02  0.23953095229E+02 -0.20510467378E+04  0.20513410948E+04  0.00000000000E+00 0.  1.
          2    1    1    2  502    0 -0.25175697839E+02 -0.23953095229E+02  0.10548284297E+03  0.11105942866E+03  0.00000000000E+00 0.  1.
</event>
<event>
 4    1  0.8391192E+003  0.2310199E+02  0.7546771E-02  0.1491221E+00
          2   -1    0    0  501    0  0.00000000000E+00  0.00000000000E+00  0.13797912057E+01  0.13797912057E+01  0.00000000000E+00 0. -1.
          2   -1    0    0  502    0 -0.00000000000E+00 -0.00000000000E+00 -0.55710116480E+03  0.55710116480E+03  0.00000000000E+00 0. -1.
          2    1    1    2  501    0 -0.60557840832E+01  0.22294161453E+02 -0.43225139138E+03  0.43286830273E+03  0.00000000000E+00 0. -1.
          2    1    1    2  502    0  0.60557840832E+01 -0.22294161453E+02 -0.12346998221E+03  0.12561265328E+03  0.00000000000E+00 0. -1.
</event>
<event>
 4    1  0.8391192E+003  0.2156217E+02  0.7546771E-02  0.1511388E+00
          2   -1    0    0  501    0  0.00000000000E+00  0.00000000000E+00  0.22768247959E+02  0.22768247959E+02  0.00000000000E+00 0.  1.
          2   -1    0    0  502    0 -0.00000000000E+00 -0.00000000000E+00 -0.64799628252E+03  0.64799628252E+03  0.00000000000E+00 0.  1.
          2    1    1    2  501    0 -0.13147512853E+02 -0.17090061206E+02 -0.64266961503E+03  0.64303122892E+03  0.00000000000E+00 0.  1.
          2    1    1    2  502    0  0.13147512853E+02  0.17090061206E+02  0.17441580466E+02  0.27733301560E+02  0.00000000000E+00 0.  1.
</event>
<event>
 4    1  0.8391192E+003  0.4972539E+02  0.7546771E-02  0.1299367E+00
          2   -1    0    0  502    0  0.00000000000E+00  0.00000000000E+00  0.75293547631E+03  0.75293547631E+03  0.00000000000E+00 0.  1.
          2   -1    0    0  501    0 -0.00000000000E+00 -0.00000000000E+00 -0.11090999072E+02  0.11090999072E+02  0.00000000000E+00 0.  1.
          2    1    1    2  501    0  0.38031683021E+02 -0.32034446257E+02  0.69142817792E+03  0.69321392073E+03  0.00000000000E+00 0.  1.
          2    1    1    2  502    0 -0.38031683021E+02  0.32034446257E+02  0.50416299312E+02  0.70812554655E+02  0.00000000000E+00 0.  1.
</event>
<event>
 4    1  0.8391192E+003  0.2789562E+02  0.7546771E-02  0.1438813E+00
          2   -1    0    0  501    0  0.00000000000E+00  0.00000000000E+00  0.70491346576E+00  0.70491346576E+00  0.00000000000E+00 0.  1.
          2   -1    0    0  502    0 -0.00000000000E+00 -0.00000000000E+00 -0.11066335605E+04  0.11066335605E+04  0.00000000000E+00 0.  1.
          2    1    1    2  501    0 -0.27732769368E+02  0.30098306511E+01 -0.58039909620E+03  0.58106908061E+03  0.00000000000E+00 0.  1.
          2    1    1    2  502    0  0.27732769368E+02 -0.30098306511E+01 -0.52552955079E+03  0.52626939331E+03  0.00000000000E+00 0.  1.
</event>
<event>
 4    1  0.8391192E+003  0.2036029E+02  0.7546771E-02  0.1528597E+00
          2   -1    0    0  501    0  0.00000000000E+00  0.00000000000E+00  0.52644535721E+03  0.52644535721E+03  0.00000000000E+00 0. -1.
          2   -1    0    0  502    0 -0.00000000000E+00 -0.00000000000E+00 -0.75910679718E+02  0.75910679718E+02  0.00000000000E+00 0. -1.
          2    1    1    2  501    0 -0.20204871411E+02  0.25109322450E+01 -0.74344520593E+02  0.77082094884E+02  0.00000000000E+00 0. -1.
          2    1    1    2  502    0  0.20204871411E+02 -0.25109322450E+01  0.52487919809E+03  0.52527394205E+03  0.00000000000E+00 0. -1.
</event>
<event>
 4    1  0.8391192E+003  0.2007870E+02  0.7546771E-02  0.1532836E+00
          2   -1    0    0  501    0  0.00000000000E+00  0.00000000000E+00  0.77074353317E+00  0.77074353317E+00  0.00000000000E+00 0.  1.
          2   -1    0    0  502    0 -0.00000000000E+00 -0.00000000000E+00 -0.10174330339E+04  0.10174330339E+04  0.00000000000E+00 0. -1.
          2    1    1    2  501    0 -0.22707806164E+01  0.19949876476E+02 -0.86320508154E+03  0.86343857154E+03  0.00000000000E+00 0. -1.
          2    1    1    2  502    0  0.22707806164E+01 -0.19949876476E+02 -0.15345720878E+03  0.15476520586E+03  0.00000000000E+00 0.  1.
</event>
<event>
 4    1  0.8391192E+003  0.2505347E+02  0.7546771E-02  0.1468206E+00
          2   -1    0    0  502    0  0.00000000000E+00  0.00000000000E+00  0.52953326661E+02  0.52953326661E+02  0.00000000000E+00 0.  1.
          2   -1    0    0  501    0 -0.00000000000E+00 -0.00000000000E+00 -0.84358158228E+02  0.84358158228E+02  0.00000000000E+00 0. -1.
          2    1    1    2  501    0  0.24936576744E+02 -0.24173157722E+01  0.47947321661E+02  0.54098261799E+02  0.00000000000E+00 0.  1.
          2    1    1    2  502    0 -0.24936576744E+02  0.24173157722E+01 -0.79352153228E+02  0.83213223091E+02  0.00000000000E+00 0. -1.
</event>
<event>
 4    1  0.8391192E+003  0.3606493E+02  0.7546771E-02  0.1373227E+00
          2   -1    0    0  501    0  0.00000000000E+00  0.00000000000E+00  0.21123133192E+01  0.21123133192E+01  0.00000000000E+00 0. -1.
          2   -1    0    0  502    0 -0.00000000000E+00 -0.00000000000E+00 -0.67825282800E+03  0.67825282800E+03  0.00000000000E+00 0.  1.
          2    1    1    2  501    0 -0.35171223491E+02  0.79789747067E+01 -0.44132970050E+03  0.44280083960E+03  0.00000000000E+00 0.  1.
          2    1    1    2  502    0  0.35171223491E+02 -0.79789747067E+01 -0.23481081417E+03  0.23756430172E+03  0.00000000000E+00 0. -1.
</event>
<event>
 4    1  0.8391192E+003  0.2697607E+02  0.7546771E-02  0.1447849E+00
          2   -1    0    0  502    0  0.00000000000E+00  0.00000000000E+00  0.35666578601E+01  0.35666578601E+01  0.00000000000E+00 0. -1.
          2   -1    0    0  501    0 -0.00000000000E+00 -0.00000000000E+00 -0.19076442423E+04  0.19076442423E+04  0.00000000000E+00 0.  1.
          2    1    1    2  501    0 -0.26975849102E+02 -0.10913768942E+00 -0.48981209332E+02  0.55918397808E+02  0.00000000000E+00 0. -1.
          2    1    1    2  502    0  0.26975849102E+02  0.10913768942E+00 -0.18550963751E+04  0.18552925023E+04  0.00000000000E+00 0.  1.
</event>
<event>
 4    1  0.8391192E+003  0.3378391E+02  0.7546771E-02  0.1389320E+00
          2   -1    0    0  502    0  0.00000000000E+00  0.00000000000E+00  0.23992196817E+03  0.23992196817E+03  0.00000000000E+00 0. -1.
          2   -1    0    0  501    0 -0.00000000000E+00 -0.00000000000E+00 -0.12846733337E+02  0.12846733337E+02  0.00000000000E+00 0.  1.
          2    1    1    2  501    0  0.33160284289E+02  0.64612696105E+01  0.21382797177E+03  0.21648037779E+03  0.00000000000E+00 0. -1.
          2    1    1    2  502    0 -0.33160284289E+02 -0.64612696105E+01  0.13247263064E+02  0.36288323711E+02  0.00000000000E+00 0.  1.
</event>
<event>
 4    1  0.8391192E+003  0.3300134E+02  0.7546771E-02  0.1395186E+00
          2   -1    0    0  502    0  0.00000000000E+00  0.00000000000E+00  0.18609235241E+04  0.18609235241E+04  0.00000000000E+00 0.  1.
          2   -1    0    0  501    0 -0.00000000000E+00 -0.00000000000E+00 -0.48633747193E+03  0.48633747193E+03  0.00000000000E+00 0.  1.
          2    1    1    2  501    0  0.31216401541E+02  0.10706305017E+02  0.18602171592E+04  0.18605098678E+04  0.00000000000E+00 0.  1.
          2    1    1    2  502    0 -0.31216401541E+02 -0.10706305017E+02 -0.48563110705E+03  0.48675112823E+03  0.00000000000E+00 0.  1.
</event>
<event>
 4    1  0.8391192E+003  0.2029445E+02  0.7546771E-02  0.1529581E+00
          2   -1    0    0  502    0  0.00000000000E+00  0.00000000000E+00  0.15952713900E+03  0.15952713900E+03  0.00000000000E+00 0. -1.
          2   -1    0    0  501    0 -0.00000000000E+00 -0.00000000000E+00 -0.62338784846E+02  0.62338784846E+02  0.00000000000E+00 0.  1.
          2    1    1    2  501    0  0.19128644430E+02 -0.67793548506E+01  0.15720568346E+03  0.15851022554E+03  0.00000000000E+00 0. -1.
          2    1    1    2  502    0 -0.19128644430E+02  0.67793548506E+01 -0.60017329308E+02  0.63355698301E+02  0.00000000000E+00 0.  1.
</event>
<event>
 4    1  0.8391192E+003  0.2300602E+02  0.7546771E-02  0.1492423E+00
          2   -1    0    0  502    0  0.00000000000E+00  0.00000000000E+00  0.79886332759E+01  0.79886332759E+01  0.00000000000E+00 0. -1.
          2   -1    0    0  501    0 -0.00000000000E+00 -0.00000000000E+00 -0.72580538698E+02  0.72580538698E+02  0.00000000000E+00 0.  1.
          2    1    1    2  501    0  0.20762797833E+02  0.99087322030E+01 -0.20402137646E+02  0.30749373461E+02  0.00000000000E+00 0. -1.
          2    1    1    2  502    0 -0.20762797833E+02 -0.99087322030E+01 -0.44189767777E+02  0.49819798513E+02  0.00000000000E+00 0.  1.
</event>
<event>
 4    1  0.8391192E+003  0.2099968E+02  0.7546771E-02  0.1519269E+00
          2   -1    0    0  501    0  0.00000000000E+00  0.00000000000E+00  0.18962900570E+01  0.18962900570E+01  0.00000000000E+00 0. -1.
          2   -1    0    0  502    0 -0.00000000000E+00 -0.00000000000E+00 -0.10195235643E+04  0.10195235643E+04  0.00000000000E+00 0.  1.
          2    1    1    2  501    0  0.16025397129E+02 -0.13571044828E+02 -0.95751263906E+03  0.95774288855E+03  0.00000000000E+00 0.  1.
          2    1    1    2  502    0 -0.16025397129E+02  0.13571044828E+02 -0.60114635160E+02  0.63676965783E+02  0.00000000000E+00 0. -1.
</event>
<event>
 4    1  0.8391192E+003  0.3749816E+02  0.7546771E-02  0.1363805E+00
          2   -1    0    0  502    0  0.00000000000E+00  0.00000000000E+00  0.78269703680E+02  0.78269703680E+02  0.00000000000E+00 0.  1.
          2   -1    0    0  501    0 -0.00000000000E+00 -0.00000000000E+00 -0.24436969412E+02  0.24436969412E+02  0.00000000000E+00 0. -1.
          2    1    1    2  501    0 -0.58498658516E+01 -0.37039050813E+02  0.53344380156E+02  0.65205330379E+02  0.00000000000E+00 0.  1.
          2    1    1    2  502    0  0.58498658516E+01  0.37039050813E+02  0.48835411241E+00  0.37501342714E+02  0.00000000000E+00 0. -1.
</event>
<event>
 4    1  0.8391192E+003  0.2913195E+02  0.7546771E-02  0.1427293E+00
          2   -1    0    0  501    0  0.00000000000E+00  0.00000000000E+00  0.47110834521E+03  0.47110834521E+03  0.00000000000E+00 0.  1.
          2   -1    0    0  502    0 -0.00000000000E+00 -0.00000000000E+00 -0.16671593698E+04  0.16671593698E+04  0.00000000000E+00 0. -1.
          2    1    1    2  501    0  0.22671463406E+02 -0.18294138260E+02 -0.16665815921E+04  0.16668361869E+04  0.00000000000E+00 0. -1.
          2    1    1    2  502    0 -0.22671463406E+02  0.18294138260E+02  0.47053056751E+03  0.47143152812E+03  0.00000000000E+00 0.  1.
</event>
<event>
 4    1  0.8391192E+003  0.2223859E+02  0.7546771E-02  0.1502287E+00
          2   -1    0    0  501    0  0.00000000000E+00  0.00000000000E+00  0.82565329235E+03  0.82565329235E+03  0.00000000000E+00 0. -1.
          2   -1    0    0  502    0 -0.00000000000E+00 -0.00000000000E+00 -0.83163578778E+02  0.83163578778E+02  0.00000000000E+00 0. -1.
          2    1    1    2  501    0  0.76574391300E+01 -0.20878659075E+02 -0.81524182188E+02  0.84502941133E+02  0.00000000000E+00 0. -1.
          2    1    1    2  502    0 -0.76574391300E+01  0.20878659075E+02  0.82401389576E+03  0.82431392999E+03  0.00000000000E+00 0. -1.
</event>
<event>
 4    1  0.8391192E+003  0.2168500E+02  0.7546771E-02  0.1509705E+00
          2   -1    0    0  502    0  0.00000000000E+00  0.00000000000E+00  0.69846982181E+03  0.69846982181E+03  0.00000000000E+00 0. -1.
          2   -1    0    0  501    0 -0.00000000000E+00 -0.00000000000E+00 -0.16124574216E+03  0.16124574216E+03  0.00000000000E+00 0.  1.
          2    1    1    2  501    0 -0.21465490057E+02 -0.30776571475E+01  0.69757150031E+03  0.69790847343E+03  0.00000000000E+00 0. -1.
          2    1    1    2  502    0  0.21465490057E+02  0.30776571475E+01 -0.16034742066E+03  0.16180709054E+03  0.00000000000E+00 0.  1.
</event>
<event>
 4    1  0.8391192E+003  0.4499582E+02  0.7546771E-02  0.1321460E+00
          2   -1    0    0  502    0  0.00000000000E+00  0.00000000000E+00  0.36650492758E+03  0.36650492758E+03  0.00000000000E+00 0.  1.
          2   -1    0    0  501    0 -0.00000000000E+00 -0.00000000000E+00 -0.21870018516E+02  0.21870018516E+02  0.00000000000E+00 0. -1.
          2    1    1    2  501    0 -0.41855893710E+02  0.16513866386E+02  0.34019816611E+03  0.34316091830E+03  0.00000000000E+00 0.  1.
          2    1    1    2  502    0  0.41855893710E+02 -0.16513866386E+02  0.44367429481E+01  0.45214027793E+02  0.00000000000E+00 0. -1.
</event>
<event>
 4    1  0.8391192E+003  0.2040350E+02  0.7546771E-02  0.1527954E+00
          2   -1    0    0  501    0  0.00000000000E+00  0.00000000000E+00  0.49752509293E+02  0.49752509293E+02  0.00000000000E+00 0. -1.
          2   -1    0    0  502    0 -0.00000000000E+00 -0.00000000000E+00 -0.35654241052E+03  0.35654241052E+03  0.00000000000E+00 0.  1.
          2    1    1    2  501    0 -0.54107869235E+01 -0.19672981728E+02 -0.35414448692E+03  0.35473175843E+03  0.00000000000E+00 0.  1.
          2    1    1    2  502    0  0.54107869235E+01  0.19672981728E+02  0.47354585693E+02  0.51563161379E+02  0.00000000000E+00 0. -1.
</event>
<event>
 4    1  0.8391192E+003  0.2609641E+02  0.7546771E-02  0.1456902E+00
          2   -1    0    0  502    0  0.00000000000E+00  0.00000000000E+00  0.29322819691E+03  0.29322819691E+03  0.00000000000E+00 0. -1.
          2   -1    0    0  501    0 -0.00000000000E+00 -0.00000000000E+00 -0.25632783506E+02  0.25632783506E+02  0.00000000000E+00 0.  1.
          2    1    1    2  501    0  0.24498819430E+02  0.89905650475E+01  0.28583400141E+03  0.28702281926E+03  0.00000000000E+00 0. -1.
          2    1    1    2  502    0 -0.24498819430E+02 -0.89905650475E+01 -0.18238588007E+02  0.31838161156E+02  0.00000000000E+00 0.  1.
</event>
<event>
 4    1  0.8391192E+003  0.2060226E+02  0.7546771E-02  0.1525020E+00
          2   -1    0    0  502    0  0.00000000000E+00  0.00000000000E+00  0.14249471946E+04  0.14249471946E+04  0.00000000000E+00 0.  1.
          2   -1    0    0  501    0 -0.00000000000E+00 -0.00000000000E+00 -0.30199311050E+01  0.30199311050E+01  0.00000000000E+00 0.  1.
          2    1    1    2  501    0  0.20180281853E+02 -0.41484267171E+01  0.13888211168E+04  0.13889739190E+04  0.00000000000E+00 0.  1.
          2    1    1    2  502    0 -0.20180281853E+02  0.41484267171E+01  0.33106146738E+02  0.38993206738E+02  0.00000000000E+00 0.  1.
</event>
<event>
 4    1  0.8391192E+003  0.2283484E+02  0.7546771E-02  0.1494583E+00
          2   -1    0    0  502    0  0.00000000000E+00  0.00000000000E+00  0.11239037043E+01  0.11239037043E+01  0.00000000000E+00 0. -1.
          2   -1    0    0  501    0 -0.00000000000E+00 -0.00000000000E+00 -0.50787910702E+03  0.50787910702E+03  0.00000000000E+00 0. -1.
          2    1    1    2  501    0  0.56673099052E+01 -0.22120382312E+02 -0.32823076445E+03  0.32902410922E+03  0.00000000000E+00 0. -1.
          2    1    1    2  502    0 -0.56673099052E+01  0.22120382312E+02 -0.17852443886E+03  0.17997890150E+03  0.00000000000E+00 0. -1.
</event>
<event>
 4    1  0.8391192E+003  0.2056600E+02  0.7546771E-02  0.1525552E+00
          2   -1    0    0  501    0  0.00000000000E+00  0.00000000000E+00  0.58045030586E+03  0.58045030586E+03  0.00000000000E+00 0.  1.
          2   -1    0    0  502    0 -0.00000000000E+00 -0.00000000000E+00 -0.44369996500E+01  0.44369996500E+01  0.00000000000E+00 0. -1.
          2    1    1    2  501    0  0.66098508583E+01  0.19474856526E+02  0.20652877125E+02  0.29146208993E+02  0.00000000000E+00 0. -1.
          2    1    1    2  502    0 -0.66098508583E+01 -0.19474856526E+02  0.55536042909E+03  0.55574109652E+03  0.00000000000E+00 0.  1.
</event>
<event>
 4    1  0.1653138E+004  0.2708619E+02  0.7546771E-02  0.1446744E+00
          2   -1    0    0  501    0  0.00000000000E+00  0.00000000000E+00  0.96439982122E+03  0.96439982122E+03  0.00000000000E+00 0. -1.
          2   -1    0    0  502    0 -0.00000000000E+00 -0.00000000000E+00 -0.19742607362E+04  0.19742607362E+04  0.00000000000E+00 0.  1.
          2    1    1    2  501    0  0.26931936944E+02  0.28865993025E+01 -0.19739776195E+04  0.19741634441E+04  0.00000000000E+00 0.  1.
          2    1    1    2  502    0 -0.26931936944E+02 -0.28865993025E+01  0.96411670453E+03  0.96449711333E+03  0.00000000000E+00 0. -1.
</event>
<event>
 4    1  0.8391192E+003  0.3251204E+02  0.7546771E-02  0.1398952E+00
          2   -1    0    0  501    0  0.00000000000E+00  0.00000000000E+00  0.20035046134E+04  0.20035046134E+04  0.00000000000E+00 0. -1.
          2   -1    0    0  502    0 -0.00000000000E+00 -0.00000000000E+00 -0.53490988922E+00  0.53490988922E+00  0.00000000000E+00 0. -1.
          2    1    1    2  501    0  0.19149161580E+02  0.26274371893E+02  0.11186851901E+04  0.11191575347E+04  0.00000000000E+00 0. -1.
          2    1    1    2  502    0 -0.19149161580E+02 -0.26274371893E+02  0.88428451343E+03  0.88488198857E+03  0.00000000000E+00 0. -1.
</event>
<event>
 4    1  0.8391192E+003  0.2146328E+02  0.7546771E-02  0.1512752E+00
          2   -1    0    0  501    0  0.00000000000E+00  0.00000000000E+00  0.15127414960E+04  0.15127414960E+04  0.00000000000E+00 0. -1.
          2   -1    0    0  502    0 -0.00000000000E+00 -0.00000000000E+00 -0.10233227857E+01  0.10233227857E+01  0.00000000000E+00 0. -1.
          2    1    1    2  501    0 -0.89759471591E-01 -0.21463096763E+02  0.12151563427E+03  0.12339660429E+03  0.00000000000E+00 0. -1.
          2    1    1    2  502    0  0.89759471591E-01  0.21463096763E+02  0.13902025390E+04  0.13903682145E+04  0.00000000000E+00 0. -1.
</event>
<event>
 4    1  0.8391192E+003  0.3425720E+02  0.7546771E-02  0.1385862E+00
          2   -1    0    0  502    0  0.00000000000E+00  0.00000000000E+00  0.49087697824E+02  0.49087697824E+02  0.00000000000E+00 0. -1.
          2   -1    0    0  501    0 -0.00000000000E+00 -0.00000000000E+00 -0.15890860993E+03  0.15890860993E+03  0.00000000000E+00 0. -1.
          2    1    1    2  501    0  0.31278883140E+02 -0.13970934184E+02  0.40945889346E+02  0.53386528140E+02  0.00000000000E+00 0. -1.
          2    1    1    2  502    0 -0.31278883140E+02  0.13970934184E+02 -0.15076680145E+03  0.15460977961E+03  0.00000000000E+00 0. -1.
</event>
<event>
 4    1  0.8391192E+003  0.2170448E+02  0.7546771E-02  0.1509440E+00
          2   -1    0    0  502    0  0.00000000000E+00  0.00000000000E+00  0.10817051278E+04  0.10817051278E+04  0.00000000000E+00 0.  1.
          2   -1    0    0  501    0 -0.00000000000E+00 -0.00000000000E+00 -0.32873872315E+02  0.32873872315E+02  0.00000000000E+00 0. -1.
          2    1    1    2  501    0  0.77087514799E+01 -0.20289396761E+02  0.10780014308E+04  0.10782199077E+04  0.00000000000E+00 0.  1.
          2    1    1    2  502    0 -0.77087514799E+01  0.20289396761E+02 -0.29170175360E+02  0.36359092409E+02  0.00000000000E+00 0. -1.
</event>
<event>
 4    1  0.8391192E+003  0.2482848E+02  0.7546771E-02  0.1470731E+00
          2   -1    0    0  501    0  0.00000000000E+00  0.00000000000E+00  0.81441658629E+03  0.81441658629E+03  0.00000000000E+00 0. -1.
          2   -1    0    0  502    0 -0.00000000000E+00 -0.00000000000E+00 -0.24907470138E+01  0.24907470138E+01  0.00000000000E+00 0. -1.
          2    1    1    2  501    0 -0.74044475315E+01  0.23698682646E+02  0.65178231769E+02  0.69747080935E+02  0.00000000000E+00 0. -1.
          2    1    1    2  502    0  0.74044475315E+01 -0.23698682646E+02  0.74674760750E+03  0.74716025236E+03  0.00000000000E+00 0. -1.
</event>
<event>
 4    1  0.8391192E+003  0.2069454E+02  0.7546771E-02  0.1523671E+00
          2   -1    0    0  502    0  0.00000000000E+00  0.00000000000E+00  0.15750480103E+03  0.15750480103E+03  0.00000000000E+00 0. -1.
          2   -1    0    0  501    0 -0.00000000000E+00 -0.00000000000E+00 -0.79129424644E+03  0.79129424644E+03  0.00000000000E+00 0.  1.
          2    1    1    2  501    0 -0.22359849636E+01 -0.20573388263E+02  0.15668903145E+03  0.15804972796E+03  0.00000000000E+00 0. -1.
          2    1    1    2  502    0  0.22359849636E+01  0.20573388263E+02 -0.79047847685E+03  0.79074931951E+03  0.00000000000E+00 0.  1.
</event>
<event>
 4    1  0.8391192E+003  0.2546813E+02  0.7546771E-02  0.1463634E+00
          2   -1    0    0  501    0  0.00000000000E+00  0.00000000000E+00  0.12956924433E+04  0.12956924433E+04  0.00000000000E+00 0. -1.
          2   -1    0    0  502    0 -0.00000000000E+00 -0.00000000000E+00 -0.15345457845E+01  0.15345457845E+01  0.00000000000E+00 0. -1.
          2    1    1    2  501    0  0.24894032210E+01 -0.25346169209E+02  0.11467085521E+03  0.11746501801E+03  0.00000000000E+00 0. -1.
          2    1    1    2  502    0 -0.24894032210E+01  0.25346169209E+02  0.11794870423E+04  0.11797619711E+04  0.00000000000E+00 0. -1.
</event>
<event>
 4    1  0.8391192E+003  0.2017205E+02  0.7546771E-02  0.1531422E+00
          2   -1    0    0  501    0  0.00000000000E+00  0.00000000000E+00  0.59663687649E+02  0.59663687649E+02  0.00000000000E+00 0. -1.
          2   -1    0    0  502    0 -0.00000000000E+00 -0.00000000000E+00 -0.53255707876E+03  0.53255707876E+03  0.00000000000E+00 0.  1.
          2    1    1    2  501    0  0.18780971774E+02  0.73611555000E+01 -0.53065492985E+03  0.53103819644E+03  0.00000000000E+00 0.  1.
          2    1    1    2  502    0 -0.18780971774E+02 -0.73611555000E+01  0.57761538733E+02  0.61182569968E+02  0.00000000000E+00 0. -1.
</event>
<event>
 4    1  0.8391192E+003  0.1173824E+03  0.7546771E-02  0.1136689E+00
          2   -1    0    0  502    0  0.00000000000E+00  0.00000000000E+00  0.41453186785E+03  0.41453186785E+03  0.00000000000E+00 0. -1.
          2   -1    0    0  501    0 -0.00000000000E+00 -0.00000000000E+00 -0.36203692911E+04  0.36203692911E+04  0.00000000000E+00 0. -1.
          2    1    1    2  501    0  0.78860344493E+02 -0.86946392913E+02  0.40524929425E+03  0.42190712208E+03  0.00000000000E+00 0. -1.
          2    1    1    2  502    0 -0.78860344493E+02  0.86946392913E+02 -0.36110867175E+04  0.36129940369E+04  0.00000000000E+00 0. -1.
</event>
<event>
 4    1  0.8391192E+003  0.2427474E+02  0.7546771E-02  0.1477083E+00
          2   -1    0    0  502    0  0.00000000000E+00  0.00000000000E+00  0.56172933865E+03  0.56172933865E+03  0.00000000000E+00 0.  1.
          2   -1    0    0  501    0 -0.00000000000E+00 -0.00000000000E+00 -0.70672943760E+01  0.70672943760E+01  0.00000000000E+00 0.  1.
          2    1    1    2  501    0  0.18852050244E+01  0.24201429982E+02  0.53977496703E+03  0.54032053287E+03  0.00000000000E+00 0.  1.
          2    1    1    2  502    0 -0.18852050244E+01 -0.24201429982E+02  0.14887077246E+02  0.28476100155E+02  0.00000000000E+00 0.  1.
</event>
<event>
 4    1  0.8391192E+003  0.3971976E+02  0.7546771E-02  0.1350136E+00
          2   -1    0    0  501    0  0.00000000000E+00  0.00000000000E+00  0.10877410654E+01  0.10877410654E+01  0.00000000000E+00 0.  1.
          2   -1    0    0  502    0 -0.00000000000E+00 -0.00000000000E+00 -0.20299927141E+04  0.20299927141E+04  0.00000000000E+00 0.  1.
          2    1    1    2  501    0  0.37638819767E+02 -0.12687722638E+02 -0.15570921703E+04  0.15575986922E+04  0.00000000000E+00 0.  1.
          2    1    1    2  502    0 -0.37638819767E+02  0.12687722638E+02 -0.47181280273E+03  0.47348176298E+03  0.00000000000E+00 0.  1.
</event>
<event>
 4    1  0.8391192E+003  0.3084484E+02  0.7546771E-02  0.1412394E+00
          2   -1    0    0  502    0  0.00000000000E+00  0.00000000000E+00  0.67075245483E+02  0.67075245483E+02  0.00000000000E+00 0. -1.
          2   -1    0    0  501    0 -0.00000000000E+00 -0.00000000000E+00 -0.21774065657E+02  0.21774065657E+02  0.00000000000E+00 0.  1.
          2    1    1    2  501    0 -0.76412862684E+01  0.29883354575E+02  0.48879080297E+02  0.57797652437E+02  0.00000000000E+00 0. -1.
          2    1    1    2  502    0  0.76412862684E+01 -0.29883354575E+02 -0.35779004710E+01  0.31051658704E+02  0.00000000000E+00 0.  1.
</event>
<event>
 4    1  0.8391192E+003  0.2696273E+02  0.7546771E-02  0.1447983E+00
          2   -1    0    0  501    0  0.00000000000E+00  0.00000000000E+00  0.32695812504E+03  0.32695812504E+03  0.00000000000E+00 0.  1.
          2   -1    0    0  502    0 -0.00000000000E+00 -0.00000000000E+00 -0.28937232659E+01  0.28937232659E+01  0.00000000000E+00 0. -1.
          2    1    1    2  501    0 -0.25707706850E+02 -0.81303470232E+01  0.82659198049E+02  0.86945567778E+02  0.00000000000E+00 0. -1.
          2    1    1    2  502    0  0.25707706850E+02  0.81303470232E+01  0.24140520373E+03  0.24290628053E+03  0.00000000000E+00 0.  1.
</event>
<event>
 4    1  0.8391192E+003  0.2268277E+02  0.7546771E-02  0.1496520E+00
          2   -1    0    0  502    0  0.00000000000E+00  0.00000000000E+00  0.26176695451E+01  0.26176695451E+01  0.00000000000E+00 0.  1.
          2   -1    0    0  501    0 -0.00000000000E+00 -0.00000000000E+00 -0.68591700755E+03  0.68591700755E+03  0.00000000000E+00 0.  1.
          2    1    1    2  501    0  0.20664798536E+01  0.22588445125E+02 -0.50861662043E+02  0.55690365935E+02  0.00000000000E+00 0.  1.
          2    1    1    2  502    0 -0.20664798536E+01 -0.22588445125E+02 -0.63243767596E+03  0.63284431116E+03  0.00000000000E+00 0.  1.
</event>
<event>
 4    1  0.8391192E+003  0.2035249E+02  0.7546771E-02  0.1528714E+00
          2   -1    0    0  501    0  0.00000000000E+00  0.00000000000E+00  0.10572986914E+04  0.10572986914E+04  0.00000000000E+00 0.  1.
          2   -1    0    0  502    0 -0.00000000000E+00 -0.00000000000E+00 -0.15616459746E+02  0.15616459746E+02  0.00000000000E+00 0.  1.
          2    1    1    2  501    0 -0.72599800697E+00  0.20339536286E+02 -0.88445684667E+01  0.22191219002E+02  0.00000000000E+00 0.  1.
          2    1    1    2  502    0  0.72599800697E+00 -0.20339536286E+02  0.10505268001E+04  0.10507239321E+04  0.00000000000E+00 0.  1.
</event>
<event>
 4    1  0.8391192E+003  0.2623647E+02  0.7546771E-02  0.1455432E+00
          2   -1    0    0  501    0  0.00000000000E+00  0.00000000000E+00  0.54177206868E+03  0.54177206868E+03  0.00000000000E+00 0.  1.
          2   -1    0    0  502    0 -0.00000000000E+00 -0.00000000000E+00 -0.14747931364E+02  0.14747931364E+02  0.00000000000E+00 0.  1.
          2    1    1    2  501    0  0.61108350352E+01 -0.25514901914E+02 -0.24917468531E+01  0.26354531430E+02  0.00000000000E+00 0.  1.
          2    1    1    2  502    0 -0.61108350352E+01  0.25514901914E+02  0.52951588417E+03  0.53016546862E+03  0.00000000000E+00 0.  1.
</event>
<event>
 4    1  0.8391192E+003  0.7754202E+02  0.7546771E-02  0.1209672E+00
          2   -1    0    0  501    0  0.00000000000E+00  0.00000000000E+00  0.57209761989E+03  0.57209761989E+03  0.00000000000E+00 0.  1.
          2   -1    0    0  502    0 -0.00000000000E+00 -0.00000000000E+00 -0.57775616536E+03  0.57775616536E+03  0.00000000000E+00 0.  1.
          2    1    1    2  501    0  0.47598360827E+01 -0.77395790037E+02 -0.57250288270E+03  0.57773031343E+03  0.00000000000E+00 0.  1.
          2    1    1    2  502    0 -0.47598360827E+01  0.77395790037E+02  0.56684433723E+03  0.57212347182E+03  0.00000000000E+00 0.  1.
</event>
<event>
 4    1  0.8391192E+003  0.2633507E+02  0.7546771E-02  0.1454404E+00
          2   -1    0    0  502    0  0.00000000000E+00  0.00000000000E+00  0.72422042057E+02  0.72422042057E+02  0.00000000000E+00 0.  1.
          2   -1    0    0  501    0 -0.00000000000E+00 -0.00000000000E+00 -0.35929655170E+03  0.35929655170E+03  0.00000000000E+00 0. -1.
          2    1    1    2  501    0 -0.50465943517E+01 -0.25847008950E+02  0.69525971667E+02  0.74346464088E+02  0.00000000000E+00 0.  1.
          2    1    1    2  502    0  0.50465943517E+01  0.25847008950E+02 -0.35640048131E+03  0.35737212967E+03  0.00000000000E+00 0. -1.
</event>
<event>
 4    1  0.8391192E+003  0.2481430E+02  0.7546771E-02  0.1470892E+00
          2   -1    0    0  501    0  0.00000000000E+00  0.00000000000E+00  0.36966042861E+03  0.36966042861E+03  0.00000000000E+00 0. -1.
          2   -1    0    0  502    0 -0.00000000000E+00 -0.00000000000E+00 -0.14030554257E+02  0.14030554257E+02  0.00000000000E+00 0. -1.
          2    1    1    2  501    0 -0.27896619021E-01 -0.24814285909E+02 -0.22828556694E+01  0.24919088936E+02  0.00000000000E+00 0. -1.
          2    1    1    2  502    0  0.27896619021E-01  0.24814285909E+02  0.35791273003E+03  0.35877189393E+03  0.00000000000E+00 0. -1.
</event>
<event>
 4    1  0.8391192E+003  0.2197257E+02  0.7546771E-02  0.1505819E+00
          2   -1    0    0  502    0  0.00000000000E+00  0.00000000000E+00  0.53372896598E+03  0.53372896598E+03  0.00000000000E+00 0. -1.
          2   -1    0    0  501    0 -0.00000000000E+00 -0.00000000000E+00 -0.12723467255E+02  0.12723467255E+02  0.00000000000E+00 0. -1.
          2    1    1    2  501    0  0.13691427322E+01 -0.21929876716E+02  0.52383748482E+03  0.52429810657E+03  0.00000000000E+00 0. -1.
          2    1    1    2  502    0 -0.13691427322E+01  0.21929876716E+02 -0.28319861024E+01  0.22154326663E+02  0.00000000000E+00 0. -1.
</event>
<event>
 4    1  0.8391192E+003  0.3659961E+02  0.7546771E-02  0.1369653E+00
          2   -1    0    0  502    0  0.00000000000E+00  0.00000000000E+00  0.15929936620E+04  0.15929936620E+04  0.00000000000E+00 0. -1.
          2   -1    0    0  501    0 -0.00000000000E+00 -0.00000000000E+00 -0.25352472832E+02  0.25352472832E+02  0.00000000000E+00 0.  1.
          2    1    1    2  501    0 -0.10669052403E+02 -0.35010038492E+02  0.15794612014E+04  0.15798851915E+04  0.00000000000E+00 0. -1.
          2    1    1    2  502    0  0.10669052403E+02  0.35010038492E+02 -0.11820012245E+02  0.38460943356E+02  0.00000000000E+00 0.  1.
</event>
<event>
 4    1  0.8391192E+003  0.2528586E+02  0.7546771E-02  0.1465631E+00
          2   -1    0    0  502    0  0.00000000000E+00  0.00000000000E+00  0.21380647442E+01  0.21380647442E+01  0.00000000000E+00 0.  1.
          2   -1    0    0  501    0 -0.00000000000E+00 -0.00000000000E+00 -0.44432890505E+03  0.44432890505E+03  0.00000000000E+00 0.  1.
          2    1    1    2  501    0 -0.24720297053E+02  0.53180446069E+01 -0.93446299880E+02  0.96806950402E+02  0.00000000000E+00 0.  1.
          2    1    1    2  502    0  0.24720297053E+02 -0.53180446069E+01 -0.34874454043E+03  0.34966001939E+03  0.00000000000E+00 0.  1.
</event>
<event>
 4    1  0.8391192E+003  0.7256318E+02  0.7546771E-02  0.1222252E+00
          2   -1    0    0  502    0  0.00000000000E+00  0.00000000000E+00  0.26036363394E+03  0.26036363394E+03  0.00000000000E+00 0. -1.
          2   -1    0    0  501    0 -0.00000000000E+00 -0.00000000000E+00 -0.44149842975E+02  0.44149842975E+02  0.00000000000E+00 0. -1.
          2    1    1    2  501    0 -0.45154091592E+02 -0.56802492635E+02  0.22019300715E+03  0.23184127233E+03  0.00000000000E+00 0. -1.
          2    1    1    2  502    0  0.45154091592E+02  0.56802492635E+02 -0.39792161915E+01  0.72672204580E+02  0.00000000000E+00 0. -1.
</event>
<event>
 4    1  0.8391192E+003  0.2477357E+02  0.7546771E-02  0.1471352E+00
          2   -1    0    0  502    0  0.00000000000E+00  0.00000000000E+00  0.14421342609E+03  0.14421342609E+03  0.00000000000E+00 0. -1.
          2   -1    0    0  501    0 -0.00000000000E+00 -0.00000000000E+00 -0.21007160631E+02  0.21007160631E+02  0.00000000000E+00 0. -1.
          2    1    1    2  501    0  0.15652390275E+02 -0.19202405611E+02  0.13537262096E+03  0.13762076954E+03  0.00000000000E+00 0. -1.
          2    1    1    2  502    0 -0.15652390275E+02  0.19202405611E+02 -0.12166355499E+02  0.27599817186E+02  0.00000000000E+00 0. -1.
</event>
<event>
 4    1  0.8391192E+003  0.3049251E+02  0.7546771E-02  0.1415364E+00
          2   -1    0    0  501    0  0.00000000000E+00  0.00000000000E+00  0.55890642134E+00  0.55890642134E+00  0.00000000000E+00 0. -1.
          2   -1    0    0  502    0 -0.00000000000E+00 -0.00000000000E+00 -0.22363220862E+04  0.22363220862E+04  0.00000000000E+00 0.  1.
          2    1    1    2  501    0  0.85477046465E+01 -0.29269945177E+02 -0.16838865474E+04  0.16841626102E+04  0.00000000000E+00 0.  1.
          2    1    1    2  502    0 -0.85477046465E+01  0.29269945177E+02 -0.55187663239E+03  0.55271838248E+03  0.00000000000E+00 0. -1.
</event>
<event>
 4    1  0.8391192E+003  0.2800208E+02  0.7546771E-02  0.1437794E+00
          2   -1    0    0  501    0  0.00000000000E+00  0.00000000000E+00  0.17940096916E+03  0.17940096916E+03  0.00000000000E+00 0.  1.
          2   -1    0    0  502    0 -0.00000000000E+00 -0.00000000000E+00 -0.13402128798E+02  0.13402128798E+02  0.00000000000E+00 0.  1.
          2    1    1    2  501    0  0.14282071719E+02 -0.24086076629E+02  0.38634074676E+01  0.28267341177E+02  0.00000000000E+00 0.  1.
          2    1    1    2  502    0 -0.14282071719E+02  0.24086076629E+02  0.16213543290E+03  0.16453575678E+03  0.00000000000E+00 0.  1.
</event>
<event>
 4    1  0.8391192E+003  0.2069820E+02  0.7546771E-02  0.1523618E+00
          2   -1    0    0  501    0  0.00000000000E+00  0.00000000000E+00  0.10018081922E+04  0.10018081922E+04  0.00000000000E+00 0.  1.
          2   -1    0    0  502    0 -0.00000000000E+00 -0.00000000000E+00 -0.60768530994E+00  0.60768530994E+00  0.00000000000E+00 0.  1.
          2    1    1    2  501    0 -0.27295707773E+01  0.20517433131E+02  0.22778626608E+03  0.22872472239E+03  0.00000000000E+00 0.  1.
          2    1    1    2  502    0  0.27295707773E+01 -0.20517433131E+02  0.77341424080E+03  0.77369115511E+03  0.00000000000E+00 0.  1.
</event>
<event>
 4    1  0.9428625E+003  0.4299107E+02  0.7546771E-02  0.1331797E+00
          2   -1    0    0  501    0  0.00000000000E+00  0.00000000000E+00  0.17632477549E+04  0.17632477549E+04  0.00000000000E+00 0.  1.
          2   -1    0    0  502    0 -0.00000000000E+00 -0.00000000000E+00 -0.20513991071E+04  0.20513991071E+04  0.00000000000E+00 0.  1.
          2    1    1    2  501    0  0.32910547554E+02  0.27660941681E+02 -0.20509117551E+04  0.20513622934E+04  0.00000000000E+00 0.  1.
          2    1    1    2  502    0 -0.32910547554E+02 -0.27660941681E+02  0.17627604029E+04  0.17632845686E+04  0.00000000000E+00 0.  1.
</event>
<event>
 4    1  0.8391192E+003  0.2696750E+02  0.7546771E-02  0.1447935E+00
          2   -1    0    0  501    0  0.00000000000E+00  0.00000000000E+00  0.12800512512E+04  0.12800512512E+04  0.00000000000E+00 0.  1.
          2   -1    0    0  502    0 -0.00000000000E+00 -0.00000000000E+00 -0.35003590992E+03  0.35003590992E+03  0.00000000000E+00 0. -1.
          2    1    1    2  501    0 -0.16621502020E+02  0.21236097545E+02 -0.34937419847E+03  0.35041343685E+03  0.00000000000E+00 0. -1.
          2    1    1    2  502    0  0.16621502020E+02 -0.21236097545E+02  0.12793895397E+04  0.12796737242E+04  0.00000000000E+00 0.  1.
</event>
<event>
 4    1  0.8391192E+003  0.2412959E+02  0.7546771E-02  0.1478781E+00
          2   -1    0    0  501    0  0.00000000000E+00  0.00000000000E+00  0.20221649132E+02  0.20221649132E+02  0.00000000000E+00 0.  1.
          2   -1    0    0  502    0 -0.00000000000E+00 -0.00000000000E+00 -0.16944665686E+04  0.16944665686E+04  0.00000000000E+00 0.  1.
          2    1    1    2  501    0  0.97159382247E+01  0.22087046736E+02 -0.16871512669E+04  0.16873238084E+04  0.00000000000E+00 0.  1.
          2    1    1    2  502    0 -0.97159382247E+01 -0.22087046736E+02  0.12906347473E+02  0.27364409261E+02  0.00000000000E+00 0.  1.
</event>
<event>
 4    1  0.8391192E+003  0.1268528E+03  0.7546771E-02  0.1124024E+00
          2   -1    0    0  502    0  0.00000000000E+00  0.00000000000E+00  0.58326920785E+03  0.58326920785E+03  0.00000000000E+00 0. -1.
          2   -1    0    0  501    0 -0.00000000000E+00 -0.00000000000E+00 -0.33939935249E+02  0.33939935249E+02  0.00000000000E+00 0. -1.
          2    1    1    2  501    0 -0.56269449181E+01 -0.12672791252E+03  0.40816323429E+03  0.42742116483E+03  0.00000000000E+00 0. -1.
          2    1    1    2  502    0  0.56269449181E+01  0.12672791252E+03  0.14116603831E+03  0.18978797827E+03  0.00000000000E+00 0. -1.
</event>
<event>
 4    1  0.8391192E+003  0.2068844E+02  0.7546771E-02  0.1523760E+00
          2   -1    0    0  502    0  0.00000000000E+00  0.00000000000E+00  0.14991469424E+04  0.14991469424E+04  0.00000000000E+00 0. -1.
          2   -1    0    0  501    0 -0.00000000000E+00 -0.00000000000E+00 -0.11562270419E+02  0.11562270419E+02  0.00000000000E+00 0.  1.
          2    1    1    2  501    0  0.18314665524E+02  0.96220872858E+01  0.14897627872E+04  0.14899064312E+04  0.00000000000E+00 0. -1.
          2    1    1    2  502    0 -0.18314665524E+02 -0.96220872858E+01 -0.21781152434E+01  0.20802781617E+02  0.00000000000E+00 0.  1.
</event>
<event>
 4    1  0.8391192E+003  0.2175077E+02  0.7546771E-02  0.1508810E+00
          2   -1    0    0  501    0  0.00000000000E+00  0.00000000000E+00  0.54160494868E+02  0.54160494868E+02  0.00000000000E+00 0. -1.
          2   -1    0    0  502    0 -0.00000000000E+00 -0.00000000000E+00 -0.13126084078E+04  0.13126084078E+04  0.00000000000E+00 0.  1.
          2    1    1    2  501    0 -0.10409403031E+02  0.19098173240E+02 -0.13103307377E+04  0.13105112507E+04  0.00000000000E+00 0.  1.
          2    1    1    2  502    0  0.10409403031E+02 -0.19098173240E+02  0.51882824829E+02  0.56257651967E+02  0.00000000000E+00 0. -1.
</event>
<event>
 4    1  0.8391192E+003  0.2161061E+02  0.7546771E-02  0.1510723E+00
          2   -1    0    0  501    0  0.00000000000E+00  0.00000000000E+00  0.69701467839E+03  0.69701467839E+03  0.00000000000E+00 0. -1.
          2   -1    0    0  502    0 -0.00000000000E+00 -0.00000000000E+00 -0.10408172952E+01  0.10408172952E+01  0.00000000000E+00 0. -1.
          2    1    1    2  501    0 -0.16155689144E+02  0.14353117622E+02  0.13966394034E+03  0.14132598667E+03  0.00000000000E+00 0. -1.
          2    1    1    2  502    0  0.16155689144E+02 -0.14353117622E+02  0.55630992075E+03  0.55672950901E+03  0.00000000000E+00 0. -1.
</event>
<event>
 4    1  0.8391192E+003  0.7391176E+02  0.7546771E-02  0.1218734E+00
          2   -1    0    0  502    0  0.00000000000E+00  0.00000000000E+00  0.84006416859E+03  0.84006416859E+03  0.00000000000E+00 0.  1.
          2   -1    0    0  501    0 -0.00000000000E+00 -0.00000000000E+00 -0.10918172165E+04  0.10918172165E+04  0.00000000000E+00 0.  1.
          2    1    1    2  501    0 -0.16874990902E+02 -0.71959596525E+02  0.83718323445E+03  0.84043959741E+03  0.00000000000E+00 0.  1.
          2    1    1    2  502    0  0.16874990902E+02  0.71959596525E+02 -0.10889362823E+04  0.10914417877E+04  0.00000000000E+00 0.  1.
</event>
<event>
 4    1  0.8391192E+003  0.2798566E+02  0.7546771E-02  0.1437951E+00
          2   -1    0    0  502    0  0.00000000000E+00  0.00000000000E+00  0.83249060267E+01  0.83249060267E+01  0.00000000000E+00 0.  1.
          2   -1    0    0  501    0 -0.00000000000E+00 -0.00000000000E+00 -0.35166232056E+03  0.35166232056E+03  0.00000000000E+00 0.  1.
          2    1    1    2  501    0 -0.22506850532E+02 -0.16632467102E+02 -0.17621722407E+02  0.33071473861E+02  0.00000000000E+00 0.  1.
          2    1    1    2  502    0  0.22506850532E+02  0.16632467102E+02 -0.32571569213E+03  0.32691575273E+03  0.00000000000E+00 0.  1.
</event>
<event>
 4    1  0.8391192E+003  0.2733368E+02  0.7546771E-02  0.1444285E+00
          2   -1    0    0  501    0  0.00000000000E+00  0.00000000000E+00  0.45377297095E+01  0.45377297095E+01  0.00000000000E+00 0. -1.
          2   -1    0    0  502    0 -0.00000000000E+00 -0.00000000000E+00 -0.56661173633E+03  0.56661173633E+03  0.00000000000E+00 0.  1.
          2    1    1    2  501    0  0.23961107658E+02 -0.13152764684E+02 -0.52156754097E+03  0.52228328491E+03  0.00000000000E+00 0.  1.
          2    1    1    2  502    0 -0.23961107658E+02  0.13152764684E+02 -0.40506465649E+02  0.48866181132E+02  0.00000000000E+00 0. -1.
</event>
<event>
 4    1  0.8391192E+003  0.2020186E+02  0.7546771E-02  0.1530972E+00
          2   -1    0    0  501    0  0.00000000000E+00  0.00000000000E+00  0.52416555052E+02  0.52416555052E+02  0.00000000000E+00 0. -1.
          2   -1    0    0  502    0 -0.00000000000E+00 -0.00000000000E+00 -0.20534586151E+02  0.20534586151E+02  0.00000000000E+00 0.  1.
          2    1    1    2  501    0 -0.90627961159E+01 -0.18054942353E+02 -0.12799239966E+02  0.23915178455E+02  0.00000000000E+00 0.  1.
          2    1    1    2  502    0  0.90627961159E+01  0.18054942353E+02  0.44681208868E+02  0.49035962749E+02  0.00000000000E+00 0. -1.
</event>
<event>
 4    1  0.8391192E+003  0.2160127E+02  0.7546771E-02  0.1510851E+00
          2   -1    0    0  502    0  0.00000000000E+00  0.00000000000E+00  0.47029622730E+03  0.47029622730E+03  0.00000000000E+00 0. -1.
          2   -1    0    0  501    0 -0.00000000000E+00 -0.00000000000E+00 -0.13602059823E+02  0.13602059823E+02  0.00000000000E+00 0. -1.
          2    1    1    2  501    0 -0.11699123671E+02 -0.18158892182E+02  0.46130493742E+03  0.46181041581E+03  0.00000000000E+00 0. -1.
          2    1    1    2  502    0  0.11699123671E+02  0.18158892182E+02 -0.46107699399E+01  0.22087871319E+02  0.00000000000E+00 0. -1.
</event>
<event>
 4    1  0.8391192E+003  0.2235693E+02  0.7546771E-02  0.1500735E+00
          2   -1    0    0  502    0  0.00000000000E+00  0.00000000000E+00  0.74879443808E+01  0.74879443808E+01  0.00000000000E+00 0. -1.
          2   -1    0    0  501    0 -0.00000000000E+00 -0.00000000000E+00 -0.78691277376E+03  0.78691277376E+03  0.00000000000E+00 0.  1.
          2    1    1    2  501    0  0.20183139163E+02 -0.96163104473E+01 -0.97320319206E+01  0.24383293018E+02  0.00000000000E+00 0. -1.
          2    1    1    2  502    0 -0.20183139163E+02  0.96163104473E+01 -0.76969279746E+03  0.77001742512E+03  0.00000000000E+00 0.  1.
</event>
<event>
 4    1  0.8391192E+003  0.2376929E+02  0.7546771E-02  0.1483058E+00
          2   -1    0    0  501    0  0.00000000000E+00  0.00000000000E+00  0.43003925344E+02  0.43003925344E+02  0.00000000000E+00 0.  1.
          2   -1    0    0  502    0 -0.00000000000E+00 -0.00000000000E+00 -0.46086769004E+03  0.46086769004E+03  0.00000000000E+00 0. -1.
          2    1    1    2  501    0  0.23449211608E+02  0.38876454329E+01 -0.45725078762E+03  0.45786817109E+03  0.00000000000E+00 0. -1.
          2    1    1    2  502    0 -0.23449211608E+02 -0.38876454329E+01  0.39387022928E+02  0.46003444297E+02  0.00000000000E+00 0.  1.
</event>
<event>
 4    1  0.8391192E+003  0.2548330E+02  0.7546771E-02  0.1463469E+00
          2   -1    0    0  501    0  0.00000000000E+00  0.00000000000E+00  0.79533861894E+01  0.79533861894E+01  0.00000000000E+00 0. -1.
          2   -1    0    0  502    0 -0.00000000000E+00 -0.00000000000E+00 -0.22426759376E+03  0.22426759376E+03  0.00000000000E+00 0.  1.
          2    1    1    2  501    0  0.21475310318E+02 -0.13718945656E+02 -0.20074919616E+03  0.20236016946E+03  0.00000000000E+00 0.  1.
          2    1    1    2  502    0 -0.21475310318E+02  0.13718945656E+02 -0.15565011412E+02  0.29860810495E+02  0.00000000000E+00 0. -1.
</event>
<event>
 4    1  0.8391192E+003  0.2804874E+02  0.7546771E-02  0.1437349E+00
          2   -1    0    0  501    0  0.00000000000E+00  0.00000000000E+00  0.22913960841E+03  0.22913960841E+03  0.00000000000E+00 0.  1.
          2   -1    0    0  502    0 -0.00000000000E+00 -0.00000000000E+00 -0.49316304548E+03  0.49316304548E+03  0.00000000000E+00 0.  1.
          2    1    1    2  501    0 -0.28032878239E+02 -0.94312525792E+00 -0.49190367625E+03  0.49270270799E+03  0.00000000000E+00 0.  1.
          2    1    1    2  502    0  0.28032878239E+02  0.94312525792E+00  0.22788023918E+03  0.22959994590E+03  0.00000000000E+00 0.  1.
</event>
<event>
 4    1  0.8391192E+003  0.5190411E+02  0.7546771E-02  0.1290121E+00
          2   -1    0    0  501    0  0.00000000000E+00  0.00000000000E+00  0.17061208089E+04  0.17061208089E+04  0.00000000000E+00 0. -1.
          2   -1    0    0  502    0 -0.00000000000E+00 -0.00000000000E+00 -0.47912603223E+01  0.47912603223E+01  0.00000000000E+00 0.  1.
          2    1    1    2  501    0 -0.45965930621E+02 -0.24107473028E+02  0.15021771992E+03  0.15893206225E+03  0.00000000000E+00 0.  1.
          2    1    1    2  502    0  0.45965930621E+02  0.24107473028E+02  0.15511118286E+04  0.15519800070E+04  0.00000000000E+00 0. -1.
</event>
<event>
 4    1  0.8391192E+003  0.3438958E+02  0.7546771E-02  0.1384906E+00
          2   -1    0    0  501    0  0.00000000000E+00  0.00000000000E+00  0.29505346447E+03  0.29505346447E+03  0.00000000000E+00 0.  1.
          2   -1    0    0  502    0 -0.00000000000E+00 -0.00000000000E+00 -0.40207489194E+02  0.40207489194E+02  0.00000000000E+00 0.  1.
          2    1    1    2  501    0 -0.33308027146E+02  0.85567781638E+01  0.28647871977E+03  0.28853543977E+03  0.00000000000E+00 0.  1.
          2    1    1    2  502    0  0.33308027146E+02 -0.85567781638E+01 -0.31632744488E+02  0.46725513895E+02  0.00000000000E+00 0.  1.
</event>
<event>
 4    1  0.8391192E+003  0.2015157E+02  0.7546771E-02  0.1531731E+00
          2   -1    0    0  501    0  0.00000000000E+00  0.00000000000E+00  0.13114474962E+03  0.13114474962E+03  0.00000000000E+00 0. -1.
          2   -1    0    0  502    0 -0.00000000000E+00 -0.00000000000E+00 -0.68381876779E+01  0.68381876779E+01  0.00000000000E+00 0. -1.
          2    1    1    2  501    0 -0.25368127981E+01  0.19991253003E+02  0.11119180554E+02  0.23015685781E+02  0.00000000000E+00 0. -1.
          2    1    1    2  502    0  0.25368127981E+01 -0.19991253003E+02  0.11318738138E+03  0.11496725151E+03  0.00000000000E+00 0. -1.
</event>
<event>
 4    1  0.8391192E+003  0.4921838E+02  0.7546771E-02  0.1301597E+00
          2   -1    0    0  502    0  0.00000000000E+00  0.00000000000E+00  0.12825235922E+04  0.12825235922E+04  0.00000000000E+00 0. -1.
          2   -1    0    0  501    0 -0.00000000000E+00 -0.00000000000E+00 -0.43204193513E+03  0.43204193513E+03  0.00000000000E+00 0. -1.
          2    1    1    2  501    0 -0.46807876233E+02  0.15214191493E+02  0.12806475919E+04  0.12815930335E+04  0.00000000000E+00 0. -1.
          2    1    1    2  502    0  0.46807876233E+02 -0.15214191493E+02 -0.43016593484E+03  0.43297249381E+03  0.00000000000E+00 0. -1.
</event>
<event>
 4    1  0.8391192E+003  0.2611487E+02  0.7546771E-02  0.1456708E+00
          2   -1    0    0  502    0  0.00000000000E+00  0.00000000000E+00  0.10784270381E+04  0.10784270381E+04  0.00000000000E+00 0. -1.
          2   -1    0    0  501    0 -0.00000000000E+00 -0.00000000000E+00 -0.69855413046E+02  0.69855413046E+02  0.00000000000E+00 0.  1.
          2    1    1    2  501    0  0.94686783908E+01 -0.24337842981E+02  0.10758223249E+04  0.10761392388E+04  0.00000000000E+00 0. -1.
          2    1    1    2  502    0 -0.94686783908E+01  0.24337842981E+02 -0.67250699811E+02  0.72143212408E+02  0.00000000000E+00 0.  1.
</event>
<event>
 4    1  0.1433337E+004  0.2679905E+02  0.7546771E-02  0.1449637E+00
          2   -1    0    0  501    0  0.00000000000E+00  0.00000000000E+00  0.79319769562E+03  0.79319769562E+03  0.00000000000E+00 0. -1.
          2   -1    0    0  502    0 -0.00000000000E+00 -0.00000000000E+00 -0.11670061802E+04  0.11670061802E+04  0.00000000000E+00 0. -1.
          2    1    1    2  501    0 -0.25851999739E+02 -0.70613793576E+01 -0.11666258948E+04  0.11669336602E+04  0.00000000000E+00 0. -1.
          2    1    1    2  502    0  0.25851999739E+02  0.70613793576E+01  0.79281741023E+03  0.79327021558E+03  0.00000000000E+00 0. -1.
</event>
<event>
 4    1  0.8391192E+003  0.2427364E+02  0.7546771E-02  0.1477096E+00
          2   -1    0    0  502    0  0.00000000000E+00  0.00000000000E+00  0.90845064854E+01  0.90845064854E+01  0.00000000000E+00 0. -1.
          2   -1    0    0  501    0 -0.00000000000E+00 -0.00000000000E+00 -0.12865138921E+04  0.12865138921E+04  0.00000000000E+00 0. -1.
          2    1    1    2  501    0  0.30819950560E+01  0.24077187868E+02 -0.74558400175E+01  0.25392897029E+02  0.00000000000E+00 0. -1.
          2    1    1    2  502    0 -0.30819950560E+01 -0.24077187868E+02 -0.12699735456E+04  0.12702055016E+04  0.00000000000E+00 0. -1.
</event>
<event>
 4    1  0.8391192E+003  0.2037895E+02  0.7546771E-02  0.1528319E+00
          2   -1    0    0  502    0  0.00000000000E+00  0.00000000000E+00  0.10999533658E+01  0.10999533658E+01  0.00000000000E+00 0. -1.
          2   -1    0    0  501    0 -0.00000000000E+00 -0.00000000000E+00 -0.14073497856E+04  0.14073497856E+04  0.00000000000E+00 0.  1.
          2    1    1    2  501    0 -0.11154598836E+02  0.17055104887E+02 -0.10072626261E+03  0.10276712342E+03  0.00000000000E+00 0. -1.
          2    1    1    2  502    0  0.11154598836E+02 -0.17055104887E+02 -0.13055235696E+04  0.13056826155E+04  0.00000000000E+00 0.  1.
</event>
<event>
 4    1  0.8391192E+003  0.2067027E+02  0.7546771E-02  0.1524025E+00
          2   -1    0    0  502    0  0.00000000000E+00  0.00000000000E+00  0.11272862850E+01  0.11272862850E+01  0.00000000000E+00 0. -1.
          2   -1    0    0  501    0 -0.00000000000E+00 -0.00000000000E+00 -0.60561608594E+03  0.60561608594E+03  0.00000000000E+00 0.  1.
          2    1    1    2  501    0  0.14438857278E+02 -0.14791198280E+02 -0.11667521369E+03  0.11849204883E+03  0.00000000000E+00 0. -1.
          2    1    1    2  502    0 -0.14438857278E+02  0.14791198280E+02 -0.48781358596E+03  0.48825132339E+03  0.00000000000E+00 0.  1.
</event>
<event>
 4    1  0.8391192E+003  0.2596081E+02  0.7546771E-02  0.1458336E+00
          2   -1    0    0  502    0  0.00000000000E+00  0.00000000000E+00  0.95909975691E+03  0.95909975691E+03  0.00000000000E+00 0. -1.
          2   -1    0    0  501    0 -0.00000000000E+00 -0.00000000000E+00 -0.90946266246E+01  0.90946266246E+01  0.00000000000E+00 0.  1.
          2    1    1    2  501    0  0.14673953757E+02 -0.21415857391E+02  0.94002172238E+03  0.94038013718E+03  0.00000000000E+00 0. -1.
          2    1    1    2  502    0 -0.14673953757E+02  0.21415857391E+02  0.99834079077E+01  0.27814246351E+02  0.00000000000E+00 0.  1.
</event>
<event>
 4    1  0.8391192E+003  0.3440346E+02  0.7546771E-02  0.1384806E+00
          2   -1    0    0  501    0  0.00000000000E+00  0.00000000000E+00  0.95043576557E+00  0.95043576557E+00  0.00000000000E+00 0. -1.
          2   -1    0    0  502    0 -0.00000000000E+00 -0.00000000000E+00 -0.18302910234E+04  0.18302910234E+04  0.00000000000E+00 0. -1.
          2    1    1    2  501    0 -0.29248065250E+02  0.18114882394E+02 -0.14323034502E+04  0.14327165706E+04  0.00000000000E+00 0. -1.
          2    1    1    2  502    0  0.29248065250E+02 -0.18114882394E+02 -0.39703713738E+03  0.39852488849E+03  0.00000000000E+00 0. -1.
</event>
<event>
 4    1  0.8391192E+003  0.3575972E+02  0.7546771E-02  0.1375299E+00
          2   -1    0    0  502    0  0.00000000000E+00  0.00000000000E+00  0.96679610248E+01  0.96679610248E+01  0.00000000000E+00 0.  1.
          2   -1    0    0  501    0 -0.00000000000E+00 -0.00000000000E+00 -0.90006104691E+03  0.90006104691E+03  0.00000000000E+00 0. -1.
          2    1    1    2  501    0 -0.32753883337E+02 -0.14350627370E+02 -0.25081451331E+02  0.43678788679E+02  0.00000000000E+00 0.  1.
          2    1    1    2  502    0  0.32753883337E+02  0.14350627370E+02 -0.86531163455E+03  0.86605021925E+03  0.00000000000E+00 0. -1.
</event>
<event>
 4    1  0.8391192E+003  0.3421776E+02  0.7546771E-02  0.1386147E+00
          2   -1    0    0  502    0  0.00000000000E+00  0.00000000000E+00  0.27461881477E+02  0.27461881477E+02  0.00000000000E+00 0.  1.
          2   -1    0    0  501    0 -0.00000000000E+00 -0.00000000000E+00 -0.74970951595E+03  0.74970951595E+03  0.00000000000E+00 0. -1.
          2    1    1    2  501    0  0.27162737970E+02 -0.20809637217E+02  0.16250805893E+02  0.37880655054E+02  0.00000000000E+00 0.  1.
          2    1    1    2  502    0 -0.27162737970E+02  0.20809637217E+02 -0.73849844037E+03  0.73929074238E+03  0.00000000000E+00 0. -1.
</event>
<event>
 4    1  0.8391192E+003  0.2540247E+02  0.7546771E-02  0.1464351E+00
          2   -1    0    0  502    0  0.00000000000E+00  0.00000000000E+00  0.12375194943E+02  0.12375194943E+02  0.00000000000E+00 0. -1.
          2   -1    0    0  501    0 -0.00000000000E+00 -0.00000000000E+00 -0.27717304345E+03  0.27717304345E+03  0.00000000000E+00 0.  1.
          2    1    1    2  501    0  0.17386624303E+02 -0.18520013520E+02 -0.19515821577E+01  0.25477328713E+02  0.00000000000E+00 0. -1.
          2    1    1    2  502    0 -0.17386624303E+02  0.18520013520E+02 -0.26284626635E+03  0.26407090968E+03  0.00000000000E+00 0.  1.
</event>
<event>
 4    1  0.8391192E+003  0.4627145E+02  0.7546771E-02  0.1315201E+00
          2   -1    0    0  502    0  0.00000000000E+00  0.00000000000E+00  0.43826336758E+02  0.43826336758E+02  0.00000000000E+00 0.  1.
          2   -1    0    0  501    0 -0.00000000000E+00 -0.00000000000E+00 -0.75292296287E+02  0.75292296287E+02  0.00000000000E+00 0.  1.
          2    1    1    2  501    0 -0.20773166065E+02  0.41346379677E+02  0.19560905661E+02  0.50236207770E+02  0.00000000000E+00 0.  1.
          2    1    1    2  502    0  0.20773166065E+02 -0.41346379677E+02 -0.51026865190E+02  0.68882425276E+02  0.00000000000E+00 0.  1.
</event>
<event>
 4    1  0.8391192E+003  0.2550114E+02  0.7546771E-02  0.1463274E+00
          2   -1    0    0  502    0  0.00000000000E+00  0.00000000000E+00  0.21510172409E+03  0.21510172409E+03  0.00000000000E+00 0. -1.
          2   -1    0    0  501    0 -0.00000000000E+00 -0.00000000000E+00 -0.11670066907E+04  0.11670066907E+04  0.00000000000E+00 0. -1.
          2    1    1    2  501    0 -0.18961145997E+02 -0.17052366924E+02  0.21420601762E+03  0.21571862752E+03  0.00000000000E+00 0. -1.
          2    1    1    2  502    0  0.18961145997E+02  0.17052366924E+02 -0.11661109843E+04  0.11663897873E+04  0.00000000000E+00 0. -1.
</event>
<event>
 4    1  0.8391192E+003  0.5079610E+02  0.7546771E-02  0.1294757E+00
          2   -1    0    0  502    0  0.00000000000E+00  0.00000000000E+00  0.13282710267E+04  0.13282710267E+04  0.00000000000E+00 0.  1.
          2   -1    0    0  501    0 -0.00000000000E+00 -0.00000000000E+00 -0.10298256700E+02  0.10298256700E+02  0.00000000000E+00 0.  1.
          2    1    1    2  501    0  0.39766648826E+02 -0.31604712165E+02  0.12618518068E+04  0.12628737967E+04  0.00000000000E+00 0.  1.
          2    1    1    2  502    0 -0.39766648826E+02  0.31604712165E+02  0.56120963223E+02  0.75695486675E+02  0.00000000000E+00 0.  1.
</event>
<event>
 4    1  0.8391192E+003  0.4226295E+02  0.7546771E-02  0.1335712E+00
          2   -1    0    0  502    0  0.00000000000E+00  0.00000000000E+00  0.13223665421E+02  0.13223665421E+02  0.00000000000E+00 0.  1.
          2   -1    0    0  501    0 -0.00000000000E+00 -0.00000000000E+00 -0.44764929140E+03  0.44764929140E+03  0.00000000000E+00 0.  1.
          2    1    1    2  501    0 -0.29265445684E+02 -0.30490834782E+02 -0.24655310099E+02  0.48928944735E+02  0.00000000000E+00 0.  1.
          2    1    1    2  502    0  0.29265445684E+02  0.30490834782E+02 -0.40977031588E+03  0.41194401208E+03  0.00000000000E+00 0.  1.
</event>
<event>
 4    1  0.8391192E+003  0.2700825E+02  0.7546771E-02  0.1447525E+00
          2   -1    0    0  501    0  0.00000000000E+00  0.00000000000E+00  0.11539825166E+04  0.11539825166E+04  0.00000000000E+00 0. -1.
          2   -1    0    0  502    0 -0.00000000000E+00 -0.00000000000E+00 -0.95925408080E+00  0.95925408080E+00  0.00000000000E+00 0. -1.
          2    1    1    2  501    0 -0.14941841394E+02 -0.22498593248E+02  0.23927714968E+03  0.24079659400E+03  0.00000000000E+00 0. -1.
          2    1    1    2  502    0  0.14941841394E+02  0.22498593248E+02  0.91374611286E+03  0.91414517670E+03  0.00000000000E+00 0. -1.
</event>
<event>
 4    1  0.8391192E+003  0.2489023E+02  0.7546771E-02  0.1470035E+00
          2   -1    0    0  502    0  0.00000000000E+00  0.00000000000E+00  0.25105321864E+01  0.25105321864E+01  0.00000000000E+00 0.  1.
          2   -1    0    0  501    0 -0.00000000000E+00 -0.00000000000E+00 -0.84326887411E+03  0.84326887411E+03  0.00000000000E+00 0.  1.
          2    1    1    2  501    0 -0.16767313576E+02  0.18395126227E+02 -0.64707749972E+02  0.69329765469E+02  0.00000000000E+00 0.  1.
          2    1    1    2  502    0  0.16767313576E+02 -0.18395126227E+02 -0.77605059195E+03  0.77644964083E+03  0.00000000000E+00 0.  1.
</event>
<event>
 4    1  0.8391192E+003  0.3323882E+02  0.7546771E-02  0.1393386E+00
          2   -1    0    0  501    0  0.00000000000E+00  0.00000000000E+00  0.53193004402E+01  0.53193004402E+01  0.00000000000E+00 0.  1.
          2   -1    0    0  502    0 -0.00000000000E+00 -0.00000000000E+00 -0.13162870710E+04  0.13162870710E+04  0.00000000000E+00 0. -1.
          2    1    1    2  501    0  0.23785480072E+02 -0.23217881037E+02 -0.12619153291E+04  0.12623530081E+04  0.00000000000E+00 0. -1.
          2    1    1    2  502    0 -0.23785480072E+02  0.23217881037E+02 -0.49052441445E+02  0.59253363397E+02  0.00000000000E+00 0.  1.
</event>
<event>
 4    1  0.8391192E+003  0.2452140E+02  0.7546771E-02  0.1474229E+00
          2   -1    0    0  501    0  0.00000000000E+00  0.00000000000E+00  0.38643973051E+02  0.38643973051E+02  0.00000000000E+00 0. -1.
          2   -1    0    0  502    0 -0.00000000000E+00 -0.00000000000E+00 -0.61232848977E+03  0.61232848977E+03  0.00000000000E+00 0.  1.
          2    1    1    2  501    0  0.48917878374E+01 -0.24028515428E+02 -0.60816638869E+03  0.60866054207E+03  0.00000000000E+00 0.  1.
          2    1    1    2  502    0 -0.48917878374E+01  0.24028515428E+02  0.34481871978E+02  0.42311920744E+02  0.00000000000E+00 0. -1.
</event>
<event>
 4    1  0.8391192E+003  0.2708355E+02  0.7546771E-02  0.1446771E+00
          2   -1    0    0  501    0  0.00000000000E+00  0.00000000000E+00  0.13341823004E+04  0.13341823004E+04  0.00000000000E+00 0. -1.
          2   -1    0    0  502    0 -0.00000000000E+00 -0.00000000000E+00 -0.13371636458E+01  0.13371636458E+01  0.00000000000E+00 0. -1.
          2    1    1    2  501    0  0.26961868113E+02  0.25644635065E+01  0.15401132794E+03  0.15637457574E+03  0.00000000000E+00 0. -1.
          2    1    1    2  502    0 -0.26961868113E+02 -0.25644635065E+01  0.11788338088E+04  0.11791448883E+04  0.00000000000E+00 0. -1.
</event>
<event>
 4    1  0.8391192E+003  0.2996573E+02  0.7546771E-02  0.1419895E+00
          2   -1    0    0  502    0  0.00000000000E+00  0.00000000000E+00  0.56443351660E+03  0.56443351660E+03  0.00000000000E+00 0. -1.
          2   -1    0    0  501    0 -0.00000000000E+00 -0.00000000000E+00 -0.35527441414E+01  0.35527441414E+01  0.00000000000E+00 0.  1.
          2    1    1    2  501    0 -0.25673478053E+02 -0.15453718114E+02  0.49147833256E+03  0.49239099936E+03  0.00000000000E+00 0. -1.
          2    1    1    2  502    0  0.25673478053E+02  0.15453718114E+02  0.69402439902E+02  0.75595261381E+02  0.00000000000E+00 0.  1.
</event>
<event>
 4    1  0.8391192E+003  0.2141819E+02  0.7546771E-02  0.1513377E+00
          2   -1    0    0  502    0  0.00000000000E+00  0.00000000000E+00  0.30885301155E+02  0.30885301155E+02  0.00000000000E+00 0.  1.
          2   -1    0    0  501    0 -0.00000000000E+00 -0.00000000000E+00 -0.14332675928E+03  0.14332675928E+03  0.00000000000E+00 0.  1.
          2    1    1    2  501    0 -0.16227004054E+02  0.13979384933E+02  0.26248479208E+02  0.33878038969E+02  0.00000000000E+00 0.  1.
          2    1    1    2  502    0  0.16227004054E+02 -0.13979384933E+02 -0.13868993734E+03  0.14033402147E+03  0.00000000000E+00 0.  1.
</event>
<event>
 4    1  0.8391192E+003  0.2397628E+02  0.7546771E-02  0.1480590E+00
          2   -1    0    0  501    0  0.00000000000E+00  0.00000000000E+00  0.10965494070E+04  0.10965494070E+04  0.00000000000E+00 0. -1.
          2   -1    0    0  502    0 -0.00000000000E+00 -0.00000000000E+00 -0.10314311280E+03  0.10314311280E+03  0.00000000000E+00 0. -1.
          2    1    1    2  501    0  0.10061399441E+01 -0.23955161268E+02 -0.10161674893E+03  0.10440701956E+03  0.00000000000E+00 0. -1.
          2    1    1    2  502    0 -0.10061399441E+01  0.23955161268E+02  0.10950230431E+04  0.10952855002E+04  0.00000000000E+00 0. -1.
</event>
<event>
 4    1  0.8391192E+003  0.2309738E+02  0.7546771E-02  0.1491279E+00
          2   -1    0    0  501    0  0.00000000000E+00  0.00000000000E+00  0.19330480565E+03  0.19330480565E+03  0.00000000000E+00 0. -1.
          2   -1    0    0  502    0 -0.00000000000E+00 -0.00000000000E+00 -0.21483654366E+02  0.21483654366E+02  0.00000000000E+00 0. -1.
          2    1    1    2  501    0  0.62495975844E+01 -0.22235812752E+02 -0.14348598597E+02  0.27191379524E+02  0.00000000000E+00 0. -1.
          2    1    1    2  502    0 -0.62495975844E+01  0.22235812752E+02  0.18616974989E+03  0.18759708050E+03  0.00000000000E+00 0. -1.
</event>
<event>
 4    1  0.8391192E+003  0.2193868E+02  0.7546771E-02  0.1506273E+00
          2   -1    0    0  501    0  0.00000000000E+00  0.00000000000E+00  0.87348282188E+03  0.87348282188E+03  0.00000000000E+00 0.  1.
          2   -1    0    0  502    0 -0.00000000000E+00 -0.00000000000E+00 -0.11913792525E+02  0.11913792525E+02  0.00000000000E+00 0.  1.
          2    1    1    2  501    0  0.21702597277E+02  0.32097902148E+01 -0.15550924530E+01  0.21993721702E+02  0.00000000000E+00 0.  1.
          2    1    1    2  502    0 -0.21702597277E+02 -0.32097902148E+01  0.86312412181E+03  0.86340289270E+03  0.00000000000E+00 0.  1.
</event>
<event>
 4    1  0.1764377E+004  0.2230978E+02  0.7546771E-02  0.1501352E+00
          2   -1    0    0  502    0  0.00000000000E+00  0.00000000000E+00  0.15899195640E+04  0.15899195640E+04  0.00000000000E+00 0. -1.
          2   -1    0    0  501    0 -0.00000000000E+00 -0.00000000000E+00 -0.10154675853E+04  0.10154675853E+04  0.00000000000E+00 0. -1.
          2    1    1    2  501    0 -0.38501973683E+01  0.21975037694E+02  0.15897187495E+04  0.15898752872E+04  0.00000000000E+00 0. -1.
          2    1    1    2  502    0  0.38501973683E+01 -0.21975037694E+02 -0.10152667708E+04  0.10155118622E+04  0.00000000000E+00 0. -1.
</event>
<event>
 4    1  0.8391192E+003  0.2020382E+02  0.7546771E-02  0.1530942E+00
          2   -1    0    0  501    0  0.00000000000E+00  0.00000000000E+00  0.18213369886E+02  0.18213369886E+02  0.00000000000E+00 0.  1.
          2   -1    0    0  502    0 -0.00000000000E+00 -0.00000000000E+00 -0.17300350726E+03  0.17300350726E+03  0.00000000000E+00 0. -1.
          2    1    1    2  501    0  0.19893676167E+02  0.35264930925E+01 -0.16659598018E+03  0.16781661156E+03  0.00000000000E+00 0. -1.
          2    1    1    2  502    0 -0.19893676167E+02 -0.35264930925E+01  0.11805842805E+02  0.23400265582E+02  0.00000000000E+00 0.  1.
</event>
<event>
 4    1  0.8391192E+003  0.2492244E+02  0.7546771E-02  0.1469673E+00
          2   -1    0    0  501    0  0.00000000000E+00  0.00000000000E+00  0.47977010449E+02  0.47977010449E+02  0.00000000000E+00 0. -1.
          2   -1    0    0  502    0 -0.00000000000E+00 -0.00000000000E+00 -0.30319335772E+03  0.30319335772E+03  0.00000000000E+00 0. -1.
          2    1    1    2  501    0 -0.11986718145E+02  0.21850555856E+02 -0.29940371382E+03  0.30043919860E+03  0.00000000000E+00 0. -1.
          2    1    1    2  502    0  0.11986718145E+02 -0.21850555856E+02  0.44187366553E+02  0.50731169570E+02  0.00000000000E+00 0. -1.
</event>
<event>
 4    1  0.8391192E+003  0.2535714E+02  0.7546771E-02  0.1464847E+00
          2   -1    0    0  501    0  0.00000000000E+00  0.00000000000E+00  0.80167148081E+03  0.80167148081E+03  0.00000000000E+00 0. -1.
          2   -1    0    0  502    0 -0.00000000000E+00 -0.00000000000E+00 -0.42762125406E+01  0.42762125406E+01  0.00000000000E+00 0. -1.
          2    1    1    2  501    0  0.23900679898E+02 -0.84700728430E+01  0.35475778666E+02  0.43606370011E+02  0.00000000000E+00 0. -1.
          2    1    1    2  502    0 -0.23900679898E+02  0.84700728430E+01  0.76191948960E+03  0.76234132334E+03  0.00000000000E+00 0. -1.
</event>
<event>
 4    1  0.8391192E+003  0.3134416E+02  0.7546771E-02  0.1408264E+00
          2   -1    0    0  502    0  0.00000000000E+00  0.00000000000E+00  0.16399621886E+03  0.16399621886E+03  0.00000000000E+00 0.  1.
          2   -1    0    0  501    0 -0.00000000000E+00 -0.00000000000E+00 -0.12662732628E+03  0.12662732628E+03  0.00000000000E+00 0.  1.
          2    1    1    2  501    0  0.22379723556E+02  0.21945490166E+02  0.16051722949E+03  0.16354888422E+03  0.00000000000E+00 0.  1.
          2    1    1    2  502    0 -0.22379723556E+02 -0.21945490166E+02 -0.12314833691E+03  0.12707466093E+03  0.00000000000E+00 0.  1.
</event>
<event>
 4    1  0.8391192E+003  0.2127025E+02  0.7546771E-02  0.1515441E+00
          2   -1    0    0  502    0  0.00000000000E+00  0.00000000000E+00  0.57334436108E+01  0.57334436108E+01  0.00000000000E+00 0. -1.
          2   -1    0    0  501    0 -0.00000000000E+00 -0.00000000000E+00 -0.32303426810E+03  0.32303426810E+03  0.00000000000E+00 0. -1.
          2    1    1    2  501    0 -0.20455763266E+02  0.58297060418E+01 -0.15747624445E+02  0.26465286678E+02  0.00000000000E+00 0. -1.
          2    1    1    2  502    0  0.20455763266E+02 -0.58297060418E+01 -0.30155320004E+03  0.30230242503E+03  0.00000000000E+00 0. -1.
</event>
<event>
 4    1  0.8391192E+003  0.2900410E+02  0.7546771E-02  0.1428453E+00
          2   -1    0    0  501    0  0.00000000000E+00  0.00000000000E+00  0.95943081547E+03  0.95943081547E+03  0.00000000000E+00 0.  1.
          2   -1    0    0  502    0 -0.00000000000E+00 -0.00000000000E+00 -0.43104012304E+02  0.43104012304E+02  0.00000000000E+00 0. -1.
          2    1    1    2  501    0 -0.25056603623E+01 -0.28895667360E+02 -0.37979499605E+02  0.47787867877E+02  0.00000000000E+00 0. -1.
          2    1    1    2  502    0  0.25056603623E+01  0.28895667360E+02  0.95430630277E+03  0.95474695990E+03  0.00000000000E+00 0.  1.
</event>
<event>
 4    1  0.8391192E+003  0.2148865E+02  0.7546771E-02  0.1512401E+00
          2   -1    0    0  501    0  0.00000000000E+00  0.00000000000E+00  0.44042887771E+02  0.44042887771E+02  0.00000000000E+00 0. -1.
          2   -1    0    0  502    0 -0.00000000000E+00 -0.00000000000E+00 -0.16512188336E+02  0.16512188336E+02  0.00000000000E+00 0. -1.
          2    1    1    2  501    0  0.83693368516E+01  0.19791827630E+02 -0.45282034421E+01  0.21960575281E+02  0.00000000000E+00 0. -1.
          2    1    1    2  502    0 -0.83693368516E+01 -0.19791827630E+02  0.32058902877E+02  0.38594500825E+02  0.00000000000E+00 0. -1.
</event>
<event>
 4    1  0.8391192E+003  0.2066324E+02  0.7546771E-02  0.1524128E+00
          2   -1    0    0  501    0  0.00000000000E+00  0.00000000000E+00  0.85447975702E+02  0.85447975702E+02  0.00000000000E+00 0. -1.
          2   -1    0    0  502    0 -0.00000000000E+00 -0.00000000000E+00 -0.71264373986E+03  0.71264373986E+03  0.00000000000E+00 0.  1.
          2    1    1    2  501    0 -0.44951853745E+01  0.20168364607E+02 -0.71124228592E+03  0.71154238026E+03  0.00000000000E+00 0.  1.
          2    1    1    2  502    0  0.44951853745E+01 -0.20168364607E+02  0.84046521759E+02  0.86549335308E+02  0.00000000000E+00 0. -1.
</event>
<event>
 4    1  0.8391192E+003  0.2807651E+02  0.7546771E-02  0.1437084E+00
          2   -1    0    0  502    0  0.00000000000E+00  0.00000000000E+00  0.12100671172E+03  0.12100671172E+03  0.00000000000E+00 0.  1.
          2   -1    0    0  501    0 -0.00000000000E+00 -0.00000000000E+00 -0.29136901116E+02  0.29136901116E+02  0.00000000000E+00 0.  1.
          2    1    1    2  501    0 -0.23850517643E+02 -0.14813622956E+02  0.11208418795E+03  0.11554720163E+03  0.00000000000E+00 0.  1.
          2    1    1    2  502    0  0.23850517643E+02  0.14813622956E+02 -0.20214377343E+02  0.34596411205E+02  0.00000000000E+00 0.  1.
</event>
<event>
 4    1  0.8391192E+003  0.2076829E+02  0.7546771E-02  0.1522599E+00
          2   -1    0    0  501    0  0.00000000000E+00  0.00000000000E+00  0.69691076494E+02  0.69691076494E+02  0.00000000000E+00 0. -1.
          2   -1    0    0  502    0 -0.00000000000E+00 -0.00000000000E+00 -0.13531555790E+02  0.13531555790E+02  0.00000000000E+00 0. -1.
          2    1    1    2  501    0  0.19438212194E+02 -0.73128371788E+01 -0.25723007429E+01  0.20926978090E+02  0.00000000000E+00 0. -1.
          2    1    1    2  502    0 -0.19438212194E+02  0.73128371788E+01  0.58731821447E+02  0.62295654193E+02  0.00000000000E+00 0. -1.
</event>
<event>
 4    1  0.9264369E+003  0.2377700E+02  0.7546771E-02  0.1482965E+00
          2   -1    0    0  501    0  0.00000000000E+00  0.00000000000E+00  0.51901699833E+03  0.51901699833E+03  0.00000000000E+00 0. -1.
          2   -1    0    0  502    0 -0.00000000000E+00 -0.00000000000E+00 -0.60650111569E+03  0.60650111569E+03  0.00000000000E+00 0. -1.
          2    1    1    2  501    0  0.11391280438E+01  0.23749699034E+02 -0.60599553716E+03  0.60646181815E+03  0.00000000000E+00 0. -1.
          2    1    1    2  502    0 -0.11391280438E+01 -0.23749699034E+02  0.51851141981E+03  0.51905629587E+03  0.00000000000E+00 0. -1.
</event>
<event>
 4    1  0.8391192E+003  0.7066400E+02  0.7546771E-02  0.1227356E+00
          2   -1    0    0  501    0  0.00000000000E+00  0.00000000000E+00  0.23734802492E+03  0.23734802492E+03  0.00000000000E+00 0.  1.
          2   -1    0    0  502    0 -0.00000000000E+00 -0.00000000000E+00 -0.56484997700E+02  0.56484997700E+02  0.00000000000E+00 0.  1.
          2    1    1    2  501    0 -0.24660135136E+02 -0.66221431591E+02 -0.25952118382E+02  0.75278899536E+02  0.00000000000E+00 0.  1.
          2    1    1    2  502    0  0.24660135136E+02  0.66221431591E+02  0.20681514560E+03  0.21855412308E+03  0.00000000000E+00 0.  1.
</event>
<event>
 4    1  0.8391192E+003  0.2195849E+02  0.7546771E-02  0.1506007E+00
          2   -1    0    0  501    0  0.00000000000E+00  0.00000000000E+00  0.75962406062E+03  0.75962406062E+03  0.00000000000E+00 0.  1.
          2   -1    0    0  502    0 -0.00000000000E+00 -0.00000000000E+00 -0.63489447804E+00  0.63489447804E+00  0.00000000000E+00 0. -1.
          2    1    1    2  501    0 -0.15206306894E+02  0.15841203635E+02  0.37386918177E+03  0.37451347182E+03  0.00000000000E+00 0. -1.
          2    1    1    2  502    0  0.15206306894E+02 -0.15841203635E+02  0.38511998438E+03  0.38574548328E+03  0.00000000000E+00 0.  1.
</event>
<event>
 4    1  0.8391192E+003  0.2385535E+02  0.7546771E-02  0.1482028E+00
          2   -1    0    0  502    0  0.00000000000E+00  0.00000000000E+00  0.90293188740E+01  0.90293188740E+01  0.00000000000E+00 0. -1.
          2   -1    0    0  501    0 -0.00000000000E+00 -0.00000000000E+00 -0.12938424833E+03  0.12938424833E+03  0.00000000000E+00 0.  1.
          2    1    1    2  501    0  0.23696939276E+02  0.27445980917E+01 -0.10614542391E+02  0.26110271157E+02  0.00000000000E+00 0. -1.
          2    1    1    2  502    0 -0.23696939276E+02 -0.27445980917E+01 -0.10974038706E+03  0.11230329605E+03  0.00000000000E+00 0.  1.
</event>
<event>
 4    1  0.8391192E+003  0.4255264E+02  0.7546771E-02  0.1334143E+00
          2   -1    0    0  501    0  0.00000000000E+00  0.00000000000E+00  0.66798606718E+03  0.66798606718E+03  0.00000000000E+00 0.  1.
          2   -1    0    0  502    0 -0.00000000000E+00 -0.00000000000E+00 -0.18887699966E+02  0.18887699966E+02  0.00000000000E+00 0. -1.
          2    1    1    2  501    0 -0.17987269171E+02 -0.38564039630E+02  0.67110190084E+01  0.43078588428E+02  0.00000000000E+00 0. -1.
          2    1    1    2  502    0  0.17987269171E+02  0.38564039630E+02  0.64238734821E+03  0.64379517872E+03  0.00000000000E+00 0.  1.
</event>
<event>
 4    1  0.8391192E+003  0.3536779E+02  0.7546771E-02  0.1377996E+00
          2   -1    0    0  501    0  0.00000000000E+00  0.00000000000E+00  0.32791789449E+03  0.32791789449E+03  0.00000000000E+00 0.  1.
          2   -1    0    0  502    0 -0.00000000000E+00 -0.00000000000E+00 -0.12832832423E+02  0.12832832423E+02  0.00000000000E+00 0. -1.
          2    1    1    2  501    0 -0.27446277483E+02  0.22306562321E+02  0.14716996272E+02  0.38307582142E+02  0.00000000000E+00 0. -1.
          2    1    1    2  502    0  0.27446277483E+02 -0.22306562321E+02  0.30036806580E+03  0.30244314477E+03  0.00000000000E+00 0.  1.
</event>
<event>
 4    1  0.8391192E+003  0.2427041E+02  0.7546771E-02  0.1477133E+00
          2   -1    0    0  502    0  0.00000000000E+00  0.00000000000E+00  0.33930601806E+01  0.33930601806E+01  0.00000000000E+00 0.  1.
          2   -1    0    0  501    0 -0.00000000000E+00 -0.00000000000E+00 -0.17701972583E+03  0.17701972583E+03  0.00000000000E+00 0. -1.
          2    1    1    2  501    0  0.17209140406E+02  0.17114267812E+02 -0.74284929759E+02  0.78149238419E+02  0.00000000000E+00 0.  1.
          2    1    1    2  502    0 -0.17209140406E+02 -0.17114267812E+02 -0.99341735889E+02  0.10226354759E+03  0.00000000000E+00 0. -1.
</event>
<event>
 4    1  0.8391192E+003  0.2506055E+02  0.7546771E-02  0.1468127E+00
          2   -1    0    0  502    0  0.00000000000E+00  0.00000000000E+00  0.10251245580E+02  0.10251245580E+02  0.00000000000E+00 0. -1.
          2   -1    0    0  501    0 -0.00000000000E+00 -0.00000000000E+00 -0.17457026996E+04  0.17457026996E+04  0.00000000000E+00 0. -1.
          2    1    1    2  501    0 -0.20536031685E+02 -0.14363231505E+02 -0.52922516748E+01  0.25613257201E+02  0.00000000000E+00 0. -1.
          2    1    1    2  502    0  0.20536031685E+02  0.14363231505E+02 -0.17301592024E+04  0.17303406880E+04  0.00000000000E+00 0. -1.
</event>
<event>
 4    1  0.8391192E+003  0.4577988E+02  0.7546771E-02  0.1317585E+00
          2   -1    0    0  501    0  0.00000000000E+00  0.00000000000E+00  0.62991553606E+03  0.62991553606E+03  0.00000000000E+00 0. -1.
          2   -1    0    0  502    0 -0.00000000000E+00 -0.00000000000E+00 -0.13313722333E+04  0.13313722333E+04  0.00000000000E+00 0.  1.
          2    1    1    2  501    0  0.22058934704E+02  0.40114844865E+02 -0.13301461489E+04  0.13309337229E+04  0.00000000000E+00 0.  1.
          2    1    1    2  502    0 -0.22058934704E+02 -0.40114844865E+02  0.62868945160E+03  0.63035404649E+03  0.00000000000E+00 0. -1.
</event>
<event>
 4    1  0.8391192E+003  0.2752386E+02  0.7546771E-02  0.1442416E+00
          2   -1    0    0  501    0  0.00000000000E+00  0.00000000000E+00  0.12569300859E+01  0.12569300859E+01  0.00000000000E+00 0. -1.
          2   -1    0    0  502    0 -0.00000000000E+00 -0.00000000000E+00 -0.18408461533E+04  0.18408461533E+04  0.00000000000E+00 0.  1.
          2    1    1    2  501    0  0.27472262621E+02  0.16845231499E+01 -0.16751643785E+04  0.16753904793E+04  0.00000000000E+00 0.  1.
          2    1    1    2  502    0 -0.27472262621E+02 -0.16845231499E+01 -0.16442484467E+03  0.16671260414E+03  0.00000000000E+00 0. -1.
</event>
<event>
 4    1  0.8391192E+003  0.2394527E+02  0.7546771E-02  0.1480958E+00
          2   -1    0    0  502    0  0.00000000000E+00  0.00000000000E+00  0.84395638607E+03  0.84395638607E+03  0.00000000000E+00 0. -1.
          2   -1    0    0  501    0 -0.00000000000E+00 -0.00000000000E+00 -0.41421261697E+01  0.41421261697E+01  0.00000000000E+00 0.  1.
          2    1    1    2  501    0  0.21849222796E+02 -0.97973200021E+01  0.80762365305E+03  0.80797855230E+03  0.00000000000E+00 0. -1.
          2    1    1    2  502    0 -0.21849222796E+02  0.97973200021E+01  0.32190606858E+02  0.40119959944E+02  0.00000000000E+00 0.  1.
</event>
<event>
 4    1  0.8391192E+003  0.2061440E+02  0.7546771E-02  0.1524842E+00
          2   -1    0    0  502    0  0.00000000000E+00  0.00000000000E+00  0.97775584886E+01  0.97775584886E+01  0.00000000000E+00 0.  1.
          2   -1    0    0  501    0 -0.00000000000E+00 -0.00000000000E+00 -0.46192548211E+03  0.46192548211E+03  0.00000000000E+00 0.  1.
          2    1    1    2  501    0 -0.10182132812E+02  0.17924216036E+02 -0.15920029188E+01  0.20675778641E+02  0.00000000000E+00 0.  1.
          2    1    1    2  502    0  0.10182132812E+02 -0.17924216036E+02 -0.45055592070E+03  0.45102726195E+03  0.00000000000E+00 0.  1.
</event>
<event>
 4    1  0.8391192E+003  0.2463907E+02  0.7546771E-02  0.1472882E+00
          2   -1    0    0  502    0  0.00000000000E+00  0.00000000000E+00  0.47391803825E+00  0.47391803825E+00  0.00000000000E+00 0.  1.
          2   -1    0    0  501    0 -0.00000000000E+00 -0.00000000000E+00 -0.13126801616E+04  0.13126801616E+04  0.00000000000E+00 0.  1.
          2    1    1    2  501    0 -0.18511840993E+02  0.16260247002E+02 -0.55408579790E+03  0.55463335216E+03  0.00000000000E+00 0.  1.
          2    1    1    2  502    0  0.18511840993E+02 -0.16260247002E+02 -0.75812044562E+03  0.75852072744E+03  0.00000000000E+00 0.  1.
</event>
<event>
 4    1  0.8391192E+003  0.3984091E+02  0.7546771E-02  0.1349421E+00
          2   -1    0    0  501    0  0.00000000000E+00  0.00000000000E+00  0.54795825406E+03  0.54795825406E+03  0.00000000000E+00 0.  1.
          2   -1    0    0  502    0 -0.00000000000E+00 -0.00000000000E+00 -0.12126972543E+02  0.12126972543E+02  0.00000000000E+00 0. -1.
          2    1    1    2  501    0 -0.39101393339E+02  0.76406348737E+01  0.23598463256E+02  0.46305353151E+02  0.00000000000E+00 0. -1.
          2    1    1    2  502    0  0.39101393339E+02 -0.76406348737E+01  0.51223281826E+03  0.51377987345E+03  0.00000000000E+00 0.  1.
</event>
<event>
 4    1  0.8391192E+003  0.2320674E+02  0.7546771E-02  0.1489918E+00
          2   -1    0    0  502    0  0.00000000000E+00  0.00000000000E+00  0.46673604659E+03  0.46673604659E+03  0.00000000000E+00 0.  1.
          2   -1    0    0  501    0 -0.00000000000E+00 -0.00000000000E+00 -0.30934489597E+02  0.30934489597E+02  0.00000000000E+00 0.  1.
          2    1    1    2  501    0  0.22846307886E+02 -0.40742045034E+01  0.46205110989E+03  0.46263352784E+03  0.00000000000E+00 0.  1.
          2    1    1    2  502    0 -0.22846307886E+02  0.40742045034E+01 -0.26249552902E+02  0.35037008347E+02  0.00000000000E+00 0.  1.
</event>
<event>
 4    1  0.8391192E+003  0.3117153E+02  0.7546771E-02  0.1409682E+00
          2   -1    0    0  502    0  0.00000000000E+00  0.00000000000E+00  0.75490407050E+03  0.75490407050E+03  0.00000000000E+00 0. -1.
          2   -1    0    0  501    0 -0.00000000000E+00 -0.00000000000E+00 -0.33835319149E+02  0.33835319149E+02  0.00000000000E+00 0.  1.
          2    1    1    2  501    0  0.21908312482E+02 -0.22174079849E+02  0.74733019676E+03  0.74798000438E+03  0.00000000000E+00 0. -1.
          2    1    1    2  502    0 -0.21908312482E+02  0.22174079849E+02 -0.26261445402E+02  0.40759385270E+02  0.00000000000E+00 0.  1.
</event>
<event>
 4    1  0.8391192E+003  0.2202941E+02  0.7546771E-02  0.1505059E+00
          2   -1    0    0  501    0  0.00000000000E+00  0.00000000000E+00  0.89884101916E+02  0.89884101916E+02  0.00000000000E+00 0.  1.
          2   -1    0    0  502    0 -0.00000000000E+00 -0.00000000000E+00 -0.78763799529E+02  0.78763799529E+02  0.00000000000E+00 0. -1.
          2    1    1    2  501    0 -0.21918631368E+02 -0.22065013942E+01 -0.75822367985E+02  0.78957751591E+02  0.00000000000E+00 0. -1.
          2    1    1    2  502    0  0.21918631368E+02  0.22065013942E+01  0.86942670372E+02  0.89690149854E+02  0.00000000000E+00 0.  1.
</event>
<event>
 4    1  0.8391192E+003  0.2151739E+02  0.7546771E-02  0.1512005E+00
          2   -1    0    0  501    0  0.00000000000E+00  0.00000000000E+00  0.15837817790E+01  0.15837817790E+01  0.00000000000E+00 0.  1.
          2   -1    0    0  502    0 -0.00000000000E+00 -0.00000000000E+00 -0.15227941503E+04  0.15227941503E+04  0.00000000000E+00 0.  1.
          2    1    1    2  501    0  0.51213761594E+01 -0.20899029058E+02 -0.14457388627E+04  0.14458989789E+04  0.00000000000E+00 0.  1.
          2    1    1    2  502    0 -0.51213761594E+01  0.20899029058E+02 -0.75471505791E+02  0.78478953202E+02  0.00000000000E+00 0.  1.
</event>
<event>
 4    1  0.8391192E+003  0.2154261E+02  0.7546771E-02  0.1511657E+00
          2   -1    0    0  502    0  0.00000000000E+00  0.00000000000E+00  0.87752966900E+03  0.87752966900E+03  0.00000000000E+00 0. -1.
          2   -1    0    0  501    0 -0.00000000000E+00 -0.00000000000E+00 -0.68111703814E+00  0.68111703814E+00  0.00000000000E+00 0. -1.
          2    1    1    2  501    0  0.40499489720E+01 -0.21158492555E+02  0.64603848111E+03  0.64639755798E+03  0.00000000000E+00 0. -1.
          2    1    1    2  502    0 -0.40499489720E+01  0.21158492555E+02  0.23081007086E+03  0.23181322806E+03  0.00000000000E+00 0. -1.
</event>
<event>
 4    1  0.8391192E+003  0.2076247E+02  0.7546771E-02  0.1522683E+00
          2   -1    0    0  502    0  0.00000000000E+00  0.00000000000E+00  0.79423202094E+03  0.79423202094E+03  0.00000000000E+00 0.  1.
          2   -1    0    0  501    0 -0.00000000000E+00 -0.00000000000E+00 -0.12291633687E+01  0.12291633687E+01  0.00000000000E+00 0.  1.
          2    1    1    2  501    0 -0.25740566727E+00 -0.20760874942E+02  0.69371783212E+03  0.69402846541E+03  0.00000000000E+00 0.  1.
          2    1    1    2  502    0  0.25740566727E+00  0.20760874942E+02  0.99285025445E+02  0.10143271890E+03  0.00000000000E+00 0.  1.
</event>
<event>
 4    1  0.8391192E+003  0.4157468E+02  0.7546771E-02  0.1339497E+00
          2   -1    0    0  501    0  0.00000000000E+00  0.00000000000E+00  0.10459867847E+04  0.10459867847E+04  0.00000000000E+00 0. -1.
          2   -1    0    0  502    0 -0.00000000000E+00 -0.00000000000E+00 -0.32100141099E+03  0.32100141099E+03  0.00000000000E+00 0. -1.
          2    1    1    2  501    0 -0.18936082986E+02  0.37011877774E+02 -0.31923988301E+03  0.32193564146E+03  0.00000000000E+00 0. -1.
          2    1    1    2  502    0  0.18936082986E+02 -0.37011877774E+02  0.10442252567E+04  0.10450525542E+04  0.00000000000E+00 0. -1.
</event>
<event>
 4    1  0.8391192E+003  0.2334577E+02  0.7546771E-02  0.1488201E+00
          2   -1    0    0  501    0  0.00000000000E+00  0.00000000000E+00  0.15693336081E+04  0.15693336081E+04  0.00000000000E+00 0.  1.
          2   -1    0    0  502    0 -0.00000000000E+00 -0.00000000000E+00 -0.32999828464E+01  0.32999828464E+01  0.00000000000E+00 0.  1.
          2    1    1    2  501    0  0.13803569532E+00 -0.23345363661E+02  0.39226834186E+02  0.45648325036E+02  0.00000000000E+00 0.  1.
          2    1    1    2  502    0 -0.13803569532E+00  0.23345363661E+02  0.15268067911E+04  0.15269852659E+04  0.00000000000E+00 0.  1.
</event>
<event>
 4    1  0.8391192E+003  0.2166197E+02  0.7546771E-02  0.1510020E+00
          2   -1    0    0  501    0  0.00000000000E+00  0.00000000000E+00  0.14725207466E+01  0.14725207466E+01  0.00000000000E+00 0. -1.
          2   -1    0    0  502    0 -0.00000000000E+00 -0.00000000000E+00 -0.46468652874E+03  0.46468652874E+03  0.00000000000E+00 0. -1.
          2    1    1    2  501    0  0.18383494531E+02  0.11458093921E+02 -0.36226396865E+03  0.36291104112E+03  0.00000000000E+00 0. -1.
          2    1    1    2  502    0 -0.18383494531E+02 -0.11458093921E+02 -0.10095003934E+03  0.10324800836E+03  0.00000000000E+00 0. -1.
</event>
<event>
 4    1  0.8391192E+003  0.5821999E+02  0.7546771E-02  0.1266003E+00
          2   -1    0    0  501    0  0.00000000000E+00  0.00000000000E+00  0.36159004113E+01  0.36159004113E+01  0.00000000000E+00 0.  1.
          2   -1    0    0  502    0 -0.00000000000E+00 -0.00000000000E+00 -0.14062067288E+04  0.14062067288E+04  0.00000000000E+00 0.  1.
          2    1    1    2  501    0  0.38621686908E+02  0.43565267592E+02 -0.11083043749E+04  0.11098324895E+04  0.00000000000E+00 0.  1.
          2    1    1    2  502    0 -0.38621686908E+02 -0.43565267592E+02 -0.29428645343E+03  0.29999013969E+03  0.00000000000E+00 0.  1.
</event>
<event>
 4    1  0.8391192E+003  0.5752225E+02  0.7546771E-02  0.1268492E+00
          2   -1    0    0  501    0  0.00000000000E+00  0.00000000000E+00  0.43239848078E+04  0.43239848078E+04  0.00000000000E+00 0. -1.
          2   -1    0    0  502    0 -0.00000000000E+00 -0.00000000000E+00 -0.24757550442E+01  0.24757550442E+01  0.00000000000E+00 0.  1.
          2    1    1    2  501    0  0.32330841974E+02  0.47576520922E+02  0.36265121721E+03  0.36718484995E+03  0.00000000000E+00 0.  1.
          2    1    1    2  502    0 -0.32330841974E+02 -0.47576520922E+02  0.39588578356E+04  0.39592757129E+04  0.00000000000E+00 0. -1.
</event>
<event>
 4    1  0.8391192E+003  0.3384339E+02  0.7546771E-02  0.1388882E+00
          2   -1    0    0  502    0  0.00000000000E+00  0.00000000000E+00  0.77257309260E+03  0.77257309260E+03  0.00000000000E+00 0. -1.
          2   -1    0    0  501    0 -0.00000000000E+00 -0.00000000000E+00 -0.57455215876E+01  0.57455215876E+01  0.00000000000E+00 0.  1.
          2    1    1    2  501    0  0.19699723506E+02 -0.27519006733E+02  0.71862545911E+03  0.71942193831E+03  0.00000000000E+00 0. -1.
          2    1    1    2  502    0 -0.19699723506E+02  0.27519006733E+02  0.48202111902E+02  0.58896675879E+02  0.00000000000E+00 0.  1.
</event>
<event>
 4    1  0.8391192E+003  0.2621984E+02  0.7546771E-02  0.1455606E+00
          2   -1    0    0  501    0  0.00000000000E+00  0.00000000000E+00  0.50161878497E+01  0.50161878497E+01  0.00000000000E+00 0. -1.
          2   -1    0    0  502    0 -0.00000000000E+00 -0.00000000000E+00 -0.26056482074E+03  0.26056482074E+03  0.00000000000E+00 0. -1.
          2    1    1    2  501    0 -0.52397648226E+01 -0.25690944923E+02 -0.21919926532E+03  0.22076185745E+03  0.00000000000E+00 0. -1.
          2    1    1    2  502    0  0.52397648226E+01  0.25690944923E+02 -0.36349367569E+02  0.44819151142E+02  0.00000000000E+00 0. -1.
</event>
<event>
 4    1  0.8391192E+003  0.2582556E+02  0.7546771E-02  0.1459776E+00
          2   -1    0    0  502    0  0.00000000000E+00  0.00000000000E+00  0.14394009450E+04  0.14394009450E+04  0.00000000000E+00 0.  1.
          2   -1    0    0  501    0 -0.00000000000E+00 -0.00000000000E+00 -0.19647329413E+02  0.19647329413E+02  0.00000000000E+00 0.  1.
          2    1    1    2  501    0 -0.20644223307E+02  0.15516942322E+02  0.14307471357E+04  0.14309801975E+04  0.00000000000E+00 0.  1.
          2    1    1    2  502    0  0.20644223307E+02 -0.15516942322E+02 -0.10993520107E+02  0.28068076873E+02  0.00000000000E+00 0.  1.
</event>
<event>
 4    1  0.8391192E+003  0.3444984E+02  0.7546771E-02  0.1384473E+00
          2   -1    0    0  502    0  0.00000000000E+00  0.00000000000E+00  0.59058126794E+03  0.59058126794E+03  0.00000000000E+00 0. -1.
          2   -1    0    0  501    0 -0.00000000000E+00 -0.00000000000E+00 -0.23436228127E+03  0.23436228127E+03  0.00000000000E+00 0. -1.
          2    1    1    2  501    0 -0.16683450521E+02 -0.30140575069E+02  0.58880909804E+03  0.58981602701E+03  0.00000000000E+00 0. -1.
          2    1    1    2  502    0  0.16683450521E+02  0.30140575069E+02 -0.23259011137E+03  0.23512752220E+03  0.00000000000E+00 0. -1.
</event>
<event>
 4    1  0.8391192E+003  0.3488779E+02  0.7546771E-02  0.1381354E+00
          2   -1    0    0  502    0  0.00000000000E+00  0.00000000000E+00  0.33294301724E+03  0.33294301724E+03  0.00000000000E+00 0. -1.
          2   -1    0    0  501    0 -0.00000000000E+00 -0.00000000000E+00 -0.43334008669E+03  0.43334008669E+03  0.00000000000E+00 0.  1.
          2    1    1    2  501    0  0.33343035035E+02 -0.10266450242E+02  0.33132346002E+03  0.33315520879E+03  0.00000000000E+00 0. -1.
          2    1    1    2  502    0 -0.33343035035E+02  0.10266450242E+02 -0.43172052947E+03  0.43312789514E+03  0.00000000000E+00 0.  1.
</event>
<event>
 4    1  0.8391192E+003  0.2367576E+02  0.7546771E-02  0.1484182E+00
          2   -1    0    0  501    0  0.00000000000E+00  0.00000000000E+00  0.85522997494E+02  0.85522997494E+02  0.00000000000E+00 0. -1.
          2   -1    0    0  502    0 -0.00000000000E+00 -0.00000000000E+00 -0.84449695371E+02  0.84449695371E+02  0.00000000000E+00 0.  1.
          2    1    1    2  501    0 -0.17481583878E+02 -0.15966716561E+02 -0.81085128603E+02  0.84470941117E+02  0.00000000000E+00 0.  1.
          2    1    1    2  502    0  0.17481583878E+02  0.15966716561E+02  0.82158430726E+02  0.85501751748E+02  0.00000000000E+00 0. -1.
</event>
<event>
 4    1  0.8391192E+003  0.6231340E+02  0.7546771E-02  0.1252169E+00
          2   -1    0    0  502    0  0.00000000000E+00  0.00000000000E+00  0.28070972813E+04  0.28070972813E+04  0.00000000000E+00 0. -1.
          2   -1    0    0  501    0 -0.00000000000E+00 -0.00000000000E+00 -0.10625784058E+04  0.10625784058E+04  0.00000000000E+00 0.  1.
          2    1    1    2  501    0  0.62021791679E+02  0.60213519811E+01  0.28058374849E+04  0.28065293426E+04  0.00000000000E+00 0. -1.
          2    1    1    2  502    0 -0.62021791679E+02 -0.60213519811E+01 -0.10613186093E+04  0.10631463445E+04  0.00000000000E+00 0.  1.
</event>
<event>
 4    1  0.8391192E+003  0.2218648E+02  0.7546771E-02  0.1502974E+00
          2   -1    0    0  502    0  0.00000000000E+00  0.00000000000E+00  0.80590358182E+01  0.80590358182E+01  0.00000000000E+00 0. -1.
          2   -1    0    0  501    0 -0.00000000000E+00 -0.00000000000E+00 -0.17167442582E+03  0.17167442582E+03  0.00000000000E+00 0. -1.
          2    1    1    2  501    0 -0.84220962894E+01  0.20525788786E+02 -0.96779710321E+01  0.24205429855E+02  0.00000000000E+00 0. -1.
          2    1    1    2  502    0  0.84220962894E+01 -0.20525788786E+02 -0.15393741897E+03  0.15552803179E+03  0.00000000000E+00 0. -1.
</event>
<event>
 4    1  0.8391192E+003  0.3856124E+02  0.7546771E-02  0.1357130E+00
          2   -1    0    0  502    0  0.00000000000E+00  0.00000000000E+00  0.14334750694E+03  0.14334750694E+03  0.00000000000E+00 0.  1.
          2   -1    0    0  501    0 -0.00000000000E+00 -0.00000000000E+00 -0.30605177000E+03  0.30605177000E+03  0.00000000000E+00 0. -1.
          2    1    1    2  501    0  0.60349338382E+00 -0.38556519673E+02  0.13950674852E+03  0.14473804716E+03  0.00000000000E+00 0.  1.
          2    1    1    2  502    0 -0.60349338382E+00  0.38556519673E+02 -0.30221101158E+03  0.30466122979E+03  0.00000000000E+00 0. -1.
</event>
<event>
 4    1  0.8391192E+003  0.2526012E+02  0.7546771E-02  0.1465914E+00
          2   -1    0    0  502    0  0.00000000000E+00  0.00000000000E+00  0.39764602990E+02  0.39764602990E+02  0.00000000000E+00 0. -1.
          2   -1    0    0  501    0 -0.00000000000E+00 -0.00000000000E+00 -0.13209978537E+03  0.13209978537E+03  0.00000000000E+00 0. -1.
          2    1    1    2  501    0  0.22692614496E+02 -0.11095906689E+02  0.34376554449E+02  0.42659364665E+02  0.00000000000E+00 0. -1.
          2    1    1    2  502    0 -0.22692614496E+02  0.11095906689E+02 -0.12671173683E+03  0.12920502370E+03  0.00000000000E+00 0. -1.
</event>
<event>
 4    1  0.8391192E+003  0.2829777E+02  0.7546771E-02  0.1434990E+00
          2   -1    0    0  502    0  0.00000000000E+00  0.00000000000E+00  0.11722200401E+04  0.11722200401E+04  0.00000000000E+00 0.  1.
          2   -1    0    0  501    0 -0.00000000000E+00 -0.00000000000E+00 -0.10836600872E+02  0.10836600872E+02  0.00000000000E+00 0. -1.
          2    1    1    2  501    0 -0.16421483729E+02  0.23045579678E+02  0.11532721977E+04  0.11536193159E+04  0.00000000000E+00 0.  1.
          2    1    1    2  502    0  0.16421483729E+02 -0.23045579678E+02  0.81112414870E+01  0.29437325099E+02  0.00000000000E+00 0. -1.
</event>
<event>
 4    1  0.8391192E+003  0.2078553E+02  0.7546771E-02  0.1522349E+00
          2   -1    0    0  501    0  0.00000000000E+00  0.00000000000E+00  0.50004259562E+01  0.50004259562E+01  0.00000000000E+00 0.  1.
          2   -1    0    0  502    0 -0.00000000000E+00 -0.00000000000E+00 -0.42666864669E+03  0.42666864669E+03  0.00000000000E+00 0.  1.
          2    1    1    2  501    0  0.57563760668E+01 -0.19972544293E+02 -0.40358053805E+03  0.40411544029E+03  0.00000000000E+00 0.  1.
          2    1    1    2  502    0 -0.57563760668E+01  0.19972544293E+02 -0.18087682685E+02  0.27553632354E+02  0.00000000000E+00 0.  1.
</event>
<event>
 4    1  0.8391192E+003  0.4915126E+02  0.7546771E-02  0.1301895E+00
          2   -1    0    0  502    0  0.00000000000E+00  0.00000000000E+00  0.32466150064E+01  0.32466150064E+01  0.00000000000E+00 0.  1.
          2   -1    0    0  501    0 -0.00000000000E+00 -0.00000000000E+00 -0.22952193127E+04  0.22952193127E+04  0.00000000000E+00 0.  1.
          2    1    1    2  501    0  0.43442408962E+02  0.22991384441E+02 -0.20123648269E+03  0.20715204228E+03  0.00000000000E+00 0.  1.
          2    1    1    2  502    0 -0.43442408962E+02 -0.22991384441E+02 -0.20907362150E+04  0.20913138854E+04  0.00000000000E+00 0.  1.
</event>
<event>
 4    1  0.8391192E+003  0.9588997E+02  0.7546771E-02  0.1171127E+00
          2   -1    0    0  502    0  0.00000000000E+00  0.00000000000E+00  0.45767524374E+02  0.45767524374E+02  0.00000000000E+00 0. -1.
          2   -1    0    0  501    0 -0.00000000000E+00 -0.00000000000E+00 -0.12954152731E+04  0.12954152731E+04  0.00000000000E+00 0.  1.
          2    1    1    2  501    0  0.69196550199E+02 -0.66383161134E+02 -0.84225583129E+01  0.96259161279E+02  0.00000000000E+00 0. -1.
          2    1    1    2  502    0 -0.69196550199E+02  0.66383161134E+02 -0.12412251904E+04  0.12449236362E+04  0.00000000000E+00 0.  1.
</event>
<event>
 4    1  0.8559703E+003  0.2135182E+02  0.7546771E-02  0.1514301E+00
          2   -1    0    0  502    0  0.00000000000E+00  0.00000000000E+00  0.12572706050E+04  0.12572706050E+04  0.00000000000E+00 0. -1.
          2   -1    0    0  501    0 -0.00000000000E+00 -0.00000000000E+00 -0.49041259078E+03  0.49041259078E+03  0.00000000000E+00 0.  1.
          2    1    1    2  501    0 -0.15160411109E+02 -0.15035357591E+02  0.12569474861E+04  0.12571288251E+04  0.00000000000E+00 0. -1.
          2    1    1    2  502    0  0.15160411109E+02  0.15035357591E+02 -0.49008947194E+03  0.49055437063E+03  0.00000000000E+00 0.  1.
</event>
<event>
 4    1  0.8391192E+003  0.3883727E+02  0.7546771E-02  0.1355437E+00
          2   -1    0    0  501    0  0.00000000000E+00  0.00000000000E+00  0.23353827739E+02  0.23353827739E+02  0.00000000000E+00 0.  1.
          2   -1    0    0  502    0 -0.00000000000E+00 -0.00000000000E+00 -0.22668920156E+04  0.22668920156E+04  0.00000000000E+00 0.  1.
          2    1    1    2  501    0 -0.24113011410E+02  0.30444973894E+02 -0.22504612569E+04  0.22507963485E+04  0.00000000000E+00 0.  1.
          2    1    1    2  502    0  0.24113011410E+02 -0.30444973894E+02  0.69230690498E+01  0.39449494797E+02  0.00000000000E+00 0.  1.
</event>
<event>
 4    1  0.8391192E+003  0.2758651E+02  0.7546771E-02  0.1441804E+00
          2   -1    0    0  501    0  0.00000000000E+00  0.00000000000E+00  0.22426470147E+03  0.22426470147E+03  0.00000000000E+00 0.  1.
          2   -1    0    0  502    0 -0.00000000000E+00 -0.00000000000E+00 -0.95268367258E+01  0.95268367258E+01  0.00000000000E+00 0.  1.
          2    1    1    2  501    0 -0.83805898766E+01  0.26282719792E+02  0.13574504645E+02  0.30745452066E+02  0.00000000000E+00 0.  1.
          2    1    1    2  502    0  0.83805898766E+01 -0.26282719792E+02  0.20116336010E+03  0.20304608613E+03  0.00000000000E+00 0.  1.
</event>
<event>
 4    1  0.8391192E+003  0.2407220E+02  0.7546771E-02  0.1479456E+00
          2   -1    0    0  501    0  0.00000000000E+00  0.00000000000E+00  0.34907953070E+00  0.34907953070E+00  0.00000000000E+00 0.  1.
          2   -1    0    0  502    0 -0.00000000000E+00 -0.00000000000E+00 -0.18403243051E+04  0.18403243051E+04  0.00000000000E+00 0. -1.
          2    1    1    2  501    0 -0.19467283770E+02 -0.14159657567E+02 -0.12080788670E+04  0.12083186749E+04  0.00000000000E+00 0.  1.
          2    1    1    2  502    0  0.19467283770E+02  0.14159657567E+02 -0.63189635851E+03  0.63235470975E+03  0.00000000000E+00 0. -1.
</event>
<event>
 4    1  0.8391192E+003  0.1143673E+03  0.7546771E-02  0.1141003E+00
          2   -1    0    0  501    0  0.00000000000E+00  0.00000000000E+00  0.14131799503E+04  0.14131799503E+04  0.00000000000E+00 0. -1.
          2   -1    0    0  502    0 -0.00000000000E+00 -0.00000000000E+00 -0.12582410573E+03  0.12582410573E+03  0.00000000000E+00 0.  1.
          2    1    1    2  501    0  0.70556704262E+01  0.11414948532E+03 -0.96981205290E+02  0.14995079748E+03  0.00000000000E+00 0.  1.
          2    1    1    2  502    0 -0.70556704262E+01 -0.11414948532E+03  0.13843370499E+04  0.13890532586E+04  0.00000000000E+00 0. -1.
</event>
<event>
 4    1  0.8391192E+003  0.2174496E+02  0.7546771E-02  0.1508889E+00
          2   -1    0    0  501    0  0.00000000000E+00  0.00000000000E+00  0.34825687036E+01  0.34825687036E+01  0.00000000000E+00 0. -1.
          2   -1    0    0  502    0 -0.00000000000E+00 -0.00000000000E+00 -0.53215742004E+03  0.53215742004E+03  0.00000000000E+00 0.  1.
          2    1    1    2  501    0  0.16855892013E+02  0.13737614553E+02 -0.49548031598E+03  0.49595724278E+03  0.00000000000E+00 0.  1.
          2    1    1    2  502    0 -0.16855892013E+02 -0.13737614553E+02 -0.33194535359E+02  0.39682745960E+02  0.00000000000E+00 0. -1.
</event>
<event>
 4    1  0.8391192E+003  0.2905536E+02  0.7546771E-02  0.1427987E+00
          2   -1    0    0  501    0  0.00000000000E+00  0.00000000000E+00  0.81498123614E+02  0.81498123614E+02  0.00000000000E+00 0.  1.
          2   -1    0    0  502    0 -0.00000000000E+00 -0.00000000000E+00 -0.32962053052E+02  0.32962053052E+02  0.00000000000E+00 0. -1.
          2    1    1    2  501    0 -0.90533345517E+01  0.27608899639E+02 -0.23123826638E+02  0.37133887006E+02  0.00000000000E+00 0. -1.
          2    1    1    2  502    0  0.90533345517E+01 -0.27608899639E+02  0.71659897200E+02  0.77326289660E+02  0.00000000000E+00 0.  1.
</event>
<event>
 4    1  0.8391192E+003  0.2832589E+02  0.7546771E-02  0.1434725E+00
          2   -1    0    0  501    0  0.00000000000E+00  0.00000000000E+00  0.30602714030E+02  0.30602714030E+02  0.00000000000E+00 0.  1.
          2   -1    0    0  502    0 -0.00000000000E+00 -0.00000000000E+00 -0.26450344199E+03  0.26450344199E+03  0.00000000000E+00 0. -1.
          2    1    1    2  501    0 -0.20795532387E+02  0.19232831033E+02 -0.25699966564E+03  0.25855595931E+03  0.00000000000E+00 0. -1.
          2    1    1    2  502    0  0.20795532387E+02 -0.19232831033E+02  0.23098937686E+02  0.36550196703E+02  0.00000000000E+00 0.  1.
</event>
<event>
 4    1  0.8391192E+003  0.2663007E+02  0.7546771E-02  0.1451360E+00
          2   -1    0    0  502    0  0.00000000000E+00  0.00000000000E+00  0.17246059884E+04  0.17246059884E+04  0.00000000000E+00 0. -1.
          2   -1    0    0  501    0 -0.00000000000E+00 -0.00000000000E+00 -0.51521537391E+01  0.51521537391E+01  0.00000000000E+00 0. -1.
          2    1    1    2  501    0 -0.23679270074E+02  0.12184130003E+02  0.16893747128E+04  0.16895845883E+04  0.00000000000E+00 0. -1.
          2    1    1    2  502    0  0.23679270074E+02 -0.12184130003E+02  0.30079121911E+02  0.40173553864E+02  0.00000000000E+00 0. -1.
</event>
<event>
 4    1  0.8391192E+003  0.3254852E+02  0.7546771E-02  0.1398669E+00
          2   -1    0    0  502    0  0.00000000000E+00  0.00000000000E+00  0.17100536384E+01  0.17100536384E+01  0.00000000000E+00 0.  1.
          2   -1    0    0  501    0 -0.00000000000E+00 -0.00000000000E+00 -0.11256283329E+04  0.11256283329E+04  0.00000000000E+00 0.  1.
          2    1    1    2  501    0  0.21751985749E+02  0.24212753031E+02 -0.18399545409E+03  0.18685216996E+03  0.00000000000E+00 0.  1.
          2    1    1    2  502    0 -0.21751985749E+02 -0.24212753031E+02 -0.93992282520E+03  0.94048621661E+03  0.00000000000E+00 0.  1.
</event>
<event>
 4    1  0.8391192E+003  0.4611694E+02  0.7546771E-02  0.1315947E+00
          2   -1    0    0  501    0  0.00000000000E+00  0.00000000000E+00  0.22704562472E+03  0.22704562472E+03  0.00000000000E+00 0.  1.
          2   -1    0    0  502    0 -0.00000000000E+00 -0.00000000000E+00 -0.26422987576E+02  0.26422987576E+02  0.00000000000E+00 0. -1.
          2    1    1    2  501    0  0.36842549455E+02 -0.27738030678E+02 -0.15102258247E+01  0.46141657732E+02  0.00000000000E+00 0. -1.
          2    1    1    2  502    0 -0.36842549455E+02  0.27738030678E+02  0.20213286297E+03  0.20732695456E+03  0.00000000000E+00 0.  1.
</event>
<event>
 4    1  0.8391192E+003  0.3313972E+02  0.7546771E-02  0.1394135E+00
          2   -1    0    0  502    0  0.00000000000E+00  0.00000000000E+00  0.11292179741E+04  0.11292179741E+04  0.00000000000E+00 0. -1.
          2   -1    0    0  501    0 -0.00000000000E+00 -0.00000000000E+00 -0.13624275730E+02  0.13624275730E+02  0.00000000000E+00 0.  1.
          2    1    1    2  501    0  0.33062500314E+02 -0.22609902177E+01  0.11084449668E+04  0.11089402534E+04  0.00000000000E+00 0. -1.
          2    1    1    2  502    0 -0.33062500314E+02  0.22609902177E+01  0.71487315572E+01  0.33901996499E+02  0.00000000000E+00 0.  1.
</event>
<event>
 4    1  0.8391192E+003  0.4186074E+02  0.7546771E-02  0.1337914E+00
          2   -1    0    0  502    0  0.00000000000E+00  0.00000000000E+00  0.16914228004E+02  0.16914228004E+02  0.00000000000E+00 0. -1.
          2   -1    0    0  501    0 -0.00000000000E+00 -0.00000000000E+00 -0.13783441026E+04  0.13783441026E+04  0.00000000000E+00 0.  1.
          2    1    1    2  501    0 -0.41849109101E+02 -0.98651540049E+00 -0.98157955088E+01  0.42996174094E+02  0.00000000000E+00 0. -1.
          2    1    1    2  502    0  0.41849109101E+02  0.98651540049E+00 -0.13516140791E+04  0.13522621565E+04  0.00000000000E+00 0.  1.
</event>
<event>
 4    1  0.8391192E+003  0.2059002E+02  0.7546771E-02  0.1525200E+00
          2   -1    0    0  502    0  0.00000000000E+00  0.00000000000E+00  0.31132489677E+01  0.31132489677E+01  0.00000000000E+00 0. -1.
          2   -1    0    0  501    0 -0.00000000000E+00 -0.00000000000E+00 -0.12089922418E+04  0.12089922418E+04  0.00000000000E+00 0.  1.
          2    1    1    2  501    0 -0.17943863043E+02  0.10097858190E+02 -0.32037725944E+02  0.38083655872E+02  0.00000000000E+00 0. -1.
          2    1    1    2  502    0  0.17943863043E+02 -0.10097858190E+02 -0.11738412669E+04  0.11740218349E+04  0.00000000000E+00 0.  1.
</event>
<event>
 4    1  0.8391192E+003  0.2451949E+02  0.7546771E-02  0.1474251E+00
          2   -1    0    0  501    0  0.00000000000E+00  0.00000000000E+00  0.15096642786E+04  0.15096642786E+04  0.00000000000E+00 0.  1.
          2   -1    0    0  502    0 -0.00000000000E+00 -0.00000000000E+00 -0.41737524154E+00  0.41737524154E+00  0.00000000000E+00 0. -1.
          2    1    1    2  501    0 -0.22048715585E+01 -0.24420151744E+02  0.59294584608E+03  0.59345259428E+03  0.00000000000E+00 0. -1.
          2    1    1    2  502    0  0.22048715585E+01  0.24420151744E+02  0.91630105726E+03  0.91662905955E+03  0.00000000000E+00 0.  1.
</event>
<event>
 4    1  0.8391192E+003  0.5001237E+02  0.7546771E-02  0.1298119E+00
          2   -1    0    0  502    0  0.00000000000E+00  0.00000000000E+00  0.37428639939E+01  0.37428639939E+01  0.00000000000E+00 0. -1.
          2   -1    0    0  501    0 -0.00000000000E+00 -0.00000000000E+00 -0.13863244405E+04  0.13863244405E+04  0.00000000000E+00 0. -1.
          2    1    1    2  501    0  0.44391114851E+02 -0.23036189439E+02 -0.19108050701E+03  0.19751708093E+03  0.00000000000E+00 0. -1.
          2    1    1    2  502    0 -0.44391114851E+02  0.23036189439E+02 -0.11915010695E+04  0.11925502236E+04  0.00000000000E+00 0. -1.
</event>
<event>
 4    1  0.8391192E+003  0.2794519E+02  0.7546771E-02  0.1438338E+00
          2   -1    0    0  501    0  0.00000000000E+00  0.00000000000E+00  0.10807584140E+04  0.10807584140E+04  0.00000000000E+00 0.  1.
          2   -1    0    0  502    0 -0.00000000000E+00 -0.00000000000E+00 -0.34653154178E+02  0.34653154178E+02  0.00000000000E+00 0.  1.
          2    1    1    2  501    0  0.25753872311E+02 -0.10847656183E+02 -0.28807949565E+02  0.40135165900E+02  0.00000000000E+00 0.  1.
          2    1    1    2  502    0 -0.25753872311E+02  0.10847656183E+02  0.10749132094E+04  0.10752764023E+04  0.00000000000E+00 0.  1.
</event>
<event>
 4    1  0.8391192E+003  0.7316942E+02  0.7546771E-02  0.1220660E+00
          2   -1    0    0  502    0  0.00000000000E+00  0.00000000000E+00  0.50061156743E+03  0.50061156743E+03  0.00000000000E+00 0. -1.
          2   -1    0    0  501    0 -0.00000000000E+00 -0.00000000000E+00 -0.26443657474E+02  0.26443657474E+02  0.00000000000E+00 0. -1.
          2    1    1    2  501    0 -0.16471598904E+02  0.71291309942E+02  0.44045763333E+03  0.44649377510E+03  0.00000000000E+00 0. -1.
          2    1    1    2  502    0  0.16471598904E+02 -0.71291309942E+02  0.33710276619E+02  0.80561449797E+02  0.00000000000E+00 0. -1.
</event>
<event>
 4    1  0.8391192E+003  0.2079319E+02  0.7546771E-02  0.1522238E+00
          2   -1    0    0  501    0  0.00000000000E+00  0.00000000000E+00  0.10688334818E+03  0.10688334818E+03  0.00000000000E+00 0. -1.
          2   -1    0    0  502    0 -0.00000000000E+00 -0.00000000000E+00 -0.31484531398E+02  0.31484531398E+02  0.00000000000E+00 0. -1.
          2    1    1    2  501    0 -0.98358325765E+00  0.20769918127E+02 -0.26887425734E+02  0.33989566011E+02  0.00000000000E+00 0. -1.
          2    1    1    2  502    0  0.98358325765E+00 -0.20769918127E+02  0.10228624252E+03  0.10437831357E+03  0.00000000000E+00 0. -1.
</event>
<event>
 4    1  0.8391192E+003  0.2446213E+02  0.7546771E-02  0.1474911E+00
          2   -1    0    0  501    0  0.00000000000E+00  0.00000000000E+00  0.39183061440E+02  0.39183061440E+02  0.00000000000E+00 0.  1.
          2   -1    0    0  502    0 -0.00000000000E+00 -0.00000000000E+00 -0.25878948921E+03  0.25878948921E+03  0.00000000000E+00 0. -1.
          2    1    1    2  501    0  0.14718408671E+02 -0.19538792685E+02 -0.25432662418E+03  0.25550034783E+03  0.00000000000E+00 0. -1.
          2    1    1    2  502    0 -0.14718408671E+02  0.19538792685E+02  0.34720196413E+02  0.42472202820E+02  0.00000000000E+00 0.  1.
</event>
<event>
 4    1  0.8391192E+003  0.2023207E+02  0.7546771E-02  0.1530517E+00
          2   -1    0    0  501    0  0.00000000000E+00  0.00000000000E+00  0.40011553985E+03  0.40011553985E+03  0.00000000000E+00 0.  1.
          2   -1    0    0  502    0 -0.00000000000E+00 -0.00000000000E+00 -0.12841519170E+03  0.12841519170E+03  0.00000000000E+00 0. -1.
          2    1    1    2  501    0  0.18558236487E+02  0.80578213671E+01 -0.12736042452E+03  0.12895741297E+03  0.00000000000E+00 0. -1.
          2    1    1    2  502    0 -0.18558236487E+02 -0.80578213671E+01  0.39906077267E+03  0.39957331857E+03  0.00000000000E+00 0.  1.
</event>
<event>
 4    1  0.8391192E+003  0.2092662E+02  0.7546771E-02  0.1520315E+00
          2   -1    0    0  501    0  0.00000000000E+00  0.00000000000E+00  0.12093218784E+04  0.12093218784E+04  0.00000000000E+00 0.  1.
          2   -1    0    0  502    0 -0.00000000000E+00 -0.00000000000E+00 -0.36878345388E+00  0.36878345388E+00  0.00000000000E+00 0. -1.
          2    1    1    2  501    0 -0.19942263262E+02  0.63426710034E+01  0.68576120220E+03  0.68608042515E+03  0.00000000000E+00 0.  1.
          2    1    1    2  502    0  0.19942263262E+02 -0.63426710034E+01  0.52319189271E+03  0.52361023666E+03  0.00000000000E+00 0. -1.
</event>
<event>
 4    1  0.8391192E+003  0.3070255E+02  0.7546771E-02  0.1413588E+00
          2   -1    0    0  501    0  0.00000000000E+00  0.00000000000E+00  0.41188111347E+03  0.41188111347E+03  0.00000000000E+00 0. -1.
          2   -1    0    0  502    0 -0.00000000000E+00 -0.00000000000E+00 -0.25066807428E+01  0.25066807428E+01  0.00000000000E+00 0. -1.
          2    1    1    2  501    0 -0.17314980625E+02 -0.25354253182E+02  0.14357916873E+03  0.14682514908E+03  0.00000000000E+00 0. -1.
          2    1    1    2  502    0  0.17314980625E+02  0.25354253182E+02  0.26579526400E+03  0.26756264514E+03  0.00000000000E+00 0. -1.
</event>
<event>
 4    1  0.8391192E+003  0.3442552E+02  0.7546771E-02  0.1384647E+00
          2   -1    0    0  502    0  0.00000000000E+00  0.00000000000E+00  0.20457966773E+03  0.20457966773E+03  0.00000000000E+00 0.  1.
          2   -1    0    0  501    0 -0.00000000000E+00 -0.00000000000E+00 -0.44367427188E+03  0.44367427188E+03  0.00000000000E+00 0. -1.
          2    1    1    2  501    0  0.34322163057E+02  0.26656447065E+01  0.20245669641E+03  0.20536268030E+03  0.00000000000E+00 0.  1.
          2    1    1    2  502    0 -0.34322163057E+02 -0.26656447065E+01 -0.44155130057E+03  0.44289125931E+03  0.00000000000E+00 0. -1.
</event>
<event>
 4    1  0.8391192E+003  0.2967643E+02  0.7546771E-02  0.1422429E+00
          2   -1    0    0  501    0  0.00000000000E+00  0.00000000000E+00  0.11441713798E+03  0.11441713798E+03  0.00000000000E+00 0. -1.
          2   -1    0    0  502    0 -0.00000000000E+00 -0.00000000000E+00 -0.42585995668E+03  0.42585995668E+03  0.00000000000E+00 0. -1.
          2    1    1    2  501    0  0.48091490275E+01 -0.29284166874E+02 -0.42340752024E+03  0.42444624930E+03  0.00000000000E+00 0. -1.
          2    1    1    2  502    0 -0.48091490275E+01  0.29284166874E+02  0.11196470154E+03  0.11583084535E+03  0.00000000000E+00 0. -1.
</event>
<event>
 4    1  0.8391192E+003  0.2288731E+02  0.7546771E-02  0.1493918E+00
          2   -1    0    0  501    0  0.00000000000E+00  0.00000000000E+00  0.23778797951E+02  0.23778797951E+02  0.00000000000E+00 0.  1.
          2   -1    0    0  502    0 -0.00000000000E+00 -0.00000000000E+00 -0.57530121312E+03  0.57530121312E+03  0.00000000000E+00 0. -1.
          2    1    1    2  501    0  0.10758977640E+02 -0.20200828711E+02 -0.56951029100E+03  0.56996999977E+03  0.00000000000E+00 0. -1.
          2    1    1    2  502    0 -0.10758977640E+02  0.20200828711E+02  0.17987875839E+02  0.29110011296E+02  0.00000000000E+00 0.  1.
</event>
<event>
 4    1  0.8391192E+003  0.3846431E+02  0.7546771E-02  0.1357728E+00
          2   -1    0    0  501    0  0.00000000000E+00  0.00000000000E+00  0.10698006482E+03  0.10698006482E+03  0.00000000000E+00 0.  1.
          2   -1    0    0  502    0 -0.00000000000E+00 -0.00000000000E+00 -0.19247076407E+03  0.19247076407E+03  0.00000000000E+00 0. -1.
          2    1    1    2  501    0 -0.38075713913E+02  0.54537037828E+01 -0.18699134986E+03  0.19090643728E+03  0.00000000000E+00 0. -1.
          2    1    1    2  502    0  0.38075713913E+02 -0.54537037828E+01  0.10150065061E+03  0.10854439161E+03  0.00000000000E+00 0.  1.
</event>
<event>
 4    1  0.8391192E+003  0.2522488E+02  0.7546771E-02  0.1466303E+00
          2   -1    0    0  501    0  0.00000000000E+00  0.00000000000E+00  0.10283636534E+04  0.10283636534E+04  0.00000000000E+00 0. -1.
          2   -1    0    0  502    0 -0.00000000000E+00 -0.00000000000E+00 -0.61617827932E+02  0.61617827932E+02  0.00000000000E+00 0. -1.
          2    1    1    2  501    0  0.18246917709E+01 -0.25158801930E+02 -0.58874619571E+02  0.64050883243E+02  0.00000000000E+00 0. -1.
          2    1    1    2  502    0 -0.18246917709E+01  0.25158801930E+02  0.10256204451E+04  0.10259305981E+04  0.00000000000E+00 0. -1.
</event>
<event>
 4    1  0.8391192E+003  0.5430034E+02  0.7546771E-02  0.1280532E+00
          2   -1    0    0  502    0  0.00000000000E+00  0.00000000000E+00  0.11846731186E+03  0.11846731186E+03  0.00000000000E+00 0. -1.
          2   -1    0    0  501    0 -0.00000000000E+00 -0.00000000000E+00 -0.83815995141E+03  0.83815995141E+03  0.00000000000E+00 0. -1.
          2    1    1    2  501    0  0.53714202907E+02  0.79568120447E+01  0.11131209300E+03  0.12385034719E+03  0.00000000000E+00 0. -1.
          2    1    1    2  502    0 -0.53714202907E+02 -0.79568120447E+01 -0.83100473254E+03  0.83277691608E+03  0.00000000000E+00 0. -1.
</event>
<event>
 4    1  0.8391192E+003  0.3735934E+02  0.7546771E-02  0.1364696E+00
          2   -1    0    0  501    0  0.00000000000E+00  0.00000000000E+00  0.20696013017E+03  0.20696013017E+03  0.00000000000E+00 0. -1.
          2   -1    0    0  502    0 -0.00000000000E+00 -0.00000000000E+00 -0.10081334583E+02  0.10081334583E+02  0.00000000000E+00 0. -1.
          2    1    1    2  501    0  0.28105795280E+02  0.24612697166E+02  0.35999900041E+02  0.51881725040E+02  0.00000000000E+00 0. -1.
          2    1    1    2  502    0 -0.28105795280E+02 -0.24612697166E+02  0.16087889555E+03  0.16515973971E+03  0.00000000000E+00 0. -1.
</event>
<event>
 4    1  0.8391192E+003  0.3013431E+02  0.7546771E-02  0.1418433E+00
          2   -1    0    0  502    0  0.00000000000E+00  0.00000000000E+00  0.13820435099E+02  0.13820435099E+02  0.00000000000E+00 0.  1.
          2   -1    0    0  501    0 -0.00000000000E+00 -0.00000000000E+00 -0.15300530425E+03  0.15300530425E+03  0.00000000000E+00 0. -1.
          2    1    1    2  501    0 -0.20901409865E+02 -0.21707315876E+02 -0.65857202850E+01  0.30845554113E+02  0.00000000000E+00 0.  1.
          2    1    1    2  502    0  0.20901409865E+02  0.21707315876E+02 -0.13259914887E+03  0.13598018524E+03  0.00000000000E+00 0. -1.
</event>
<event>
 4    1  0.8391192E+003  0.2286068E+02  0.7546771E-02  0.1494255E+00
          2   -1    0    0  502    0  0.00000000000E+00  0.00000000000E+00  0.93244428259E+03  0.93244428259E+03  0.00000000000E+00 0.  1.
          2   -1    0    0  501    0 -0.00000000000E+00 -0.00000000000E+00 -0.13210291611E+02  0.13210291611E+02  0.00000000000E+00 0. -1.
          2    1    1    2  501    0  0.18047897518E+02  0.14031536204E+02  0.92230523895E+03  0.92258851305E+03  0.00000000000E+00 0.  1.
          2    1    1    2  502    0 -0.18047897518E+02 -0.14031536204E+02 -0.30712479704E+01  0.23066061154E+02  0.00000000000E+00 0. -1.
</event>
<event>
 4    1  0.8391192E+003  0.3166507E+02  0.7546771E-02  0.1405658E+00
          2   -1    0    0  502    0  0.00000000000E+00  0.00000000000E+00  0.39297520712E+01  0.39297520712E+01  0.00000000000E+00 0. -1.
          2   -1    0    0  501    0 -0.00000000000E+00 -0.00000000000E+00 -0.79354693518E+03  0.79354693518E+03  0.00000000000E+00 0. -1.
          2    1    1    2  501    0  0.29322570129E+02  0.11952553338E+02 -0.66370939613E+02  0.73537597700E+02  0.00000000000E+00 0. -1.
          2    1    1    2  502    0 -0.29322570129E+02 -0.11952553338E+02 -0.72324624350E+03  0.72393908955E+03  0.00000000000E+00 0. -1.
</event>
<event>
 4    1  0.8391192E+003  0.2056414E+02  0.7546771E-02  0.1525580E+00
          2   -1    0    0  502    0  0.00000000000E+00  0.00000000000E+00  0.22402134786E+02  0.22402134786E+02  0.00000000000E+00 0.  1.
          2   -1    0    0  501    0 -0.00000000000E+00 -0.00000000000E+00 -0.45789992648E+02  0.45789992648E+02  0.00000000000E+00 0.  1.
          2    1    1    2  501    0  0.20391119755E+02 -0.26619404684E+01  0.14445762705E+02  0.25130932176E+02  0.00000000000E+00 0.  1.
          2    1    1    2  502    0 -0.20391119755E+02  0.26619404684E+01 -0.37833620567E+02  0.43061195259E+02  0.00000000000E+00 0.  1.
</event>
<event>
 4    1  0.8391192E+003  0.2052430E+02  0.7546771E-02  0.1526166E+00
          2   -1    0    0  501    0  0.00000000000E+00  0.00000000000E+00  0.29576803751E+03  0.29576803751E+03  0.00000000000E+00 0. -1.
          2   -1    0    0  502    0 -0.00000000000E+00 -0.00000000000E+00 -0.10938697506E+02  0.10938697506E+02  0.00000000000E+00 0. -1.
          2    1    1    2  501    0 -0.90377845987E+01  0.18427303869E+02 -0.60716319063E+00  0.20533283358E+02  0.00000000000E+00 0. -1.
          2    1    1    2  502    0  0.90377845987E+01 -0.18427303869E+02  0.28543650320E+03  0.28617345166E+03  0.00000000000E+00 0. -1.
</event>
<event>
 4    1  0.8391192E+003  0.2142918E+02  0.7546771E-02  0.1513225E+00
          2   -1    0    0  502    0  0.00000000000E+00  0.00000000000E+00  0.72748408227E+02  0.72748408227E+02  0.00000000000E+00 0. -1.
          2   -1    0    0  501    0 -0.00000000000E+00 -0.00000000000E+00 -0.64853312620E+01  0.64853312620E+01  0.00000000000E+00 0. -1.
          2    1    1    2  501    0  0.10485069302E+02 -0.18688850132E+02  0.39602607221E+02  0.45028616415E+02  0.00000000000E+00 0. -1.
          2    1    1    2  502    0 -0.10485069302E+02  0.18688850132E+02  0.26660469744E+02  0.34205123074E+02  0.00000000000E+00 0. -1.
</event>
<event>
 4    1  0.8391192E+003  0.2040498E+02  0.7546771E-02  0.1527932E+00
          2   -1    0    0  502    0  0.00000000000E+00  0.00000000000E+00  0.12885931985E+04  0.12885931985E+04  0.00000000000E+00 0.  1.
          2   -1    0    0  501    0 -0.00000000000E+00 -0.00000000000E+00 -0.32845295351E+03  0.32845295351E+03  0.00000000000E+00 0. -1.
          2    1    1    2  501    0  0.20060090593E+02 -0.37357470157E+01  0.12881954098E+04  0.12883570068E+04  0.00000000000E+00 0.  1.
          2    1    1    2  502    0 -0.20060090593E+02  0.37357470157E+01 -0.32805516482E+03  0.32868914525E+03  0.00000000000E+00 0. -1.
</event>
<event>
 4    1  0.8391192E+003  0.2170381E+02  0.7546771E-02  0.1509449E+00
          2   -1    0    0  501    0  0.00000000000E+00  0.00000000000E+00  0.66819301565E+03  0.66819301565E+03  0.00000000000E+00 0. -1.
          2   -1    0    0  502    0 -0.00000000000E+00 -0.00000000000E+00 -0.10071344217E+01  0.10071344217E+01  0.00000000000E+00 0.  1.
          2    1    1    2  501    0  0.14265913087E+02 -0.16356627240E+02  0.15031739762E+03  0.15187618496E+03  0.00000000000E+00 0.  1.
          2    1    1    2  502    0 -0.14265913087E+02  0.16356627240E+02  0.51686848360E+03  0.51732396511E+03  0.00000000000E+00 0. -1.
</event>
<event>
 4    1  0.8391192E+003  0.2206264E+02  0.7546771E-02  0.1504616E+00
          2   -1    0    0  501    0  0.00000000000E+00  0.00000000000E+00  0.63527009030E+02  0.63527009030E+02  0.00000000000E+00 0.  1.
          2   -1    0    0  502    0 -0.00000000000E+00 -0.00000000000E+00 -0.55666306084E+03  0.55666306084E+03  0.00000000000E+00 0.  1.
          2    1    1    2  501    0 -0.21749234831E+02 -0.37055170807E+01 -0.55452149614E+03  0.55496022357E+03  0.00000000000E+00 0.  1.
          2    1    1    2  502    0  0.21749234831E+02  0.37055170807E+01  0.61385444327E+02  0.65229846296E+02  0.00000000000E+00 0.  1.
</event>
<event>
 4    1  0.8391192E+003  0.3886090E+02  0.7546771E-02  0.1355293E+00
          2   -1    0    0  502    0  0.00000000000E+00  0.00000000000E+00  0.11639330630E+01  0.11639330630E+01  0.00000000000E+00 0. -1.
          2   -1    0    0  501    0 -0.00000000000E+00 -0.00000000000E+00 -0.18992751905E+04  0.18992751905E+04  0.00000000000E+00 0.  1.
          2    1    1    2  501    0 -0.37574930991E+02 -0.99143568476E+01 -0.41417426919E+03  0.41599338357E+03  0.00000000000E+00 0. -1.
          2    1    1    2  502    0  0.37574930991E+02  0.99143568476E+01 -0.14839369882E+04  0.14844457399E+04  0.00000000000E+00 0.  1.
</event>
<event>
 4    1  0.8391192E+003  0.6068261E+02  0.7546771E-02  0.1257531E+00
          2   -1    0    0  501    0  0.00000000000E+00  0.00000000000E+00  0.48109350461E+03  0.48109350461E+03  0.00000000000E+00 0.  1.
          2   -1    0    0  502    0 -0.00000000000E+00 -0.00000000000E+00 -0.23687814510E+03  0.23687814510E+03  0.00000000000E+00 0.  1.
          2    1    1    2  501    0  0.53343936192E+02  0.28927558609E+02 -0.23103060879E+03  0.23886716261E+03  0.00000000000E+00 0.  1.
          2    1    1    2  502    0 -0.53343936192E+02 -0.28927558609E+02  0.47524596830E+03  0.47910448710E+03  0.00000000000E+00 0.  1.
</event>
<event>
 4    1  0.8391192E+003  0.2221281E+02  0.7546771E-02  0.1502627E+00
          2   -1    0    0  502    0  0.00000000000E+00  0.00000000000E+00  0.40915700333E+01  0.40915700333E+01  0.00000000000E+00 0. -1.
          2   -1    0    0  501    0 -0.00000000000E+00 -0.00000000000E+00 -0.33247753266E+03  0.33247753266E+03  0.00000000000E+00 0.  1.
          2    1    1    2  501    0  0.18630797088E+02  0.12095550142E+02 -0.29850250876E+02  0.37208149789E+02  0.00000000000E+00 0. -1.
          2    1    1    2  502    0 -0.18630797088E+02 -0.12095550142E+02 -0.29853571175E+03  0.29936095290E+03  0.00000000000E+00 0.  1.
</event>
<event>
 4    1  0.8391192E+003  0.2504975E+02  0.7546771E-02  0.1468248E+00
          2   -1    0    0  502    0  0.00000000000E+00  0.00000000000E+00  0.78826473201E+01  0.78826473201E+01  0.00000000000E+00 0.  1.
          2   -1    0    0  501    0 -0.00000000000E+00 -0.00000000000E+00 -0.84232584214E+03  0.84232584214E+03  0.00000000000E+00 0.  1.
          2    1    1    2  501    0 -0.39431669703E+01  0.24737452259E+02 -0.12703015466E+02  0.28086593100E+02  0.00000000000E+00 0.  1.
          2    1    1    2  502    0  0.39431669703E+01 -0.24737452259E+02 -0.82174017935E+03  0.82212189636E+03  0.00000000000E+00 0.  1.
</event>
<event>
 4    1  0.8391192E+003  0.2079909E+02  0.7546771E-02  0.1522153E+00
          2   -1    0    0  502    0  0.00000000000E+00  0.00000000000E+00  0.28331924428E+01  0.28331924428E+01  0.00000000000E+00 0. -1.
          2   -1    0    0  501    0 -0.00000000000E+00 -0.00000000000E+00 -0.26031766848E+03  0.26031766848E+03  0.00000000000E+00 0. -1.
          2    1    1    2  501    0  0.19055225746E+02  0.83366915956E+01 -0.44139661562E+02  0.48794587587E+02  0.00000000000E+00 0. -1.
          2    1    1    2  502    0 -0.19055225746E+02 -0.83366915956E+01 -0.21334481447E+03  0.21435627333E+03  0.00000000000E+00 0. -1.
</event>
<event>
 4    1  0.8391192E+003  0.2607455E+02  0.7546771E-02  0.1457133E+00
          2   -1    0    0  502    0  0.00000000000E+00  0.00000000000E+00  0.66532757020E+03  0.66532757020E+03  0.00000000000E+00 0.  1.
          2   -1    0    0  501    0 -0.00000000000E+00 -0.00000000000E+00 -0.40287051011E+01  0.40287051011E+01  0.00000000000E+00 0.  1.
          2    1    1    2  501    0  0.22671545355E+02  0.12879566581E+02  0.61978331285E+03  0.62033155416E+03  0.00000000000E+00 0.  1.
          2    1    1    2  502    0 -0.22671545355E+02 -0.12879566581E+02  0.41515552251E+02  0.49024721139E+02  0.00000000000E+00 0.  1.
</event>
<event>
 4    1  0.8391192E+003  0.3847985E+02  0.7546771E-02  0.1357632E+00
          2   -1    0    0  501    0  0.00000000000E+00  0.00000000000E+00  0.62653675650E+03  0.62653675650E+03  0.00000000000E+00 0. -1.
          2   -1    0    0  502    0 -0.00000000000E+00 -0.00000000000E+00 -0.18850140695E+02  0.18850140695E+02  0.00000000000E+00 0.  1.
          2    1    1    2  501    0  0.22784562867E+02 -0.31009076495E+02  0.20556532827E+01  0.38534722530E+02  0.00000000000E+00 0.  1.
          2    1    1    2  502    0 -0.22784562867E+02  0.31009076495E+02  0.60563096253E+03  0.60685217467E+03  0.00000000000E+00 0. -1.
</event>
<event>
 4    1  0.8391192E+003  0.4862695E+02  0.7546771E-02  0.1304238E+00
          2   -1    0    0  502    0  0.00000000000E+00  0.00000000000E+00  0.41256894379E+01  0.41256894379E+01  0.00000000000E+00 0. -1.
          2   -1    0    0  501    0 -0.00000000000E+00 -0.00000000000E+00 -0.33661401002E+04  0.33661401002E+04  0.00000000000E+00 0. -1.
          2    1    1    2  501    0  0.17093629275E+02 -0.45523494303E+02 -0.14602318877E+03  0.15390696006E+03  0.00000000000E+00 0. -1.
          2    1    1    2  502    0 -0.17093629275E+02  0.45523494303E+02 -0.32159912220E+04  0.32163588296E+04  0.00000000000E+00 0. -1.
</event>
<event>
 4    1  0.8391192E+003  0.4890691E+02  0.7546771E-02  0.1302983E+00
          2   -1    0    0  501    0  0.00000000000E+00  0.00000000000E+00  0.11615186790E+03  0.11615186790E+03  0.00000000000E+00 0.  1.
          2   -1    0    0  502    0 -0.00000000000E+00 -0.00000000000E+00 -0.42075111421E+03  0.42075111421E+03  0.00000000000E+00 0. -1.
          2    1    1    2  501    0 -0.48802794541E+02 -0.31894926126E+01 -0.41409931813E+03  0.41697737456E+03  0.00000000000E+00 0. -1.
          2    1    1    2  502    0  0.48802794541E+02  0.31894926126E+01  0.10950007182E+03  0.11992560755E+03  0.00000000000E+00 0.  1.
</event>
<event>
 4    1  0.8391192E+003  0.2224635E+02  0.7546771E-02  0.1502185E+00
          2   -1    0    0  502    0  0.00000000000E+00  0.00000000000E+00  0.46167254948E+00  0.46167254948E+00  0.00000000000E+00 0. -1.
          2   -1    0    0  501    0 -0.00000000000E+00 -0.00000000000E+00 -0.17005601605E+04  0.17005601605E+04  0.00000000000E+00 0. -1.
          2    1    1    2  501    0  0.20150424746E+02  0.94265946017E+01 -0.33295845928E+03  0.33370081796E+03  0.00000000000E+00 0. -1.
          2    1    1    2  502    0 -0.20150424746E+02 -0.94265946017E+01 -0.13671400287E+04  0.13673210151E+04  0.00000000000E+00 0. -1.
</event>
<event>
 4    1  0.8391192E+003  0.2251258E+02  0.7546771E-02  0.1498711E+00
          2   -1    0    0  501    0  0.00000000000E+00  0.00000000000E+00  0.44101023522E+03  0.44101023522E+03  0.00000000000E+00 0. -1.
          2   -1    0    0  502    0 -0.00000000000E+00 -0.00000000000E+00 -0.87448195318E+01  0.87448195318E+01  0.00000000000E+00 0. -1.
          2    1    1    2  501    0 -0.19639763214E+02  0.11004361955E+02  0.65517800642E+01  0.23446579775E+02  0.00000000000E+00 0. -1.
          2    1    1    2  502    0  0.19639763214E+02 -0.11004361955E+02  0.42571363562E+03  0.42630847498E+03  0.00000000000E+00 0. -1.
</event>
<event>
 4    1  0.8391192E+003  0.3239876E+02  0.7546771E-02  0.1399835E+00
          2   -1    0    0  502    0  0.00000000000E+00  0.00000000000E+00  0.27342656849E+03  0.27342656849E+03  0.00000000000E+00 0. -1.
          2   -1    0    0  501    0 -0.00000000000E+00 -0.00000000000E+00 -0.57934983365E+02  0.57934983365E+02  0.00000000000E+00 0.  1.
          2    1    1    2  501    0  0.22779574617E+02  0.23038457849E+02  0.26784318571E+03  0.26979557389E+03  0.00000000000E+00 0. -1.
          2    1    1    2  502    0 -0.22779574617E+02 -0.23038457849E+02 -0.52351600581E+02  0.61565977968E+02  0.00000000000E+00 0.  1.
</event>
<event>
 4    1  0.8391192E+003  0.2581302E+02  0.7546771E-02  0.1459910E+00
          2   -1    0    0  502    0  0.00000000000E+00  0.00000000000E+00  0.41753305656E+01  0.41753305656E+01  0.00000000000E+00 0.  1.
          2   -1    0    0  501    0 -0.00000000000E+00 -0.00000000000E+00 -0.15962891027E+03  0.15962891027E+03  0.00000000000E+00 0.  1.
          2    1    1    2  501    0 -0.25628327729E+02 -0.30823134875E+01 -0.79115543493E+02  0.83220076068E+02  0.00000000000E+00 0.  1.
          2    1    1    2  502    0  0.25628327729E+02  0.30823134875E+01 -0.76338036213E+02  0.80584164769E+02  0.00000000000E+00 0.  1.
</event>
<event>
 4    1  0.8391192E+003  0.2435959E+02  0.7546771E-02  0.1476097E+00
          2   -1    0    0  501    0  0.00000000000E+00  0.00000000000E+00  0.53297690510E+01  0.53297690510E+01  0.00000000000E+00 0.  1.
          2   -1    0    0  502    0 -0.00000000000E+00 -0.00000000000E+00 -0.19300320689E+03  0.19300320689E+03  0.00000000000E+00 0.  1.
          2    1    1    2  501    0  0.24337336148E+02  0.10410125242E+01 -0.15834408060E+03  0.16020685846E+03  0.00000000000E+00 0.  1.
          2    1    1    2  502    0 -0.24337336148E+02 -0.10410125242E+01 -0.29329357240E+02  0.38126117478E+02  0.00000000000E+00 0.  1.
</event>
<event>
 4    1  0.8391192E+003  0.2490179E+02  0.7546771E-02  0.1469905E+00
          2   -1    0    0  502    0  0.00000000000E+00  0.00000000000E+00  0.17308209898E+03  0.17308209898E+03  0.00000000000E+00 0. -1.
          2   -1    0    0  501    0 -0.00000000000E+00 -0.00000000000E+00 -0.41034572646E+01  0.41034572646E+01  0.00000000000E+00 0. -1.
          2    1    1    2  501    0 -0.23566211090E+02  0.80456767727E+01  0.11604996722E+03  0.11869159242E+03  0.00000000000E+00 0. -1.
          2    1    1    2  502    0  0.23566211090E+02 -0.80456767727E+01  0.52928674493E+02  0.58493963821E+02  0.00000000000E+00 0. -1.
</event>
<event>
 4    1  0.8391192E+003  0.5656152E+02  0.7546771E-02  0.1271985E+00
          2   -1    0    0  501    0  0.00000000000E+00  0.00000000000E+00  0.79111027149E+03  0.79111027149E+03  0.00000000000E+00 0.  1.
          2   -1    0    0  502    0 -0.00000000000E+00 -0.00000000000E+00 -0.12045408394E+02  0.12045408394E+02  0.00000000000E+00 0.  1.
          2    1    1    2  501    0  0.38780910432E+02 -0.41173373888E+02  0.62234161363E+02  0.84096947458E+02  0.00000000000E+00 0.  1.
          2    1    1    2  502    0 -0.38780910432E+02  0.41173373888E+02  0.71683070173E+03  0.71905873243E+03  0.00000000000E+00 0.  1.
</event>
<event>
 4    1  0.8391192E+003  0.2471019E+02  0.7546771E-02  0.1472072E+00
          2   -1    0    0  501    0  0.00000000000E+00  0.00000000000E+00  0.80390582693E+03  0.80390582693E+03  0.00000000000E+00 0. -1.
          2   -1    0    0  502    0 -0.00000000000E+00 -0.00000000000E+00 -0.76221530673E+01  0.76221530673E+01  0.00000000000E+00 0.  1.
          2    1    1    2  501    0  0.24488953190E+02  0.32991629154E+01  0.13125076426E+02  0.27979652169E+02  0.00000000000E+00 0.  1.
          2    1    1    2  502    0 -0.24488953190E+02 -0.32991629154E+01  0.78315859743E+03  0.78354832783E+03  0.00000000000E+00 0. -1.
</event>
<event>
 4    1  0.8391192E+003  0.3669722E+02  0.7546771E-02  0.1369008E+00
          2   -1    0    0  501    0  0.00000000000E+00  0.00000000000E+00  0.44165554255E+03  0.44165554255E+03  0.00000000000E+00 0. -1.
          2   -1    0    0  502    0 -0.00000000000E+00 -0.00000000000E+00 -0.41776031961E+03  0.41776031961E+03  0.00000000000E+00 0. -1.
          2    1    1    2  501    0 -0.12607253650E+02 -0.34463650617E+02 -0.41618925694E+03  0.41780400148E+03  0.00000000000E+00 0. -1.
          2    1    1    2  502    0  0.12607253650E+02  0.34463650617E+02  0.44008447988E+03  0.44161186068E+03  0.00000000000E+00 0. -1.
</event>
<event>
 4    1  0.1094510E+004  0.2242258E+02  0.7546771E-02  0.1499879E+00
          2   -1    0    0  502    0  0.00000000000E+00  0.00000000000E+00  0.14465616273E+04  0.14465616273E+04  0.00000000000E+00 0.  1.
          2   -1    0    0  501    0 -0.00000000000E+00 -0.00000000000E+00 -0.60335109654E+03  0.60335109654E+03  0.00000000000E+00 0. -1.
          2    1    1    2  501    0  0.21451520780E+02 -0.65271892580E+01  0.14462663692E+04  0.14464401759E+04  0.00000000000E+00 0.  1.
          2    1    1    2  502    0 -0.21451520780E+02  0.65271892580E+01 -0.60305583837E+03  0.60347254795E+03  0.00000000000E+00 0. -1.
</event>
<event>
 4    1  0.8391192E+003  0.3114123E+02  0.7546771E-02  0.1409932E+00
          2   -1    0    0  502    0  0.00000000000E+00  0.00000000000E+00  0.32813270353E+02  0.32813270353E+02  0.00000000000E+00 0.  1.
          2   -1    0    0  501    0 -0.00000000000E+00 -0.00000000000E+00 -0.19461193095E+03  0.19461193095E+03  0.00000000000E+00 0. -1.
          2    1    1    2  501    0 -0.22091007016E+02 -0.21949119224E+02  0.23823540004E+02  0.39208895470E+02  0.00000000000E+00 0.  1.
          2    1    1    2  502    0  0.22091007016E+02  0.21949119224E+02 -0.18562220060E+03  0.18821630583E+03  0.00000000000E+00 0. -1.
</event>
<event>
 4    1  0.8391192E+003  0.2749065E+02  0.7546771E-02  0.1442741E+00
          2   -1    0    0  502    0  0.00000000000E+00  0.00000000000E+00  0.90306471350E+02  0.90306471350E+02  0.00000000000E+00 0. -1.
          2   -1    0    0  501    0 -0.00000000000E+00 -0.00000000000E+00 -0.10484507945E+03  0.10484507945E+03  0.00000000000E+00 0. -1.
          2    1    1    2  501    0 -0.70690952376E+01  0.26566214518E+02  0.86331327660E+02  0.90602615839E+02  0.00000000000E+00 0. -1.
          2    1    1    2  502    0  0.70690952376E+01 -0.26566214518E+02 -0.10086993576E+03  0.10454893496E+03  0.00000000000E+00 0. -1.
</event>
<event>
 4    1  0.8391192E+003  0.2412911E+02  0.7546771E-02  0.1478787E+00
          2   -1    0    0  501    0  0.00000000000E+00  0.00000000000E+00  0.10261955390E+04  0.10261955390E+04  0.00000000000E+00 0.  1.
          2   -1    0    0  502    0 -0.00000000000E+00 -0.00000000000E+00 -0.13429155583E+03  0.13429155583E+03  0.00000000000E+00 0. -1.
          2    1    1    2  501    0  0.23703182118E+02 -0.45136678242E+01 -0.13306455855E+03  0.13523457687E+03  0.00000000000E+00 0. -1.
          2    1    1    2  502    0 -0.23703182118E+02  0.45136678242E+01  0.10249685417E+04  0.10252525180E+04  0.00000000000E+00 0.  1.
</event>
<event>
 4    1  0.8391192E+003  0.2355296E+02  0.7546771E-02  0.1485669E+00
          2   -1    0    0  501    0  0.00000000000E+00  0.00000000000E+00  0.67356049052E+02  0.67356049052E+02  0.00000000000E+00 0.  1.
          2   -1    0    0  502    0 -0.00000000000E+00 -0.00000000000E+00 -0.73397720171E+02  0.73397720171E+02  0.00000000000E+00 0.  1.
          2    1    1    2  501    0 -0.63654276344E+01 -0.22676495591E+02 -0.69331768286E+02  0.73223194514E+02  0.00000000000E+00 0.  1.
          2    1    1    2  502    0  0.63654276344E+01  0.22676495591E+02  0.63290097167E+02  0.67530574709E+02  0.00000000000E+00 0.  1.
</event>
<event>
 4    1  0.8391192E+003  0.2588257E+02  0.7546771E-02  0.1459168E+00
          2   -1    0    0  502    0  0.00000000000E+00  0.00000000000E+00  0.98976074480E+03  0.98976074480E+03  0.00000000000E+00 0. -1.
          2   -1    0    0  501    0 -0.00000000000E+00 -0.00000000000E+00 -0.30527483597E+01  0.30527483597E+01  0.00000000000E+00 0.  1.
          2    1    1    2  501    0 -0.24253042553E+02 -0.90386696141E+01  0.93128652534E+03  0.93164612375E+03  0.00000000000E+00 0. -1.
          2    1    1    2  502    0  0.24253042553E+02  0.90386696141E+01  0.55421471108E+02  0.61167369416E+02  0.00000000000E+00 0.  1.
</event>
<event>
 4    1  0.8391192E+003  0.2325281E+02  0.7546771E-02  0.1489348E+00
          2   -1    0    0  502    0  0.00000000000E+00  0.00000000000E+00  0.19448301923E+04  0.19448301923E+04  0.00000000000E+00 0. -1.
          2   -1    0    0  501    0 -0.00000000000E+00 -0.00000000000E+00 -0.28596993305E+00  0.28596993305E+00  0.00000000000E+00 0.  1.
          2    1    1    2  501    0  0.93991390812E+01 -0.21268509793E+02  0.11344734959E+04  0.11347117723E+04  0.00000000000E+00 0. -1.
          2    1    1    2  502    0 -0.93991390812E+01  0.21268509793E+02  0.81007072646E+03  0.81040438991E+03  0.00000000000E+00 0.  1.
</event>
<event>
 4    1  0.8391192E+003  0.2903843E+02  0.7546771E-02  0.1428140E+00
          2   -1    0    0  501    0  0.00000000000E+00  0.00000000000E+00  0.20027107181E+03  0.20027107181E+03  0.00000000000E+00 0.  1.
          2   -1    0    0  502    0 -0.00000000000E+00 -0.00000000000E+00 -0.14812515529E+04  0.14812515529E+04  0.00000000000E+00 0.  1.
          2    1    1    2  501    0 -0.15729484892E+02  0.24409297544E+02 -0.14800557738E+04  0.14803406109E+04  0.00000000000E+00 0.  1.
          2    1    1    2  502    0  0.15729484892E+02 -0.24409297544E+02  0.19907529276E+03  0.20118201383E+03  0.00000000000E+00 0.  1.
</event>
<event>
 4    1  0.8391192E+003  0.2198819E+02  0.7546771E-02  0.1505610E+00
          2   -1    0    0  501    0  0.00000000000E+00  0.00000000000E+00  0.50878289031E+02  0.50878289031E+02  0.00000000000E+00 0.  1.
          2   -1    0    0  502    0 -0.00000000000E+00 -0.00000000000E+00 -0.35048123570E+02  0.35048123570E+02  0.00000000000E+00 0. -1.
          2    1    1    2  501    0  0.20026931433E+02  0.90775856292E+01 -0.28764209688E+02  0.36205804817E+02  0.00000000000E+00 0. -1.
          2    1    1    2  502    0 -0.20026931433E+02 -0.90775856292E+01  0.44594375149E+02  0.49720607784E+02  0.00000000000E+00 0.  1.
</event>
<event>
 4    1  0.8391192E+003  0.2281107E+02  0.7546771E-02  0.1494884E+00
          2   -1    0    0  502    0  0.00000000000E+00  0.00000000000E+00  0.48636748689E+02  0.48636748689E+02  0.00000000000E+00 0.  1.
          2   -1    0    0  501    0 -0.00000000000E+00 -0.00000000000E+00 -0.19294866533E+02  0.19294866533E+02  0.00000000000E+00 0.  1.
          2    1    1    2  501    0  0.22718347117E+02  0.20546550517E+01  0.37342224417E+02  0.43758274960E+02  0.00000000000E+00 0.  1.
          2    1    1    2  502    0 -0.22718347117E+02 -0.20546550517E+01 -0.80003422607E+01  0.24173340262E+02  0.00000000000E+00 0.  1.
</event>
<event>
 4    1  0.8391192E+003  0.2217465E+02  0.7546771E-02  0.1503131E+00
          2   -1    0    0  502    0  0.00000000000E+00  0.00000000000E+00  0.52282585167E+03  0.52282585167E+03  0.00000000000E+00 0. -1.
          2   -1    0    0  501    0 -0.00000000000E+00 -0.00000000000E+00 -0.82719301255E+01  0.82719301255E+01  0.00000000000E+00 0.  1.
          2    1    1    2  501    0  0.21153005114E+02  0.66532334453E+01  0.50727439929E+03  0.50775883185E+03  0.00000000000E+00 0. -1.
          2    1    1    2  502    0 -0.21153005114E+02 -0.66532334453E+01  0.72795222559E+01  0.23338949953E+02  0.00000000000E+00 0.  1.
</event>
<event>
 4    1  0.8391192E+003  0.2342040E+02  0.7546771E-02  0.1487286E+00
          2   -1    0    0  502    0  0.00000000000E+00  0.00000000000E+00  0.60745116090E+03  0.60745116090E+03  0.00000000000E+00 0.  1.
          2   -1    0    0  501    0 -0.00000000000E+00 -0.00000000000E+00 -0.20239614894E+01  0.20239614894E+01  0.00000000000E+00 0.  1.
          2    1    1    2  501    0  0.23373882346E+02  0.14754434026E+01  0.52950385276E+03  0.53002155182E+03  0.00000000000E+00 0.  1.
          2    1    1    2  502    0 -0.23373882346E+02 -0.14754434026E+01  0.75923346656E+02  0.79453570572E+02  0.00000000000E+00 0.  1.
</event>
<event>
 4    1  0.8391192E+003  0.7800860E+02  0.7546771E-02  0.1208548E+00
          2   -1    0    0  502    0  0.00000000000E+00  0.00000000000E+00  0.12635352665E+02  0.12635352665E+02  0.00000000000E+00 0. -1.
          2   -1    0    0  501    0 -0.00000000000E+00 -0.00000000000E+00 -0.13013743826E+04  0.13013743826E+04  0.00000000000E+00 0.  1.
          2    1    1    2  501    0 -0.77919992676E+02 -0.37171201161E+01 -0.12292109826E+03  0.14558481596E+03  0.00000000000E+00 0. -1.
          2    1    1    2  502    0  0.77919992676E+02  0.37171201161E+01 -0.11658179316E+04  0.11684249193E+04  0.00000000000E+00 0.  1.
</event>
<event>
 4    1  0.8391192E+003  0.3195452E+02  0.7546771E-02  0.1403339E+00
          2   -1    0    0  501    0  0.00000000000E+00  0.00000000000E+00  0.22043334289E+04  0.22043334289E+04  0.00000000000E+00 0.  1.
          2   -1    0    0  502    0 -0.00000000000E+00 -0.00000000000E+00 -0.15968089070E+03  0.15968089070E+03  0.00000000000E+00 0. -1.
          2    1    1    2  501    0 -0.18019386025E+02 -0.26389258853E+02 -0.15796519707E+03  0.16116480614E+03  0.00000000000E+00 0. -1.
          2    1    1    2  502    0  0.18019386025E+02  0.26389258853E+02  0.22026177353E+04  0.22028495135E+04  0.00000000000E+00 0.  1.
</event>
<event>
 4    1  0.8391192E+003  0.2157569E+02  0.7546771E-02  0.1511202E+00
          2   -1    0    0  502    0  0.00000000000E+00  0.00000000000E+00  0.95763594213E+00  0.95763594213E+00  0.00000000000E+00 0. -1.
          2   -1    0    0  501    0 -0.00000000000E+00 -0.00000000000E+00 -0.96936066231E+03  0.96936066231E+03  0.00000000000E+00 0.  1.
          2    1    1    2  501    0  0.15118526907E+02  0.15392877556E+02 -0.14164635272E+03  0.14328014438E+03  0.00000000000E+00 0. -1.
          2    1    1    2  502    0 -0.15118526907E+02 -0.15392877556E+02 -0.82675667364E+03  0.82703815387E+03  0.00000000000E+00 0.  1.
</event>
<event>
 4    1  0.8391192E+003  0.4394164E+02  0.7546771E-02  0.1326817E+00
          2   -1    0    0  502    0  0.00000000000E+00  0.00000000000E+00  0.85202889703E+03  0.85202889703E+03  0.00000000000E+00 0.  1.
          2   -1    0    0  501    0 -0.00000000000E+00 -0.00000000000E+00 -0.65546603115E+02  0.65546603115E+02  0.00000000000E+00 0. -1.
          2    1    1    2  501    0  0.13961422524E+02 -0.41664692590E+02  0.84402809897E+03  0.84517116597E+03  0.00000000000E+00 0.  1.
          2    1    1    2  502    0 -0.13961422524E+02  0.41664692590E+02 -0.57545805060E+02  0.72404334176E+02  0.00000000000E+00 0. -1.
</event>
<event>
 4    1  0.1045804E+004  0.2189189E+02  0.7546771E-02  0.1506902E+00
          2   -1    0    0  501    0  0.00000000000E+00  0.00000000000E+00  0.48087880767E+03  0.48087880767E+03  0.00000000000E+00 0. -1.
          2   -1    0    0  502    0 -0.00000000000E+00 -0.00000000000E+00 -0.13059512088E+04  0.13059512088E+04  0.00000000000E+00 0.  1.
          2    1    1    2  501    0 -0.18279816326E+02  0.12045875823E+02 -0.13056102437E+04  0.13057937675E+04  0.00000000000E+00 0.  1.
          2    1    1    2  502    0  0.18279816326E+02 -0.12045875823E+02  0.48053784250E+03  0.48103624903E+03  0.00000000000E+00 0. -1.
</event>
<event>
 4    1  0.1357664E+004  0.3133072E+02  0.7546771E-02  0.1408374E+00
          2   -1    0    0  501    0  0.00000000000E+00  0.00000000000E+00  0.18375310559E+04  0.18375310559E+04  0.00000000000E+00 0.  1.
          2   -1    0    0  502    0 -0.00000000000E+00 -0.00000000000E+00 -0.11423455978E+04  0.11423455978E+04  0.00000000000E+00 0.  1.
          2    1    1    2  501    0  0.32613290034E+01  0.31160515116E+02 -0.11419971822E+04  0.11424268809E+04  0.00000000000E+00 0.  1.
          2    1    1    2  502    0 -0.32613290034E+01 -0.31160515116E+02  0.18371826403E+04  0.18374497729E+04  0.00000000000E+00 0.  1.
</event>
<event>
 4    1  0.8391192E+003  0.2852273E+02  0.7546771E-02  0.1432884E+00
          2   -1    0    0  501    0  0.00000000000E+00  0.00000000000E+00  0.10740269712E+04  0.10740269712E+04  0.00000000000E+00 0.  1.
          2   -1    0    0  502    0 -0.00000000000E+00 -0.00000000000E+00 -0.14695884107E+03  0.14695884107E+03  0.00000000000E+00 0.  1.
          2    1    1    2  501    0 -0.27324527104E+02 -0.81802398793E+01 -0.14538347097E+03  0.14815498553E+03  0.00000000000E+00 0.  1.
          2    1    1    2  502    0  0.27324527104E+02  0.81802398793E+01  0.10724516011E+04  0.10728308267E+04  0.00000000000E+00 0.  1.
</event>
<event>
 4    1  0.8391192E+003  0.2017146E+02  0.7546771E-02  0.1531431E+00
          2   -1    0    0  502    0  0.00000000000E+00  0.00000000000E+00  0.73700892701E+03  0.73700892701E+03  0.00000000000E+00 0.  1.
          2   -1    0    0  501    0 -0.00000000000E+00 -0.00000000000E+00 -0.89777915393E+00  0.89777915393E+00  0.00000000000E+00 0. -1.
          2    1    1    2  501    0 -0.18339164729E+02 -0.84001703476E+01  0.59700307921E+03  0.59734375732E+03  0.00000000000E+00 0.  1.
          2    1    1    2  502    0  0.18339164729E+02  0.84001703476E+01  0.13910806865E+03  0.14056294884E+03  0.00000000000E+00 0. -1.
</event>
<event>
 4    1  0.8391192E+003  0.2998680E+02  0.7546771E-02  0.1419711E+00
          2   -1    0    0  501    0  0.00000000000E+00  0.00000000000E+00  0.68389343681E+00  0.68389343681E+00  0.00000000000E+00 0. -1.
          2   -1    0    0  502    0 -0.00000000000E+00 -0.00000000000E+00 -0.22230113279E+04  0.22230113279E+04  0.00000000000E+00 0.  1.
          2    1    1    2  501    0 -0.17865535534E+02  0.24083828344E+02 -0.18218192250E+04  0.18220659968E+04  0.00000000000E+00 0.  1.
          2    1    1    2  502    0  0.17865535534E+02 -0.24083828344E+02 -0.40050820955E+03  0.40162922462E+03  0.00000000000E+00 0. -1.
</event>
<event>
 4    1  0.8391192E+003  0.2085325E+02  0.7546771E-02  0.1521370E+00
          2   -1    0    0  501    0  0.00000000000E+00  0.00000000000E+00  0.11414710361E+04  0.11414710361E+04  0.00000000000E+00 0. -1.
          2   -1    0    0  502    0 -0.00000000000E+00 -0.00000000000E+00 -0.49960980234E+02  0.49960980234E+02  0.00000000000E+00 0.  1.
          2    1    1    2  501    0 -0.17233689640E+02 -0.11741291683E+02 -0.47685405227E+02  0.52045709340E+02  0.00000000000E+00 0.  1.
          2    1    1    2  502    0  0.17233689640E+02  0.11741291683E+02  0.11391954611E+04  0.11393863070E+04  0.00000000000E+00 0. -1.
</event>
<event>
 4    1  0.8391192E+003  0.4643378E+02  0.7546771E-02  0.1314422E+00
          2   -1    0    0  501    0  0.00000000000E+00  0.00000000000E+00  0.28359107434E+04  0.28359107434E+04  0.00000000000E+00 0. -1.
          2   -1    0    0  502    0 -0.00000000000E+00 -0.00000000000E+00 -0.89316720247E+00  0.89316720247E+00  0.00000000000E+00 0.  1.
          2    1    1    2  501    0 -0.20193432789E+02 -0.41812927529E+02  0.19646117818E+04  0.19651604385E+04  0.00000000000E+00 0. -1.
          2    1    1    2  502    0  0.20193432789E+02  0.41812927529E+02  0.87040579436E+03  0.87164347212E+03  0.00000000000E+00 0.  1.
</event>
<event>
 4    1  0.8391192E+003  0.2849059E+02  0.7546771E-02  0.1433183E+00
          2   -1    0    0  501    0  0.00000000000E+00  0.00000000000E+00  0.11218877146E+01  0.11218877146E+01  0.00000000000E+00 0.  1.
          2   -1    0    0  502    0 -0.00000000000E+00 -0.00000000000E+00 -0.12238448685E+04  0.12238448685E+04  0.00000000000E+00 0. -1.
          2    1    1    2  501    0 -0.92204659751E+01  0.26957311593E+02 -0.10029726517E+04  0.10033772241E+04  0.00000000000E+00 0. -1.
          2    1    1    2  502    0  0.92204659751E+01 -0.26957311593E+02 -0.21975032903E+03  0.22158953213E+03  0.00000000000E+00 0.  1.
</event>
<event>
 4    1  0.8391192E+003  0.2477381E+02  0.7546771E-02  0.1471350E+00
          2   -1    0    0  501    0  0.00000000000E+00  0.00000000000E+00  0.33567915973E+02  0.33567915973E+02  0.00000000000E+00 0. -1.
          2   -1    0    0  502    0 -0.00000000000E+00 -0.00000000000E+00 -0.33644020004E+03  0.33644020004E+03  0.00000000000E+00 0. -1.
          2    1    1    2  501    0 -0.13094433984E+02 -0.21030392184E+02 -0.33134303246E+03  0.33226788403E+03  0.00000000000E+00 0. -1.
          2    1    1    2  502    0  0.13094433984E+02  0.21030392184E+02  0.28470748389E+02  0.37740231989E+02  0.00000000000E+00 0. -1.
</event>
<event>
 4    1  0.8391192E+003  0.3281979E+02  0.7546771E-02  0.1396575E+00
          2   -1    0    0  502    0  0.00000000000E+00  0.00000000000E+00  0.13070707713E+04  0.13070707713E+04  0.00000000000E+00 0. -1.
          2   -1    0    0  501    0 -0.00000000000E+00 -0.00000000000E+00 -0.10784639809E+01  0.10784639809E+01  0.00000000000E+00 0. -1.
          2    1    1    2  501    0  0.46276678190E+01 -0.32491900532E+02  0.97065730816E+03  0.97121199992E+03  0.00000000000E+00 0. -1.
          2    1    1    2  502    0 -0.46276678190E+01  0.32491900532E+02  0.33533499912E+03  0.33693723532E+03  0.00000000000E+00 0. -1.
</event>
<event>
 4    1  0.8391192E+003  0.4068251E+02  0.7546771E-02  0.1344532E+00
          2   -1    0    0  501    0  0.00000000000E+00  0.00000000000E+00  0.53573112893E+02  0.53573112893E+02  0.00000000000E+00 0. -1.
          2   -1    0    0  502    0 -0.00000000000E+00 -0.00000000000E+00 -0.36454279691E+02  0.36454279691E+02  0.00000000000E+00 0. -1.
          2    1    1    2  501    0 -0.40594933582E+02 -0.26679443632E+01 -0.90212031663E+01  0.41670717131E+02  0.00000000000E+00 0. -1.
          2    1    1    2  502    0  0.40594933582E+02  0.26679443632E+01  0.26140036368E+02  0.48356675454E+02  0.00000000000E+00 0. -1.
</event>
<event>
 4    1  0.8391192E+003  0.2261902E+02  0.7546771E-02  0.1497338E+00
          2   -1    0    0  502    0  0.00000000000E+00  0.00000000000E+00  0.10125568959E+03  0.10125568959E+03  0.00000000000E+00 0. -1.
          2   -1    0    0  501    0 -0.00000000000E+00 -0.00000000000E+00 -0.78497874884E+02  0.78497874884E+02  0.00000000000E+00 0. -1.
          2    1    1    2  501    0  0.18868674430E+02 -0.12473692007E+02  0.98314986043E+02  0.10088337994E+03  0.00000000000E+00 0. -1.
          2    1    1    2  502    0 -0.18868674430E+02  0.12473692007E+02 -0.75557171341E+02  0.78870184532E+02  0.00000000000E+00 0. -1.
</event>
<event>
 4    1  0.8391192E+003  0.2445717E+02  0.7546771E-02  0.1474969E+00
          2   -1    0    0  502    0  0.00000000000E+00  0.00000000000E+00  0.23695326040E+02  0.23695326040E+02  0.00000000000E+00 0. -1.
          2   -1    0    0  501    0 -0.00000000000E+00 -0.00000000000E+00 -0.10903544352E+03  0.10903544352E+03  0.00000000000E+00 0.  1.
          2    1    1    2  501    0 -0.10350789033E+02  0.22158841163E+02  0.15507954896E+02  0.28959449932E+02  0.00000000000E+00 0. -1.
          2    1    1    2  502    0  0.10350789033E+02 -0.22158841163E+02 -0.10084807237E+03  0.10377131962E+03  0.00000000000E+00 0.  1.
</event>
<event>
 4    1  0.8391192E+003  0.2086170E+02  0.7546771E-02  0.1521249E+00
          2   -1    0    0  502    0  0.00000000000E+00  0.00000000000E+00  0.11333835432E+04  0.11333835432E+04  0.00000000000E+00 0.  1.
          2   -1    0    0  501    0 -0.00000000000E+00 -0.00000000000E+00 -0.12565501726E+01  0.12565501726E+01  0.00000000000E+00 0.  1.
          2    1    1    2  501    0  0.17702316912E+02  0.11038045661E+02  0.10388176471E+04  0.10390271000E+04  0.00000000000E+00 0.  1.
          2    1    1    2  502    0 -0.17702316912E+02 -0.11038045661E+02  0.93309345853E+02  0.95612993362E+02  0.00000000000E+00 0.  1.
</event>
<event>
 4    1  0.8391192E+003  0.2319096E+02  0.7546771E-02  0.1490114E+00
          2   -1    0    0  502    0  0.00000000000E+00  0.00000000000E+00  0.53645537786E+01  0.53645537786E+01  0.00000000000E+00 0.  1.
          2   -1    0    0  501    0 -0.00000000000E+00 -0.00000000000E+00 -0.32728096101E+03  0.32728096101E+03  0.00000000000E+00 0.  1.
          2    1    1    2  501    0  0.22583737327E+02 -0.52721411823E+01 -0.22432761867E+02  0.32265298221E+02  0.00000000000E+00 0.  1.
          2    1    1    2  502    0 -0.22583737327E+02  0.52721411823E+01 -0.29948364536E+03  0.30038021656E+03  0.00000000000E+00 0.  1.
</event>
<event>
 4    1  0.8391192E+003  0.2719149E+02  0.7546771E-02  0.1445694E+00
          2   -1    0    0  501    0  0.00000000000E+00  0.00000000000E+00  0.24371849684E+02  0.24371849684E+02  0.00000000000E+00 0.  1.
          2   -1    0    0  502    0 -0.00000000000E+00 -0.00000000000E+00 -0.94562955450E+02  0.94562955450E+02  0.00000000000E+00 0. -1.
          2    1    1    2  501    0  0.99168921625E+00 -0.27173403598E+02 -0.84104182386E+02  0.88390558350E+02  0.00000000000E+00 0. -1.
          2    1    1    2  502    0 -0.99168921625E+00  0.27173403598E+02  0.13913076620E+02  0.30544246784E+02  0.00000000000E+00 0.  1.
</event>
<event>
 4    1  0.8391192E+003  0.2442734E+02  0.7546771E-02  0.1475313E+00
          2   -1    0    0  502    0  0.00000000000E+00  0.00000000000E+00  0.13962005689E+04  0.13962005689E+04  0.00000000000E+00 0.  1.
          2   -1    0    0  501    0 -0.00000000000E+00 -0.00000000000E+00 -0.81393306211E+00  0.81393306211E+00  0.00000000000E+00 0.  1.
          2    1    1    2  501    0  0.10111864118E+02  0.22236126416E+02  0.11790714944E+04  0.11793245033E+04  0.00000000000E+00 0.  1.
          2    1    1    2  502    0 -0.10111864118E+02 -0.22236126416E+02  0.21631514146E+03  0.21768999871E+03  0.00000000000E+00 0.  1.
</event>
<event>
 4    1  0.8391192E+003  0.3967364E+02  0.7546771E-02  0.1350409E+00
          2   -1    0    0  501    0  0.00000000000E+00  0.00000000000E+00  0.93776242415E+03  0.93776242415E+03  0.00000000000E+00 0. -1.
          2   -1    0    0  502    0 -0.00000000000E+00 -0.00000000000E+00 -0.51583084614E+03  0.51583084614E+03  0.00000000000E+00 0.  1.
          2    1    1    2  501    0  0.22685968972E+01 -0.39608726653E+02 -0.51464742151E+03  0.51617435642E+03  0.00000000000E+00 0.  1.
          2    1    1    2  502    0 -0.22685968972E+01  0.39608726653E+02  0.93657899952E+03  0.93741891388E+03  0.00000000000E+00 0. -1.
</event>
<event>
 4    1  0.8391192E+003  0.2689513E+02  0.7546771E-02  0.1448664E+00
          2   -1    0    0  501    0  0.00000000000E+00  0.00000000000E+00  0.37543682791E+02  0.37543682791E+02  0.00000000000E+00 0. -1.
          2   -1    0    0  502    0 -0.00000000000E+00 -0.00000000000E+00 -0.77326917255E+02  0.77326917255E+02  0.00000000000E+00 0.  1.
          2    1    1    2  501    0  0.25232615141E+02 -0.93092903011E+01 -0.69659869284E+02  0.74671581887E+02  0.00000000000E+00 0.  1.
          2    1    1    2  502    0 -0.25232615141E+02  0.93092903011E+01  0.29876634821E+02  0.40199018160E+02  0.00000000000E+00 0. -1.
</event>
<event>
 4    1  0.8391192E+003  0.2291513E+02  0.7546771E-02  0.1493567E+00
          2   -1    0    0  502    0  0.00000000000E+00  0.00000000000E+00  0.11884323727E+02  0.11884323727E+02  0.00000000000E+00 0. -1.
          2   -1    0    0  501    0 -0.00000000000E+00 -0.00000000000E+00 -0.10472160475E+03  0.10472160475E+03  0.00000000000E+00 0. -1.
          2    1    1    2  501    0  0.14051233339E+02 -0.18101544128E+02 -0.20901168689E+01  0.23010250904E+02  0.00000000000E+00 0. -1.
          2    1    1    2  502    0 -0.14051233339E+02  0.18101544128E+02 -0.90747164158E+02  0.93595677576E+02  0.00000000000E+00 0. -1.
</event>
<event>
 4    1  0.8391192E+003  0.3666378E+02  0.7546771E-02  0.1369229E+00
          2   -1    0    0  501    0  0.00000000000E+00  0.00000000000E+00  0.12633563453E+03  0.12633563453E+03  0.00000000000E+00 0.  1.
          2   -1    0    0  502    0 -0.00000000000E+00 -0.00000000000E+00 -0.40995470028E+02  0.40995470028E+02  0.00000000000E+00 0. -1.
          2    1    1    2  501    0 -0.14888152670E+02  0.33504864163E+02 -0.29323865787E+02  0.46948078951E+02  0.00000000000E+00 0. -1.
          2    1    1    2  502    0  0.14888152670E+02 -0.33504864163E+02  0.11466403028E+03  0.12038302560E+03  0.00000000000E+00 0.  1.
</event>
<event>
 4    1  0.8391192E+003  0.2006098E+02  0.7546771E-02  0.1533105E+00
          2   -1    0    0  502    0  0.00000000000E+00  0.00000000000E+00  0.62279092725E+02  0.62279092725E+02  0.00000000000E+00 0.  1.
          2   -1    0    0  501    0 -0.00000000000E+00 -0.00000000000E+00 -0.11534811218E+02  0.11534811218E+02  0.00000000000E+00 0.  1.
          2    1    1    2  501    0  0.20058268469E+02  0.33012597586E+00  0.49847568747E+02  0.53732887761E+02  0.00000000000E+00 0.  1.
          2    1    1    2  502    0 -0.20058268469E+02 -0.33012597586E+00  0.89671275952E+00  0.20081016182E+02  0.00000000000E+00 0.  1.
</event>
<event>
 4    1  0.8391192E+003  0.2957000E+02  0.7546771E-02  0.1423370E+00
          2   -1    0    0  502    0  0.00000000000E+00  0.00000000000E+00  0.50571947742E+03  0.50571947742E+03  0.00000000000E+00 0.  1.
          2   -1    0    0  501    0 -0.00000000000E+00 -0.00000000000E+00 -0.34812713465E+01  0.34812713465E+01  0.00000000000E+00 0.  1.
          2    1    1    2  501    0  0.14145135024E+02  0.25967291625E+02  0.43174987370E+03  0.43276129508E+03  0.00000000000E+00 0.  1.
          2    1    1    2  502    0 -0.14145135024E+02 -0.25967291625E+02  0.70488332376E+02  0.76439453689E+02  0.00000000000E+00 0.  1.
</event>
<event>
 4    1  0.8391192E+003  0.4317487E+02  0.7546771E-02  0.1330822E+00
          2   -1    0    0  502    0  0.00000000000E+00  0.00000000000E+00  0.48716365294E+02  0.48716365294E+02  0.00000000000E+00 0. -1.
          2   -1    0    0  501    0 -0.00000000000E+00 -0.00000000000E+00 -0.24957689300E+03  0.24957689300E+03  0.00000000000E+00 0. -1.
          2    1    1    2  501    0 -0.10926006014E+02 -0.41769512053E+02  0.36807784372E+02  0.56735198378E+02  0.00000000000E+00 0. -1.
          2    1    1    2  502    0  0.10926006014E+02  0.41769512053E+02 -0.23766831207E+03  0.24155805991E+03  0.00000000000E+00 0. -1.
</event>
<event>
 4    1  0.8391192E+003  0.3398042E+02  0.7546771E-02  0.1387876E+00
          2   -1    0    0  501    0  0.00000000000E+00  0.00000000000E+00  0.33794831114E+03  0.33794831114E+03  0.00000000000E+00 0. -1.
          2   -1    0    0  502    0 -0.00000000000E+00 -0.00000000000E+00 -0.18510329866E+02  0.18510329866E+02  0.00000000000E+00 0. -1.
          2    1    1    2  501    0 -0.30997481627E+02 -0.13922109850E+02 -0.12228177653E+01  0.34002415991E+02  0.00000000000E+00 0. -1.
          2    1    1    2  502    0  0.30997481627E+02  0.13922109850E+02  0.32066079904E+03  0.32245622501E+03  0.00000000000E+00 0. -1.
</event>
<event>
 4    1  0.8391192E+003  0.3170664E+02  0.7546771E-02  0.1405324E+00
          2   -1    0    0  502    0  0.00000000000E+00  0.00000000000E+00  0.18830416919E+02  0.18830416919E+02  0.00000000000E+00 0. -1.
          2   -1    0    0  501    0 -0.00000000000E+00 -0.00000000000E+00 -0.11032658043E+04  0.11032658043E+04  0.00000000000E+00 0. -1.
          2    1    1    2  501    0  0.26146941589E+02  0.17934557546E+02  0.50873920526E+01  0.32112185642E+02  0.00000000000E+00 0. -1.
          2    1    1    2  502    0 -0.26146941589E+02 -0.17934557546E+02 -0.10895227795E+04  0.10899840356E+04  0.00000000000E+00 0. -1.
</event>
<event>
 4    1  0.8391192E+003  0.3241452E+02  0.7546771E-02  0.1399712E+00
          2   -1    0    0  501    0  0.00000000000E+00  0.00000000000E+00  0.32394712435E+03  0.32394712435E+03  0.00000000000E+00 0.  1.
          2   -1    0    0  502    0 -0.00000000000E+00 -0.00000000000E+00 -0.64875838815E+02  0.64875838815E+02  0.00000000000E+00 0.  1.
          2    1    1    2  501    0 -0.16899190833E+02  0.27660774392E+02 -0.59953780530E+02  0.68155387833E+02  0.00000000000E+00 0.  1.
          2    1    1    2  502    0  0.16899190833E+02 -0.27660774392E+02  0.31902506606E+03  0.32066757533E+03  0.00000000000E+00 0.  1.
</event>
<event>
 4    1  0.8391192E+003  0.2016411E+02  0.7546771E-02  0.1531542E+00
          2   -1    0    0  501    0  0.00000000000E+00  0.00000000000E+00  0.19021643220E+02  0.19021643220E+02  0.00000000000E+00 0. -1.
          2   -1    0    0  502    0 -0.00000000000E+00 -0.00000000000E+00 -0.56209790635E+02  0.56209790635E+02  0.00000000000E+00 0. -1.
          2    1    1    2  501    0  0.74126528959E+01 -0.18752168894E+02 -0.48206143893E+02  0.52253455103E+02  0.00000000000E+00 0. -1.
          2    1    1    2  502    0 -0.74126528959E+01  0.18752168894E+02  0.11017996477E+02  0.22977978753E+02  0.00000000000E+00 0. -1.
</event>
<event>
 4    1  0.8391192E+003  0.3967570E+02  0.7546771E-02  0.1350397E+00
          2   -1    0    0  501    0  0.00000000000E+00  0.00000000000E+00  0.13748991045E+03  0.13748991045E+03  0.00000000000E+00 0. -1.
          2   -1    0    0  502    0 -0.00000000000E+00 -0.00000000000E+00 -0.18036126822E+02  0.18036126822E+02  0.00000000000E+00 0. -1.
          2    1    1    2  501    0  0.31709299710E+02 -0.23847036320E+02  0.12733134545E+02  0.41668855812E+02  0.00000000000E+00 0. -1.
          2    1    1    2  502    0 -0.31709299710E+02  0.23847036320E+02  0.10672064908E+03  0.11385718146E+03  0.00000000000E+00 0. -1.
</event>
<event>
 4    1  0.8391192E+003  0.2410438E+02  0.7546771E-02  0.1479077E+00
          2   -1    0    0  502    0  0.00000000000E+00  0.00000000000E+00  0.15464698602E+04  0.15464698602E+04  0.00000000000E+00 0. -1.
          2   -1    0    0  501    0 -0.00000000000E+00 -0.00000000000E+00 -0.44639556079E+01  0.44639556079E+01  0.00000000000E+00 0.  1.
          2    1    1    2  501    0  0.15594939052E+02 -0.18379848655E+02  0.15131191938E+04  0.15133111761E+04  0.00000000000E+00 0. -1.
          2    1    1    2  502    0 -0.15594939052E+02  0.18379848655E+02  0.28886710783E+02  0.37622639732E+02  0.00000000000E+00 0.  1.
</event>
<event>
 4    1  0.8391192E+003  0.2237998E+02  0.7546771E-02  0.1500434E+00
          2   -1    0    0  502    0  0.00000000000E+00  0.00000000000E+00  0.82816165246E+01  0.82816165246E+01  0.00000000000E+00 0.  1.
          2   -1    0    0  501    0 -0.00000000000E+00 -0.00000000000E+00 -0.13855995195E+03  0.13855995195E+03  0.00000000000E+00 0.  1.
          2    1    1    2  501    0 -0.15118246797E+02 -0.16501580782E+02 -0.10023786191E+02  0.24522231630E+02  0.00000000000E+00 0.  1.
          2    1    1    2  502    0  0.15118246797E+02  0.16501580782E+02 -0.12025454923E+03  0.12231933684E+03  0.00000000000E+00 0.  1.
</event>
<event>
 4    1  0.8391192E+003  0.2389133E+02  0.7546771E-02  0.1481599E+00
          2   -1    0    0  501    0  0.00000000000E+00  0.00000000000E+00  0.27941902293E+03  0.27941902293E+03  0.00000000000E+00 0. -1.
          2   -1    0    0  502    0 -0.00000000000E+00 -0.00000000000E+00 -0.56282714722E+03  0.56282714722E+03  0.00000000000E+00 0. -1.
          2    1    1    2  501    0  0.22071841072E+02  0.91449200152E+01 -0.56206221426E+03  0.56256975428E+03  0.00000000000E+00 0. -1.
          2    1    1    2  502    0 -0.22071841072E+02 -0.91449200152E+01  0.27865408998E+03  0.27967641586E+03  0.00000000000E+00 0. -1.
</event>
<event>
 4    1  0.8391192E+003  0.2463470E+02  0.7546771E-02  0.1472932E+00
          2   -1    0    0  502    0  0.00000000000E+00  0.00000000000E+00  0.43605628290E+03  0.43605628290E+03  0.00000000000E+00 0.  1.
          2   -1    0    0  501    0 -0.00000000000E+00 -0.00000000000E+00 -0.22498351255E+03  0.22498351255E+03  0.00000000000E+00 0. -1.
          2    1    1    2  501    0 -0.55632557156E+01  0.23998305211E+02  0.43503241924E+03  0.43572935895E+03  0.00000000000E+00 0.  1.
          2    1    1    2  502    0  0.55632557156E+01 -0.23998305211E+02 -0.22395964889E+03  0.22531043650E+03  0.00000000000E+00 0. -1.
</event>
<event>
 4    1  0.8391192E+003  0.2965066E+02  0.7546771E-02  0.1422657E+00
          2   -1    0    0  501    0  0.00000000000E+00  0.00000000000E+00  0.88019918475E+01  0.88019918475E+01  0.00000000000E+00 0.  1.
          2   -1    0    0  502    0 -0.00000000000E+00 -0.00000000000E+00 -0.28823590313E+03  0.28823590313E+03  0.00000000000E+00 0.  1.
          2    1    1    2  501    0 -0.25596434894E+02 -0.14966095316E+02 -0.25977603642E+03  0.26146271357E+03  0.00000000000E+00 0.  1.
          2    1    1    2  502    0  0.25596434894E+02  0.14966095316E+02 -0.19657874866E+02  0.35575181413E+02  0.00000000000E+00 0.  1.
</event>
<event>
 4    1  0.8391192E+003  0.2696186E+02  0.7546771E-02  0.1447992E+00
          2   -1    0    0  501    0  0.00000000000E+00  0.00000000000E+00  0.96264356333E+01  0.96264356333E+01  0.00000000000E+00 0. -1.
          2   -1    0    0  502    0 -0.00000000000E+00 -0.00000000000E+00 -0.15666249104E+03  0.15666249104E+03  0.00000000000E+00 0.  1.
          2    1    1    2  501    0  0.10397993032E+02 -0.24876170878E+02 -0.13335751373E+03  0.13605575550E+03  0.00000000000E+00 0.  1.
          2    1    1    2  502    0 -0.10397993032E+02  0.24876170878E+02 -0.13678541675E+02  0.30233171170E+02  0.00000000000E+00 0. -1.
</event>
<event>
 4    1  0.8391192E+003  0.2153108E+02  0.7546771E-02  0.1511816E+00
          2   -1    0    0  501    0  0.00000000000E+00  0.00000000000E+00  0.13790034397E+01  0.13790034397E+01  0.00000000000E+00 0. -1.
          2   -1    0    0  502    0 -0.00000000000E+00 -0.00000000000E+00 -0.14757833016E+04  0.14757833016E+04  0.00000000000E+00 0.  1.
          2    1    1    2  501    0 -0.21472406652E+02  0.15884743160E+01 -0.13862318725E+04  0.13863990738E+04  0.00000000000E+00 0.  1.
          2    1    1    2  502    0  0.21472406652E+02 -0.15884743160E+01 -0.88172425614E+02  0.90763231194E+02  0.00000000000E+00 0. -1.
</event>
<event>
 4    1  0.8391192E+003  0.3151650E+02  0.7546771E-02  0.1406860E+00
          2   -1    0    0  502    0  0.00000000000E+00  0.00000000000E+00  0.17174614365E+03  0.17174614365E+03  0.00000000000E+00 0. -1.
          2   -1    0    0  501    0 -0.00000000000E+00 -0.00000000000E+00 -0.64313506204E+01  0.64313506204E+01  0.00000000000E+00 0. -1.
          2    1    1    2  501    0 -0.31495502433E+02 -0.11501551539E+01  0.11093337044E+03  0.11532346773E+03  0.00000000000E+00 0. -1.
          2    1    1    2  502    0  0.31495502433E+02  0.11501551539E+01  0.54381422586E+02  0.62854026545E+02  0.00000000000E+00 0. -1.
</event>
<event>
 4    1  0.8391192E+003  0.3186073E+02  0.7546771E-02  0.1404087E+00
          2   -1    0    0  502    0  0.00000000000E+00  0.00000000000E+00  0.45040801807E+01  0.45040801807E+01  0.00000000000E+00 0.  1.
          2   -1    0    0  501    0 -0.00000000000E+00 -0.00000000000E+00 -0.31799748848E+03  0.31799748848E+03  0.00000000000E+00 0. -1.
          2    1    1    2  501    0 -0.31563937214E+02 -0.43386802055E+01 -0.69720783649E+02  0.76655684401E+02  0.00000000000E+00 0.  1.
          2    1    1    2  502    0  0.31563937214E+02  0.43386802055E+01 -0.24377262465E+03  0.24584588426E+03  0.00000000000E+00 0. -1.
</event>
<event>
 4    1  0.8391192E+003  0.2871650E+02  0.7546771E-02  0.1431088E+00
          2   -1    0    0  501    0  0.00000000000E+00  0.00000000000E+00  0.19725012611E+02  0.19725012611E+02  0.00000000000E+00 0.  1.
          2   -1    0    0  502    0 -0.00000000000E+00 -0.00000000000E+00 -0.49375144396E+03  0.49375144396E+03  0.00000000000E+00 0. -1.
          2    1    1    2  501    0 -0.24235498421E+02  0.15403824441E+02 -0.48264187202E+03  0.48349541241E+03  0.00000000000E+00 0. -1.
          2    1    1    2  502    0  0.24235498421E+02 -0.15403824441E+02  0.86154406723E+01  0.29981044163E+02  0.00000000000E+00 0.  1.
</event>
<event>
 4    1  0.8391192E+003  0.2921736E+02  0.7546771E-02  0.1426522E+00
          2   -1    0    0  501    0  0.00000000000E+00  0.00000000000E+00  0.98815889976E+02  0.98815889976E+02  0.00000000000E+00 0. -1.
          2   -1    0    0  502    0 -0.00000000000E+00 -0.00000000000E+00 -0.65807057876E+03  0.65807057876E+03  0.00000000000E+00 0.  1.
          2    1    1    2  501    0 -0.69169502917E+01  0.28386787446E+02 -0.65557836271E+03  0.65622910905E+03  0.00000000000E+00 0.  1.
          2    1    1    2  502    0  0.69169502917E+01 -0.28386787446E+02  0.96323673923E+02  0.10065735970E+03  0.00000000000E+00 0. -1.
</event>
<event>
 4    1  0.8391192E+003  0.2582277E+02  0.7546771E-02  0.1459806E+00
          2   -1    0    0  502    0  0.00000000000E+00  0.00000000000E+00  0.25083334608E+02  0.25083334608E+02  0.00000000000E+00 0. -1.
          2   -1    0    0  501    0 -0.00000000000E+00 -0.00000000000E+00 -0.52624345454E+03  0.52624345454E+03  0.00000000000E+00 0.  1.
          2    1    1    2  501    0  0.23811887606E+02  0.99904642107E+01  0.18030326114E+02  0.31494571378E+02  0.00000000000E+00 0. -1.
          2    1    1    2  502    0 -0.23811887606E+02 -0.99904642107E+01 -0.51919044604E+03  0.51983221777E+03  0.00000000000E+00 0.  1.
</event>
<event>
 4    1  0.8391192E+003  0.3662989E+02  0.7546771E-02  0.1369453E+00
          2   -1    0    0  502    0  0.00000000000E+00  0.00000000000E+00  0.22134110954E+04  0.22134110954E+04  0.00000000000E+00 0.  1.
          2   -1    0    0  501    0 -0.00000000000E+00 -0.00000000000E+00 -0.18082994464E+01  0.18082994464E+01  0.00000000000E+00 0.  1.
          2    1    1    2  501    0  0.36565790025E+02 -0.21659872424E+01  0.20088757581E+04  0.20092096854E+04  0.00000000000E+00 0.  1.
          2    1    1    2  502    0 -0.36565790025E+02  0.21659872424E+01  0.20272703778E+03  0.20600970936E+03  0.00000000000E+00 0.  1.
</event>
<event>
 4    1  0.8391192E+003  0.2296885E+02  0.7546771E-02  0.1492890E+00
          2   -1    0    0  502    0  0.00000000000E+00  0.00000000000E+00  0.40939996657E+02  0.40939996657E+02  0.00000000000E+00 0.  1.
          2   -1    0    0  501    0 -0.00000000000E+00 -0.00000000000E+00 -0.14090409419E+02  0.14090409419E+02  0.00000000000E+00 0. -1.
          2    1    1    2  501    0  0.22631282014E+02  0.39233943302E+01  0.21468037756E+02  0.31439538701E+02  0.00000000000E+00 0. -1.
          2    1    1    2  502    0 -0.22631282014E+02 -0.39233943302E+01  0.53815494820E+01  0.23590867375E+02  0.00000000000E+00 0.  1.
</event>
<event>
 4    1  0.8391192E+003  0.9133046E+02  0.7546771E-02  0.1179743E+00
          2   -1    0    0  501    0  0.00000000000E+00  0.00000000000E+00  0.99340312921E+02  0.99340312921E+02  0.00000000000E+00 0.  1.
          2   -1    0    0  502    0 -0.00000000000E+00 -0.00000000000E+00 -0.52167973440E+03  0.52167973440E+03  0.00000000000E+00 0.  1.
          2    1    1    2  501    0  0.91083618405E+02 -0.67102315704E+01 -0.49559519641E+03  0.50394032529E+03  0.00000000000E+00 0.  1.
          2    1    1    2  502    0 -0.91083618405E+02  0.67102315704E+01  0.73255774932E+02  0.11707972203E+03  0.00000000000E+00 0.  1.
</event>
<event>
 4    1  0.8391192E+003  0.4737016E+02  0.7546771E-02  0.1309996E+00
          2   -1    0    0  501    0  0.00000000000E+00  0.00000000000E+00  0.31382602187E+02  0.31382602187E+02  0.00000000000E+00 0.  1.
          2   -1    0    0  502    0 -0.00000000000E+00 -0.00000000000E+00 -0.52765521978E+03  0.52765521978E+03  0.00000000000E+00 0. -1.
          2    1    1    2  501    0 -0.19626212642E+01  0.47329481947E+02 -0.50802731622E+03  0.51023101216E+03  0.00000000000E+00 0. -1.
          2    1    1    2  502    0  0.19626212642E+01 -0.47329481947E+02  0.11754698629E+02  0.48806809806E+02  0.00000000000E+00 0.  1.
</event>
<event>
 4    1  0.8391192E+003  0.3557746E+02  0.7546771E-02  0.1376548E+00
          2   -1    0    0  501    0  0.00000000000E+00  0.00000000000E+00  0.25718317942E+04  0.25718317942E+04  0.00000000000E+00 0.  1.
          2   -1    0    0  502    0 -0.00000000000E+00 -0.00000000000E+00 -0.15313552834E+01  0.15313552834E+01  0.00000000000E+00 0.  1.
          2    1    1    2  501    0  0.17488740229E+01 -0.35534451785E+02  0.22520984852E+03  0.22800270107E+03  0.00000000000E+00 0.  1.
          2    1    1    2  502    0 -0.17488740229E+01  0.35534451785E+02  0.23450905904E+04  0.23453604484E+04  0.00000000000E+00 0.  1.
</event>
<event>
 4    1  0.8391192E+003  0.2086520E+02  0.7546771E-02  0.1521198E+00
          2   -1    0    0  501    0  0.00000000000E+00  0.00000000000E+00  0.10416673434E+02  0.10416673434E+02  0.00000000000E+00 0.  1.
          2   -1    0    0  502    0 -0.00000000000E+00 -0.00000000000E+00 -0.81033397806E+03  0.81033397806E+03  0.00000000000E+00 0. -1.
          2    1    1    2  501    0  0.13279502720E+02  0.16093831831E+02 -0.79961101859E+03  0.79988320252E+03  0.00000000000E+00 0. -1.
          2    1    1    2  502    0 -0.13279502720E+02 -0.16093831831E+02 -0.30628602919E+00  0.20867448973E+02  0.00000000000E+00 0.  1.
</event>
<event>
 4    1  0.8391192E+003  0.4180568E+02  0.7546771E-02  0.1338217E+00
          2   -1    0    0  502    0  0.00000000000E+00  0.00000000000E+00  0.31577162487E+02  0.31577162487E+02  0.00000000000E+00 0.  1.
          2   -1    0    0  501    0 -0.00000000000E+00 -0.00000000000E+00 -0.12512210996E+03  0.12512210996E+03  0.00000000000E+00 0. -1.
          2    1    1    2  501    0 -0.34200721891E+02  0.24042166728E+02  0.11736010210E+02  0.43421758308E+02  0.00000000000E+00 0.  1.
          2    1    1    2  502    0  0.34200721891E+02 -0.24042166728E+02 -0.10528095769E+03  0.11327751414E+03  0.00000000000E+00 0. -1.
</event>
<event>
 4    1  0.8391192E+003  0.2284540E+02  0.7546771E-02  0.1494449E+00
          2   -1    0    0  501    0  0.00000000000E+00  0.00000000000E+00  0.86835162476E+02  0.86835162476E+02  0.00000000000E+00 0. -1.
          2   -1    0    0  502    0 -0.00000000000E+00 -0.00000000000E+00 -0.10751202647E+04  0.10751202647E+04  0.00000000000E+00 0.  1.
          2    1    1    2  501    0 -0.14761059570E+02  0.17436273594E+02 -0.10734940317E+04  0.10737370948E+04  0.00000000000E+00 0.  1.
          2    1    1    2  502    0  0.14761059570E+02 -0.17436273594E+02  0.85208929474E+02  0.88218332441E+02  0.00000000000E+00 0. -1.
</event>
<event>
 4    1  0.8391192E+003  0.4526991E+02  0.7546771E-02  0.1320095E+00
          2   -1    0    0  502    0  0.00000000000E+00  0.00000000000E+00  0.19649571678E+04  0.19649571678E+04  0.00000000000E+00 0. -1.
          2   -1    0    0  501    0 -0.00000000000E+00 -0.00000000000E+00 -0.96348691508E+02  0.96348691508E+02  0.00000000000E+00 0.  1.
          2    1    1    2  501    0 -0.37507156080E+02 -0.25349129721E+02  0.19593636764E+04  0.19598865737E+04  0.00000000000E+00 0. -1.
          2    1    1    2  502    0  0.37507156080E+02  0.25349129721E+02 -0.90755200171E+02  0.10141928561E+03  0.00000000000E+00 0.  1.
</event>
<event>
 4    1  0.8391192E+003  0.2160712E+02  0.7546771E-02  0.1510770E+00
          2   -1    0    0  501    0  0.00000000000E+00  0.00000000000E+00  0.71944411617E+00  0.71944411617E+00  0.00000000000E+00 0. -1.
          2   -1    0    0  502    0 -0.00000000000E+00 -0.00000000000E+00 -0.17370463092E+04  0.17370463092E+04  0.00000000000E+00 0.  1.
          2    1    1    2  501    0  0.56138382396E+01  0.20865105114E+02 -0.15558546838E+04  0.15560047124E+04  0.00000000000E+00 0.  1.
          2    1    1    2  502    0 -0.56138382396E+01 -0.20865105114E+02 -0.18047218124E+03  0.18176104091E+03  0.00000000000E+00 0. -1.
</event>
<event>
 4    1  0.8391192E+003  0.2470238E+02  0.7546771E-02  0.1472161E+00
          2   -1    0    0  502    0  0.00000000000E+00  0.00000000000E+00  0.54142763386E+03  0.54142763386E+03  0.00000000000E+00 0.  1.
          2   -1    0    0  501    0 -0.00000000000E+00 -0.00000000000E+00 -0.12743978504E+01  0.12743978504E+01  0.00000000000E+00 0. -1.
          2    1    1    2  501    0  0.20423033416E+02  0.13896304277E+02  0.36234944636E+03  0.36319048562E+03  0.00000000000E+00 0.  1.
          2    1    1    2  502    0 -0.20423033416E+02 -0.13896304277E+02  0.17780378965E+03  0.17951154609E+03  0.00000000000E+00 0. -1.
</event>
<event>
 4    1  0.8391192E+003  0.2789380E+02  0.7546771E-02  0.1438831E+00
          2   -1    0    0  502    0  0.00000000000E+00  0.00000000000E+00  0.37053177142E+01  0.37053177142E+01  0.00000000000E+00 0. -1.
          2   -1    0    0  501    0 -0.00000000000E+00 -0.00000000000E+00 -0.32402001666E+03  0.32402001666E+03  0.00000000000E+00 0.  1.
          2    1    1    2  501    0 -0.25194048658E+02  0.11971804655E+02 -0.62947192346E+02  0.68850658811E+02  0.00000000000E+00 0. -1.
          2    1    1    2  502    0  0.25194048658E+02 -0.11971804655E+02 -0.25736750660E+03  0.25887467556E+03  0.00000000000E+00 0.  1.
</event>
<event>
 4    1  0.8391192E+003  0.2548734E+02  0.7546771E-02  0.1463425E+00
          2   -1    0    0  501    0  0.00000000000E+00  0.00000000000E+00  0.79601115925E+03  0.79601115925E+03  0.00000000000E+00 0. -1.
          2   -1    0    0  502    0 -0.00000000000E+00 -0.00000000000E+00 -0.11123115415E+01  0.11123115415E+01  0.00000000000E+00 0.  1.
          2    1    1    2  501    0 -0.25483725212E+02  0.42942749022E+00  0.19176479840E+03  0.19345113741E+03  0.00000000000E+00 0.  1.
          2    1    1    2  502    0  0.25483725212E+02 -0.42942749022E+00  0.60313404931E+03  0.60367233338E+03  0.00000000000E+00 0. -1.
</event>
<event>
 4    1  0.8391192E+003  0.2305393E+02  0.7546771E-02  0.1491822E+00
          2   -1    0    0  502    0  0.00000000000E+00  0.00000000000E+00  0.32618700090E+03  0.32618700090E+03  0.00000000000E+00 0.  1.
          2   -1    0    0  501    0 -0.00000000000E+00 -0.00000000000E+00 -0.97471088517E+01  0.97471088517E+01  0.00000000000E+00 0.  1.
          2    1    1    2  501    0 -0.19201565847E+02  0.12758671831E+02  0.31150625479E+03  0.31235817680E+03  0.00000000000E+00 0.  1.
          2    1    1    2  502    0  0.19201565847E+02 -0.12758671831E+02  0.49336372506E+01  0.23575932948E+02  0.00000000000E+00 0.  1.
</event>
<event>
 4    1  0.8828833E+003  0.2479174E+02  0.7546771E-02  0.1471147E+00
          2   -1    0    0  502    0  0.00000000000E+00  0.00000000000E+00  0.11952852434E+04  0.11952852434E+04  0.00000000000E+00 0.  1.
          2   -1    0    0  501    0 -0.00000000000E+00 -0.00000000000E+00 -0.36651935508E+03  0.36651935508E+03  0.00000000000E+00 0.  1.
          2    1    1    2  501    0 -0.81299830475E+01 -0.23420793239E+02  0.11947372637E+04  0.11949944600E+04  0.00000000000E+00 0.  1.
          2    1    1    2  502    0  0.81299830475E+01  0.23420793239E+02 -0.36597137532E+03  0.36681013853E+03  0.00000000000E+00 0.  1.
</event>
<event>
 4    1  0.8391192E+003  0.4168508E+02  0.7546771E-02  0.1338884E+00
          2   -1    0    0  501    0  0.00000000000E+00  0.00000000000E+00  0.68617005716E+03  0.68617005716E+03  0.00000000000E+00 0.  1.
          2   -1    0    0  502    0 -0.00000000000E+00 -0.00000000000E+00 -0.13278636631E+02  0.13278636631E+02  0.00000000000E+00 0.  1.
          2    1    1    2  501    0  0.33042225384E+02 -0.25413724721E+02  0.21831997503E+02  0.47056159825E+02  0.00000000000E+00 0.  1.
          2    1    1    2  502    0 -0.33042225384E+02  0.25413724721E+02  0.65105942303E+03  0.65239253397E+03  0.00000000000E+00 0.  1.
</event>
<event>
 4    1  0.8391192E+003  0.2592089E+02  0.7546771E-02  0.1458760E+00
          2   -1    0    0  502    0  0.00000000000E+00  0.00000000000E+00  0.16492349499E+01  0.16492349499E+01  0.00000000000E+00 0.  1.
          2   -1    0    0  501    0 -0.00000000000E+00 -0.00000000000E+00 -0.73103572089E+03  0.73103572089E+03  0.00000000000E+00 0. -1.
          2    1    1    2  501    0  0.25814702603E+02  0.23438948600E+01 -0.12094107628E+03  0.12368765761E+03  0.00000000000E+00 0.  1.
          2    1    1    2  502    0 -0.25814702603E+02 -0.23438948600E+01 -0.60844540965E+03  0.60899729822E+03  0.00000000000E+00 0. -1.
</event>
<event>
 4    1  0.8391192E+003  0.3115113E+02  0.7546771E-02  0.1409850E+00
          2   -1    0    0  502    0  0.00000000000E+00  0.00000000000E+00  0.48910437006E+02  0.48910437006E+02  0.00000000000E+00 0. -1.
          2   -1    0    0  501    0 -0.00000000000E+00 -0.00000000000E+00 -0.71356636998E+02  0.71356636998E+02  0.00000000000E+00 0. -1.
          2    1    1    2  501    0 -0.64614012770E+01 -0.30473644483E+02  0.39871203538E+02  0.50597485966E+02  0.00000000000E+00 0. -1.
          2    1    1    2  502    0  0.64614012770E+01  0.30473644483E+02 -0.62317403531E+02  0.69669588038E+02  0.00000000000E+00 0. -1.
</event>
<event>
 4    1  0.8391192E+003  0.2604973E+02  0.7546771E-02  0.1457395E+00
          2   -1    0    0  502    0  0.00000000000E+00  0.00000000000E+00  0.88288110509E+01  0.88288110509E+01  0.00000000000E+00 0.  1.
          2   -1    0    0  501    0 -0.00000000000E+00 -0.00000000000E+00 -0.70859771884E+03  0.70859771884E+03  0.00000000000E+00 0. -1.
          2    1    1    2  501    0 -0.22574411356E+02  0.12999396172E+02 -0.11184034109E+02  0.28349091129E+02  0.00000000000E+00 0.  1.
          2    1    1    2  502    0  0.22574411356E+02 -0.12999396172E+02 -0.68858487368E+03  0.68907743877E+03  0.00000000000E+00 0. -1.
</event>
<event>
 4    1  0.8391192E+003  0.2539698E+02  0.7546771E-02  0.1464411E+00
          2   -1    0    0  502    0  0.00000000000E+00  0.00000000000E+00  0.36670758656E+01  0.36670758656E+01  0.00000000000E+00 0. -1.
          2   -1    0    0  501    0 -0.00000000000E+00 -0.00000000000E+00 -0.17719810731E+03  0.17719810731E+03  0.00000000000E+00 0. -1.
          2    1    1    2  501    0 -0.24698636895E+02 -0.59147225358E+01 -0.78999338634E+02  0.82981335924E+02  0.00000000000E+00 0. -1.
          2    1    1    2  502    0  0.24698636895E+02  0.59147225358E+01 -0.94531692806E+02  0.97883847247E+02  0.00000000000E+00 0. -1.
</event>
<event>
 4    1  0.8391192E+003  0.2891492E+02  0.7546771E-02  0.1429266E+00
          2   -1    0    0  502    0  0.00000000000E+00  0.00000000000E+00  0.76442210758E+03  0.76442210758E+03  0.00000000000E+00 0. -1.
          2   -1    0    0  501    0 -0.00000000000E+00 -0.00000000000E+00 -0.28180030304E+03  0.28180030304E+03  0.00000000000E+00 0.  1.
          2    1    1    2  501    0  0.25851003520E+02 -0.12953690479E+02  0.76340596353E+03  0.76395336091E+03  0.00000000000E+00 0. -1.
          2    1    1    2  502    0 -0.25851003520E+02  0.12953690479E+02 -0.28078415900E+03  0.28226904971E+03  0.00000000000E+00 0.  1.
</event>
<event>
 4    1  0.8391192E+003  0.2499034E+02  0.7546771E-02  0.1468911E+00
          2   -1    0    0  501    0  0.00000000000E+00  0.00000000000E+00  0.52403909988E+03  0.52403909988E+03  0.00000000000E+00 0.  1.
          2   -1    0    0  502    0 -0.00000000000E+00 -0.00000000000E+00 -0.35133093947E+01  0.35133093947E+01  0.00000000000E+00 0.  1.
          2    1    1    2  501    0  0.14407393414E+02  0.20419214137E+02  0.45841339982E+02  0.52210590327E+02  0.00000000000E+00 0.  1.
          2    1    1    2  502    0 -0.14407393414E+02 -0.20419214137E+02  0.47468445050E+03  0.47534181895E+03  0.00000000000E+00 0.  1.
</event>
<event>
 4    1  0.8391192E+003  0.2622948E+02  0.7546771E-02  0.1455505E+00
          2   -1    0    0  501    0  0.00000000000E+00  0.00000000000E+00  0.26050548927E+02  0.26050548927E+02  0.00000000000E+00 0.  1.
          2   -1    0    0  502    0 -0.00000000000E+00 -0.00000000000E+00 -0.62255357663E+02  0.62255357663E+02  0.00000000000E+00 0.  1.
          2    1    1    2  501    0  0.24737993288E+02  0.87187939426E+01 -0.51605891923E+02  0.57889150632E+02  0.00000000000E+00 0.  1.
          2    1    1    2  502    0 -0.24737993288E+02 -0.87187939426E+01  0.15401083186E+02  0.30416755958E+02  0.00000000000E+00 0.  1.
</event>
<event>
 4    1  0.8391192E+003  0.2424857E+02  0.7546771E-02  0.1477388E+00
          2   -1    0    0  501    0  0.00000000000E+00  0.00000000000E+00  0.12145547647E+04  0.12145547647E+04  0.00000000000E+00 0. -1.
          2   -1    0    0  502    0 -0.00000000000E+00 -0.00000000000E+00 -0.17106629421E+01  0.17106629421E+01  0.00000000000E+00 0. -1.
          2    1    1    2  501    0 -0.15092255385E+02  0.18979376526E+02  0.91481450714E+02  0.94640629386E+02  0.00000000000E+00 0. -1.
          2    1    1    2  502    0  0.15092255385E+02 -0.18979376526E+02  0.11213626510E+04  0.11216247982E+04  0.00000000000E+00 0. -1.
</event>
<event>
 4    1  0.8391192E+003  0.2349256E+02  0.7546771E-02  0.1486404E+00
          2   -1    0    0  501    0  0.00000000000E+00  0.00000000000E+00  0.97037847734E+03  0.97037847734E+03  0.00000000000E+00 0. -1.
          2   -1    0    0  502    0 -0.00000000000E+00 -0.00000000000E+00 -0.15917195102E+01  0.15917195102E+01  0.00000000000E+00 0.  1.
          2    1    1    2  501    0  0.23465467943E+02 -0.11278748751E+01  0.94791028237E+02  0.97658790295E+02  0.00000000000E+00 0.  1.
          2    1    1    2  502    0 -0.23465467943E+02  0.11278748751E+01  0.87399572959E+03  0.87431140655E+03  0.00000000000E+00 0. -1.
</event>
<event>
 4    1  0.8391192E+003  0.2081295E+02  0.7546771E-02  0.1521952E+00
          2   -1    0    0  501    0  0.00000000000E+00  0.00000000000E+00  0.33541396779E+03  0.33541396779E+03  0.00000000000E+00 0.  1.
          2   -1    0    0  502    0 -0.00000000000E+00 -0.00000000000E+00 -0.80435473792E+03  0.80435473792E+03  0.00000000000E+00 0. -1.
          2    1    1    2  501    0 -0.62829282548E+01  0.19841968449E+02 -0.80389704974E+03  0.80416642897E+03  0.00000000000E+00 0. -1.
          2    1    1    2  502    0  0.62829282548E+01 -0.19841968449E+02  0.33495627962E+03  0.33560227674E+03  0.00000000000E+00 0.  1.
</event>
<event>
 4    1  0.8391192E+003  0.3822794E+02  0.7546771E-02  0.1359195E+00
          2   -1    0    0  501    0  0.00000000000E+00  0.00000000000E+00  0.96961922175E+01  0.96961922175E+01  0.00000000000E+00 0. -1.
          2   -1    0    0  502    0 -0.00000000000E+00 -0.00000000000E+00 -0.88336648404E+03  0.88336648404E+03  0.00000000000E+00 0. -1.
          2    1    1    2  501    0 -0.26814606097E+02  0.27246139981E+02 -0.84349358085E+03  0.84435939989E+03  0.00000000000E+00 0. -1.
          2    1    1    2  502    0  0.26814606097E+02 -0.27246139981E+02 -0.30176710972E+02  0.48703276369E+02  0.00000000000E+00 0. -1.
</event>
<event>
 4    1  0.8391192E+003  0.2066089E+02  0.7546771E-02  0.1524162E+00
          2   -1    0    0  501    0  0.00000000000E+00  0.00000000000E+00  0.75757254757E+01  0.75757254757E+01  0.00000000000E+00 0. -1.
          2   -1    0    0  502    0 -0.00000000000E+00 -0.00000000000E+00 -0.12350525499E+04  0.12350525499E+04  0.00000000000E+00 0. -1.
          2    1    1    2  501    0  0.20659449801E+02 -0.24399677011E+00 -0.12207138386E+04  0.12208886715E+04  0.00000000000E+00 0. -1.
          2    1    1    2  502    0 -0.20659449801E+02  0.24399677011E+00 -0.67629858326E+01  0.21739603903E+02  0.00000000000E+00 0. -1.
</event>
<event>
 4    1  0.8391192E+003  0.2758394E+02  0.7546771E-02  0.1441829E+00
          2   -1    0    0  502    0  0.00000000000E+00  0.00000000000E+00  0.18921699059E+03  0.18921699059E+03  0.00000000000E+00 0. -1.
          2   -1    0    0  501    0 -0.00000000000E+00 -0.00000000000E+00 -0.18617829367E+03  0.18617829367E+03  0.00000000000E+00 0. -1.
          2    1    1    2  501    0 -0.11122455227E+02 -0.25242124107E+02  0.18717893255E+03  0.18920049320E+03  0.00000000000E+00 0. -1.
          2    1    1    2  502    0  0.11122455227E+02  0.25242124107E+02 -0.18414023562E+03  0.18619479105E+03  0.00000000000E+00 0. -1.
</event>
<event>
 4    1  0.8391192E+003  0.4135207E+02  0.7546771E-02  0.1340740E+00
          2   -1    0    0  502    0  0.00000000000E+00  0.00000000000E+00  0.14670536341E+04  0.14670536341E+04  0.00000000000E+00 0. -1.
          2   -1    0    0  501    0 -0.00000000000E+00 -0.00000000000E+00 -0.20215790940E+01  0.20215790940E+01  0.00000000000E+00 0. -1.
          2    1    1    2  501    0  0.41334304219E+02 -0.12121045624E+01  0.12104863205E+04  0.12111924397E+04  0.00000000000E+00 0. -1.
          2    1    1    2  502    0 -0.41334304219E+02  0.12121045624E+01  0.25454573455E+03  0.25788277352E+03  0.00000000000E+00 0. -1.
</event>
<event>
 4    1  0.8391192E+003  0.4097829E+02  0.7546771E-02  0.1342846E+00
          2   -1    0    0  501    0  0.00000000000E+00  0.00000000000E+00  0.14971092424E+03  0.14971092424E+03  0.00000000000E+00 0. -1.
          2   -1    0    0  502    0 -0.00000000000E+00 -0.00000000000E+00 -0.73883384474E+02  0.73883384474E+02  0.00000000000E+00 0. -1.
          2    1    1    2  501    0 -0.10582532101E+02 -0.39588259260E+02 -0.65048165116E+02  0.76879672488E+02  0.00000000000E+00 0. -1.
          2    1    1    2  502    0  0.10582532101E+02  0.39588259260E+02  0.14087570488E+03  0.14671463622E+03  0.00000000000E+00 0. -1.
</event>
<event>
 4    1  0.8391192E+003  0.3231155E+02  0.7546771E-02  0.1400518E+00
          2   -1    0    0  501    0  0.00000000000E+00  0.00000000000E+00  0.19999121804E+03  0.19999121804E+03  0.00000000000E+00 0.  1.
          2   -1    0    0  502    0 -0.00000000000E+00 -0.00000000000E+00 -0.19410982541E+03  0.19410982541E+03  0.00000000000E+00 0. -1.
          2    1    1    2  501    0  0.32274014698E+02  0.15569070333E+01 -0.19144201783E+03  0.19414963861E+03  0.00000000000E+00 0. -1.
          2    1    1    2  502    0 -0.32274014698E+02 -0.15569070333E+01  0.19732341045E+03  0.19995140484E+03  0.00000000000E+00 0.  1.
</event>
<event>
 4    1  0.8391192E+003  0.2293912E+02  0.7546771E-02  0.1493264E+00
          2   -1    0    0  501    0  0.00000000000E+00  0.00000000000E+00  0.52531357492E+03  0.52531357492E+03  0.00000000000E+00 0.  1.
          2   -1    0    0  502    0 -0.00000000000E+00 -0.00000000000E+00 -0.38499902375E+01  0.38499902375E+01  0.00000000000E+00 0.  1.
          2    1    1    2  501    0  0.21905122698E+02  0.68094815038E+01  0.33157760084E+02  0.40319232291E+02  0.00000000000E+00 0.  1.
          2    1    1    2  502    0 -0.21905122698E+02 -0.68094815038E+01  0.48830582460E+03  0.48884433287E+03  0.00000000000E+00 0.  1.
</event>
<event>
 4    1  0.8391192E+003  0.2022764E+02  0.7546771E-02  0.1530584E+00
          2   -1    0    0  502    0  0.00000000000E+00  0.00000000000E+00  0.94769176009E+01  0.94769176009E+01  0.00000000000E+00 0.  1.
          2   -1    0    0  501    0 -0.00000000000E+00 -0.00000000000E+00 -0.89473193332E+02  0.89473193332E+02  0.00000000000E+00 0. -1.
          2    1    1    2  501    0  0.20221612365E+02 -0.49395402175E+00 -0.75587971725E+02  0.78247677708E+02  0.00000000000E+00 0. -1.
          2    1    1    2  502    0 -0.20221612365E+02  0.49395402175E+00 -0.44083040059E+01  0.20702433225E+02  0.00000000000E+00 0.  1.
</event>
<event>
 4    1  0.8391192E+003  0.2115438E+02  0.7546771E-02  0.1517072E+00
          2   -1    0    0  502    0  0.00000000000E+00  0.00000000000E+00  0.11636666990E+04  0.11636666990E+04  0.00000000000E+00 0. -1.
          2   -1    0    0  501    0 -0.00000000000E+00 -0.00000000000E+00 -0.38752143418E+00  0.38752143418E+00  0.00000000000E+00 0.  1.
          2    1    1    2  501    0 -0.14663575323E+02 -0.15247533537E+02  0.53081916654E+03  0.53124052489E+03  0.00000000000E+00 0.  1.
          2    1    1    2  502    0  0.14663575323E+02  0.15247533537E+02  0.63246001100E+03  0.63281369552E+03  0.00000000000E+00 0. -1.
</event>
<event>
 4    1  0.8879843E+003  0.2709922E+02  0.7546771E-02  0.1446614E+00
          2   -1    0    0  501    0  0.00000000000E+00  0.00000000000E+00  0.60765740409E+03  0.60765740409E+03  0.00000000000E+00 0. -1.
          2   -1    0    0  502    0 -0.00000000000E+00 -0.00000000000E+00 -0.65895263852E+03  0.65895263852E+03  0.00000000000E+00 0. -1.
          2    1    1    2  501    0  0.19826549819E+02 -0.18473646925E+02 -0.65837162963E+03  0.65892910879E+03  0.00000000000E+00 0. -1.
          2    1    1    2  502    0 -0.19826549819E+02  0.18473646925E+02  0.60707639521E+03  0.60768093382E+03  0.00000000000E+00 0. -1.
</event>
<event>
 4    1  0.8391192E+003  0.2448245E+02  0.7546771E-02  0.1474677E+00
          2   -1    0    0  502    0  0.00000000000E+00  0.00000000000E+00  0.13000097921E+04  0.13000097921E+04  0.00000000000E+00 0. -1.
          2   -1    0    0  501    0 -0.00000000000E+00 -0.00000000000E+00 -0.56430325741E+00  0.56430325741E+00  0.00000000000E+00 0.  1.
          2    1    1    2  501    0  0.23161277927E+02 -0.79338089060E+01  0.92786525567E+03  0.92818819363E+03  0.00000000000E+00 0. -1.
          2    1    1    2  502    0 -0.23161277927E+02  0.79338089060E+01  0.37158023317E+03  0.37238590172E+03  0.00000000000E+00 0.  1.
</event>
<event>
 4    1  0.8391192E+003  0.2310951E+02  0.7546771E-02  0.1491128E+00
          2   -1    0    0  501    0  0.00000000000E+00  0.00000000000E+00  0.39198181821E+03  0.39198181821E+03  0.00000000000E+00 0.  1.
          2   -1    0    0  502    0 -0.00000000000E+00 -0.00000000000E+00 -0.63585540377E+01  0.63585540377E+01  0.00000000000E+00 0.  1.
          2    1    1    2  501    0 -0.18272964115E+02 -0.14147383091E+02  0.16264143592E+02  0.28259016838E+02  0.00000000000E+00 0.  1.
          2    1    1    2  502    0  0.18272964115E+02  0.14147383091E+02  0.36935912058E+03  0.37008135541E+03  0.00000000000E+00 0.  1.
</event>
<event>
 4    1  0.8391192E+003  0.2032753E+02  0.7546771E-02  0.1529086E+00
          2   -1    0    0  502    0  0.00000000000E+00  0.00000000000E+00  0.35345175596E+01  0.35345175596E+01  0.00000000000E+00 0.  1.
          2   -1    0    0  501    0 -0.00000000000E+00 -0.00000000000E+00 -0.28303368861E+03  0.28303368861E+03  0.00000000000E+00 0.  1.
          2    1    1    2  501    0 -0.17992126302E+02 -0.94600047568E+01 -0.24952351729E+03  0.25035014276E+03  0.00000000000E+00 0.  1.
          2    1    1    2  502    0  0.17992126302E+02  0.94600047568E+01 -0.29975653765E+02  0.36218063415E+02  0.00000000000E+00 0.  1.
</event>
<event>
 4    1  0.8391192E+003  0.2367386E+02  0.7546771E-02  0.1484205E+00
          2   -1    0    0  502    0  0.00000000000E+00  0.00000000000E+00  0.62917154599E+03  0.62917154599E+03  0.00000000000E+00 0. -1.
          2   -1    0    0  501    0 -0.00000000000E+00 -0.00000000000E+00 -0.41126694029E+01  0.41126694029E+01  0.00000000000E+00 0. -1.
          2    1    1    2  501    0  0.23474632870E+02  0.30648804537E+01  0.59279016759E+03  0.59326270292E+03  0.00000000000E+00 0. -1.
          2    1    1    2  502    0 -0.23474632870E+02 -0.30648804537E+01  0.32268709000E+02  0.40021512479E+02  0.00000000000E+00 0. -1.
</event>
<event>
 4    1  0.8391192E+003  0.2703303E+02  0.7546771E-02  0.1447277E+00
          2   -1    0    0  501    0  0.00000000000E+00  0.00000000000E+00  0.18512274447E+04  0.18512274447E+04  0.00000000000E+00 0. -1.
          2   -1    0    0  502    0 -0.00000000000E+00 -0.00000000000E+00 -0.86976509591E+00  0.86976509591E+00  0.00000000000E+00 0.  1.
          2    1    1    2  501    0  0.53949155805E+01  0.26489235016E+02  0.24082079679E+03  0.24233332592E+03  0.00000000000E+00 0.  1.
          2    1    1    2  502    0 -0.53949155805E+01 -0.26489235016E+02  0.16095368828E+04  0.16097638838E+04  0.00000000000E+00 0. -1.
</event>
<event>
 4    1  0.8391192E+003  0.2631197E+02  0.7546771E-02  0.1454645E+00
          2   -1    0    0  501    0  0.00000000000E+00  0.00000000000E+00  0.28402352200E+01  0.28402352200E+01  0.00000000000E+00 0. -1.
          2   -1    0    0  502    0 -0.00000000000E+00 -0.00000000000E+00 -0.52867091015E+03  0.52867091015E+03  0.00000000000E+00 0. -1.
          2    1    1    2  501    0  0.15575987901E+02  0.21206331471E+02 -0.45801138206E+03  0.45876654847E+03  0.00000000000E+00 0. -1.
          2    1    1    2  502    0 -0.15575987901E+02 -0.21206331471E+02 -0.67819292869E+02  0.72744596905E+02  0.00000000000E+00 0. -1.
</event>
<event>
 4    1  0.8391192E+003  0.2230308E+02  0.7546771E-02  0.1501440E+00
          2   -1    0    0  502    0  0.00000000000E+00  0.00000000000E+00  0.36431826361E+03  0.36431826361E+03  0.00000000000E+00 0.  1.
          2   -1    0    0  501    0 -0.00000000000E+00 -0.00000000000E+00 -0.24906274512E+01  0.24906274512E+01  0.00000000000E+00 0. -1.
          2    1    1    2  501    0 -0.26391620140E+01  0.22146376350E+02  0.30419094838E+03  0.30500747570E+03  0.00000000000E+00 0.  1.
          2    1    1    2  502    0  0.26391620140E+01 -0.22146376350E+02  0.57636687783E+02  0.61801415357E+02  0.00000000000E+00 0. -1.
</event>
<event>
 4    1  0.8391192E+003  0.2086878E+02  0.7546771E-02  0.1521147E+00
          2   -1    0    0  501    0  0.00000000000E+00  0.00000000000E+00  0.22055542126E+03  0.22055542126E+03  0.00000000000E+00 0.  1.
          2   -1    0    0  502    0 -0.00000000000E+00 -0.00000000000E+00 -0.39193494718E+03  0.39193494718E+03  0.00000000000E+00 0. -1.
          2    1    1    2  501    0 -0.17099217002E+02 -0.11963392141E+02 -0.39116253396E+03  0.39171882001E+03  0.00000000000E+00 0. -1.
          2    1    1    2  502    0  0.17099217002E+02  0.11963392141E+02  0.21978300804E+03  0.22077154843E+03  0.00000000000E+00 0.  1.
</event>
<event>
 4    1  0.8391192E+003  0.2006008E+02  0.7546771E-02  0.1533119E+00
          2   -1    0    0  502    0  0.00000000000E+00  0.00000000000E+00  0.90638148858E+01  0.90638148858E+01  0.00000000000E+00 0. -1.
          2   -1    0    0  501    0 -0.00000000000E+00 -0.00000000000E+00 -0.18386727769E+03  0.18386727769E+03  0.00000000000E+00 0.  1.
          2    1    1    2  501    0  0.18811037844E+02 -0.69679046945E+01 -0.33859780417E+01  0.20343836607E+02  0.00000000000E+00 0. -1.
          2    1    1    2  502    0 -0.18811037844E+02  0.69679046945E+01 -0.17141748476E+03  0.17258725597E+03  0.00000000000E+00 0.  1.
</event>
<event>
 4    1  0.8391192E+003  0.2202167E+02  0.7546771E-02  0.1505163E+00
          2   -1    0    0  502    0  0.00000000000E+00  0.00000000000E+00  0.34752336091E+02  0.34752336091E+02  0.00000000000E+00 0. -1.
          2   -1    0    0  501    0 -0.00000000000E+00 -0.00000000000E+00 -0.17112741442E+03  0.17112741442E+03  0.00000000000E+00 0.  1.
          2    1    1    2  501    0 -0.13332980017E+02 -0.17526708398E+02  0.30465984422E+02  0.37591622340E+02  0.00000000000E+00 0. -1.
          2    1    1    2  502    0  0.13332980017E+02  0.17526708398E+02 -0.16684106275E+03  0.16828812817E+03  0.00000000000E+00 0.  1.
</event>
<event>
 4    1  0.8391192E+003  0.2523449E+02  0.7546771E-02  0.1466197E+00
          2   -1    0    0  501    0  0.00000000000E+00  0.00000000000E+00  0.61419059240E+02  0.61419059240E+02  0.00000000000E+00 0.  1.
          2   -1    0    0  502    0 -0.00000000000E+00 -0.00000000000E+00 -0.10636123034E+02  0.10636123034E+02  0.00000000000E+00 0. -1.
          2    1    1    2  501    0  0.21903613846E+02 -0.12530417626E+02  0.19668994225E+02  0.31994515143E+02  0.00000000000E+00 0. -1.
          2    1    1    2  502    0 -0.21903613846E+02  0.12530417626E+02  0.31113941981E+02  0.40060667131E+02  0.00000000000E+00 0.  1.
</event>
<event>
 4    1  0.8391192E+003  0.2523278E+02  0.7546771E-02  0.1466216E+00
          2   -1    0    0  501    0  0.00000000000E+00  0.00000000000E+00  0.55200278330E+01  0.55200278330E+01  0.00000000000E+00 0. -1.
          2   -1    0    0  502    0 -0.00000000000E+00 -0.00000000000E+00 -0.82386659365E+03  0.82386659365E+03  0.00000000000E+00 0. -1.
          2    1    1    2  501    0 -0.16148598166E+02  0.19388557445E+02 -0.79374374019E+03  0.79414470878E+03  0.00000000000E+00 0. -1.
          2    1    1    2  502    0  0.16148598166E+02 -0.19388557445E+02 -0.24602825624E+02  0.35241912706E+02  0.00000000000E+00 0. -1.
</event>
<event>
 4    1  0.8391192E+003  0.8264409E+02  0.7546771E-02  0.1197839E+00
          2   -1    0    0  502    0  0.00000000000E+00  0.00000000000E+00  0.16931140643E+04  0.16931140643E+04  0.00000000000E+00 0. -1.
          2   -1    0    0  501    0 -0.00000000000E+00 -0.00000000000E+00 -0.24530584376E+03  0.24530584376E+03  0.00000000000E+00 0.  1.
          2    1    1    2  501    0 -0.44198046498E+02  0.69832507400E+02  0.16851117796E+04  0.16871371480E+04  0.00000000000E+00 0. -1.
          2    1    1    2  502    0  0.44198046498E+02 -0.69832507400E+02 -0.23730355902E+03  0.25128276011E+03  0.00000000000E+00 0.  1.
</event>
<event>
 4    1  0.8391192E+003  0.2395529E+02  0.7546771E-02  0.1480839E+00
          2   -1    0    0  502    0  0.00000000000E+00  0.00000000000E+00  0.14204098570E+02  0.14204098570E+02  0.00000000000E+00 0. -1.
          2   -1    0    0  501    0 -0.00000000000E+00 -0.00000000000E+00 -0.13388031859E+04  0.13388031859E+04  0.00000000000E+00 0.  1.
          2    1    1    2  501    0  0.51057131366E+01 -0.23404867614E+02  0.39185639913E+01  0.24273674596E+02  0.00000000000E+00 0. -1.
          2    1    1    2  502    0 -0.51057131366E+01  0.23404867614E+02 -0.13285176513E+04  0.13287336099E+04  0.00000000000E+00 0.  1.
</event>
<event>
 4    1  0.8391192E+003  0.2506026E+02  0.7546771E-02  0.1468130E+00
          2   -1    0    0  501    0  0.00000000000E+00  0.00000000000E+00  0.25696313905E+01  0.25696313905E+01  0.00000000000E+00 0. -1.
          2   -1    0    0  502    0 -0.00000000000E+00 -0.00000000000E+00 -0.26540162245E+03  0.26540162245E+03  0.00000000000E+00 0. -1.
          2    1    1    2  501    0  0.10920459024E+02 -0.22555712074E+02 -0.93724945321E+02  0.97017431155E+02  0.00000000000E+00 0. -1.
          2    1    1    2  502    0 -0.10920459024E+02  0.22555712074E+02 -0.16910704574E+03  0.17095382269E+03  0.00000000000E+00 0. -1.
</event>
<event>
 4    1  0.8391192E+003  0.2152774E+02  0.7546771E-02  0.1511862E+00
          2   -1    0    0  501    0  0.00000000000E+00  0.00000000000E+00  0.99488097180E+00  0.99488097180E+00  0.00000000000E+00 0.  1.
          2   -1    0    0  502    0 -0.00000000000E+00 -0.00000000000E+00 -0.15662215209E+04  0.15662215209E+04  0.00000000000E+00 0.  1.
          2    1    1    2  501    0 -0.20111795742E+02  0.76784882920E+01 -0.14394333253E+04  0.14395942975E+04  0.00000000000E+00 0.  1.
          2    1    1    2  502    0  0.20111795742E+02 -0.76784882920E+01 -0.12579331467E+03  0.12762210438E+03  0.00000000000E+00 0.  1.
</event>
<event>
 4    1  0.8391192E+003  0.2194742E+02  0.7546771E-02  0.1506156E+00
          2   -1    0    0  501    0  0.00000000000E+00  0.00000000000E+00  0.58831221649E+02  0.58831221649E+02  0.00000000000E+00 0.  1.
          2   -1    0    0  502    0 -0.00000000000E+00 -0.00000000000E+00 -0.82828675546E+01  0.82828675546E+01  0.00000000000E+00 0.  1.
          2    1    1    2  501    0 -0.21799784689E+02  0.25414053641E+01  0.21676222561E+02  0.30847171317E+02  0.00000000000E+00 0.  1.
          2    1    1    2  502    0  0.21799784689E+02 -0.25414053641E+01  0.28872131533E+02  0.36266917886E+02  0.00000000000E+00 0.  1.
</event>
<event>
 4    1  0.8391192E+003  0.2384448E+02  0.7546771E-02  0.1482158E+00
          2   -1    0    0  501    0  0.00000000000E+00  0.00000000000E+00  0.33584627468E+01  0.33584627468E+01  0.00000000000E+00 0. -1.
          2   -1    0    0  502    0 -0.00000000000E+00 -0.00000000000E+00 -0.72348155615E+03  0.72348155615E+03  0.00000000000E+00 0.  1.
          2    1    1    2  501    0  0.11060576440E+02 -0.21123993484E+02 -0.67813281305E+03  0.67855189307E+03  0.00000000000E+00 0.  1.
          2    1    1    2  502    0 -0.11060576440E+02  0.21123993484E+02 -0.41990280356E+02  0.48288125831E+02  0.00000000000E+00 0. -1.
</event>
<event>
 4    1  0.8391192E+003  0.3328320E+02  0.7546771E-02  0.1393052E+00
          2   -1    0    0  502    0  0.00000000000E+00  0.00000000000E+00  0.42747376753E+03  0.42747376753E+03  0.00000000000E+00 0.  1.
          2   -1    0    0  501    0 -0.00000000000E+00 -0.00000000000E+00 -0.87930585305E+01  0.87930585305E+01  0.00000000000E+00 0. -1.
          2    1    1    2  501    0  0.52597618360E+00  0.33279044729E+02  0.39253164887E+03  0.39394018180E+03  0.00000000000E+00 0.  1.
          2    1    1    2  502    0 -0.52597618360E+00 -0.33279044729E+02  0.26149060130E+02  0.42326644265E+02  0.00000000000E+00 0. -1.
</event>
<event>
 4    1  0.8391192E+003  0.2164045E+02  0.7546771E-02  0.1510314E+00
          2   -1    0    0  502    0  0.00000000000E+00  0.00000000000E+00  0.15594853136E+03  0.15594853136E+03  0.00000000000E+00 0.  1.
          2   -1    0    0  501    0 -0.00000000000E+00 -0.00000000000E+00 -0.11750228890E+02  0.11750228890E+02  0.00000000000E+00 0. -1.
          2    1    1    2  501    0  0.14509972601E+02 -0.16055212598E+02  0.14444483411E+03  0.14605690417E+03  0.00000000000E+00 0.  1.
          2    1    1    2  502    0 -0.14509972601E+02  0.16055212598E+02 -0.24653163990E+00  0.21641856073E+02  0.00000000000E+00 0. -1.
</event>
<event>
 4    1  0.8391192E+003  0.2050867E+02  0.7546771E-02  0.1526397E+00
          2   -1    0    0  502    0  0.00000000000E+00  0.00000000000E+00  0.19169308002E+04  0.19169308002E+04  0.00000000000E+00 0.  1.
          2   -1    0    0  501    0 -0.00000000000E+00 -0.00000000000E+00 -0.27843791040E+00  0.27843791040E+00  0.00000000000E+00 0.  1.
          2    1    1    2  501    0  0.90287489020E+01  0.18414318838E+02  0.13996746916E+04  0.13998249347E+04  0.00000000000E+00 0.  1.
          2    1    1    2  502    0 -0.90287489020E+01 -0.18414318838E+02  0.51697767071E+03  0.51738430345E+03  0.00000000000E+00 0.  1.
</event>
<event>
 4    1  0.8391192E+003  0.2827537E+02  0.7546771E-02  0.1435201E+00
          2   -1    0    0  501    0  0.00000000000E+00  0.00000000000E+00  0.18855282564E+01  0.18855282564E+01  0.00000000000E+00 0. -1.
          2   -1    0    0  502    0 -0.00000000000E+00 -0.00000000000E+00 -0.14047451042E+04  0.14047451042E+04  0.00000000000E+00 0. -1.
          2    1    1    2  501    0  0.53847326642E+01 -0.27757906966E+02 -0.12890889868E+04  0.12893990509E+04  0.00000000000E+00 0. -1.
          2    1    1    2  502    0 -0.53847326642E+01  0.27757906966E+02 -0.11377058922E+03  0.11723158156E+03  0.00000000000E+00 0. -1.
</event>
<event>
 4    1  0.8391192E+003  0.2019543E+02  0.7546771E-02  0.1531069E+00
          2   -1    0    0  502    0  0.00000000000E+00  0.00000000000E+00  0.73166676782E+03  0.73166676782E+03  0.00000000000E+00 0. -1.
          2   -1    0    0  501    0 -0.00000000000E+00 -0.00000000000E+00 -0.59070111474E+01  0.59070111474E+01  0.00000000000E+00 0. -1.
          2    1    1    2  501    0  0.18632288076E+02 -0.77905943944E+01  0.71383479299E+03  0.71412041505E+03  0.00000000000E+00 0. -1.
          2    1    1    2  502    0 -0.18632288076E+02  0.77905943944E+01  0.11924963689E+02  0.23453363916E+02  0.00000000000E+00 0. -1.
</event>
<event>
 4    1  0.8391192E+003  0.3653011E+02  0.7546771E-02  0.1370114E+00
          2   -1    0    0  502    0  0.00000000000E+00  0.00000000000E+00  0.25068885475E+03  0.25068885475E+03  0.00000000000E+00 0.  1.
          2   -1    0    0  501    0 -0.00000000000E+00 -0.00000000000E+00 -0.31419170271E+03  0.31419170271E+03  0.00000000000E+00 0. -1.
          2    1    1    2  501    0  0.32237201222E+02  0.17181738469E+02  0.24828604020E+03  0.25095897481E+03  0.00000000000E+00 0.  1.
          2    1    1    2  502    0 -0.32237201222E+02 -0.17181738469E+02 -0.31178888815E+03  0.31392158265E+03  0.00000000000E+00 0. -1.
</event>
<event>
 4    1  0.8391192E+003  0.2065341E+02  0.7546771E-02  0.1524271E+00
          2   -1    0    0  502    0  0.00000000000E+00  0.00000000000E+00  0.10595081256E+04  0.10595081256E+04  0.00000000000E+00 0.  1.
          2   -1    0    0  501    0 -0.00000000000E+00 -0.00000000000E+00 -0.10345588104E+03  0.10345588104E+03  0.00000000000E+00 0.  1.
          2    1    1    2  501    0 -0.20301204305E+02  0.37979544933E+01  0.10583755857E+04  0.10585770845E+04  0.00000000000E+00 0.  1.
          2    1    1    2  502    0  0.20301204305E+02 -0.37979544933E+01 -0.10232334120E+03  0.10438692212E+03  0.00000000000E+00 0.  1.
</event>
<event>
 4    1  0.8391192E+003  0.3098063E+02  0.7546771E-02  0.1411262E+00
          2   -1    0    0  502    0  0.00000000000E+00  0.00000000000E+00  0.64920226505E+03  0.64920226505E+03  0.00000000000E+00 0.  1.
          2   -1    0    0  501    0 -0.00000000000E+00 -0.00000000000E+00 -0.20314205263E+02  0.20314205263E+02  0.00000000000E+00 0. -1.
          2    1    1    2  501    0 -0.74665170461E+01  0.30067430169E+02  0.63679064704E+03  0.63754382389E+03  0.00000000000E+00 0.  1.
          2    1    1    2  502    0  0.74665170461E+01 -0.30067430169E+02 -0.79025872494E+01  0.31972646418E+02  0.00000000000E+00 0. -1.
</event>
<event>
 4    1  0.8391192E+003  0.3305415E+02  0.7546771E-02  0.1394785E+00
          2   -1    0    0  502    0  0.00000000000E+00  0.00000000000E+00  0.21319256758E+01  0.21319256758E+01  0.00000000000E+00 0. -1.
          2   -1    0    0  501    0 -0.00000000000E+00 -0.00000000000E+00 -0.68788935708E+03  0.68788935708E+03  0.00000000000E+00 0. -1.
          2    1    1    2  501    0 -0.29471116465E+02 -0.14967634643E+02 -0.16865984037E+03  0.17186831746E+03  0.00000000000E+00 0. -1.
          2    1    1    2  502    0  0.29471116465E+02  0.14967634643E+02 -0.51709759104E+03  0.51815296530E+03  0.00000000000E+00 0. -1.
</event>
<event>
 4    1  0.8391192E+003  0.3000285E+02  0.7546771E-02  0.1419572E+00
          2   -1    0    0  501    0  0.00000000000E+00  0.00000000000E+00  0.15014243029E+02  0.15014243029E+02  0.00000000000E+00 0.  1.
          2   -1    0    0  502    0 -0.00000000000E+00 -0.00000000000E+00 -0.36524110309E+03  0.36524110309E+03  0.00000000000E+00 0. -1.
          2    1    1    2  501    0 -0.27577731407E+02  0.11816936266E+02 -0.34893729089E+03  0.35022479100E+03  0.00000000000E+00 0. -1.
          2    1    1    2  502    0  0.27577731407E+02 -0.11816936266E+02 -0.12895691663E+01  0.30030555121E+02  0.00000000000E+00 0.  1.
</event>
<event>
 4    1  0.8391192E+003  0.3084331E+02  0.7546771E-02  0.1412407E+00
          2   -1    0    0  502    0  0.00000000000E+00  0.00000000000E+00  0.72336675019E+01  0.72336675019E+01  0.00000000000E+00 0.  1.
          2   -1    0    0  501    0 -0.00000000000E+00 -0.00000000000E+00 -0.40718331788E+03  0.40718331788E+03  0.00000000000E+00 0. -1.
          2    1    1    2  501    0  0.16620833292E+02  0.25981873735E+02 -0.29480937578E+02  0.42666562348E+02  0.00000000000E+00 0.  1.
          2    1    1    2  502    0 -0.16620833292E+02 -0.25981873735E+02 -0.37046871280E+03  0.37175042304E+03  0.00000000000E+00 0. -1.
</event>
<event>
 4    1  0.8391192E+003  0.2687088E+02  0.7546771E-02  0.1448909E+00
          2   -1    0    0  501    0  0.00000000000E+00  0.00000000000E+00  0.19275208031E+02  0.19275208031E+02  0.00000000000E+00 0. -1.
          2   -1    0    0  502    0 -0.00000000000E+00 -0.00000000000E+00 -0.19411053926E+03  0.19411053926E+03  0.00000000000E+00 0.  1.
          2    1    1    2  501    0  0.68746386511E+01  0.25976596177E+02 -0.18326436621E+03  0.18522384330E+03  0.00000000000E+00 0.  1.
          2    1    1    2  502    0 -0.68746386511E+01 -0.25976596177E+02  0.84290349812E+01  0.28161903988E+02  0.00000000000E+00 0. -1.
</event>
<event>
 4    1  0.8391192E+003  0.2885439E+02  0.7546771E-02  0.1429820E+00
          2   -1    0    0  502    0  0.00000000000E+00  0.00000000000E+00  0.10070591484E+02  0.10070591484E+02  0.00000000000E+00 0. -1.
          2   -1    0    0  501    0 -0.00000000000E+00 -0.00000000000E+00 -0.58012612928E+03  0.58012612928E+03  0.00000000000E+00 0.  1.
          2    1    1    2  501    0  0.17864594738E+02  0.22659037096E+02 -0.11764508139E+02  0.31160541700E+02  0.00000000000E+00 0. -1.
          2    1    1    2  502    0 -0.17864594738E+02 -0.22659037096E+02 -0.55829102965E+03  0.55903617906E+03  0.00000000000E+00 0.  1.
</event>
<event>
 4    1  0.8391192E+003  0.2290598E+02  0.7546771E-02  0.1493682E+00
          2   -1    0    0  502    0  0.00000000000E+00  0.00000000000E+00  0.10158941066E+02  0.10158941066E+02  0.00000000000E+00 0. -1.
          2   -1    0    0  501    0 -0.00000000000E+00 -0.00000000000E+00 -0.56476950089E+03  0.56476950089E+03  0.00000000000E+00 0.  1.
          2    1    1    2  501    0 -0.16830504491E+02  0.15537626694E+02 -0.33002683400E+01  0.23142504095E+02  0.00000000000E+00 0. -1.
          2    1    1    2  502    0  0.16830504491E+02 -0.15537626694E+02 -0.55131029148E+03  0.55178593786E+03  0.00000000000E+00 0.  1.
</event>
<event>
 4    1  0.8391192E+003  0.2681432E+02  0.7546771E-02  0.1449482E+00
          2   -1    0    0  502    0  0.00000000000E+00  0.00000000000E+00  0.13968946478E+04  0.13968946478E+04  0.00000000000E+00 0. -1.
          2   -1    0    0  501    0 -0.00000000000E+00 -0.00000000000E+00 -0.58457191420E+00  0.58457191420E+00  0.00000000000E+00 0.  1.
          2    1    1    2  501    0  0.26719096810E+02 -0.22577884166E+01  0.45661467858E+03  0.45740132536E+03  0.00000000000E+00 0.  1.
          2    1    1    2  502    0 -0.26719096810E+02  0.22577884166E+01  0.93969539733E+03  0.94007789438E+03  0.00000000000E+00 0. -1.
</event>
<event>
 4    1  0.8391192E+003  0.3833679E+02  0.7546771E-02  0.1358518E+00
          2   -1    0    0  502    0  0.00000000000E+00  0.00000000000E+00  0.20955809783E+02  0.20955809783E+02  0.00000000000E+00 0. -1.
          2   -1    0    0  501    0 -0.00000000000E+00 -0.00000000000E+00 -0.72869242000E+02  0.72869242000E+02  0.00000000000E+00 0. -1.
          2    1    1    2  501    0 -0.37274252722E+02  0.89632148563E+01 -0.16867302110E+02  0.41883350117E+02  0.00000000000E+00 0. -1.
          2    1    1    2  502    0  0.37274252722E+02 -0.89632148563E+01 -0.35046130107E+02  0.51941701666E+02  0.00000000000E+00 0. -1.
</event>
<event>
 4    1  0.8391192E+003  0.2953932E+02  0.7546771E-02  0.1423643E+00
          2   -1    0    0  502    0  0.00000000000E+00  0.00000000000E+00  0.11134154848E+02  0.11134154848E+02  0.00000000000E+00 0. -1.
          2   -1    0    0  501    0 -0.00000000000E+00 -0.00000000000E+00 -0.30052798242E+03  0.30052798242E+03  0.00000000000E+00 0.  1.
          2    1    1    2  501    0 -0.23180345258E+02  0.18309643425E+02 -0.10715785978E+02  0.31422913897E+02  0.00000000000E+00 0. -1.
          2    1    1    2  502    0  0.23180345258E+02 -0.18309643425E+02 -0.27867804160E+03  0.28023922337E+03  0.00000000000E+00 0.  1.
</event>
<event>
 4    1  0.8391192E+003  0.2080995E+02  0.7546771E-02  0.1521996E+00
          2   -1    0    0  501    0  0.00000000000E+00  0.00000000000E+00  0.45381569668E+03  0.45381569668E+03  0.00000000000E+00 0. -1.
          2   -1    0    0  502    0 -0.00000000000E+00 -0.00000000000E+00 -0.13053009052E+01  0.13053009052E+01  0.00000000000E+00 0.  1.
          2    1    1    2  501    0 -0.11225928942E+02  0.17522338136E+02  0.10824314838E+03  0.11022537360E+03  0.00000000000E+00 0.  1.
          2    1    1    2  502    0  0.11225928942E+02 -0.17522338136E+02  0.34426724740E+03  0.34489562398E+03  0.00000000000E+00 0. -1.
</event>
