<event>
 4    1  0.3196713E+003  0.2134923E+02  0.7546771E-02  0.1514337E+00
          2   -1    0    0  501    0  0.00000000000E+00  0.00000000000E+00  0.40573216572E+01  0.40573216572E+01  0.00000000000E+00 0.  1.
         -2   -1    0    0    0  501 -0.00000000000E+00 -0.00000000000E+00 -0.21159285214E+03  0.21159285214E+03  0.00000000000E+00 0.  1.
          2    1    1    2  502    0 -0.99037415702E+01  0.18913109992E+02 -0.29918523170E+02  0.36754698411E+02  0.00000000000E+00 0.  1.
         -2    1    1    2    0  502  0.99037415702E+01 -0.18913109992E+02 -0.17761700731E+03  0.17889547538E+03  0.00000000000E+00 0.  1.
</event>
<event>
 4    1  0.3196713E+003  0.5153239E+02  0.7546771E-02  0.1291662E+00
          2   -1    0    0  501    0  0.00000000000E+00  0.00000000000E+00  0.15752866265E+04  0.15752866265E+04  0.00000000000E+00 0.  1.
         -2   -1    0    0    0  501 -0.00000000000E+00 -0.00000000000E+00 -0.27398849877E+01  0.27398849877E+01  0.00000000000E+00 0. -1.
          2    1    1    2  502    0  0.45230236762E+02 -0.24694392096E+02  0.12756688858E+04  0.12767093222E+04  0.00000000000E+00 0.  1.
         -2    1    1    2    0  502 -0.45230236762E+02  0.24694392096E+02  0.29687785571E+03  0.30131718924E+03  0.00000000000E+00 0. -1.
</event>
<event>
 4    1  0.3196713E+003  0.2850491E+02  0.7546771E-02  0.1433050E+00
          2   -1    0    0  501    0  0.00000000000E+00  0.00000000000E+00  0.36465221413E+03  0.36465221413E+03  0.00000000000E+00 0. -1.
         -2   -1    0    0    0  501 -0.00000000000E+00 -0.00000000000E+00 -0.79824192555E+01  0.79824192555E+01  0.00000000000E+00 0.  1.
          2    1    1    2  502    0 -0.14930626707E+02  0.24281805445E+02  0.33652450683E+03  0.33772958619E+03  0.00000000000E+00 0. -1.
         -2    1    1    2    0  502  0.14930626707E+02 -0.24281805445E+02  0.20145288047E+02  0.34905047200E+02  0.00000000000E+00 0.  1.
</event>
<event>
 4    1  0.3196713E+003  0.2449130E+02  0.7546771E-02  0.1474575E+00
          2   -1    0    0  501    0  0.00000000000E+00  0.00000000000E+00  0.41182364078E+02  0.41182364078E+02  0.00000000000E+00 0. -1.
         -2   -1    0    0    0  501 -0.00000000000E+00 -0.00000000000E+00 -0.33294848219E+02  0.33294848219E+02  0.00000000000E+00 0.  1.
          2    1    1    2  502    0  0.16218098911E+02  0.18352027733E+02  0.31873782407E+02  0.40196537900E+02  0.00000000000E+00 0. -1.
         -2    1    1    2    0  502 -0.16218098911E+02 -0.18352027733E+02 -0.23986266548E+02  0.34280674397E+02  0.00000000000E+00 0.  1.
</event>
<event>
 4    1  0.3196713E+003  0.2112638E+02  0.7546771E-02  0.1517468E+00
          2   -1    0    0  501    0  0.00000000000E+00  0.00000000000E+00  0.17256058850E+03  0.17256058850E+03  0.00000000000E+00 0. -1.
         -2   -1    0    0    0  501 -0.00000000000E+00 -0.00000000000E+00 -0.86951614743E+01  0.86951614743E+01  0.00000000000E+00 0. -1.
          2    1    1    2  502    0 -0.72848276381E+01  0.19830664593E+02  0.15789478900E+03  0.15930187810E+03  0.00000000000E+00 0. -1.
         -2    1    1    2    0  502  0.72848276381E+01 -0.19830664593E+02  0.59706380247E+01  0.21953871876E+02  0.00000000000E+00 0. -1.
</event>
<event>
 4    1  0.3196713E+003  0.3362028E+02  0.7546771E-02  0.1390531E+00
          2   -1    0    0  501    0  0.00000000000E+00  0.00000000000E+00  0.68892289170E+03  0.68892289170E+03  0.00000000000E+00 0.  1.
         -2   -1    0    0    0  501 -0.00000000000E+00 -0.00000000000E+00 -0.73701868169E+01  0.73701868169E+01  0.00000000000E+00 0.  1.
          2    1    1    2  502    0  0.26263694115E+02  0.20989083312E+02  0.64773529225E+03  0.64860722481E+03  0.00000000000E+00 0.  1.
         -2    1    1    2    0  502 -0.26263694115E+02 -0.20989083312E+02  0.33817412636E+02  0.47685853712E+02  0.00000000000E+00 0.  1.
</event>
<event>
 4    1  0.3196713E+003  0.3196755E+02  0.7546771E-02  0.1403235E+00
          2   -1    0    0  501    0  0.00000000000E+00  0.00000000000E+00  0.20058693248E+04  0.20058693248E+04  0.00000000000E+00 0.  1.
         -2   -1    0    0    0  501 -0.00000000000E+00 -0.00000000000E+00 -0.82298359549E+00  0.82298359549E+00  0.00000000000E+00 0.  1.
          2    1    1    2  502    0  0.17121789340E+02 -0.26995719170E+02  0.16218007630E+04  0.16221157910E+04  0.00000000000E+00 0.  1.
         -2    1    1    2    0  502 -0.17121789340E+02  0.26995719170E+02  0.38324557824E+03  0.38457651744E+03  0.00000000000E+00 0.  1.
</event>
<event>
 4    1  0.3196713E+003  0.3076261E+02  0.7546771E-02  0.1413083E+00
          2   -1    0    0  501    0  0.00000000000E+00  0.00000000000E+00  0.12417261319E+04  0.12417261319E+04  0.00000000000E+00 0. -1.
         -2   -1    0    0    0  501 -0.00000000000E+00 -0.00000000000E+00 -0.11003546930E+01  0.11003546930E+01  0.00000000000E+00 0.  1.
          2    1    1    2  502    0 -0.20333777520E+02 -0.23084094893E+02  0.96484247752E+03  0.96533276355E+03  0.00000000000E+00 0. -1.
         -2    1    1    2    0  502  0.20333777520E+02  0.23084094893E+02  0.27578329973E+03  0.27749372309E+03  0.00000000000E+00 0.  1.
</event>
<event>
 4    1  0.3196713E+003  0.2532057E+02  0.7546771E-02  0.1465249E+00
          2   -1    0    0  501    0  0.00000000000E+00  0.00000000000E+00  0.23177079510E+03  0.23177079510E+03  0.00000000000E+00 0. -1.
         -2   -1    0    0    0  501 -0.00000000000E+00 -0.00000000000E+00 -0.30011799785E+01  0.30011799785E+01  0.00000000000E+00 0. -1.
          2    1    1    2  502    0 -0.39003847620E+01  0.25018356007E+02  0.14722900785E+03  0.14939046787E+03  0.00000000000E+00 0. -1.
         -2    1    1    2    0  502  0.39003847620E+01 -0.25018356007E+02  0.81540607273E+02  0.85381507207E+02  0.00000000000E+00 0. -1.
</event>
<event>
 4    1  0.3196713E+003  0.2219325E+02  0.7546771E-02  0.1502885E+00
          2   -1    0    0  501    0  0.00000000000E+00  0.00000000000E+00  0.33060265067E+03  0.33060265067E+03  0.00000000000E+00 0.  1.
         -2   -1    0    0    0  501 -0.00000000000E+00 -0.00000000000E+00 -0.29327654483E+01  0.29327654483E+01  0.00000000000E+00 0.  1.
          2    1    1    2  502    0  0.19146736800E+02 -0.11222418936E+02  0.28081112468E+03  0.28168675503E+03  0.00000000000E+00 0.  1.
         -2    1    1    2    0  502 -0.19146736800E+02  0.11222418936E+02  0.46858760542E+02  0.51848661086E+02  0.00000000000E+00 0.  1.
</event>
<event>
 4    1  0.3196713E+003  0.2177953E+02  0.7546771E-02  0.1508420E+00
          2   -1    0    0  501    0  0.00000000000E+00  0.00000000000E+00  0.44766266297E+03  0.44766266297E+03  0.00000000000E+00 0.  1.
         -2   -1    0    0    0  501 -0.00000000000E+00 -0.00000000000E+00 -0.20745301712E+01  0.20745301712E+01  0.00000000000E+00 0. -1.
          2    1    1    2  502    0  0.15006379338E+02  0.15784693769E+02  0.38007816037E+03  0.38070166268E+03  0.00000000000E+00 0.  1.
         -2    1    1    2    0  502 -0.15006379338E+02 -0.15784693769E+02  0.65509972431E+02  0.69035530461E+02  0.00000000000E+00 0. -1.
</event>
<event>
 4    1  0.3196713E+003  0.2459659E+02  0.7546771E-02  0.1473367E+00
          2   -1    0    0  501    0  0.00000000000E+00  0.00000000000E+00  0.98996827833E+02  0.98996827833E+02  0.00000000000E+00 0. -1.
         -2   -1    0    0    0  501 -0.00000000000E+00 -0.00000000000E+00 -0.25400569381E+02  0.25400569381E+02  0.00000000000E+00 0. -1.
          2    1    1    2  502    0 -0.22873642377E+02 -0.90437183191E+01  0.91000496203E+02  0.94266020738E+02  0.00000000000E+00 0. -1.
         -2    1    1    2    0  502  0.22873642377E+02  0.90437183191E+01 -0.17404237752E+02  0.30131376476E+02  0.00000000000E+00 0. -1.
</event>
<event>
 4    1  0.3196713E+003  0.2394690E+02  0.7546771E-02  0.1480938E+00
          2   -1    0    0  501    0  0.00000000000E+00  0.00000000000E+00  0.96441271696E+03  0.96441271696E+03  0.00000000000E+00 0.  1.
         -2   -1    0    0    0  501 -0.00000000000E+00 -0.00000000000E+00 -0.60735688689E+00  0.60735688689E+00  0.00000000000E+00 0.  1.
          2    1    1    2  502    0  0.54964977067E+01 -0.23307563856E+02  0.55179116449E+03  0.55231054962E+03  0.00000000000E+00 0.  1.
         -2    1    1    2    0  502 -0.54964977067E+01  0.23307563856E+02  0.41201419559E+03  0.41270952423E+03  0.00000000000E+00 0.  1.
</event>
<event>
 4    1  0.3196713E+003  0.2640450E+02  0.7546771E-02  0.1453683E+00
          2   -1    0    0  501    0  0.00000000000E+00  0.00000000000E+00  0.62317080963E+02  0.62317080963E+02  0.00000000000E+00 0. -1.
         -2   -1    0    0    0  501 -0.00000000000E+00 -0.00000000000E+00 -0.14806884706E+02  0.14806884706E+02  0.00000000000E+00 0. -1.
          2    1    1    2  502    0  0.20210453661E+02  0.16992206235E+02  0.42819388867E+02  0.50306039130E+02  0.00000000000E+00 0. -1.
         -2    1    1    2    0  502 -0.20210453661E+02 -0.16992206235E+02  0.46908073897E+01  0.26817926540E+02  0.00000000000E+00 0. -1.
</event>
<event>
 4    1  0.3196713E+003  0.2201163E+02  0.7546771E-02  0.1505297E+00
          2   -1    0    0  501    0  0.00000000000E+00  0.00000000000E+00  0.29074779453E+02  0.29074779453E+02  0.00000000000E+00 0. -1.
         -2   -1    0    0    0  501 -0.00000000000E+00 -0.00000000000E+00 -0.33284743601E+02  0.33284743601E+02  0.00000000000E+00 0. -1.
          2    1    1    2  502    0 -0.73430945458E+01 -0.20750678864E+02  0.19927889283E+02  0.29692296679E+02  0.00000000000E+00 0. -1.
         -2    1    1    2    0  502  0.73430945458E+01  0.20750678864E+02 -0.24137853430E+02  0.32667226375E+02  0.00000000000E+00 0. -1.
</event>
<event>
 4    1  0.3196713E+003  0.2935186E+02  0.7546771E-02  0.1425314E+00
          2   -1    0    0  501    0  0.00000000000E+00  0.00000000000E+00  0.32219273043E+03  0.32219273043E+03  0.00000000000E+00 0. -1.
         -2   -1    0    0    0  501 -0.00000000000E+00 -0.00000000000E+00 -0.26935415889E+01  0.26935415889E+01  0.00000000000E+00 0. -1.
          2    1    1    2  502    0  0.67265139500E+01 -0.28570717627E+02  0.17359847061E+03  0.17606237785E+03  0.00000000000E+00 0. -1.
         -2    1    1    2    0  502 -0.67265139500E+01  0.28570717627E+02  0.14590071823E+03  0.14882389417E+03  0.00000000000E+00 0. -1.
</event>
<event>
 4    1  0.3196713E+003  0.2206539E+02  0.7546771E-02  0.1504580E+00
          2   -1    0    0  501    0  0.00000000000E+00  0.00000000000E+00  0.11782865278E+01  0.11782865278E+01  0.00000000000E+00 0. -1.
         -2   -1    0    0    0  501 -0.00000000000E+00 -0.00000000000E+00 -0.45128650206E+03  0.45128650206E+03  0.00000000000E+00 0. -1.
          2    1    1    2  502    0  0.30952184969E+01  0.21847219218E+02 -0.15934138664E+03  0.16086192483E+03  0.00000000000E+00 0. -1.
         -2    1    1    2    0  502 -0.30952184969E+01 -0.21847219218E+02 -0.29076682889E+03  0.29160286375E+03  0.00000000000E+00 0. -1.
</event>
<event>
 4    1  0.3196713E+003  0.2144409E+02  0.7546771E-02  0.1513018E+00
          2   -1    0    0  501    0  0.00000000000E+00  0.00000000000E+00  0.82090880433E+03  0.82090880433E+03  0.00000000000E+00 0. -1.
         -2   -1    0    0    0  501 -0.00000000000E+00 -0.00000000000E+00 -0.14423744373E+01  0.14423744373E+01  0.00000000000E+00 0. -1.
          2    1    1    2  502    0 -0.12463296470E+02 -0.17450361898E+02  0.73130120628E+03  0.73161554330E+03  0.00000000000E+00 0. -1.
         -2    1    1    2    0  502  0.12463296470E+02  0.17450361898E+02  0.88165223613E+02  0.90735635469E+02  0.00000000000E+00 0. -1.
</event>
<event>
 4    1  0.3196713E+003  0.2381702E+02  0.7546771E-02  0.1482486E+00
          2   -1    0    0  501    0  0.00000000000E+00  0.00000000000E+00  0.51183113497E+01  0.51183113497E+01  0.00000000000E+00 0. -1.
         -2   -1    0    0    0  501 -0.00000000000E+00 -0.00000000000E+00 -0.15435448438E+03  0.15435448438E+03  0.00000000000E+00 0.  1.
          2    1    1    2  502    0  0.20893800302E+02 -0.11432375493E+02 -0.11696052238E+03  0.11936085580E+03  0.00000000000E+00 0.  1.
         -2    1    1    2    0  502 -0.20893800302E+02  0.11432375493E+02 -0.32275650647E+02  0.40111939933E+02  0.00000000000E+00 0. -1.
</event>
<event>
 4    1  0.3196713E+003  0.2534405E+02  0.7546771E-02  0.1464991E+00
          2   -1    0    0  501    0  0.00000000000E+00  0.00000000000E+00  0.40770524917E+02  0.40770524917E+02  0.00000000000E+00 0. -1.
         -2   -1    0    0    0  501 -0.00000000000E+00 -0.00000000000E+00 -0.39846825414E+02  0.39846825414E+02  0.00000000000E+00 0. -1.
          2    1    1    2  502    0 -0.25166078826E+02 -0.29982529718E+01  0.31804853965E+02  0.40667797827E+02  0.00000000000E+00 0. -1.
         -2    1    1    2    0  502  0.25166078826E+02  0.29982529718E+01 -0.30881154462E+02  0.39949552504E+02  0.00000000000E+00 0. -1.
</event>
<event>
 4    1  0.3196713E+003  0.2407876E+02  0.7546771E-02  0.1479379E+00
          2   -1    0    0  501    0  0.00000000000E+00  0.00000000000E+00  0.16242478431E+03  0.16242478431E+03  0.00000000000E+00 0. -1.
         -2   -1    0    0    0  501 -0.00000000000E+00 -0.00000000000E+00 -0.75035216642E+01  0.75035216642E+01  0.00000000000E+00 0. -1.
          2    1    1    2  502    0  0.14000684473E+02  0.19589990088E+02  0.13898081027E+03  0.14105124069E+03  0.00000000000E+00 0. -1.
         -2    1    1    2    0  502 -0.14000684473E+02 -0.19589990088E+02  0.15940452375E+02  0.28877065282E+02  0.00000000000E+00 0. -1.
</event>
<event>
 4    1  0.3196713E+003  0.2682264E+02  0.7546771E-02  0.1449398E+00
          2   -1    0    0  501    0  0.00000000000E+00  0.00000000000E+00  0.90813799937E+00  0.90813799937E+00  0.00000000000E+00 0.  1.
         -2   -1    0    0    0  501 -0.00000000000E+00 -0.00000000000E+00 -0.79249788610E+03  0.79249788610E+03  0.00000000000E+00 0. -1.
          2    1    1    2  502    0  0.23181833859E+02 -0.13492836422E+02 -0.38849961019E+03  0.38942444860E+03  0.00000000000E+00 0.  1.
         -2    1    1    2    0  502 -0.23181833859E+02  0.13492836422E+02 -0.40309013791E+03  0.40398157549E+03  0.00000000000E+00 0. -1.
</event>
<event>
 4    1  0.3196713E+003  0.3102652E+02  0.7546771E-02  0.1410881E+00
          2   -1    0    0  501    0  0.00000000000E+00  0.00000000000E+00  0.61587549800E+03  0.61587549800E+03  0.00000000000E+00 0. -1.
         -2   -1    0    0    0  501 -0.00000000000E+00 -0.00000000000E+00 -0.67611377231E+01  0.67611377231E+01  0.00000000000E+00 0.  1.
          2    1    1    2  502    0  0.22325911042E+02  0.21545275437E+02  0.57752818486E+03  0.57836100276E+03  0.00000000000E+00 0. -1.
         -2    1    1    2    0  502 -0.22325911042E+02 -0.21545275437E+02  0.31586175418E+02  0.44275632972E+02  0.00000000000E+00 0.  1.
</event>
<event>
 4    1  0.3196713E+003  0.3231934E+02  0.7546771E-02  0.1400457E+00
          2   -1    0    0  501    0  0.00000000000E+00  0.00000000000E+00  0.37846609599E+03  0.37846609599E+03  0.00000000000E+00 0. -1.
         -2   -1    0    0    0  501 -0.00000000000E+00 -0.00000000000E+00 -0.75606035098E+01  0.75606035098E+01  0.00000000000E+00 0.  1.
          2    1    1    2  502    0  0.18874837991E+01 -0.32264173364E+02  0.33925413465E+03  0.34079012215E+03  0.00000000000E+00 0. -1.
         -2    1    1    2    0  502 -0.18874837991E+01  0.32264173364E+02  0.31651357836E+02  0.45236577355E+02  0.00000000000E+00 0.  1.
</event>
<event>
 4    1  0.3196713E+003  0.5599258E+02  0.7546771E-02  0.1274092E+00
          2   -1    0    0  501    0  0.00000000000E+00  0.00000000000E+00  0.30671574313E+04  0.30671574313E+04  0.00000000000E+00 0. -1.
         -2   -1    0    0    0  501 -0.00000000000E+00 -0.00000000000E+00 -0.10120987030E+03  0.10120987030E+03  0.00000000000E+00 0. -1.
          2    1    1    2  502    0 -0.49516637602E+02 -0.26139469705E+02  0.30591373585E+04  0.30596497426E+04  0.00000000000E+00 0. -1.
         -2    1    1    2    0  502  0.49516637602E+02  0.26139469705E+02 -0.93189797500E+02  0.10871755900E+03  0.00000000000E+00 0. -1.
</event>
<event>
 4    1  0.3196713E+003  0.2421114E+02  0.7546771E-02  0.1477825E+00
          2   -1    0    0  501    0  0.00000000000E+00  0.00000000000E+00  0.37975609633E+03  0.37975609633E+03  0.00000000000E+00 0. -1.
         -2   -1    0    0    0  501 -0.00000000000E+00 -0.00000000000E+00 -0.11603802322E+02  0.11603802322E+02  0.00000000000E+00 0.  1.
          2    1    1    2  502    0 -0.22894028047E+02 -0.78767320786E+01  0.36627691807E+03  0.36707623206E+03  0.00000000000E+00 0. -1.
         -2    1    1    2    0  502  0.22894028047E+02  0.78767320786E+01  0.18753759368E+01  0.24283666596E+02  0.00000000000E+00 0.  1.
</event>
<event>
 4    1  0.3196713E+003  0.2364537E+02  0.7546771E-02  0.1484549E+00
          2   -1    0    0  501    0  0.00000000000E+00  0.00000000000E+00  0.74194496105E+00  0.74194496105E+00  0.00000000000E+00 0.  1.
         -2   -1    0    0    0  501 -0.00000000000E+00 -0.00000000000E+00 -0.18629793474E+04  0.18629793474E+04  0.00000000000E+00 0.  1.
          2    1    1    2  502    0 -0.26476052452E+01 -0.23496670824E+02 -0.21201098993E+03  0.21332548653E+03  0.00000000000E+00 0.  1.
         -2    1    1    2    0  502  0.26476052452E+01  0.23496670824E+02 -0.16502264125E+04  0.16503958058E+04  0.00000000000E+00 0.  1.
</event>
<event>
 4    1  0.3196713E+003  0.3785102E+02  0.7546771E-02  0.1361561E+00
          2   -1    0    0  501    0  0.00000000000E+00  0.00000000000E+00  0.13569281581E+04  0.13569281581E+04  0.00000000000E+00 0.  1.
         -2   -1    0    0    0  501 -0.00000000000E+00 -0.00000000000E+00 -0.58932816876E+02  0.58932816876E+02  0.00000000000E+00 0. -1.
          2    1    1    2  502    0 -0.74604052665E+01  0.37108516998E+02  0.13505578544E+04  0.13510881606E+04  0.00000000000E+00 0.  1.
         -2    1    1    2    0  502  0.74604052665E+01 -0.37108516998E+02 -0.52562513210E+02  0.64772814325E+02  0.00000000000E+00 0. -1.
</event>
<event>
 4    1  0.3196713E+003  0.2449106E+02  0.7546771E-02  0.1474578E+00
          2   -1    0    0  501    0  0.00000000000E+00  0.00000000000E+00  0.10785012824E+03  0.10785012824E+03  0.00000000000E+00 0.  1.
         -2   -1    0    0    0  501 -0.00000000000E+00 -0.00000000000E+00 -0.32809595351E+02  0.32809595351E+02  0.00000000000E+00 0.  1.
          2    1    1    2  502    0 -0.20950619373E+02 -0.12683992469E+02  0.10161275492E+03  0.10452255297E+03  0.00000000000E+00 0.  1.
         -2    1    1    2    0  502  0.20950619373E+02  0.12683992469E+02 -0.26572222029E+02  0.36137170623E+02  0.00000000000E+00 0.  1.
</event>
<event>
 4    1  0.3196713E+003  0.2050128E+02  0.7546771E-02  0.1526506E+00
          2   -1    0    0  501    0  0.00000000000E+00  0.00000000000E+00  0.90552084495E+03  0.90552084495E+03  0.00000000000E+00 0. -1.
         -2   -1    0    0    0  501 -0.00000000000E+00 -0.00000000000E+00 -0.61028099309E+00  0.61028099309E+00  0.00000000000E+00 0. -1.
          2    1    1    2  502    0 -0.19308112672E+02 -0.68919674189E+01  0.67415197201E+03  0.67446362674E+03  0.00000000000E+00 0. -1.
         -2    1    1    2    0  502  0.19308112672E+02  0.68919674189E+01  0.23075859195E+03  0.23166749921E+03  0.00000000000E+00 0. -1.
</event>
<event>
 4    1  0.3196713E+003  0.2149694E+02  0.7546771E-02  0.1512287E+00
          2   -1    0    0  501    0  0.00000000000E+00  0.00000000000E+00  0.12442533430E+02  0.12442533430E+02  0.00000000000E+00 0.  1.
         -2   -1    0    0    0  501 -0.00000000000E+00 -0.00000000000E+00 -0.77237200604E+02  0.77237200604E+02  0.00000000000E+00 0. -1.
          2    1    1    2  502    0 -0.21315618686E+02  0.27861766924E+01 -0.89568989742E-01  0.21497125462E+02  0.00000000000E+00 0.  1.
         -2    1    1    2    0  502  0.21315618686E+02 -0.27861766924E+01 -0.64705098184E+02  0.68182608571E+02  0.00000000000E+00 0. -1.
</event>
<event>
 4    1  0.3196713E+003  0.2151847E+02  0.7546771E-02  0.1511990E+00
          2   -1    0    0  501    0  0.00000000000E+00  0.00000000000E+00  0.33081323681E+03  0.33081323681E+03  0.00000000000E+00 0.  1.
         -2   -1    0    0    0  501 -0.00000000000E+00 -0.00000000000E+00 -0.19824608881E+03  0.19824608881E+03  0.00000000000E+00 0.  1.
          2    1    1    2  502    0 -0.77127442058E+01  0.20088750907E+02  0.32987772759E+03  0.33057882493E+03  0.00000000000E+00 0.  1.
         -2    1    1    2    0  502  0.77127442058E+01 -0.20088750907E+02 -0.19731057958E+03  0.19848050068E+03  0.00000000000E+00 0.  1.
</event>
<event>
 4    1  0.3196713E+003  0.2361620E+02  0.7546771E-02  0.1484902E+00
          2   -1    0    0  501    0  0.00000000000E+00  0.00000000000E+00  0.12331940801E+04  0.12331940801E+04  0.00000000000E+00 0.  1.
         -2   -1    0    0    0  501 -0.00000000000E+00 -0.00000000000E+00 -0.45200606777E+02  0.45200606777E+02  0.00000000000E+00 0.  1.
          2    1    1    2  502    0 -0.23416087451E+02 -0.30678685436E+01  0.12299882551E+04  0.12302149539E+04  0.00000000000E+00 0.  1.
         -2    1    1    2    0  502  0.23416087451E+02  0.30678685436E+01 -0.41994781833E+02  0.48179732981E+02  0.00000000000E+00 0.  1.
</event>
<event>
 4    1  0.3196713E+003  0.2150108E+02  0.7546771E-02  0.1512230E+00
          2   -1    0    0  501    0  0.00000000000E+00  0.00000000000E+00  0.42676592341E+01  0.42676592341E+01  0.00000000000E+00 0.  1.
         -2   -1    0    0    0  501 -0.00000000000E+00 -0.00000000000E+00 -0.20451451809E+03  0.20451451809E+03  0.00000000000E+00 0. -1.
          2    1    1    2  502    0  0.20690125112E+02 -0.58493713096E+01 -0.28531503264E+02  0.35725944360E+02  0.00000000000E+00 0.  1.
         -2    1    1    2    0  502 -0.20690125112E+02  0.58493713096E+01 -0.17171535559E+03  0.17305623296E+03  0.00000000000E+00 0. -1.
</event>
<event>
 4    1  0.3196713E+003  0.2195565E+02  0.7546771E-02  0.1506046E+00
          2   -1    0    0  501    0  0.00000000000E+00  0.00000000000E+00  0.35883344115E+03  0.35883344115E+03  0.00000000000E+00 0. -1.
         -2   -1    0    0    0  501 -0.00000000000E+00 -0.00000000000E+00 -0.15795192150E+02  0.15795192150E+02  0.00000000000E+00 0. -1.
          2    1    1    2  502    0  0.20768022683E+02 -0.71231969821E+01  0.35069091189E+03  0.35137752686E+03  0.00000000000E+00 0. -1.
         -2    1    1    2    0  502 -0.20768022683E+02  0.71231969821E+01 -0.76526628874E+01  0.23251106440E+02  0.00000000000E+00 0. -1.
</event>
<event>
 4    1  0.3196713E+003  0.3008902E+02  0.7546771E-02  0.1418824E+00
          2   -1    0    0  501    0  0.00000000000E+00  0.00000000000E+00  0.22589432785E+04  0.22589432785E+04  0.00000000000E+00 0.  1.
         -2   -1    0    0    0  501 -0.00000000000E+00 -0.00000000000E+00 -0.93083775341E+00  0.93083775341E+00  0.00000000000E+00 0.  1.
          2    1    1    2  502    0  0.59430057083E+01 -0.29496264762E+02  0.19816685976E+04  0.19818970154E+04  0.00000000000E+00 0.  1.
         -2    1    1    2    0  502 -0.59430057083E+01  0.29496264762E+02  0.27634384312E+03  0.27797710082E+03  0.00000000000E+00 0.  1.
</event>
<event>
 4    1  0.3196713E+003  0.2386764E+02  0.7546771E-02  0.1481881E+00
          2   -1    0    0  501    0  0.00000000000E+00  0.00000000000E+00  0.17316371443E+03  0.17316371443E+03  0.00000000000E+00 0.  1.
         -2   -1    0    0    0  501 -0.00000000000E+00 -0.00000000000E+00 -0.11829646160E+02  0.11829646160E+02  0.00000000000E+00 0.  1.
          2    1    1    2  502    0  0.10921972303E+02 -0.21222030812E+02  0.15925693642E+03  0.16103551120E+03  0.00000000000E+00 0.  1.
         -2    1    1    2    0  502 -0.10921972303E+02  0.21222030812E+02  0.20771318574E+01  0.23957849393E+02  0.00000000000E+00 0.  1.
</event>
<event>
 4    1  0.3196713E+003  0.2160627E+02  0.7546771E-02  0.1510782E+00
          2   -1    0    0  501    0  0.00000000000E+00  0.00000000000E+00  0.61263942846E+02  0.61263942846E+02  0.00000000000E+00 0. -1.
         -2   -1    0    0    0  501 -0.00000000000E+00 -0.00000000000E+00 -0.10496255147E+02  0.10496255147E+02  0.00000000000E+00 0. -1.
          2    1    1    2  502    0  0.55469478191E+01 -0.20882108891E+02  0.44166210894E+02  0.49167929452E+02  0.00000000000E+00 0. -1.
         -2    1    1    2    0  502 -0.55469478191E+01  0.20882108891E+02  0.66014768055E+01  0.22592268542E+02  0.00000000000E+00 0. -1.
</event>
<event>
 4    1  0.3196713E+003  0.2247682E+02  0.7546771E-02  0.1499174E+00
          2   -1    0    0  501    0  0.00000000000E+00  0.00000000000E+00  0.13688744358E+04  0.13688744358E+04  0.00000000000E+00 0. -1.
         -2   -1    0    0    0  501 -0.00000000000E+00 -0.00000000000E+00 -0.77618116974E+00  0.77618116974E+00  0.00000000000E+00 0.  1.
          2    1    1    2  502    0 -0.22184387225E+02 -0.36139046936E+01  0.11800197862E+04  0.11802338341E+04  0.00000000000E+00 0. -1.
         -2    1    1    2    0  502  0.22184387225E+02  0.36139046936E+01  0.18807846847E+03  0.18941678290E+03  0.00000000000E+00 0.  1.
</event>
<event>
 4    1  0.3196713E+003  0.2384841E+02  0.7546771E-02  0.1482111E+00
          2   -1    0    0  501    0  0.00000000000E+00  0.00000000000E+00  0.14145927226E+02  0.14145927226E+02  0.00000000000E+00 0.  1.
         -2   -1    0    0    0  501 -0.00000000000E+00 -0.00000000000E+00 -0.17964753776E+03  0.17964753776E+03  0.00000000000E+00 0. -1.
          2    1    1    2  502    0 -0.51858193977E+01 -0.23277761069E+02  0.26171833754E+01  0.23991592945E+02  0.00000000000E+00 0.  1.
         -2    1    1    2    0  502  0.51858193977E+01  0.23277761069E+02 -0.16811879391E+03  0.16980187204E+03  0.00000000000E+00 0. -1.
</event>
<event>
 4    1  0.3196713E+003  0.2962179E+02  0.7546771E-02  0.1422912E+00
          2   -1    0    0  501    0  0.00000000000E+00  0.00000000000E+00  0.62743720500E+03  0.62743720500E+03  0.00000000000E+00 0.  1.
         -2   -1    0    0    0  501 -0.00000000000E+00 -0.00000000000E+00 -0.18574858732E+01  0.18574858732E+01  0.00000000000E+00 0. -1.
          2    1    1    2  502    0  0.23794154936E+01  0.29526073465E+02  0.46920409534E+03  0.47013820704E+03  0.00000000000E+00 0.  1.
         -2    1    1    2    0  502 -0.23794154936E+01 -0.29526073465E+02  0.15637562379E+03  0.15915648384E+03  0.00000000000E+00 0. -1.
</event>
<event>
 4    1  0.3196713E+003  0.2055795E+02  0.7546771E-02  0.1525671E+00
          2   -1    0    0  501    0  0.00000000000E+00  0.00000000000E+00  0.11014003097E+04  0.11014003097E+04  0.00000000000E+00 0.  1.
         -2   -1    0    0    0  501 -0.00000000000E+00 -0.00000000000E+00 -0.15260296054E+03  0.15260296054E+03  0.00000000000E+00 0. -1.
          2    1    1    2  502    0 -0.13178268726E+02 -0.15778550835E+02  0.11006115159E+04  0.11008034967E+04  0.00000000000E+00 0.  1.
         -2    1    1    2    0  502  0.13178268726E+02  0.15778550835E+02 -0.15181416666E+03  0.15319977361E+03  0.00000000000E+00 0. -1.
</event>
<event>
 4    1  0.3196713E+003  0.2226638E+02  0.7546771E-02  0.1501922E+00
          2   -1    0    0  501    0  0.00000000000E+00  0.00000000000E+00  0.73112777047E+03  0.73112777047E+03  0.00000000000E+00 0.  1.
         -2   -1    0    0    0  501 -0.00000000000E+00 -0.00000000000E+00 -0.90420239958E+02  0.90420239958E+02  0.00000000000E+00 0.  1.
          2    1    1    2  502    0 -0.20650318293E+02  0.83280138806E+01  0.72958454413E+03  0.72992424161E+03  0.00000000000E+00 0.  1.
         -2    1    1    2    0  502  0.20650318293E+02 -0.83280138806E+01 -0.88877013622E+02  0.91623768811E+02  0.00000000000E+00 0.  1.
</event>
<event>
 4    1  0.3196713E+003  0.4321924E+02  0.7546771E-02  0.1330588E+00
          2   -1    0    0  501    0  0.00000000000E+00  0.00000000000E+00  0.26715135093E+02  0.26715135093E+02  0.00000000000E+00 0. -1.
         -2   -1    0    0    0  501 -0.00000000000E+00 -0.00000000000E+00 -0.13786376811E+03  0.13786376811E+03  0.00000000000E+00 0.  1.
          2    1    1    2  502    0  0.80514077185E+01 -0.42462659424E+02  0.21948709493E+01  0.43274935819E+02  0.00000000000E+00 0. -1.
         -2    1    1    2    0  502 -0.80514077185E+01  0.42462659424E+02 -0.11334350396E+03  0.12130396738E+03  0.00000000000E+00 0.  1.
</event>
<event>
 4    1  0.3196713E+003  0.2655945E+02  0.7546771E-02  0.1452084E+00
          2   -1    0    0  501    0  0.00000000000E+00  0.00000000000E+00  0.34857305695E+03  0.34857305695E+03  0.00000000000E+00 0. -1.
         -2   -1    0    0    0  501 -0.00000000000E+00 -0.00000000000E+00 -0.17314918896E+02  0.17314918896E+02  0.00000000000E+00 0.  1.
          2    1    1    2  502    0 -0.25714937332E+02  0.66442560169E+01  0.33755013381E+03  0.33859340953E+03  0.00000000000E+00 0. -1.
         -2    1    1    2    0  502  0.25714937332E+02 -0.66442560169E+01 -0.62919957543E+01  0.27294566320E+02  0.00000000000E+00 0.  1.
</event>
<event>
 4    1  0.3196713E+003  0.3899342E+02  0.7546771E-02  0.1354487E+00
          2   -1    0    0  501    0  0.00000000000E+00  0.00000000000E+00  0.14011319535E+04  0.14011319535E+04  0.00000000000E+00 0.  1.
         -2   -1    0    0    0  501 -0.00000000000E+00 -0.00000000000E+00 -0.11575863094E+01  0.11575863094E+01  0.00000000000E+00 0.  1.
          2    1    1    2  502    0  0.22195066417E+02  0.32060342684E+02  0.87533727654E+03  0.87620536078E+03  0.00000000000E+00 0.  1.
         -2    1    1    2    0  502 -0.22195066417E+02 -0.32060342684E+02  0.52463709061E+03  0.52608417899E+03  0.00000000000E+00 0.  1.
</event>
<event>
 4    1  0.3196713E+003  0.2247174E+02  0.7546771E-02  0.1499240E+00
          2   -1    0    0  501    0  0.00000000000E+00  0.00000000000E+00  0.59730012407E+01  0.59730012407E+01  0.00000000000E+00 0. -1.
         -2   -1    0    0    0  501 -0.00000000000E+00 -0.00000000000E+00 -0.33067916849E+03  0.33067916849E+03  0.00000000000E+00 0. -1.
          2    1    1    2  502    0 -0.87968764246E+01 -0.20678343122E+02 -0.17130148594E+02  0.28256342650E+02  0.00000000000E+00 0. -1.
         -2    1    1    2    0  502  0.87968764246E+01  0.20678343122E+02 -0.30757601866E+03  0.30839582708E+03  0.00000000000E+00 0. -1.
</event>
<event>
 4    1  0.3196713E+003  0.3482523E+02  0.7546771E-02  0.1381796E+00
          2   -1    0    0  501    0  0.00000000000E+00  0.00000000000E+00  0.25429108816E+03  0.25429108816E+03  0.00000000000E+00 0.  1.
         -2   -1    0    0    0  501 -0.00000000000E+00 -0.00000000000E+00 -0.58835011845E+01  0.58835011845E+01  0.00000000000E+00 0.  1.
          2    1    1    2  502    0  0.11073035284E+02 -0.33017925834E+02  0.67593566410E+02  0.76037397094E+02  0.00000000000E+00 0.  1.
         -2    1    1    2    0  502 -0.11073035284E+02  0.33017925834E+02  0.18081402056E+03  0.18413719225E+03  0.00000000000E+00 0.  1.
</event>
<event>
 4    1  0.3196713E+003  0.2559215E+02  0.7546771E-02  0.1462287E+00
          2   -1    0    0  501    0  0.00000000000E+00  0.00000000000E+00  0.28372707111E+02  0.28372707111E+02  0.00000000000E+00 0. -1.
         -2   -1    0    0    0  501 -0.00000000000E+00 -0.00000000000E+00 -0.59651963308E+02  0.59651963308E+02  0.00000000000E+00 0.  1.
          2    1    1    2  502    0 -0.16300131226E+01 -0.25540189479E+02  0.18820102075E+02  0.31767191622E+02  0.00000000000E+00 0. -1.
         -2    1    1    2    0  502  0.16300131226E+01  0.25540189479E+02 -0.50099358272E+02  0.56257478797E+02  0.00000000000E+00 0.  1.
</event>
<event>
 4    1  0.3196713E+003  0.2094632E+02  0.7546771E-02  0.1520033E+00
          2   -1    0    0  501    0  0.00000000000E+00  0.00000000000E+00  0.18750011390E+03  0.18750011390E+03  0.00000000000E+00 0. -1.
         -2   -1    0    0    0  501 -0.00000000000E+00 -0.00000000000E+00 -0.84197266014E+02  0.84197266014E+02  0.00000000000E+00 0. -1.
          2    1    1    2  502    0  0.12078804698E+02 -0.17112887722E+02  0.18559907536E+03  0.18677731453E+03  0.00000000000E+00 0. -1.
         -2    1    1    2    0  502 -0.12078804698E+02  0.17112887722E+02 -0.82296227471E+02  0.84920065385E+02  0.00000000000E+00 0. -1.
</event>
<event>
 4    1  0.3196713E+003  0.2617114E+02  0.7546771E-02  0.1456117E+00
          2   -1    0    0  501    0  0.00000000000E+00  0.00000000000E+00  0.17676715336E+02  0.17676715336E+02  0.00000000000E+00 0.  1.
         -2   -1    0    0    0  501 -0.00000000000E+00 -0.00000000000E+00 -0.35791793366E+03  0.35791793366E+03  0.00000000000E+00 0. -1.
          2    1    1    2  502    0  0.25750075292E+02 -0.46756965551E+01  0.72203276205E+01  0.27148879291E+02  0.00000000000E+00 0.  1.
         -2    1    1    2    0  502 -0.25750075292E+02  0.46756965551E+01 -0.34746154595E+03  0.34844576971E+03  0.00000000000E+00 0. -1.
</event>
<event>
 4    1  0.3196713E+003  0.2940261E+02  0.7546771E-02  0.1424860E+00
          2   -1    0    0  501    0  0.00000000000E+00  0.00000000000E+00  0.66739286017E+02  0.66739286017E+02  0.00000000000E+00 0. -1.
         -2   -1    0    0    0  501 -0.00000000000E+00 -0.00000000000E+00 -0.38113492642E+02  0.38113492642E+02  0.00000000000E+00 0. -1.
          2    1    1    2  502    0  0.24023508717E+02 -0.16952423148E+02  0.56908523833E+02  0.64055395608E+02  0.00000000000E+00 0. -1.
         -2    1    1    2    0  502 -0.24023508717E+02  0.16952423148E+02 -0.28282730458E+02  0.40797383051E+02  0.00000000000E+00 0. -1.
</event>
<event>
 4    1  0.3196713E+003  0.2928291E+02  0.7546771E-02  0.1425932E+00
          2   -1    0    0  501    0  0.00000000000E+00  0.00000000000E+00  0.21039506556E+01  0.21039506556E+01  0.00000000000E+00 0. -1.
         -2   -1    0    0    0  501 -0.00000000000E+00 -0.00000000000E+00 -0.41514869905E+03  0.41514869905E+03  0.00000000000E+00 0. -1.
          2    1    1    2  502    0  0.28818786277E+02  0.51928441949E+01 -0.23472726936E+03  0.23654677985E+03  0.00000000000E+00 0. -1.
         -2    1    1    2    0  502 -0.28818786277E+02 -0.51928441949E+01 -0.17831747903E+03  0.18070586986E+03  0.00000000000E+00 0. -1.
</event>
<event>
 4    1  0.3196713E+003  0.2835909E+02  0.7546771E-02  0.1434414E+00
          2   -1    0    0  501    0  0.00000000000E+00  0.00000000000E+00  0.40966289795E+02  0.40966289795E+02  0.00000000000E+00 0. -1.
         -2   -1    0    0    0  501 -0.00000000000E+00 -0.00000000000E+00 -0.82706281061E+02  0.82706281061E+02  0.00000000000E+00 0.  1.
          2    1    1    2  502    0  0.74013109836E+00  0.28349431943E+02  0.33130944325E+02  0.43610750480E+02  0.00000000000E+00 0. -1.
         -2    1    1    2    0  502 -0.74013109836E+00 -0.28349431943E+02 -0.74870935591E+02  0.80061820375E+02  0.00000000000E+00 0.  1.
</event>
<event>
 4    1  0.3196713E+003  0.2238246E+02  0.7546771E-02  0.1500402E+00
          2   -1    0    0  501    0  0.00000000000E+00  0.00000000000E+00  0.63246496013E+02  0.63246496013E+02  0.00000000000E+00 0. -1.
         -2   -1    0    0    0  501 -0.00000000000E+00 -0.00000000000E+00 -0.50429709602E+02  0.50429709602E+02  0.00000000000E+00 0. -1.
          2    1    1    2  502    0  0.19430073951E+02 -0.11110653887E+02  0.58592155661E+02  0.62721727564E+02  0.00000000000E+00 0. -1.
         -2    1    1    2    0  502 -0.19430073951E+02  0.11110653887E+02 -0.45775369250E+02  0.50954478052E+02  0.00000000000E+00 0. -1.
</event>
<event>
 4    1  0.3196713E+003  0.2874935E+02  0.7546771E-02  0.1430785E+00
          2   -1    0    0  501    0  0.00000000000E+00  0.00000000000E+00  0.17487713208E+02  0.17487713208E+02  0.00000000000E+00 0.  1.
         -2   -1    0    0    0  501 -0.00000000000E+00 -0.00000000000E+00 -0.16532245862E+03  0.16532245862E+03  0.00000000000E+00 0.  1.
          2    1    1    2  502    0  0.23323948369E+02  0.16808287737E+02  0.33247995082E+01  0.28940963977E+02  0.00000000000E+00 0.  1.
         -2    1    1    2    0  502 -0.23323948369E+02 -0.16808287737E+02 -0.15115954492E+03  0.15386920785E+03  0.00000000000E+00 0.  1.
</event>
<event>
 4    1  0.3196713E+003  0.3403465E+02  0.7546771E-02  0.1387480E+00
          2   -1    0    0  501    0  0.00000000000E+00  0.00000000000E+00  0.26339430187E+03  0.26339430187E+03  0.00000000000E+00 0.  1.
         -2   -1    0    0    0  501 -0.00000000000E+00 -0.00000000000E+00 -0.56102655156E+01  0.56102655156E+01  0.00000000000E+00 0.  1.
          2    1    1    2  502    0 -0.32517300622E+02 -0.10048991762E+02  0.19141958809E+03  0.19442174718E+03  0.00000000000E+00 0.  1.
         -2    1    1    2    0  502  0.32517300622E+02  0.10048991762E+02  0.66364448268E+02  0.74582820201E+02  0.00000000000E+00 0.  1.
</event>
<event>
 4    1  0.3196713E+003  0.2278727E+02  0.7546771E-02  0.1495187E+00
          2   -1    0    0  501    0  0.00000000000E+00  0.00000000000E+00  0.23320843072E+03  0.23320843072E+03  0.00000000000E+00 0. -1.
         -2   -1    0    0    0  501 -0.00000000000E+00 -0.00000000000E+00 -0.21821335426E+02  0.21821335426E+02  0.00000000000E+00 0. -1.
          2    1    1    2  502    0  0.20645348279E+02  0.96451666992E+01  0.22652778993E+03  0.22767103298E+03  0.00000000000E+00 0. -1.
         -2    1    1    2    0  502 -0.20645348279E+02 -0.96451666992E+01 -0.15140694640E+02  0.27358733165E+02  0.00000000000E+00 0. -1.
</event>
<event>
 4    1  0.3196713E+003  0.3305207E+02  0.7546771E-02  0.1394800E+00
          2   -1    0    0  501    0  0.00000000000E+00  0.00000000000E+00  0.78444791936E+02  0.78444791936E+02  0.00000000000E+00 0. -1.
         -2   -1    0    0    0  501 -0.00000000000E+00 -0.00000000000E+00 -0.15324735589E+03  0.15324735589E+03  0.00000000000E+00 0.  1.
          2    1    1    2  502    0  0.27173630875E+02  0.18815772832E+02  0.73055739064E+02  0.80184665194E+02  0.00000000000E+00 0. -1.
         -2    1    1    2    0  502 -0.27173630875E+02 -0.18815772832E+02 -0.14785830301E+03  0.15150748263E+03  0.00000000000E+00 0.  1.
</event>
<event>
 4    1  0.3196713E+003  0.2115251E+02  0.7546771E-02  0.1517098E+00
          2   -1    0    0  501    0  0.00000000000E+00  0.00000000000E+00  0.15910607882E+03  0.15910607882E+03  0.00000000000E+00 0. -1.
         -2   -1    0    0    0  501 -0.00000000000E+00 -0.00000000000E+00 -0.36960656906E+01  0.36960656906E+01  0.00000000000E+00 0. -1.
          2    1    1    2  502    0 -0.20804262168E+02 -0.38225038553E+01  0.11751276406E+03  0.11940133407E+03  0.00000000000E+00 0. -1.
         -2    1    1    2    0  502  0.20804262168E+02  0.38225038553E+01  0.37897249065E+02  0.43400810439E+02  0.00000000000E+00 0. -1.
</event>
<event>
 4    1  0.3196713E+003  0.2188452E+02  0.7546771E-02  0.1507001E+00
          2   -1    0    0  501    0  0.00000000000E+00  0.00000000000E+00  0.31758699363E+02  0.31758699363E+02  0.00000000000E+00 0. -1.
         -2   -1    0    0    0  501 -0.00000000000E+00 -0.00000000000E+00 -0.25865928731E+02  0.25865928731E+02  0.00000000000E+00 0.  1.
          2    1    1    2  502    0 -0.15958798293E+02  0.14974946598E+02  0.21551649853E+02  0.30714912989E+02  0.00000000000E+00 0. -1.
         -2    1    1    2    0  502  0.15958798293E+02 -0.14974946598E+02 -0.15658879221E+02  0.26909715104E+02  0.00000000000E+00 0.  1.
</event>
<event>
 4    1  0.3196713E+003  0.2374155E+02  0.7546771E-02  0.1483391E+00
          2   -1    0    0  501    0  0.00000000000E+00  0.00000000000E+00  0.90470677029E+03  0.90470677029E+03  0.00000000000E+00 0. -1.
         -2   -1    0    0    0  501 -0.00000000000E+00 -0.00000000000E+00 -0.98184902669E+00  0.98184902669E+00  0.00000000000E+00 0. -1.
          2    1    1    2  502    0 -0.15690508790E+02 -0.17817660778E+02  0.72561817353E+03  0.72600647026E+03  0.00000000000E+00 0. -1.
         -2    1    1    2    0  502  0.15690508790E+02  0.17817660778E+02  0.17810674774E+03  0.17968214906E+03  0.00000000000E+00 0. -1.
</event>
<event>
 4    1  0.3196713E+003  0.2575124E+02  0.7546771E-02  0.1460572E+00
          2   -1    0    0  501    0  0.00000000000E+00  0.00000000000E+00  0.16022474746E+04  0.16022474746E+04  0.00000000000E+00 0. -1.
         -2   -1    0    0    0  501 -0.00000000000E+00 -0.00000000000E+00 -0.10822101081E+01  0.10822101081E+01  0.00000000000E+00 0.  1.
          2    1    1    2  502    0 -0.22142363814E+02 -0.13146943833E+02  0.14305745040E+04  0.14308062545E+04  0.00000000000E+00 0. -1.
         -2    1    1    2    0  502  0.22142363814E+02  0.13146943833E+02  0.17059076052E+03  0.17252343025E+03  0.00000000000E+00 0.  1.
</event>
<event>
 4    1  0.3196713E+003  0.2019252E+02  0.7546771E-02  0.1531113E+00
          2   -1    0    0  501    0  0.00000000000E+00  0.00000000000E+00  0.63037005976E+03  0.63037005976E+03  0.00000000000E+00 0.  1.
         -2   -1    0    0    0  501 -0.00000000000E+00 -0.00000000000E+00 -0.51629424699E+01  0.51629424699E+01  0.00000000000E+00 0.  1.
          2    1    1    2  502    0 -0.11178256782E+02 -0.16816201400E+02  0.60979901465E+03  0.61013324473E+03  0.00000000000E+00 0.  1.
         -2    1    1    2    0  502  0.11178256782E+02  0.16816201400E+02  0.15408102641E+02  0.25399757503E+02  0.00000000000E+00 0.  1.
</event>
<event>
 4    1  0.3196713E+003  0.2200504E+02  0.7546771E-02  0.1505385E+00
          2   -1    0    0  501    0  0.00000000000E+00  0.00000000000E+00  0.54833355753E+03  0.54833355753E+03  0.00000000000E+00 0. -1.
         -2   -1    0    0    0  501 -0.00000000000E+00 -0.00000000000E+00 -0.11146280812E+01  0.11146280812E+01  0.00000000000E+00 0.  1.
          2    1    1    2  502    0  0.10169698285E+02  0.19514073276E+02  0.39882359499E+03  0.39943019633E+03  0.00000000000E+00 0. -1.
         -2    1    1    2    0  502 -0.10169698285E+02 -0.19514073276E+02  0.14839533446E+03  0.15001798928E+03  0.00000000000E+00 0.  1.
</event>
<event>
 4    1  0.3196713E+003  0.2687419E+02  0.7546771E-02  0.1448876E+00
          2   -1    0    0  501    0  0.00000000000E+00  0.00000000000E+00  0.88452701972E+02  0.88452701972E+02  0.00000000000E+00 0.  1.
         -2   -1    0    0    0  501 -0.00000000000E+00 -0.00000000000E+00 -0.11178782213E+02  0.11178782213E+02  0.00000000000E+00 0.  1.
          2    1    1    2  502    0  0.26319298907E+02 -0.54329274161E+01  0.64502437162E+02  0.69876938936E+02  0.00000000000E+00 0.  1.
         -2    1    1    2    0  502 -0.26319298907E+02  0.54329274161E+01  0.12771482597E+02  0.29754545249E+02  0.00000000000E+00 0.  1.
</event>
<event>
 4    1  0.3196713E+003  0.2056728E+02  0.7546771E-02  0.1525533E+00
          2   -1    0    0  501    0  0.00000000000E+00  0.00000000000E+00  0.14945519342E+04  0.14945519342E+04  0.00000000000E+00 0.  1.
         -2   -1    0    0    0  501 -0.00000000000E+00 -0.00000000000E+00 -0.48890245177E+00  0.48890245177E+00  0.00000000000E+00 0. -1.
          2    1    1    2  502    0 -0.17729249984E+01 -0.20490727099E+02  0.12321009665E+04  0.12322726179E+04  0.00000000000E+00 0.  1.
         -2    1    1    2    0  502  0.17729249984E+01  0.20490727099E+02  0.26196206518E+03  0.26276821869E+03  0.00000000000E+00 0. -1.
</event>
<event>
 4    1  0.3196713E+003  0.2868862E+02  0.7546771E-02  0.1431345E+00
          2   -1    0    0  501    0  0.00000000000E+00  0.00000000000E+00  0.34237556400E+03  0.34237556400E+03  0.00000000000E+00 0. -1.
         -2   -1    0    0    0  501 -0.00000000000E+00 -0.00000000000E+00 -0.25096676994E+02  0.25096676994E+02  0.00000000000E+00 0.  1.
          2    1    1    2  502    0  0.27321136309E+02  0.87516946321E+01  0.33335446800E+03  0.33458666737E+03  0.00000000000E+00 0. -1.
         -2    1    1    2    0  502 -0.27321136309E+02 -0.87516946321E+01 -0.16075580993E+02  0.32885573621E+02  0.00000000000E+00 0.  1.
</event>
<event>
 4    1  0.3196713E+003  0.2914446E+02  0.7546771E-02  0.1427180E+00
          2   -1    0    0  501    0  0.00000000000E+00  0.00000000000E+00  0.18075419294E+02  0.18075419294E+02  0.00000000000E+00 0.  1.
         -2   -1    0    0    0  501 -0.00000000000E+00 -0.00000000000E+00 -0.46995270572E+02  0.46995270572E+02  0.00000000000E+00 0.  1.
          2    1    1    2  502    0 -0.23482322741E+02 -0.17262097268E+02 -0.14187086896E+02  0.32414085179E+02  0.00000000000E+00 0.  1.
         -2    1    1    2    0  502  0.23482322741E+02  0.17262097268E+02 -0.14732764382E+02  0.32656604688E+02  0.00000000000E+00 0.  1.
</event>
<event>
 4    1  0.3196713E+003  0.2342403E+02  0.7546771E-02  0.1487241E+00
          2   -1    0    0  501    0  0.00000000000E+00  0.00000000000E+00  0.13468759578E+04  0.13468759578E+04  0.00000000000E+00 0. -1.
         -2   -1    0    0    0  501 -0.00000000000E+00 -0.00000000000E+00 -0.85577324280E+00  0.85577324280E+00  0.00000000000E+00 0.  1.
          2    1    1    2  502    0 -0.36690831002E+01 -0.23134885616E+02  0.11607918049E+04  0.11610281218E+04  0.00000000000E+00 0. -1.
         -2    1    1    2    0  502  0.36690831002E+01  0.23134885616E+02  0.18522837958E+03  0.18670360924E+03  0.00000000000E+00 0.  1.
</event>
<event>
 4    1  0.3196713E+003  0.2468959E+02  0.7546771E-02  0.1472306E+00
          2   -1    0    0  501    0  0.00000000000E+00  0.00000000000E+00  0.68448606781E+03  0.68448606781E+03  0.00000000000E+00 0.  1.
         -2   -1    0    0    0  501 -0.00000000000E+00 -0.00000000000E+00 -0.10500188832E+01  0.10500188832E+01  0.00000000000E+00 0.  1.
          2    1    1    2  502    0  0.70778784177E+01  0.23653313670E+02  0.47529350056E+03  0.47593433086E+03  0.00000000000E+00 0.  1.
         -2    1    1    2    0  502 -0.70778784177E+01 -0.23653313670E+02  0.20814254836E+03  0.20960175584E+03  0.00000000000E+00 0.  1.
</event>
<event>
 4    1  0.3196713E+003  0.2097620E+02  0.7546771E-02  0.1519605E+00
          2   -1    0    0  501    0  0.00000000000E+00  0.00000000000E+00  0.11159911940E+03  0.11159911940E+03  0.00000000000E+00 0. -1.
         -2   -1    0    0    0  501 -0.00000000000E+00 -0.00000000000E+00 -0.49791928160E+01  0.49791928160E+01  0.00000000000E+00 0. -1.
          2    1    1    2  502    0 -0.58122238591E+01 -0.20154871830E+02  0.79904559613E+02  0.82611981284E+02  0.00000000000E+00 0. -1.
         -2    1    1    2    0  502  0.58122238591E+01  0.20154871830E+02  0.26715366976E+02  0.33966330937E+02  0.00000000000E+00 0. -1.
</event>
<event>
 4    1  0.3196713E+003  0.2026711E+02  0.7546771E-02  0.1529991E+00
          2   -1    0    0  501    0  0.00000000000E+00  0.00000000000E+00  0.39133320533E+03  0.39133320533E+03  0.00000000000E+00 0. -1.
         -2   -1    0    0    0  501 -0.00000000000E+00 -0.00000000000E+00 -0.10770230638E+01  0.10770230638E+01  0.00000000000E+00 0.  1.
          2    1    1    2  502    0 -0.19161448698E+02  0.66026112260E+01  0.22641823892E+03  0.22732350188E+03  0.00000000000E+00 0. -1.
         -2    1    1    2    0  502  0.19161448698E+02 -0.66026112260E+01  0.16383794334E+03  0.16508672651E+03  0.00000000000E+00 0.  1.
</event>
<event>
 4    1  0.3196713E+003  0.2506112E+02  0.7546771E-02  0.1468121E+00
          2   -1    0    0  501    0  0.00000000000E+00  0.00000000000E+00  0.10228998959E+04  0.10228998959E+04  0.00000000000E+00 0.  1.
         -2   -1    0    0    0  501 -0.00000000000E+00 -0.00000000000E+00 -0.72055042566E+00  0.72055042566E+00  0.00000000000E+00 0. -1.
          2    1    1    2  502    0  0.15697547624E+01  0.25011910962E+02  0.70790358219E+03  0.70834704877E+03  0.00000000000E+00 0. -1.
         -2    1    1    2    0  502 -0.15697547624E+01 -0.25011910962E+02  0.31427576328E+03  0.31527339756E+03  0.00000000000E+00 0.  1.
</event>
<event>
 4    1  0.3196713E+003  0.5919502E+02  0.7546771E-02  0.1262592E+00
          2   -1    0    0  501    0  0.00000000000E+00  0.00000000000E+00  0.21054986773E+03  0.21054986773E+03  0.00000000000E+00 0. -1.
         -2   -1    0    0    0  501 -0.00000000000E+00 -0.00000000000E+00 -0.16770319665E+02  0.16770319665E+02  0.00000000000E+00 0. -1.
          2    1    1    2  502    0 -0.55733130294E+02 -0.19946650463E+02  0.10681731761E+03  0.12212284806E+03  0.00000000000E+00 0. -1.
         -2    1    1    2    0  502  0.55733130294E+02  0.19946650463E+02  0.86962230454E+02  0.10519733933E+03  0.00000000000E+00 0. -1.
</event>
<event>
 4    1  0.3196713E+003  0.2183285E+02  0.7546771E-02  0.1507698E+00
          2   -1    0    0  501    0  0.00000000000E+00  0.00000000000E+00  0.14270597636E+04  0.14270597636E+04  0.00000000000E+00 0. -1.
         -2   -1    0    0    0  501 -0.00000000000E+00 -0.00000000000E+00 -0.11544872532E+01  0.11544872532E+01  0.00000000000E+00 0.  1.
          2    1    1    2  502    0  0.19478150262E+02  0.98628050207E+01  0.13149549624E+04  0.13151362007E+04  0.00000000000E+00 0. -1.
         -2    1    1    2    0  502 -0.19478150262E+02 -0.98628050207E+01  0.11095031389E+03  0.11307805009E+03  0.00000000000E+00 0.  1.
</event>
<event>
 4    1  0.3196713E+003  0.2314361E+02  0.7546771E-02  0.1490703E+00
          2   -1    0    0  501    0  0.00000000000E+00  0.00000000000E+00  0.26083717965E+03  0.26083717965E+03  0.00000000000E+00 0.  1.
         -2   -1    0    0    0  501 -0.00000000000E+00 -0.00000000000E+00 -0.34858049179E+01  0.34858049179E+01  0.00000000000E+00 0. -1.
          2    1    1    2  502    0 -0.22692207768E+02  0.45486471013E+01  0.21339310029E+03  0.21464445424E+03  0.00000000000E+00 0.  1.
         -2    1    1    2    0  502  0.22692207768E+02 -0.45486471013E+01  0.43958274445E+02  0.49678530333E+02  0.00000000000E+00 0. -1.
</event>
<event>
 4    1  0.3196713E+003  0.2063699E+02  0.7546771E-02  0.1524511E+00
          2   -1    0    0  501    0  0.00000000000E+00  0.00000000000E+00  0.12833875252E+04  0.12833875252E+04  0.00000000000E+00 0.  1.
         -2   -1    0    0    0  501 -0.00000000000E+00 -0.00000000000E+00 -0.11384268056E+02  0.11384268056E+02  0.00000000000E+00 0.  1.
          2    1    1    2  502    0  0.10692809343E+02 -0.17650752217E+02  0.12738822891E+04  0.12740494385E+04  0.00000000000E+00 0.  1.
         -2    1    1    2    0  502 -0.10692809343E+02  0.17650752217E+02 -0.18790319700E+01  0.20722354756E+02  0.00000000000E+00 0.  1.
</event>
<event>
 4    1  0.3196713E+003  0.2320264E+02  0.7546771E-02  0.1489969E+00
          2   -1    0    0  501    0  0.00000000000E+00  0.00000000000E+00  0.32146527552E+02  0.32146527552E+02  0.00000000000E+00 0.  1.
         -2   -1    0    0    0  501 -0.00000000000E+00 -0.00000000000E+00 -0.22065591755E+02  0.22065591755E+02  0.00000000000E+00 0.  1.
          2    1    1    2  502    0  0.27732035290E+01 -0.23036317922E+02  0.18348105134E+02  0.29580661980E+02  0.00000000000E+00 0.  1.
         -2    1    1    2    0  502 -0.27732035290E+01  0.23036317922E+02 -0.82671693356E+01  0.24631457327E+02  0.00000000000E+00 0.  1.
</event>
<event>
 4    1  0.3196713E+003  0.2070649E+02  0.7546771E-02  0.1523497E+00
          2   -1    0    0  501    0  0.00000000000E+00  0.00000000000E+00  0.69039217311E+03  0.69039217311E+03  0.00000000000E+00 0. -1.
         -2   -1    0    0    0  501 -0.00000000000E+00 -0.00000000000E+00 -0.17314805505E+01  0.17314805505E+01  0.00000000000E+00 0.  1.
          2    1    1    2  502    0  0.18926133682E+02 -0.84000210076E+01  0.62146650018E+03  0.62181136185E+03  0.00000000000E+00 0. -1.
         -2    1    1    2    0  502 -0.18926133682E+02  0.84000210076E+01  0.67194192385E+02  0.70312291808E+02  0.00000000000E+00 0.  1.
</event>
<event>
 4    1  0.3196713E+003  0.2972030E+02  0.7546771E-02  0.1422043E+00
          2   -1    0    0  501    0  0.00000000000E+00  0.00000000000E+00  0.66918384664E+01  0.66918384664E+01  0.00000000000E+00 0. -1.
         -2   -1    0    0    0  501 -0.00000000000E+00 -0.00000000000E+00 -0.38328662421E+03  0.38328662421E+03  0.00000000000E+00 0.  1.
          2    1    1    2  502    0 -0.50306296917E+01  0.29291453348E+02 -0.30413849332E+02  0.42524095587E+02  0.00000000000E+00 0. -1.
         -2    1    1    2    0  502  0.50306296917E+01 -0.29291453348E+02 -0.34618093641E+03  0.34745436709E+03  0.00000000000E+00 0.  1.
</event>
<event>
 4    1  0.3196713E+003  0.3619309E+02  0.7546771E-02  0.1372364E+00
          2   -1    0    0  501    0  0.00000000000E+00  0.00000000000E+00  0.85787082784E+03  0.85787082784E+03  0.00000000000E+00 0.  1.
         -2   -1    0    0    0  501 -0.00000000000E+00 -0.00000000000E+00 -0.19808307899E+01  0.19808307899E+01  0.00000000000E+00 0.  1.
          2    1    1    2  502    0 -0.23624559025E+02 -0.27419337339E+02  0.63373911206E+03  0.63477177159E+03  0.00000000000E+00 0.  1.
         -2    1    1    2    0  502  0.23624559025E+02  0.27419337339E+02  0.22215088499E+03  0.22507988704E+03  0.00000000000E+00 0.  1.
</event>
<event>
 4    1  0.3196713E+003  0.2467822E+02  0.7546771E-02  0.1472435E+00
          2   -1    0    0  501    0  0.00000000000E+00  0.00000000000E+00  0.26939297901E+02  0.26939297901E+02  0.00000000000E+00 0.  1.
         -2   -1    0    0    0  501 -0.00000000000E+00 -0.00000000000E+00 -0.64577537648E+03  0.64577537648E+03  0.00000000000E+00 0. -1.
          2    1    1    2  502    0  0.24618473785E+02 -0.17162275916E+01  0.20999349187E+02  0.32403508374E+02  0.00000000000E+00 0.  1.
         -2    1    1    2    0  502 -0.24618473785E+02  0.17162275916E+01 -0.63983542777E+03  0.64031116601E+03  0.00000000000E+00 0. -1.
</event>
<event>
 4    1  0.3196713E+003  0.2352185E+02  0.7546771E-02  0.1486047E+00
          2   -1    0    0  501    0  0.00000000000E+00  0.00000000000E+00  0.16550470615E+04  0.16550470615E+04  0.00000000000E+00 0. -1.
         -2   -1    0    0    0  501 -0.00000000000E+00 -0.00000000000E+00 -0.37731880168E+00  0.37731880168E+00  0.00000000000E+00 0. -1.
          2    1    1    2  502    0  0.22823597886E+02  0.56886436071E+01  0.11068268622E+04  0.11070767724E+04  0.00000000000E+00 0. -1.
         -2    1    1    2    0  502 -0.22823597886E+02 -0.56886436071E+01  0.54784288058E+03  0.54834760790E+03  0.00000000000E+00 0. -1.
</event>
<event>
 4    1  0.3196713E+003  0.5335378E+02  0.7546771E-02  0.1284252E+00
          2   -1    0    0  501    0  0.00000000000E+00  0.00000000000E+00  0.47760653178E+02  0.47760653178E+02  0.00000000000E+00 0.  1.
         -2   -1    0    0    0  501 -0.00000000000E+00 -0.00000000000E+00 -0.10295077859E+03  0.10295077859E+03  0.00000000000E+00 0.  1.
          2    1    1    2  502    0 -0.42094003464E+02 -0.32782931612E+02  0.21302848743E+02  0.57449430783E+02  0.00000000000E+00 0.  1.
         -2    1    1    2    0  502  0.42094003464E+02  0.32782931612E+02 -0.76492974151E+02  0.93262000982E+02  0.00000000000E+00 0.  1.
</event>
<event>
 4    1  0.3196713E+003  0.2442686E+02  0.7546771E-02  0.1475318E+00
          2   -1    0    0  501    0  0.00000000000E+00  0.00000000000E+00  0.23103529253E+01  0.23103529253E+01  0.00000000000E+00 0. -1.
         -2   -1    0    0    0  501 -0.00000000000E+00 -0.00000000000E+00 -0.37686459999E+03  0.37686459999E+03  0.00000000000E+00 0.  1.
          2    1    1    2  502    0 -0.69843430118E+01 -0.23407061426E+02 -0.80919682806E+02  0.84526129908E+02  0.00000000000E+00 0. -1.
         -2    1    1    2    0  502  0.69843430118E+01  0.23407061426E+02 -0.29363456426E+03  0.29464882301E+03  0.00000000000E+00 0.  1.
</event>
<event>
 4    1  0.3196713E+003  0.2267488E+02  0.7546771E-02  0.1496622E+00
          2   -1    0    0  501    0  0.00000000000E+00  0.00000000000E+00  0.15415090250E+04  0.15415090250E+04  0.00000000000E+00 0. -1.
         -2   -1    0    0    0  501 -0.00000000000E+00 -0.00000000000E+00 -0.16453824058E+01  0.16453824058E+01  0.00000000000E+00 0.  1.
          2    1    1    2  502    0  0.27806733317E+01  0.22503732407E+02  0.14588811986E+04  0.14590574018E+04  0.00000000000E+00 0. -1.
         -2    1    1    2    0  502 -0.27806733317E+01 -0.22503732407E+02  0.80982443944E+02  0.84097005556E+02  0.00000000000E+00 0.  1.
</event>
<event>
 4    1  0.3196713E+003  0.3741108E+02  0.7546771E-02  0.1364363E+00
          2   -1    0    0  501    0  0.00000000000E+00  0.00000000000E+00  0.44511806499E+03  0.44511806499E+03  0.00000000000E+00 0. -1.
         -2   -1    0    0    0  501 -0.00000000000E+00 -0.00000000000E+00 -0.20418556444E+03  0.20418556444E+03  0.00000000000E+00 0. -1.
          2    1    1    2  502    0  0.86133142373E+01 -0.36406042857E+02  0.44260866529E+03  0.44418691981E+03  0.00000000000E+00 0. -1.
         -2    1    1    2    0  502 -0.86133142373E+01  0.36406042857E+02 -0.20167616474E+03  0.20511670962E+03  0.00000000000E+00 0. -1.
</event>
<event>
 4    1  0.3196713E+003  0.2290012E+02  0.7546771E-02  0.1493756E+00
          2   -1    0    0  501    0  0.00000000000E+00  0.00000000000E+00  0.19376113806E+03  0.19376113806E+03  0.00000000000E+00 0.  1.
         -2   -1    0    0    0  501 -0.00000000000E+00 -0.00000000000E+00 -0.45713321171E+02  0.45713321171E+02  0.00000000000E+00 0. -1.
          2    1    1    2  502    0  0.11755172749E+02  0.19652767674E+02  0.19016247667E+03  0.19153637487E+03  0.00000000000E+00 0.  1.
         -2    1    1    2    0  502 -0.11755172749E+02 -0.19652767674E+02 -0.42114659784E+02  0.47938084362E+02  0.00000000000E+00 0. -1.
</event>
<event>
 4    1  0.3196713E+003  0.2087195E+02  0.7546771E-02  0.1521101E+00
          2   -1    0    0  501    0  0.00000000000E+00  0.00000000000E+00  0.70849597509E+02  0.70849597509E+02  0.00000000000E+00 0.  1.
         -2   -1    0    0    0  501 -0.00000000000E+00 -0.00000000000E+00 -0.83616352824E+01  0.83616352824E+01  0.00000000000E+00 0.  1.
          2    1    1    2  502    0  0.19467527013E+02  0.75268520842E+01  0.51618545616E+02  0.55678652658E+02  0.00000000000E+00 0.  1.
         -2    1    1    2    0  502 -0.19467527013E+02 -0.75268520842E+01  0.10869416611E+02  0.23532580134E+02  0.00000000000E+00 0.  1.
</event>
<event>
 4    1  0.3196713E+003  0.2455882E+02  0.7546771E-02  0.1473800E+00
          2   -1    0    0  501    0  0.00000000000E+00  0.00000000000E+00  0.13955377395E+04  0.13955377395E+04  0.00000000000E+00 0.  1.
         -2   -1    0    0    0  501 -0.00000000000E+00 -0.00000000000E+00 -0.15411579485E+01  0.15411579485E+01  0.00000000000E+00 0. -1.
          2    1    1    2  502    0  0.11209723501E+02  0.21851266215E+02  0.12895511531E+04  0.12897849868E+04  0.00000000000E+00 0.  1.
         -2    1    1    2    0  502 -0.11209723501E+02 -0.21851266215E+02  0.10444542850E+03  0.10729391069E+03  0.00000000000E+00 0. -1.
</event>
<event>
 4    1  0.3196713E+003  0.2163998E+02  0.7546771E-02  0.1510321E+00
          2   -1    0    0  501    0  0.00000000000E+00  0.00000000000E+00  0.25412093410E+03  0.25412093410E+03  0.00000000000E+00 0.  1.
         -2   -1    0    0    0  501 -0.00000000000E+00 -0.00000000000E+00 -0.19379608097E+01  0.19379608097E+01  0.00000000000E+00 0.  1.
          2    1    1    2  502    0 -0.13129260559E+02 -0.17202055331E+02  0.97717581253E+02  0.10008503323E+03  0.00000000000E+00 0.  1.
         -2    1    1    2    0  502  0.13129260559E+02  0.17202055331E+02  0.15446539203E+03  0.15597386168E+03  0.00000000000E+00 0.  1.
</event>
<event>
 4    1  0.3196713E+003  0.2367384E+02  0.7546771E-02  0.1484206E+00
          2   -1    0    0  501    0  0.00000000000E+00  0.00000000000E+00  0.73890225460E+03  0.73890225460E+03  0.00000000000E+00 0.  1.
         -2   -1    0    0    0  501 -0.00000000000E+00 -0.00000000000E+00 -0.86785839055E+01  0.86785839055E+01  0.00000000000E+00 0.  1.
          2    1    1    2  502    0  0.16210865953E+01  0.23618274126E+02  0.72219458245E+03  0.72258249751E+03  0.00000000000E+00 0.  1.
         -2    1    1    2    0  502 -0.16210865953E+01 -0.23618274126E+02  0.80290882496E+01  0.24998340996E+02  0.00000000000E+00 0.  1.
</event>
<event>
 4    1  0.3196713E+003  0.2063906E+02  0.7546771E-02  0.1524481E+00
          2   -1    0    0  501    0  0.00000000000E+00  0.00000000000E+00  0.21297912463E+01  0.21297912463E+01  0.00000000000E+00 0.  1.
         -2   -1    0    0    0  501 -0.00000000000E+00 -0.00000000000E+00 -0.22536715853E+03  0.22536715853E+03  0.00000000000E+00 0.  1.
          2    1    1    2  502    0 -0.12087924093E+02 -0.16728806969E+02 -0.73460704946E+02  0.76304954378E+02  0.00000000000E+00 0.  1.
         -2    1    1    2    0  502  0.12087924093E+02  0.16728806969E+02 -0.14977666234E+03  0.15119199540E+03  0.00000000000E+00 0.  1.
</event>
<event>
 4    1  0.3196713E+003  0.2163644E+02  0.7546771E-02  0.1510369E+00
          2   -1    0    0  501    0  0.00000000000E+00  0.00000000000E+00  0.24553429918E+02  0.24553429918E+02  0.00000000000E+00 0.  1.
         -2   -1    0    0    0  501 -0.00000000000E+00 -0.00000000000E+00 -0.26761354214E+02  0.26761354214E+02  0.00000000000E+00 0. -1.
          2    1    1    2  502    0  0.19950559714E+02 -0.83732137619E+01  0.12654596868E+02  0.25065401722E+02  0.00000000000E+00 0.  1.
         -2    1    1    2    0  502 -0.19950559714E+02  0.83732137619E+01 -0.14862521164E+02  0.26249382411E+02  0.00000000000E+00 0. -1.
</event>
<event>
 4    1  0.3196713E+003  0.2057882E+02  0.7546771E-02  0.1525364E+00
          2   -1    0    0  501    0  0.00000000000E+00  0.00000000000E+00  0.99203760835E+03  0.99203760835E+03  0.00000000000E+00 0. -1.
         -2   -1    0    0    0  501 -0.00000000000E+00 -0.00000000000E+00 -0.37522095007E+01  0.37522095007E+01  0.00000000000E+00 0.  1.
          2    1    1    2  502    0  0.20518022704E+02 -0.15806670609E+01  0.96286006544E+03  0.96307995171E+03  0.00000000000E+00 0. -1.
         -2    1    1    2    0  502 -0.20518022704E+02  0.15806670609E+01  0.25425333409E+02  0.32709866142E+02  0.00000000000E+00 0.  1.
</event>
<event>
 4    1  0.3196713E+003  0.2021661E+02  0.7546771E-02  0.1530750E+00
          2   -1    0    0  501    0  0.00000000000E+00  0.00000000000E+00  0.38138716436E+02  0.38138716436E+02  0.00000000000E+00 0.  1.
         -2   -1    0    0    0  501 -0.00000000000E+00 -0.00000000000E+00 -0.16356359930E+03  0.16356359930E+03  0.00000000000E+00 0. -1.
          2    1    1    2  502    0 -0.18644172700E+02  0.78170294204E+01  0.34778945856E+02  0.40227928104E+02  0.00000000000E+00 0.  1.
         -2    1    1    2    0  502  0.18644172700E+02 -0.78170294204E+01 -0.16020382872E+03  0.16147438763E+03  0.00000000000E+00 0. -1.
</event>
<event>
 4    1  0.3196713E+003  0.3581074E+02  0.7546771E-02  0.1374951E+00
          2   -1    0    0  501    0  0.00000000000E+00  0.00000000000E+00  0.11356789714E+04  0.11356789714E+04  0.00000000000E+00 0.  1.
         -2   -1    0    0    0  501 -0.00000000000E+00 -0.00000000000E+00 -0.19601548672E+01  0.19601548672E+01  0.00000000000E+00 0.  1.
          2    1    1    2  502    0  0.35374261351E+02  0.55740928663E+01  0.93721423380E+03  0.93789814421E+03  0.00000000000E+00 0.  1.
         -2    1    1    2    0  502 -0.35374261351E+02 -0.55740928663E+01  0.19650458268E+03  0.19974098201E+03  0.00000000000E+00 0.  1.
</event>
<event>
 4    1  0.3196713E+003  0.2268817E+02  0.7546771E-02  0.1496451E+00
          2   -1    0    0  501    0  0.00000000000E+00  0.00000000000E+00  0.19863245750E+04  0.19863245750E+04  0.00000000000E+00 0. -1.
         -2   -1    0    0    0  501 -0.00000000000E+00 -0.00000000000E+00 -0.35986679520E+00  0.35986679520E+00  0.00000000000E+00 0.  1.
          2    1    1    2  502    0  0.22389119579E+02 -0.36715598834E+01  0.15184938212E+04  0.15186633064E+04  0.00000000000E+00 0. -1.
         -2    1    1    2    0  502 -0.22389119579E+02  0.36715598834E+01  0.46747088698E+03  0.46802113543E+03  0.00000000000E+00 0.  1.
</event>
<event>
 4    1  0.3196713E+003  0.3983221E+02  0.7546771E-02  0.1349472E+00
          2   -1    0    0  501    0  0.00000000000E+00  0.00000000000E+00  0.18410005403E+02  0.18410005403E+02  0.00000000000E+00 0.  1.
         -2   -1    0    0    0  501 -0.00000000000E+00 -0.00000000000E+00 -0.88652774715E+02  0.88652774715E+02  0.00000000000E+00 0.  1.
          2    1    1    2  502    0 -0.36532504696E+02  0.15873910446E+02 -0.26184044203E+02  0.47667694543E+02  0.00000000000E+00 0.  1.
         -2    1    1    2    0  502  0.36532504696E+02 -0.15873910446E+02 -0.44058725109E+02  0.59395085575E+02  0.00000000000E+00 0.  1.
</event>
<event>
 4    1  0.3196713E+003  0.3514951E+02  0.7546771E-02  0.1379515E+00
          2   -1    0    0  501    0  0.00000000000E+00  0.00000000000E+00  0.15969443272E+03  0.15969443272E+03  0.00000000000E+00 0. -1.
         -2   -1    0    0    0  501 -0.00000000000E+00 -0.00000000000E+00 -0.26911585788E+02  0.26911585788E+02  0.00000000000E+00 0. -1.
          2    1    1    2  502    0  0.23669037042E+02  0.25985856733E+02  0.14514926532E+03  0.14934455895E+03  0.00000000000E+00 0. -1.
         -2    1    1    2    0  502 -0.23669037042E+02 -0.25985856733E+02 -0.12366418389E+02  0.37261459558E+02  0.00000000000E+00 0. -1.
</event>
<event>
 4    1  0.3196713E+003  0.2080676E+02  0.7546771E-02  0.1522042E+00
          2   -1    0    0  501    0  0.00000000000E+00  0.00000000000E+00  0.12214926282E+04  0.12214926282E+04  0.00000000000E+00 0.  1.
         -2   -1    0    0    0  501 -0.00000000000E+00 -0.00000000000E+00 -0.31490233397E+01  0.31490233397E+01  0.00000000000E+00 0.  1.
          2    1    1    2  502    0 -0.10968089445E+02 -0.17681126201E+02  0.11860062541E+04  0.11861887523E+04  0.00000000000E+00 0.  1.
         -2    1    1    2    0  502  0.10968089445E+02  0.17681126201E+02  0.32337350805E+02  0.38452899330E+02  0.00000000000E+00 0.  1.
</event>
<event>
 4    1  0.3196713E+003  0.2188144E+02  0.7546771E-02  0.1507043E+00
          2   -1    0    0  501    0  0.00000000000E+00  0.00000000000E+00  0.67836858115E+01  0.67836858115E+01  0.00000000000E+00 0.  1.
         -2   -1    0    0    0  501 -0.00000000000E+00 -0.00000000000E+00 -0.10272090744E+03  0.10272090744E+03  0.00000000000E+00 0. -1.
          2    1    1    2  502    0 -0.38069087384E+01  0.21547734172E+02 -0.17342126479E+02  0.27920364484E+02  0.00000000000E+00 0.  1.
         -2    1    1    2    0  502  0.38069087384E+01 -0.21547734172E+02 -0.78595095151E+02  0.81584228770E+02  0.00000000000E+00 0. -1.
</event>
<event>
 4    1  0.3196713E+003  0.3204542E+02  0.7546771E-02  0.1402617E+00
          2   -1    0    0  501    0  0.00000000000E+00  0.00000000000E+00  0.77727722387E+03  0.77727722387E+03  0.00000000000E+00 0.  1.
         -2   -1    0    0    0  501 -0.00000000000E+00 -0.00000000000E+00 -0.28767038327E+01  0.28767038327E+01  0.00000000000E+00 0. -1.
          2    1    1    2  502    0 -0.27598087316E+02 -0.16286630213E+02  0.67404285592E+03  0.67480417927E+03  0.00000000000E+00 0.  1.
         -2    1    1    2    0  502  0.27598087316E+02  0.16286630213E+02  0.10035766412E+03  0.10534974843E+03  0.00000000000E+00 0. -1.
</event>
<event>
 4    1  0.3196713E+003  0.3430100E+02  0.7546771E-02  0.1385545E+00
          2   -1    0    0  501    0  0.00000000000E+00  0.00000000000E+00  0.47451475989E+03  0.47451475989E+03  0.00000000000E+00 0.  1.
         -2   -1    0    0    0  501 -0.00000000000E+00 -0.00000000000E+00 -0.12954334972E+02  0.12954334972E+02  0.00000000000E+00 0. -1.
          2    1    1    2  502    0 -0.19881459956E+02 -0.27951502391E+02  0.44995123945E+03  0.45125677482E+03  0.00000000000E+00 0.  1.
         -2    1    1    2    0  502  0.19881459956E+02  0.27951502391E+02  0.11609185470E+02  0.36212320047E+02  0.00000000000E+00 0. -1.
</event>
<event>
 4    1  0.3196713E+003  0.2208688E+02  0.7546771E-02  0.1504294E+00
          2   -1    0    0  501    0  0.00000000000E+00  0.00000000000E+00  0.25377874750E+03  0.25377874750E+03  0.00000000000E+00 0. -1.
         -2   -1    0    0    0  501 -0.00000000000E+00 -0.00000000000E+00 -0.20357087569E+02  0.20357087569E+02  0.00000000000E+00 0.  1.
          2    1    1    2  502    0  0.22072757364E+02 -0.78969135206E+00  0.24714682714E+03  0.24813178836E+03  0.00000000000E+00 0. -1.
         -2    1    1    2    0  502 -0.22072757364E+02  0.78969135206E+00 -0.13725167211E+02  0.26004046705E+02  0.00000000000E+00 0.  1.
</event>
<event>
 4    1  0.3196713E+003  0.2176990E+02  0.7546771E-02  0.1508550E+00
          2   -1    0    0  501    0  0.00000000000E+00  0.00000000000E+00  0.23665353262E+03  0.23665353262E+03  0.00000000000E+00 0.  1.
         -2   -1    0    0    0  501 -0.00000000000E+00 -0.00000000000E+00 -0.28170617305E+03  0.28170617305E+03  0.00000000000E+00 0.  1.
          2    1    1    2  502    0 -0.51345375326E+01  0.21155732890E+02  0.23573064541E+03  0.23673374431E+03  0.00000000000E+00 0.  1.
         -2    1    1    2    0  502  0.51345375326E+01 -0.21155732890E+02 -0.28078328584E+03  0.28162596136E+03  0.00000000000E+00 0.  1.
</event>
<event>
 4    1  0.3196713E+003  0.2269817E+02  0.7546771E-02  0.1496323E+00
          2   -1    0    0  501    0  0.00000000000E+00  0.00000000000E+00  0.33170780460E+03  0.33170780460E+03  0.00000000000E+00 0. -1.
         -2   -1    0    0    0  501 -0.00000000000E+00 -0.00000000000E+00 -0.24002818700E+02  0.24002818700E+02  0.00000000000E+00 0. -1.
          2    1    1    2  502    0 -0.44388550465E+01  0.22259906990E+02  0.32585716784E+03  0.32664675221E+03  0.00000000000E+00 0. -1.
         -2    1    1    2    0  502  0.44388550465E+01 -0.22259906990E+02 -0.18152181946E+02  0.29063871090E+02  0.00000000000E+00 0. -1.
</event>
<event>
 4    1  0.3196713E+003  0.2039837E+02  0.7546771E-02  0.1528031E+00
          2   -1    0    0  501    0  0.00000000000E+00  0.00000000000E+00  0.31591075840E+01  0.31591075840E+01  0.00000000000E+00 0. -1.
         -2   -1    0    0    0  501 -0.00000000000E+00 -0.00000000000E+00 -0.35222806336E+03  0.35222806336E+03  0.00000000000E+00 0.  1.
          2    1    1    2  502    0  0.29997303670E+01 -0.20176593401E+02 -0.33936329882E+02  0.39595047536E+02  0.00000000000E+00 0. -1.
         -2    1    1    2    0  502 -0.29997303670E+01  0.20176593401E+02 -0.31513262589E+03  0.31579212341E+03  0.00000000000E+00 0.  1.
</event>
<event>
 4    1  0.3196713E+003  0.2860404E+02  0.7546771E-02  0.1432128E+00
          2   -1    0    0  501    0  0.00000000000E+00  0.00000000000E+00  0.82630741805E+02  0.82630741805E+02  0.00000000000E+00 0.  1.
         -2   -1    0    0    0  501 -0.00000000000E+00 -0.00000000000E+00 -0.28756450502E+03  0.28756450502E+03  0.00000000000E+00 0. -1.
          2    1    1    2  502    0 -0.70730032130E+01  0.27715765416E+02  0.79416071872E+02  0.84410328151E+02  0.00000000000E+00 0.  1.
         -2    1    1    2    0  502  0.70730032130E+01 -0.27715765416E+02 -0.28434983508E+03  0.28578491867E+03  0.00000000000E+00 0. -1.
</event>
<event>
 4    1  0.3196713E+003  0.3017672E+02  0.7546771E-02  0.1418067E+00
          2   -1    0    0  501    0  0.00000000000E+00  0.00000000000E+00  0.57917487923E+03  0.57917487923E+03  0.00000000000E+00 0.  1.
         -2   -1    0    0    0  501 -0.00000000000E+00 -0.00000000000E+00 -0.27923181282E+02  0.27923181282E+02  0.00000000000E+00 0. -1.
          2    1    1    2  502    0 -0.30098480442E+02 -0.21715774593E+01  0.57050495962E+03  0.57130249712E+03  0.00000000000E+00 0.  1.
         -2    1    1    2    0  502  0.30098480442E+02  0.21715774593E+01 -0.19253261667E+02  0.35795563390E+02  0.00000000000E+00 0. -1.
</event>
<event>
 4    1  0.3196713E+003  0.2693986E+02  0.7546771E-02  0.1448213E+00
          2   -1    0    0  501    0  0.00000000000E+00  0.00000000000E+00  0.15179539990E+01  0.15179539990E+01  0.00000000000E+00 0.  1.
         -2   -1    0    0    0  501 -0.00000000000E+00 -0.00000000000E+00 -0.78643560110E+03  0.78643560110E+03  0.00000000000E+00 0. -1.
          2    1    1    2  502    0 -0.21357774535E+02 -0.16419548034E+02 -0.14577507556E+03  0.14824347792E+03  0.00000000000E+00 0.  1.
         -2    1    1    2    0  502  0.21357774535E+02  0.16419548034E+02 -0.63914257154E+03  0.63971007718E+03  0.00000000000E+00 0. -1.
</event>
<event>
 4    1  0.3196713E+003  0.2211396E+02  0.7546771E-02  0.1503934E+00
          2   -1    0    0  501    0  0.00000000000E+00  0.00000000000E+00  0.13176496794E+03  0.13176496794E+03  0.00000000000E+00 0.  1.
         -2   -1    0    0    0  501 -0.00000000000E+00 -0.00000000000E+00 -0.38248977624E+02  0.38248977624E+02  0.00000000000E+00 0.  1.
          2    1    1    2  502    0  0.12463392566E+02  0.18267218598E+02  0.12753557069E+03  0.12943859247E+03  0.00000000000E+00 0.  1.
         -2    1    1    2    0  502 -0.12463392566E+02 -0.18267218598E+02 -0.34019580375E+02  0.40575353091E+02  0.00000000000E+00 0.  1.
</event>
<event>
 4    1  0.3196713E+003  0.2362127E+02  0.7546771E-02  0.1484841E+00
          2   -1    0    0  501    0  0.00000000000E+00  0.00000000000E+00  0.23551384974E+02  0.23551384974E+02  0.00000000000E+00 0. -1.
         -2   -1    0    0    0  501 -0.00000000000E+00 -0.00000000000E+00 -0.10756370844E+03  0.10756370844E+03  0.00000000000E+00 0. -1.
          2    1    1    2  502    0 -0.23237894540E+02 -0.42384592800E+01  0.15883260886E+02  0.28464754629E+02  0.00000000000E+00 0. -1.
         -2    1    1    2    0  502  0.23237894540E+02  0.42384592800E+01 -0.99895584355E+02  0.10265033879E+03  0.00000000000E+00 0. -1.
</event>
<event>
 4    1  0.3196713E+003  0.2990585E+02  0.7546771E-02  0.1420417E+00
          2   -1    0    0  501    0  0.00000000000E+00  0.00000000000E+00  0.17902874376E+03  0.17902874376E+03  0.00000000000E+00 0.  1.
         -2   -1    0    0    0  501 -0.00000000000E+00 -0.00000000000E+00 -0.10994725061E+02  0.10994725061E+02  0.00000000000E+00 0.  1.
          2    1    1    2  502    0  0.28241666456E+02  0.98370776045E+01  0.15419941381E+03  0.15707265529E+03  0.00000000000E+00 0.  1.
         -2    1    1    2    0  502 -0.28241666456E+02 -0.98370776045E+01  0.13834604889E+02  0.32950813532E+02  0.00000000000E+00 0.  1.
</event>
<event>
 4    1  0.3196713E+003  0.2062151E+02  0.7546771E-02  0.1524738E+00
          2   -1    0    0  501    0  0.00000000000E+00  0.00000000000E+00  0.13882914523E+02  0.13882914523E+02  0.00000000000E+00 0. -1.
         -2   -1    0    0    0  501 -0.00000000000E+00 -0.00000000000E+00 -0.93773290954E+02  0.93773290954E+02  0.00000000000E+00 0. -1.
          2    1    1    2  502    0  0.17721547859E+02 -0.10544819808E+02  0.42250688439E+01  0.21049885748E+02  0.00000000000E+00 0. -1.
         -2    1    1    2    0  502 -0.17721547859E+02  0.10544819808E+02 -0.84115445275E+02  0.86606319729E+02  0.00000000000E+00 0. -1.
</event>
<event>
 4    1  0.3196713E+003  0.2935978E+02  0.7546771E-02  0.1425243E+00
          2   -1    0    0  501    0  0.00000000000E+00  0.00000000000E+00  0.45409840162E+03  0.45409840162E+03  0.00000000000E+00 0. -1.
         -2   -1    0    0    0  501 -0.00000000000E+00 -0.00000000000E+00 -0.22324088360E+02  0.22324088360E+02  0.00000000000E+00 0. -1.
          2    1    1    2  502    0 -0.16930126835E+02  0.23986819975E+02  0.44374565662E+03  0.44471586940E+03  0.00000000000E+00 0. -1.
         -2    1    1    2    0  502  0.16930126835E+02 -0.23986819975E+02 -0.11971343355E+02  0.31706620584E+02  0.00000000000E+00 0. -1.
</event>
<event>
 4    1  0.3196713E+003  0.2318683E+02  0.7546771E-02  0.1490165E+00
          2   -1    0    0  501    0  0.00000000000E+00  0.00000000000E+00  0.13685241661E+01  0.13685241661E+01  0.00000000000E+00 0.  1.
         -2   -1    0    0    0  501 -0.00000000000E+00 -0.00000000000E+00 -0.39736279882E+03  0.39736279882E+03  0.00000000000E+00 0.  1.
          2    1    1    2  502    0 -0.20468768231E+02  0.10893043802E+02 -0.17675816438E+03  0.17827248120E+03  0.00000000000E+00 0.  1.
         -2    1    1    2    0  502  0.20468768231E+02 -0.10893043802E+02 -0.21923611028E+03  0.22045884179E+03  0.00000000000E+00 0.  1.
</event>
<event>
 4    1  0.3196713E+003  0.2107029E+02  0.7546771E-02  0.1518264E+00
          2   -1    0    0  501    0  0.00000000000E+00  0.00000000000E+00  0.57507870249E+02  0.57507870249E+02  0.00000000000E+00 0. -1.
         -2   -1    0    0    0  501 -0.00000000000E+00 -0.00000000000E+00 -0.56942836752E+03  0.56942836752E+03  0.00000000000E+00 0. -1.
          2    1    1    2  502    0 -0.20676601923E+02 -0.40540180967E+01  0.55375722245E+02  0.59248861119E+02  0.00000000000E+00 0. -1.
         -2    1    1    2    0  502  0.20676601923E+02  0.40540180967E+01 -0.56729621952E+03  0.56768737665E+03  0.00000000000E+00 0. -1.
</event>
<event>
 4    1  0.3196713E+003  0.3111227E+02  0.7546771E-02  0.1410171E+00
          2   -1    0    0  501    0  0.00000000000E+00  0.00000000000E+00  0.37368382850E+03  0.37368382850E+03  0.00000000000E+00 0.  1.
         -2   -1    0    0    0  501 -0.00000000000E+00 -0.00000000000E+00 -0.50127412969E+02  0.50127412969E+02  0.00000000000E+00 0.  1.
          2    1    1    2  502    0 -0.12671300921E+02  0.28414989439E+02  0.36813605286E+03  0.36944840899E+03  0.00000000000E+00 0.  1.
         -2    1    1    2    0  502  0.12671300921E+02 -0.28414989439E+02 -0.44579637322E+02  0.54362832484E+02  0.00000000000E+00 0.  1.
</event>
<event>
 4    1  0.3196713E+003  0.2056875E+02  0.7546771E-02  0.1525512E+00
          2   -1    0    0  501    0  0.00000000000E+00  0.00000000000E+00  0.10314332188E+04  0.10314332188E+04  0.00000000000E+00 0. -1.
         -2   -1    0    0    0  501 -0.00000000000E+00 -0.00000000000E+00 -0.43629644269E+00  0.43629644269E+00  0.00000000000E+00 0. -1.
          2    1    1    2  502    0  0.30919951590E+01  0.20335021707E+02  0.64172737105E+03  0.64205692294E+03  0.00000000000E+00 0. -1.
         -2    1    1    2    0  502 -0.30919951590E+01 -0.20335021707E+02  0.38926955135E+03  0.38981259234E+03  0.00000000000E+00 0. -1.
</event>
<event>
 4    1  0.3196713E+003  0.5610589E+02  0.7546771E-02  0.1273670E+00
          2   -1    0    0  501    0  0.00000000000E+00  0.00000000000E+00  0.16780019349E+03  0.16780019349E+03  0.00000000000E+00 0. -1.
         -2   -1    0    0    0  501 -0.00000000000E+00 -0.00000000000E+00 -0.13056921086E+03  0.13056921086E+03  0.00000000000E+00 0.  1.
          2    1    1    2  502    0 -0.88738234739E+01 -0.55399691683E+02  0.15666771284E+03  0.16641106582E+03  0.00000000000E+00 0. -1.
         -2    1    1    2    0  502  0.88738234739E+01  0.55399691683E+02 -0.11943673022E+03  0.13195833853E+03  0.00000000000E+00 0.  1.
</event>
<event>
 4    1  0.3196713E+003  0.2448397E+02  0.7546771E-02  0.1474660E+00
          2   -1    0    0  501    0  0.00000000000E+00  0.00000000000E+00  0.54965336847E+02  0.54965336847E+02  0.00000000000E+00 0. -1.
         -2   -1    0    0    0  501 -0.00000000000E+00 -0.00000000000E+00 -0.36028713706E+03  0.36028713706E+03  0.00000000000E+00 0. -1.
          2    1    1    2  502    0  0.12173638996E+02  0.21243047973E+02  0.51798667758E+02  0.57293686869E+02  0.00000000000E+00 0. -1.
         -2    1    1    2    0  502 -0.12173638996E+02 -0.21243047973E+02 -0.35712046797E+03  0.35795878704E+03  0.00000000000E+00 0. -1.
</event>
<event>
 4    1  0.3196713E+003  0.2109919E+02  0.7546771E-02  0.1517853E+00
          2   -1    0    0  501    0  0.00000000000E+00  0.00000000000E+00  0.53054153367E+02  0.53054153367E+02  0.00000000000E+00 0. -1.
         -2   -1    0    0    0  501 -0.00000000000E+00 -0.00000000000E+00 -0.86119999992E+02  0.86119999992E+02  0.00000000000E+00 0. -1.
          2    1    1    2  502    0 -0.14693432738E+02  0.15141960521E+02  0.49577235320E+02  0.53880220824E+02  0.00000000000E+00 0. -1.
         -2    1    1    2    0  502  0.14693432738E+02 -0.15141960521E+02 -0.82643081944E+02  0.85293932535E+02  0.00000000000E+00 0. -1.
</event>
<event>
 4    1  0.3196713E+003  0.5393754E+02  0.7546771E-02  0.1281947E+00
          2   -1    0    0  501    0  0.00000000000E+00  0.00000000000E+00  0.49175686336E+03  0.49175686336E+03  0.00000000000E+00 0. -1.
         -2   -1    0    0    0  501 -0.00000000000E+00 -0.00000000000E+00 -0.18236847818E+02  0.18236847818E+02  0.00000000000E+00 0. -1.
          2    1    1    2  502    0 -0.53478966472E+02  0.70184242767E+01  0.44635425370E+03  0.44960135445E+03  0.00000000000E+00 0. -1.
         -2    1    1    2    0  502  0.53478966472E+02 -0.70184242767E+01  0.27165761849E+02  0.60392356728E+02  0.00000000000E+00 0. -1.
</event>
<event>
 4    1  0.3196713E+003  0.6307236E+02  0.7546771E-02  0.1249736E+00
          2   -1    0    0  501    0  0.00000000000E+00  0.00000000000E+00  0.15631458845E+04  0.15631458845E+04  0.00000000000E+00 0.  1.
         -2   -1    0    0    0  501 -0.00000000000E+00 -0.00000000000E+00 -0.47117687945E+01  0.47117687945E+01  0.00000000000E+00 0. -1.
          2    1    1    2  502    0  0.60075419507E+02  0.19211100109E+02  0.13108309393E+04  0.13123474669E+04  0.00000000000E+00 0.  1.
         -2    1    1    2    0  502 -0.60075419507E+02 -0.19211100109E+02  0.24760317641E+03  0.25551018642E+03  0.00000000000E+00 0. -1.
</event>
<event>
 4    1  0.3196713E+003  0.3994233E+02  0.7546771E-02  0.1348824E+00
          2   -1    0    0  501    0  0.00000000000E+00  0.00000000000E+00  0.42937887453E+03  0.42937887453E+03  0.00000000000E+00 0. -1.
         -2   -1    0    0    0  501 -0.00000000000E+00 -0.00000000000E+00 -0.62289371086E+03  0.62289371086E+03  0.00000000000E+00 0.  1.
          2    1    1    2  502    0 -0.31817598745E+02  0.24146019247E+02  0.42780731961E+03  0.42966788633E+03  0.00000000000E+00 0. -1.
         -2    1    1    2    0  502  0.31817598745E+02 -0.24146019247E+02 -0.62132215594E+03  0.62260469906E+03  0.00000000000E+00 0.  1.
</event>
<event>
 4    1  0.3196713E+003  0.2215488E+02  0.7546771E-02  0.1503392E+00
          2   -1    0    0  501    0  0.00000000000E+00  0.00000000000E+00  0.57198447322E+03  0.57198447322E+03  0.00000000000E+00 0. -1.
         -2   -1    0    0    0  501 -0.00000000000E+00 -0.00000000000E+00 -0.76481278641E+01  0.76481278641E+01  0.00000000000E+00 0. -1.
          2    1    1    2  502    0 -0.21590936042E+02  0.49669075570E+01  0.55524192926E+03  0.55568375781E+03  0.00000000000E+00 0. -1.
         -2    1    1    2    0  502  0.21590936042E+02 -0.49669075570E+01  0.90944160964E+01  0.23948843271E+02  0.00000000000E+00 0. -1.
</event>
<event>
 4    1  0.3196713E+003  0.2366880E+02  0.7546771E-02  0.1484267E+00
          2   -1    0    0  501    0  0.00000000000E+00  0.00000000000E+00  0.79903266053E+01  0.79903266053E+01  0.00000000000E+00 0.  1.
         -2   -1    0    0    0  501 -0.00000000000E+00 -0.00000000000E+00 -0.21493999175E+03  0.21493999175E+03  0.00000000000E+00 0. -1.
          2    1    1    2  502    0  0.63508281806E+01 -0.22800854133E+02 -0.11977618377E+02  0.26526879005E+02  0.00000000000E+00 0.  1.
         -2    1    1    2    0  502 -0.63508281806E+01  0.22800854133E+02 -0.19497204677E+03  0.19640343935E+03  0.00000000000E+00 0. -1.
</event>
<event>
 4    1  0.3196713E+003  0.2458339E+02  0.7546771E-02  0.1473518E+00
          2   -1    0    0  501    0  0.00000000000E+00  0.00000000000E+00  0.35118306323E+03  0.35118306323E+03  0.00000000000E+00 0. -1.
         -2   -1    0    0    0  501 -0.00000000000E+00 -0.00000000000E+00 -0.76042717869E+01  0.76042717869E+01  0.00000000000E+00 0.  1.
          2    1    1    2  502    0 -0.17872697094E+02  0.16879267041E+02  0.32958404713E+03  0.33049960224E+03  0.00000000000E+00 0. -1.
         -2    1    1    2    0  502  0.17872697094E+02 -0.16879267041E+02  0.13994744310E+02  0.28287732775E+02  0.00000000000E+00 0.  1.
</event>
<event>
 4    1  0.3196713E+003  0.2104363E+02  0.7546771E-02  0.1518643E+00
          2   -1    0    0  501    0  0.00000000000E+00  0.00000000000E+00  0.31381516741E+03  0.31381516741E+03  0.00000000000E+00 0.  1.
         -2   -1    0    0    0  501 -0.00000000000E+00 -0.00000000000E+00 -0.49527949874E+01  0.49527949874E+01  0.00000000000E+00 0. -1.
          2    1    1    2  502    0 -0.14422025277E+02 -0.15324477814E+02  0.28921047143E+03  0.28997505275E+03  0.00000000000E+00 0.  1.
         -2    1    1    2    0  502  0.14422025277E+02  0.15324477814E+02  0.19651900998E+02  0.28792909651E+02  0.00000000000E+00 0. -1.
</event>
<event>
 4    1  0.3196713E+003  0.4117157E+02  0.7546771E-02  0.1341754E+00
          2   -1    0    0  501    0  0.00000000000E+00  0.00000000000E+00  0.79352289013E+01  0.79352289013E+01  0.00000000000E+00 0.  1.
         -2   -1    0    0    0  501 -0.00000000000E+00 -0.00000000000E+00 -0.36864443676E+03  0.36864443676E+03  0.00000000000E+00 0.  1.
          2    1    1    2  502    0 -0.38486534101E+02  0.14624803058E+02 -0.58251248965E+02  0.71332364166E+02  0.00000000000E+00 0.  1.
         -2    1    1    2    0  502  0.38486534101E+02 -0.14624803058E+02 -0.30245795889E+03  0.30524730149E+03  0.00000000000E+00 0.  1.
</event>
<event>
 4    1  0.3196713E+003  0.2172305E+02  0.7546771E-02  0.1509187E+00
          2   -1    0    0  501    0  0.00000000000E+00  0.00000000000E+00  0.27030922013E+03  0.27030922013E+03  0.00000000000E+00 0.  1.
         -2   -1    0    0    0  501 -0.00000000000E+00 -0.00000000000E+00 -0.19512396337E+01  0.19512396337E+01  0.00000000000E+00 0.  1.
          2    1    1    2  502    0  0.16928973330E+02  0.13612526301E+02  0.17835630930E+03  0.17967432781E+03  0.00000000000E+00 0.  1.
         -2    1    1    2    0  502 -0.16928973330E+02 -0.13612526301E+02  0.90001671202E+02  0.92586131950E+02  0.00000000000E+00 0.  1.
</event>
<event>
 4    1  0.3196713E+003  0.2598938E+02  0.7546771E-02  0.1458033E+00
          2   -1    0    0  501    0  0.00000000000E+00  0.00000000000E+00  0.88315211264E+02  0.88315211264E+02  0.00000000000E+00 0.  1.
         -2   -1    0    0    0  501 -0.00000000000E+00 -0.00000000000E+00 -0.77598216012E+01  0.77598216012E+01  0.00000000000E+00 0.  1.
          2    1    1    2  502    0 -0.25784431493E+02  0.32574712347E+01  0.46040382705E+02  0.52869318758E+02  0.00000000000E+00 0.  1.
         -2    1    1    2    0  502  0.25784431493E+02 -0.32574712347E+01  0.34515006958E+02  0.43205714108E+02  0.00000000000E+00 0.  1.
</event>
<event>
 4    1  0.3196713E+003  0.3433310E+02  0.7546771E-02  0.1385313E+00
          2   -1    0    0  501    0  0.00000000000E+00  0.00000000000E+00  0.48396482312E+03  0.48396482312E+03  0.00000000000E+00 0.  1.
         -2   -1    0    0    0  501 -0.00000000000E+00 -0.00000000000E+00 -0.18264519810E+02  0.18264519810E+02  0.00000000000E+00 0.  1.
          2    1    1    2  502    0 -0.32771215380E+02 -0.10237630372E+02  0.46662248844E+03  0.46788386203E+03  0.00000000000E+00 0.  1.
         -2    1    1    2    0  502  0.32771215380E+02  0.10237630372E+02 -0.92218512254E+00  0.34345480904E+02  0.00000000000E+00 0.  1.
</event>
<event>
 4    1  0.3196713E+003  0.2052947E+02  0.7546771E-02  0.1526090E+00
          2   -1    0    0  501    0  0.00000000000E+00  0.00000000000E+00  0.97931039782E+03  0.97931039782E+03  0.00000000000E+00 0.  1.
         -2   -1    0    0    0  501 -0.00000000000E+00 -0.00000000000E+00 -0.99341966456E+01  0.99341966456E+01  0.00000000000E+00 0.  1.
          2    1    1    2  502    0  0.20401927224E+02  0.22848264664E+01  0.96847791919E+03  0.96869548313E+03  0.00000000000E+00 0.  1.
         -2    1    1    2    0  502 -0.20401927224E+02 -0.22848264664E+01  0.89828198565E+00  0.20549111343E+02  0.00000000000E+00 0.  1.
</event>
<event>
 4    1  0.3196713E+003  0.2089365E+02  0.7546771E-02  0.1520789E+00
          2   -1    0    0  501    0  0.00000000000E+00  0.00000000000E+00  0.18731141219E+02  0.18731141219E+02  0.00000000000E+00 0.  1.
         -2   -1    0    0    0  501 -0.00000000000E+00 -0.00000000000E+00 -0.50552734163E+02  0.50552734163E+02  0.00000000000E+00 0.  1.
          2    1    1    2  502    0  0.19501916027E+02  0.74979941209E+01  0.95216709392E+01  0.22960985650E+02  0.00000000000E+00 0.  1.
         -2    1    1    2    0  502 -0.19501916027E+02 -0.74979941209E+01 -0.41343263884E+02  0.46322889732E+02  0.00000000000E+00 0.  1.
</event>
<event>
 4    1  0.3196713E+003  0.3864670E+02  0.7546771E-02  0.1356604E+00
          2   -1    0    0  501    0  0.00000000000E+00  0.00000000000E+00  0.54949461436E+03  0.54949461436E+03  0.00000000000E+00 0.  1.
         -2   -1    0    0    0  501 -0.00000000000E+00 -0.00000000000E+00 -0.52881167325E+02  0.52881167325E+02  0.00000000000E+00 0.  1.
          2    1    1    2  502    0 -0.75900545232E+01 -0.37894041349E+02  0.54165202948E+03  0.54302899401E+03  0.00000000000E+00 0.  1.
         -2    1    1    2    0  502  0.75900545232E+01  0.37894041349E+02 -0.45038582450E+02  0.59346787668E+02  0.00000000000E+00 0.  1.
</event>
<event>
 4    1  0.3196713E+003  0.2531753E+02  0.7546771E-02  0.1465282E+00
          2   -1    0    0  501    0  0.00000000000E+00  0.00000000000E+00  0.24073975901E+02  0.24073975901E+02  0.00000000000E+00 0.  1.
         -2   -1    0    0    0  501 -0.00000000000E+00 -0.00000000000E+00 -0.34642199387E+02  0.34642199387E+02  0.00000000000E+00 0.  1.
          2    1    1    2  502    0 -0.22672224504E+02 -0.11267109444E+02  0.88389050632E+01  0.26816110119E+02  0.00000000000E+00 0.  1.
         -2    1    1    2    0  502  0.22672224504E+02  0.11267109444E+02 -0.19407128550E+02  0.31900065168E+02  0.00000000000E+00 0.  1.
</event>
<event>
 4    1  0.3196713E+003  0.2866238E+02  0.7546771E-02  0.1431588E+00
          2   -1    0    0  501    0  0.00000000000E+00  0.00000000000E+00  0.31093051201E+03  0.31093051201E+03  0.00000000000E+00 0.  1.
         -2   -1    0    0    0  501 -0.00000000000E+00 -0.00000000000E+00 -0.17427807251E+03  0.17427807251E+03  0.00000000000E+00 0.  1.
          2    1    1    2  502    0 -0.15945822794E+02 -0.23817277589E+02  0.30908446671E+03  0.31041059830E+03  0.00000000000E+00 0.  1.
         -2    1    1    2    0  502  0.15945822794E+02  0.23817277589E+02 -0.17243202722E+03  0.17479798622E+03  0.00000000000E+00 0.  1.
</event>
<event>
 4    1  0.3196713E+003  0.2075163E+02  0.7546771E-02  0.1522841E+00
          2   -1    0    0  501    0  0.00000000000E+00  0.00000000000E+00  0.30166172911E+03  0.30166172911E+03  0.00000000000E+00 0.  1.
         -2   -1    0    0    0  501 -0.00000000000E+00 -0.00000000000E+00 -0.10298962175E+02  0.10298962175E+02  0.00000000000E+00 0. -1.
          2    1    1    2  502    0  0.19704909701E+02 -0.65074442783E+01  0.29044855385E+03  0.29118892961E+03  0.00000000000E+00 0.  1.
         -2    1    1    2    0  502 -0.19704909701E+02  0.65074442783E+01  0.91421308824E+00  0.20771761671E+02  0.00000000000E+00 0. -1.
</event>
<event>
 4    1  0.3196713E+003  0.3088395E+02  0.7546771E-02  0.1412067E+00
          2   -1    0    0  501    0  0.00000000000E+00  0.00000000000E+00  0.36885014732E+03  0.36885014732E+03  0.00000000000E+00 0. -1.
         -2   -1    0    0    0  501 -0.00000000000E+00 -0.00000000000E+00 -0.31700212500E+03  0.31700212500E+03  0.00000000000E+00 0. -1.
          2    1    1    2  502    0 -0.29307567897E+02 -0.97408874855E+01  0.36744858450E+03  0.36874419410E+03  0.00000000000E+00 0. -1.
         -2    1    1    2    0  502  0.29307567897E+02  0.97408874855E+01 -0.31560056219E+03  0.31710807823E+03  0.00000000000E+00 0. -1.
</event>
<event>
 4    1  0.3196713E+003  0.3959885E+02  0.7546771E-02  0.1350853E+00
          2   -1    0    0  501    0  0.00000000000E+00  0.00000000000E+00  0.58952641316E+03  0.58952641316E+03  0.00000000000E+00 0.  1.
         -2   -1    0    0    0  501 -0.00000000000E+00 -0.00000000000E+00 -0.66333103046E+01  0.66333103046E+01  0.00000000000E+00 0. -1.
          2    1    1    2  502    0  0.11378543594E+02 -0.37928852308E+02  0.52214799833E+03  0.52364740164E+03  0.00000000000E+00 0.  1.
         -2    1    1    2    0  502 -0.11378543594E+02  0.37928852308E+02  0.60745104530E+02  0.72512321823E+02  0.00000000000E+00 0. -1.
</event>
<event>
 4    1  0.3196713E+003  0.2177231E+02  0.7546771E-02  0.1508518E+00
          2   -1    0    0  501    0  0.00000000000E+00  0.00000000000E+00  0.10964607057E+04  0.10964607057E+04  0.00000000000E+00 0. -1.
         -2   -1    0    0    0  501 -0.00000000000E+00 -0.00000000000E+00 -0.32825363491E+01  0.32825363491E+01  0.00000000000E+00 0.  1.
          2    1    1    2  502    0 -0.19768974325E+02 -0.91225628839E+01  0.10589720010E+04  0.10591957951E+04  0.00000000000E+00 0. -1.
         -2    1    1    2    0  502  0.19768974325E+02  0.91225628839E+01  0.34206168373E+02  0.40547446951E+02  0.00000000000E+00 0.  1.
</event>
<event>
 4    1  0.3196713E+003  0.2709495E+02  0.7546771E-02  0.1446657E+00
          2   -1    0    0  501    0  0.00000000000E+00  0.00000000000E+00  0.26209922628E+02  0.26209922628E+02  0.00000000000E+00 0. -1.
         -2   -1    0    0    0  501 -0.00000000000E+00 -0.00000000000E+00 -0.28009891893E+02  0.28009891893E+02  0.00000000000E+00 0. -1.
          2    1    1    2  502    0 -0.20256231735E+02 -0.17995037293E+02 -0.87154264818E+00  0.27108963054E+02  0.00000000000E+00 0. -1.
         -2    1    1    2    0  502  0.20256231735E+02  0.17995037293E+02 -0.92842661697E+00  0.27110851467E+02  0.00000000000E+00 0. -1.
</event>
<event>
 4    1  0.3196713E+003  0.6636670E+02  0.7546771E-02  0.1239611E+00
          2   -1    0    0  501    0  0.00000000000E+00  0.00000000000E+00  0.26754122957E+04  0.26754122957E+04  0.00000000000E+00 0. -1.
         -2   -1    0    0    0  501 -0.00000000000E+00 -0.00000000000E+00 -0.17206659328E+02  0.17206659328E+02  0.00000000000E+00 0.  1.
          2    1    1    2  502    0 -0.65002030503E+02  0.13389357365E+02  0.26093870426E+04  0.26102308857E+04  0.00000000000E+00 0. -1.
         -2    1    1    2    0  502  0.65002030503E+02 -0.13389357365E+02  0.48818593766E+02  0.82388069266E+02  0.00000000000E+00 0.  1.
</event>
<event>
 4    1  0.3196713E+003  0.3416535E+02  0.7546771E-02  0.1386528E+00
          2   -1    0    0  501    0  0.00000000000E+00  0.00000000000E+00  0.19371593837E+02  0.19371593837E+02  0.00000000000E+00 0. -1.
         -2   -1    0    0    0  501 -0.00000000000E+00 -0.00000000000E+00 -0.82661293001E+02  0.82661293001E+02  0.00000000000E+00 0.  1.
          2    1    1    2  502    0  0.87955864737E+01  0.33013770231E+02 -0.50849709524E+01  0.34541689245E+02  0.00000000000E+00 0. -1.
         -2    1    1    2    0  502 -0.87955864737E+01 -0.33013770231E+02 -0.58204728211E+02  0.67491197593E+02  0.00000000000E+00 0.  1.
</event>
<event>
 4    1  0.3196713E+003  0.2025928E+02  0.7546771E-02  0.1530108E+00
          2   -1    0    0  501    0  0.00000000000E+00  0.00000000000E+00  0.48099459690E+03  0.48099459690E+03  0.00000000000E+00 0.  1.
         -2   -1    0    0    0  501 -0.00000000000E+00 -0.00000000000E+00 -0.95723620003E+00  0.95723620003E+00  0.00000000000E+00 0.  1.
          2    1    1    2  502    0  0.13833346845E+02 -0.14801229665E+02  0.16061786994E+03  0.16189051247E+03  0.00000000000E+00 0.  1.
         -2    1    1    2    0  502 -0.13833346845E+02  0.14801229665E+02  0.31941949076E+03  0.32006132063E+03  0.00000000000E+00 0.  1.
</event>
<event>
 4    1  0.3196713E+003  0.2629809E+02  0.7546771E-02  0.1454789E+00
          2   -1    0    0  501    0  0.00000000000E+00  0.00000000000E+00  0.77988995009E+02  0.77988995009E+02  0.00000000000E+00 0. -1.
         -2   -1    0    0    0  501 -0.00000000000E+00 -0.00000000000E+00 -0.96145412140E+01  0.96145412140E+01  0.00000000000E+00 0. -1.
          2    1    1    2  502    0  0.24285656057E+02 -0.10089429819E+02  0.46394442557E+02  0.53329485132E+02  0.00000000000E+00 0. -1.
         -2    1    1    2    0  502 -0.24285656057E+02  0.10089429819E+02  0.21980011237E+02  0.34274051091E+02  0.00000000000E+00 0. -1.
</event>
<event>
 4    1  0.3196713E+003  0.2897156E+02  0.7546771E-02  0.1428749E+00
          2   -1    0    0  501    0  0.00000000000E+00  0.00000000000E+00  0.95480012285E+01  0.95480012285E+01  0.00000000000E+00 0.  1.
         -2   -1    0    0    0  501 -0.00000000000E+00 -0.00000000000E+00 -0.21554122039E+03  0.21554122039E+03  0.00000000000E+00 0. -1.
          2    1    1    2  502    0 -0.50662070939E+01 -0.28525162234E+02 -0.16392122660E+02  0.33287430362E+02  0.00000000000E+00 0.  1.
         -2    1    1    2    0  502  0.50662070939E+01  0.28525162234E+02 -0.18960109650E+03  0.19180179126E+03  0.00000000000E+00 0. -1.
</event>
<event>
 4    1  0.3196713E+003  0.3650495E+02  0.7546771E-02  0.1370281E+00
          2   -1    0    0  501    0  0.00000000000E+00  0.00000000000E+00  0.42669319300E+02  0.42669319300E+02  0.00000000000E+00 0.  1.
         -2   -1    0    0    0  501 -0.00000000000E+00 -0.00000000000E+00 -0.51087364715E+02  0.51087364715E+02  0.00000000000E+00 0. -1.
          2    1    1    2  502    0 -0.30751086039E+01  0.36375202291E+02  0.25016601384E+02  0.44254287696E+02  0.00000000000E+00 0.  1.
         -2    1    1    2    0  502  0.30751086039E+01 -0.36375202291E+02 -0.33434646800E+02  0.49502396319E+02  0.00000000000E+00 0. -1.
</event>
<event>
 4    1  0.3196713E+003  0.2014364E+02  0.7546771E-02  0.1531851E+00
          2   -1    0    0  501    0  0.00000000000E+00  0.00000000000E+00  0.72904618483E+02  0.72904618483E+02  0.00000000000E+00 0.  1.
         -2   -1    0    0    0  501 -0.00000000000E+00 -0.00000000000E+00 -0.55784675759E+01  0.55784675759E+01  0.00000000000E+00 0.  1.
          2    1    1    2  502    0  0.11175446768E+02  0.16759349856E+02  0.35539221738E+02  0.40850981626E+02  0.00000000000E+00 0.  1.
         -2    1    1    2    0  502 -0.11175446768E+02 -0.16759349856E+02  0.31786929168E+02  0.37632104432E+02  0.00000000000E+00 0.  1.
</event>
<event>
 4    1  0.3196713E+003  0.2599173E+02  0.7546771E-02  0.1458008E+00
          2   -1    0    0  501    0  0.00000000000E+00  0.00000000000E+00  0.10194307980E+04  0.10194307980E+04  0.00000000000E+00 0. -1.
         -2   -1    0    0    0  501 -0.00000000000E+00 -0.00000000000E+00 -0.67282252777E+00  0.67282252777E+00  0.00000000000E+00 0. -1.
          2    1    1    2  502    0 -0.51615981896E+01 -0.25474052655E+02  0.44679505908E+03  0.44755043769E+03  0.00000000000E+00 0. -1.
         -2    1    1    2    0  502  0.51615981896E+01  0.25474052655E+02  0.57196291643E+03  0.57255318288E+03  0.00000000000E+00 0. -1.
</event>
<event>
 4    1  0.3196713E+003  0.2576850E+02  0.7546771E-02  0.1460387E+00
          2   -1    0    0  501    0  0.00000000000E+00  0.00000000000E+00  0.31069612790E+03  0.31069612790E+03  0.00000000000E+00 0. -1.
         -2   -1    0    0    0  501 -0.00000000000E+00 -0.00000000000E+00 -0.29873226443E+01  0.29873226443E+01  0.00000000000E+00 0. -1.
          2    1    1    2  502    0 -0.16628347882E+02  0.19685367172E+02  0.23752343251E+03  0.23891713339E+03  0.00000000000E+00 0. -1.
         -2    1    1    2    0  502  0.16628347882E+02 -0.19685367172E+02  0.70185372747E+02  0.74766317159E+02  0.00000000000E+00 0. -1.
</event>
<event>
 4    1  0.3196713E+003  0.2765584E+02  0.7546771E-02  0.1441129E+00
          2   -1    0    0  501    0  0.00000000000E+00  0.00000000000E+00  0.11707500207E+02  0.11707500207E+02  0.00000000000E+00 0. -1.
         -2   -1    0    0    0  501 -0.00000000000E+00 -0.00000000000E+00 -0.73560866960E+02  0.73560866960E+02  0.00000000000E+00 0. -1.
          2    1    1    2  502    0 -0.27559934575E+02  0.23011799298E+01 -0.16665030427E+02  0.32288831846E+02  0.00000000000E+00 0. -1.
         -2    1    1    2    0  502  0.27559934575E+02 -0.23011799298E+01 -0.45188336326E+02  0.52979535321E+02  0.00000000000E+00 0. -1.
</event>
<event>
 4    1  0.3196713E+003  0.2125943E+02  0.7546771E-02  0.1515593E+00
          2   -1    0    0  501    0  0.00000000000E+00  0.00000000000E+00  0.22969025067E+03  0.22969025067E+03  0.00000000000E+00 0. -1.
         -2   -1    0    0    0  501 -0.00000000000E+00 -0.00000000000E+00 -0.23068579775E+01  0.23068579775E+01  0.00000000000E+00 0.  1.
          2    1    1    2  502    0 -0.20090678253E+02 -0.69518292079E+01  0.15816897595E+03  0.15959131629E+03  0.00000000000E+00 0. -1.
         -2    1    1    2    0  502  0.20090678253E+02  0.69518292079E+01  0.69214416748E+02  0.72405792363E+02  0.00000000000E+00 0.  1.
</event>
<event>
 4    1  0.3196713E+003  0.2059703E+02  0.7546771E-02  0.1525097E+00
          2   -1    0    0  501    0  0.00000000000E+00  0.00000000000E+00  0.19218182462E+04  0.19218182462E+04  0.00000000000E+00 0.  1.
         -2   -1    0    0    0  501 -0.00000000000E+00 -0.00000000000E+00 -0.27663698691E+00  0.27663698691E+00  0.00000000000E+00 0.  1.
          2    1    1    2  502    0 -0.71670507011E+01  0.19309865431E+02  0.13927400762E+04  0.13928923710E+04  0.00000000000E+00 0.  1.
         -2    1    1    2    0  502  0.71670507011E+01 -0.19309865431E+02  0.52880153303E+03  0.52920251214E+03  0.00000000000E+00 0.  1.
</event>
<event>
 4    1  0.3196713E+003  0.3675793E+02  0.7546771E-02  0.1368608E+00
          2   -1    0    0  501    0  0.00000000000E+00  0.00000000000E+00  0.11648169206E+03  0.11648169206E+03  0.00000000000E+00 0.  1.
         -2   -1    0    0    0  501 -0.00000000000E+00 -0.00000000000E+00 -0.17224524256E+03  0.17224524256E+03  0.00000000000E+00 0. -1.
          2    1    1    2  502    0 -0.16008345325E+02 -0.33088942366E+02  0.11153598868E+03  0.11743688517E+03  0.00000000000E+00 0.  1.
         -2    1    1    2    0  502  0.16008345325E+02  0.33088942366E+02 -0.16729953919E+03  0.17129004945E+03  0.00000000000E+00 0. -1.
</event>
<event>
 4    1  0.3196713E+003  0.4107219E+02  0.7546771E-02  0.1342315E+00
          2   -1    0    0  501    0  0.00000000000E+00  0.00000000000E+00  0.16749953751E+04  0.16749953751E+04  0.00000000000E+00 0.  1.
         -2   -1    0    0    0  501 -0.00000000000E+00 -0.00000000000E+00 -0.78685812520E+03  0.78685812520E+03  0.00000000000E+00 0.  1.
          2    1    1    2  502    0  0.13779599369E+02 -0.38691693663E+02  0.16742073740E+04  0.16747110962E+04  0.00000000000E+00 0.  1.
         -2    1    1    2    0  502 -0.13779599369E+02  0.38691693663E+02 -0.78607012405E+03  0.78714240416E+03  0.00000000000E+00 0.  1.
</event>
<event>
 4    1  0.3196713E+003  0.3636346E+02  0.7546771E-02  0.1371223E+00
          2   -1    0    0  501    0  0.00000000000E+00  0.00000000000E+00  0.13565069620E+02  0.13565069620E+02  0.00000000000E+00 0.  1.
         -2   -1    0    0    0  501 -0.00000000000E+00 -0.00000000000E+00 -0.19989913201E+03  0.19989913201E+03  0.00000000000E+00 0.  1.
          2    1    1    2  502    0 -0.10759635646E+01 -0.36347541947E+02 -0.16768764274E+02  0.40043638178E+02  0.00000000000E+00 0.  1.
         -2    1    1    2    0  502  0.10759635646E+01  0.36347541947E+02 -0.16956529811E+03  0.17342056345E+03  0.00000000000E+00 0.  1.
</event>
<event>
 4    1  0.3196713E+003  0.2380723E+02  0.7546771E-02  0.1482603E+00
          2   -1    0    0  501    0  0.00000000000E+00  0.00000000000E+00  0.96651641520E+03  0.96651641520E+03  0.00000000000E+00 0. -1.
         -2   -1    0    0    0  501 -0.00000000000E+00 -0.00000000000E+00 -0.44071493567E+01  0.44071493567E+01  0.00000000000E+00 0. -1.
          2    1    1    2  502    0 -0.18320045633E+02  0.15203954156E+02  0.93306595645E+03  0.93336962848E+03  0.00000000000E+00 0. -1.
         -2    1    1    2    0  502  0.18320045633E+02 -0.15203954156E+02  0.29043309398E+02  0.37553936076E+02  0.00000000000E+00 0. -1.
</event>
<event>
 4    1  0.3196713E+003  0.2472018E+02  0.7546771E-02  0.1471958E+00
          2   -1    0    0  501    0  0.00000000000E+00  0.00000000000E+00  0.18182864167E+03  0.18182864167E+03  0.00000000000E+00 0. -1.
         -2   -1    0    0    0  501 -0.00000000000E+00 -0.00000000000E+00 -0.36193506681E+01  0.36193506681E+01  0.00000000000E+00 0. -1.
          2    1    1    2  502    0 -0.45177819008E+01  0.24303831268E+02  0.64321061868E+02  0.68907804837E+02  0.00000000000E+00 0. -1.
         -2    1    1    2    0  502  0.45177819008E+01 -0.24303831268E+02  0.11388822914E+03  0.11654018750E+03  0.00000000000E+00 0. -1.
</event>
<event>
 4    1  0.3196713E+003  0.4839078E+02  0.7546771E-02  0.1305304E+00
          2   -1    0    0  501    0  0.00000000000E+00  0.00000000000E+00  0.31907941652E+02  0.31907941652E+02  0.00000000000E+00 0. -1.
         -2   -1    0    0    0  501 -0.00000000000E+00 -0.00000000000E+00 -0.92709127384E+02  0.92709127384E+02  0.00000000000E+00 0. -1.
          2    1    1    2  502    0  0.12730299104E+02 -0.46686257278E+02 -0.19559806731E+01  0.48430290049E+02  0.00000000000E+00 0. -1.
         -2    1    1    2    0  502 -0.12730299104E+02  0.46686257278E+02 -0.58845205059E+02  0.76186778986E+02  0.00000000000E+00 0. -1.
</event>
<event>
 4    1  0.3196713E+003  0.2461974E+02  0.7546771E-02  0.1473103E+00
          2   -1    0    0  501    0  0.00000000000E+00  0.00000000000E+00  0.13507744697E+03  0.13507744697E+03  0.00000000000E+00 0. -1.
         -2   -1    0    0    0  501 -0.00000000000E+00 -0.00000000000E+00 -0.53076778491E+01  0.53076778491E+01  0.00000000000E+00 0. -1.
          2    1    1    2  502    0  0.19245608591E+02 -0.15353764635E+02  0.92481047477E+02  0.95702015031E+02  0.00000000000E+00 0. -1.
         -2    1    1    2    0  502 -0.19245608591E+02  0.15353764635E+02  0.37288721641E+02  0.44683109785E+02  0.00000000000E+00 0. -1.
</event>
<event>
 4    1  0.3196713E+003  0.5517482E+02  0.7546771E-02  0.1277171E+00
          2   -1    0    0  501    0  0.00000000000E+00  0.00000000000E+00  0.89514558542E+03  0.89514558542E+03  0.00000000000E+00 0.  1.
         -2   -1    0    0    0  501 -0.00000000000E+00 -0.00000000000E+00 -0.99273466026E+02  0.99273466026E+02  0.00000000000E+00 0. -1.
          2    1    1    2  502    0 -0.55106807621E+02 -0.27388069450E+01  0.88655480375E+03  0.88827004980E+03  0.00000000000E+00 0.  1.
         -2    1    1    2    0  502  0.55106807621E+02  0.27388069450E+01 -0.90682684356E+02  0.10614900165E+03  0.00000000000E+00 0. -1.
</event>
<event>
 4    1  0.3196713E+003  0.2373612E+02  0.7546771E-02  0.1483456E+00
          2   -1    0    0  501    0  0.00000000000E+00  0.00000000000E+00  0.44101164833E+02  0.44101164833E+02  0.00000000000E+00 0.  1.
         -2   -1    0    0    0  501 -0.00000000000E+00 -0.00000000000E+00 -0.17434083566E+03  0.17434083566E+03  0.00000000000E+00 0. -1.
          2    1    1    2  502    0  0.20379068540E+02  0.12169503639E+02  0.40023323813E+02  0.46532458590E+02  0.00000000000E+00 0.  1.
         -2    1    1    2    0  502 -0.20379068540E+02 -0.12169503639E+02 -0.17026299464E+03  0.17190954190E+03  0.00000000000E+00 0. -1.
</event>
<event>
 4    1  0.3196713E+003  0.2745325E+02  0.7546771E-02  0.1443108E+00
          2   -1    0    0  501    0  0.00000000000E+00  0.00000000000E+00  0.80695704410E+03  0.80695704410E+03  0.00000000000E+00 0.  1.
         -2   -1    0    0    0  501 -0.00000000000E+00 -0.00000000000E+00 -0.11746006194E+03  0.11746006194E+03  0.00000000000E+00 0. -1.
          2    1    1    2  502    0  0.16620589780E+02  0.21850328355E+02  0.80511576033E+03  0.80558368180E+03  0.00000000000E+00 0.  1.
         -2    1    1    2    0  502 -0.16620589780E+02 -0.21850328355E+02 -0.11561877817E+03  0.11883342425E+03  0.00000000000E+00 0. -1.
</event>
<event>
 4    1  0.3196713E+003  0.2130000E+02  0.7546771E-02  0.1515025E+00
          2   -1    0    0  501    0  0.00000000000E+00  0.00000000000E+00  0.52376308588E+01  0.52376308588E+01  0.00000000000E+00 0. -1.
         -2   -1    0    0    0  501 -0.00000000000E+00 -0.00000000000E+00 -0.87281238439E+02  0.87281238439E+02  0.00000000000E+00 0.  1.
          2    1    1    2  502    0  0.11234799688E+02  0.18096107576E+02 -0.36999019072E+02  0.42692121588E+02  0.00000000000E+00 0. -1.
         -2    1    1    2    0  502 -0.11234799688E+02 -0.18096107576E+02 -0.45044588509E+02  0.49826747710E+02  0.00000000000E+00 0.  1.
</event>
<event>
 4    1  0.3196713E+003  0.4464256E+02  0.7546771E-02  0.1323236E+00
          2   -1    0    0  501    0  0.00000000000E+00  0.00000000000E+00  0.35273892951E+01  0.35273892951E+01  0.00000000000E+00 0. -1.
         -2   -1    0    0    0  501 -0.00000000000E+00 -0.00000000000E+00 -0.65053445662E+03  0.65053445662E+03  0.00000000000E+00 0. -1.
          2    1    1    2  502    0  0.31102995857E+02 -0.32024395593E+02 -0.20491676701E+03  0.20972324542E+03  0.00000000000E+00 0. -1.
         -2    1    1    2    0  502 -0.31102995857E+02  0.32024395593E+02 -0.44209030031E+03  0.44433860050E+03  0.00000000000E+00 0. -1.
</event>
<event>
 4    1  0.3196713E+003  0.2264966E+02  0.7546771E-02  0.1496945E+00
          2   -1    0    0  501    0  0.00000000000E+00  0.00000000000E+00  0.53720798608E+03  0.53720798608E+03  0.00000000000E+00 0. -1.
         -2   -1    0    0    0  501 -0.00000000000E+00 -0.00000000000E+00 -0.15789065837E+02  0.15789065837E+02  0.00000000000E+00 0.  1.
          2    1    1    2  502    0  0.19160975638E+02  0.12077425572E+02  0.52871601980E+03  0.52920094178E+03  0.00000000000E+00 0. -1.
         -2    1    1    2    0  502 -0.19160975638E+02 -0.12077425572E+02 -0.72970995489E+01  0.23796110137E+02  0.00000000000E+00 0.  1.
</event>
<event>
 4    1  0.3196713E+003  0.3115760E+02  0.7546771E-02  0.1409797E+00
          2   -1    0    0  501    0  0.00000000000E+00  0.00000000000E+00  0.24160894498E+04  0.24160894498E+04  0.00000000000E+00 0.  1.
         -2   -1    0    0    0  501 -0.00000000000E+00 -0.00000000000E+00 -0.54910911229E+00  0.54910911229E+00  0.00000000000E+00 0.  1.
          2    1    1    2  502    0  0.25326724513E+02  0.18148087139E+02  0.18336058096E+04  0.18338705137E+04  0.00000000000E+00 0.  1.
         -2    1    1    2    0  502 -0.25326724513E+02 -0.18148087139E+02  0.58193453109E+03  0.58276804520E+03  0.00000000000E+00 0.  1.
</event>
<event>
 4    1  0.3196713E+003  0.2068407E+02  0.7546771E-02  0.1523824E+00
          2   -1    0    0  501    0  0.00000000000E+00  0.00000000000E+00  0.35531340948E+03  0.35531340948E+03  0.00000000000E+00 0. -1.
         -2   -1    0    0    0  501 -0.00000000000E+00 -0.00000000000E+00 -0.16696669973E+01  0.16696669973E+01  0.00000000000E+00 0. -1.
          2    1    1    2  502    0  0.18269897024E+02 -0.96975098317E+01  0.27107515176E+03  0.27186314339E+03  0.00000000000E+00 0. -1.
         -2    1    1    2    0  502 -0.18269897024E+02  0.96975098317E+01  0.82568590719E+02  0.85119933080E+02  0.00000000000E+00 0. -1.
</event>
<event>
 4    1  0.3196713E+003  0.2063415E+02  0.7546771E-02  0.1524553E+00
          2   -1    0    0  501    0  0.00000000000E+00  0.00000000000E+00  0.82851925582E+03  0.82851925582E+03  0.00000000000E+00 0.  1.
         -2   -1    0    0    0  501 -0.00000000000E+00 -0.00000000000E+00 -0.15048921966E+01  0.15048921966E+01  0.00000000000E+00 0.  1.
          2    1    1    2  502    0 -0.14230147832E+02  0.14942258534E+02  0.75028635761E+03  0.75057004111E+03  0.00000000000E+00 0.  1.
         -2    1    1    2    0  502  0.14230147832E+02 -0.14942258534E+02  0.76728006016E+02  0.79454106909E+02  0.00000000000E+00 0.  1.
</event>
<event>
 4    1  0.3196713E+003  0.2049925E+02  0.7546771E-02  0.1526536E+00
          2   -1    0    0  501    0  0.00000000000E+00  0.00000000000E+00  0.36433088123E+03  0.36433088123E+03  0.00000000000E+00 0. -1.
         -2   -1    0    0    0  501 -0.00000000000E+00 -0.00000000000E+00 -0.14178682871E+02  0.14178682871E+02  0.00000000000E+00 0.  1.
          2    1    1    2  502    0 -0.19124477408E+02  0.73806288156E+01  0.35646992291E+03  0.35705885406E+03  0.00000000000E+00 0. -1.
         -2    1    1    2    0  502  0.19124477408E+02 -0.73806288156E+01 -0.63177245544E+01  0.21450710044E+02  0.00000000000E+00 0.  1.
</event>
<event>
 4    1  0.3196713E+003  0.2140145E+02  0.7546771E-02  0.1513610E+00
          2   -1    0    0  501    0  0.00000000000E+00  0.00000000000E+00  0.13801820448E+04  0.13801820448E+04  0.00000000000E+00 0. -1.
         -2   -1    0    0    0  501 -0.00000000000E+00 -0.00000000000E+00 -0.43331765079E+00  0.43331765079E+00  0.00000000000E+00 0. -1.
          2    1    1    2  502    0 -0.11281061444E+02 -0.18186804622E+02  0.10239075960E+04  0.10241312354E+04  0.00000000000E+00 0. -1.
         -2    1    1    2    0  502  0.11281061444E+02  0.18186804622E+02  0.35584113111E+03  0.35648412700E+03  0.00000000000E+00 0. -1.
</event>
<event>
 4    1  0.3196713E+003  0.3956533E+02  0.7546771E-02  0.1351052E+00
          2   -1    0    0  501    0  0.00000000000E+00  0.00000000000E+00  0.63786622692E+02  0.63786622692E+02  0.00000000000E+00 0.  1.
         -2   -1    0    0    0  501 -0.00000000000E+00 -0.00000000000E+00 -0.24595117396E+02  0.24595117396E+02  0.00000000000E+00 0.  1.
          2    1    1    2  502    0  0.19809187954E+02 -0.34249252189E+02  0.21660311791E+02  0.45106366622E+02  0.00000000000E+00 0.  1.
         -2    1    1    2    0  502 -0.19809187954E+02  0.34249252189E+02  0.17531193504E+02  0.43275373466E+02  0.00000000000E+00 0.  1.
</event>
<event>
 4    1  0.3196713E+003  0.3356035E+02  0.7546771E-02  0.1390977E+00
          2   -1    0    0  501    0  0.00000000000E+00  0.00000000000E+00  0.59923539723E+01  0.59923539723E+01  0.00000000000E+00 0. -1.
         -2   -1    0    0    0  501 -0.00000000000E+00 -0.00000000000E+00 -0.54549601967E+03  0.54549601967E+03  0.00000000000E+00 0. -1.
          2    1    1    2  502    0 -0.49686823518E+01  0.33190497031E+02 -0.46511272678E+02  0.57354994409E+02  0.00000000000E+00 0. -1.
         -2    1    1    2    0  502  0.49686823518E+01 -0.33190497031E+02 -0.49299239302E+03  0.49413337923E+03  0.00000000000E+00 0. -1.
</event>
<event>
 4    1  0.3196713E+003  0.3059735E+02  0.7546771E-02  0.1414475E+00
          2   -1    0    0  501    0  0.00000000000E+00  0.00000000000E+00  0.15838459628E+04  0.15838459628E+04  0.00000000000E+00 0. -1.
         -2   -1    0    0    0  501 -0.00000000000E+00 -0.00000000000E+00 -0.21627077916E+02  0.21627077916E+02  0.00000000000E+00 0. -1.
          2    1    1    2  502    0  0.29441052242E+02  0.83320130558E+01  0.15728001350E+04  0.15730977283E+04  0.00000000000E+00 0. -1.
         -2    1    1    2    0  502 -0.29441052242E+02 -0.83320130558E+01 -0.10581250162E+02  0.32375312410E+02  0.00000000000E+00 0. -1.
</event>
<event>
 4    1  0.3196713E+003  0.4718585E+02  0.7546771E-02  0.1310857E+00
          2   -1    0    0  501    0  0.00000000000E+00  0.00000000000E+00  0.14173372242E+04  0.14173372242E+04  0.00000000000E+00 0. -1.
         -2   -1    0    0    0  501 -0.00000000000E+00 -0.00000000000E+00 -0.47380211061E+02  0.47380211061E+02  0.00000000000E+00 0. -1.
          2    1    1    2  502    0  0.40976004509E+02  0.23398100698E+02  0.14050940914E+04  0.14058861653E+04  0.00000000000E+00 0. -1.
         -2    1    1    2    0  502 -0.40976004509E+02 -0.23398100698E+02 -0.35137078241E+02  0.58831269994E+02  0.00000000000E+00 0. -1.
</event>
<event>
 4    1  0.3196713E+003  0.2044000E+02  0.7546771E-02  0.1527412E+00
          2   -1    0    0  501    0  0.00000000000E+00  0.00000000000E+00  0.71700013756E+03  0.71700013756E+03  0.00000000000E+00 0.  1.
         -2   -1    0    0    0  501 -0.00000000000E+00 -0.00000000000E+00 -0.10000385336E+02  0.10000385336E+02  0.00000000000E+00 0.  1.
          2    1    1    2  502    0  0.19057182916E+02 -0.73903512544E+01  0.70625109856E+03  0.70654681921E+03  0.00000000000E+00 0.  1.
         -2    1    1    2    0  502 -0.19057182916E+02  0.73903512544E+01  0.74865366524E+00  0.20453703691E+02  0.00000000000E+00 0.  1.
</event>
<event>
 4    1  0.3196713E+003  0.2497659E+02  0.7546771E-02  0.1469065E+00
          2   -1    0    0  501    0  0.00000000000E+00  0.00000000000E+00  0.48306642617E+02  0.48306642617E+02  0.00000000000E+00 0. -1.
         -2   -1    0    0    0  501 -0.00000000000E+00 -0.00000000000E+00 -0.20791377930E+02  0.20791377930E+02  0.00000000000E+00 0.  1.
          2    1    1    2  502    0 -0.24803359958E+02 -0.29366014509E+01  0.35023630865E+02  0.43017264118E+02  0.00000000000E+00 0. -1.
         -2    1    1    2    0  502  0.24803359958E+02  0.29366014509E+01 -0.75083661774E+01  0.26080756430E+02  0.00000000000E+00 0.  1.
</event>
<event>
 4    1  0.3196713E+003  0.2100258E+02  0.7546771E-02  0.1519228E+00
          2   -1    0    0  501    0  0.00000000000E+00  0.00000000000E+00  0.47620739919E+03  0.47620739919E+03  0.00000000000E+00 0. -1.
         -2   -1    0    0    0  501 -0.00000000000E+00 -0.00000000000E+00 -0.56169075321E+02  0.56169075321E+02  0.00000000000E+00 0.  1.
          2    1    1    2  502    0  0.25600002960E+01  0.20845979725E+02  0.47400339440E+03  0.47446846721E+03  0.00000000000E+00 0. -1.
         -2    1    1    2    0  502 -0.25600002960E+01 -0.20845979725E+02 -0.53965070532E+02  0.57908007302E+02  0.00000000000E+00 0.  1.
</event>
<event>
 4    1  0.3196713E+003  0.2278565E+02  0.7546771E-02  0.1495207E+00
          2   -1    0    0  501    0  0.00000000000E+00  0.00000000000E+00  0.32773377231E+03  0.32773377231E+03  0.00000000000E+00 0.  1.
         -2   -1    0    0    0  501 -0.00000000000E+00 -0.00000000000E+00 -0.21421386444E+02  0.21421386444E+02  0.00000000000E+00 0.  1.
          2    1    1    2  502    0  0.19742963595E+02  0.11375461158E+02  0.32115455784E+03  0.32196185449E+03  0.00000000000E+00 0.  1.
         -2    1    1    2    0  502 -0.19742963595E+02 -0.11375461158E+02 -0.14842171969E+02  0.27193304265E+02  0.00000000000E+00 0.  1.
</event>
<event>
 4    1  0.3196713E+003  0.2481333E+02  0.7546771E-02  0.1470902E+00
          2   -1    0    0  501    0  0.00000000000E+00  0.00000000000E+00  0.81709302504E+01  0.81709302504E+01  0.00000000000E+00 0. -1.
         -2   -1    0    0    0  501 -0.00000000000E+00 -0.00000000000E+00 -0.14571919884E+03  0.14571919884E+03  0.00000000000E+00 0.  1.
          2    1    1    2  502    0 -0.12224419403E+02 -0.21593173179E+02 -0.15304724617E+02  0.29153664491E+02  0.00000000000E+00 0. -1.
         -2    1    1    2    0  502  0.12224419403E+02  0.21593173179E+02 -0.12224354397E+03  0.12473646460E+03  0.00000000000E+00 0.  1.
</event>
<event>
 4    1  0.3196713E+003  0.2641319E+02  0.7546771E-02  0.1453593E+00
          2   -1    0    0  501    0  0.00000000000E+00  0.00000000000E+00  0.13272217121E+04  0.13272217121E+04  0.00000000000E+00 0.  1.
         -2   -1    0    0    0  501 -0.00000000000E+00 -0.00000000000E+00 -0.74415778029E+01  0.74415778029E+01  0.00000000000E+00 0.  1.
          2    1    1    2  502    0 -0.25260048498E+02 -0.77192234010E+01  0.13032209140E+04  0.13034885527E+04  0.00000000000E+00 0.  1.
         -2    1    1    2    0  502  0.25260048498E+02  0.77192234010E+01  0.16559220307E+02  0.31174737163E+02  0.00000000000E+00 0.  1.
</event>
<event>
 4    1  0.3196713E+003  0.2290539E+02  0.7546771E-02  0.1493690E+00
          2   -1    0    0  501    0  0.00000000000E+00  0.00000000000E+00  0.81768324796E+02  0.81768324796E+02  0.00000000000E+00 0. -1.
         -2   -1    0    0    0  501 -0.00000000000E+00 -0.00000000000E+00 -0.16552548903E+02  0.16552548903E+02  0.00000000000E+00 0. -1.
          2    1    1    2  502    0 -0.22232865396E+02 -0.55096816716E+01  0.71077707305E+02  0.74677288191E+02  0.00000000000E+00 0. -1.
         -2    1    1    2    0  502  0.22232865396E+02  0.55096816716E+01 -0.58619314122E+01  0.23643585509E+02  0.00000000000E+00 0. -1.
</event>
<event>
 4    1  0.3196713E+003  0.6826196E+02  0.7546771E-02  0.1234081E+00
          2   -1    0    0  501    0  0.00000000000E+00  0.00000000000E+00  0.52382499311E+01  0.52382499311E+01  0.00000000000E+00 0.  1.
         -2   -1    0    0    0  501 -0.00000000000E+00 -0.00000000000E+00 -0.89770132953E+03  0.89770132953E+03  0.00000000000E+00 0. -1.
          2    1    1    2  502    0 -0.45701863563E+02  0.50705371517E+02 -0.40321582911E+03  0.40895317566E+03  0.00000000000E+00 0.  1.
         -2    1    1    2    0  502  0.45701863563E+02 -0.50705371517E+02 -0.48924725048E+03  0.49398640380E+03  0.00000000000E+00 0. -1.
</event>
<event>
 4    1  0.3196713E+003  0.2485957E+02  0.7546771E-02  0.1470380E+00
          2   -1    0    0  501    0  0.00000000000E+00  0.00000000000E+00  0.16598476403E+03  0.16598476403E+03  0.00000000000E+00 0.  1.
         -2   -1    0    0    0  501 -0.00000000000E+00 -0.00000000000E+00 -0.71909272403E+01  0.71909272403E+01  0.00000000000E+00 0. -1.
          2    1    1    2  502    0  0.23628652966E+02  0.77256206503E+01  0.13952612172E+03  0.14172345288E+03  0.00000000000E+00 0.  1.
         -2    1    1    2    0  502 -0.23628652966E+02 -0.77256206503E+01  0.19267715070E+02  0.31452238385E+02  0.00000000000E+00 0. -1.
</event>
<event>
 4    1  0.3196713E+003  0.2229505E+02  0.7546771E-02  0.1501545E+00
          2   -1    0    0  501    0  0.00000000000E+00  0.00000000000E+00  0.11949782688E+03  0.11949782688E+03  0.00000000000E+00 0.  1.
         -2   -1    0    0    0  501 -0.00000000000E+00 -0.00000000000E+00 -0.37945127323E+02  0.37945127323E+02  0.00000000000E+00 0. -1.
          2    1    1    2  502    0  0.13153006768E+02  0.18001883764E+02  0.11505777745E+03  0.11719795885E+03  0.00000000000E+00 0.  1.
         -2    1    1    2    0  502 -0.13153006768E+02 -0.18001883764E+02 -0.33505077897E+02  0.40244995353E+02  0.00000000000E+00 0. -1.
</event>
<event>
 4    1  0.3196713E+003  0.2369454E+02  0.7546771E-02  0.1483956E+00
          2   -1    0    0  501    0  0.00000000000E+00  0.00000000000E+00  0.70489712433E+03  0.70489712433E+03  0.00000000000E+00 0.  1.
         -2   -1    0    0    0  501 -0.00000000000E+00 -0.00000000000E+00 -0.48849031327E+01  0.48849031327E+01  0.00000000000E+00 0.  1.
          2    1    1    2  502    0  0.67027680822E+01 -0.22726725509E+02  0.67467848945E+03  0.67509443434E+03  0.00000000000E+00 0.  1.
         -2    1    1    2    0  502 -0.67027680822E+01  0.22726725509E+02  0.25333731750E+02  0.34687593124E+02  0.00000000000E+00 0.  1.
</event>
<event>
 4    1  0.3196713E+003  0.2313565E+02  0.7546771E-02  0.1490802E+00
          2   -1    0    0  501    0  0.00000000000E+00  0.00000000000E+00  0.37451238584E+03  0.37451238584E+03  0.00000000000E+00 0. -1.
         -2   -1    0    0    0  501 -0.00000000000E+00 -0.00000000000E+00 -0.11241323411E+04  0.11241323411E+04  0.00000000000E+00 0.  1.
          2    1    1    2  502    0  0.21752832067E+02  0.78786249167E+01  0.37403589265E+03  0.37475072705E+03  0.00000000000E+00 0. -1.
         -2    1    1    2    0  502 -0.21752832067E+02 -0.78786249167E+01 -0.11236558479E+04  0.11238939999E+04  0.00000000000E+00 0.  1.
</event>
<event>
 4    1  0.3196713E+003  0.2503030E+02  0.7546771E-02  0.1468465E+00
          2   -1    0    0  501    0  0.00000000000E+00  0.00000000000E+00  0.11395327829E+04  0.11395327829E+04  0.00000000000E+00 0. -1.
         -2   -1    0    0    0  501 -0.00000000000E+00 -0.00000000000E+00 -0.38281494912E+01  0.38281494912E+01  0.00000000000E+00 0.  1.
          2    1    1    2  502    0  0.13652633895E+02  0.20979067195E+02  0.10968898707E+04  0.10971754208E+04  0.00000000000E+00 0. -1.
         -2    1    1    2    0  502 -0.13652633895E+02 -0.20979067195E+02  0.38814762739E+02  0.46185511572E+02  0.00000000000E+00 0.  1.
</event>
<event>
 4    1  0.3196713E+003  0.2239510E+02  0.7546771E-02  0.1500237E+00
          2   -1    0    0  501    0  0.00000000000E+00  0.00000000000E+00  0.10107825616E+02  0.10107825616E+02  0.00000000000E+00 0. -1.
         -2   -1    0    0    0  501 -0.00000000000E+00 -0.00000000000E+00 -0.12647691588E+03  0.12647691588E+03  0.00000000000E+00 0.  1.
          2    1    1    2  502    0  0.11463411045E+02 -0.19238781055E+02 -0.49478880515E+01  0.22935171362E+02  0.00000000000E+00 0. -1.
         -2    1    1    2    0  502 -0.11463411045E+02  0.19238781055E+02 -0.11142120221E+03  0.11364957014E+03  0.00000000000E+00 0.  1.
</event>
<event>
 4    1  0.3196713E+003  0.2847396E+02  0.7546771E-02  0.1433338E+00
          2   -1    0    0  501    0  0.00000000000E+00  0.00000000000E+00  0.23456863874E+03  0.23456863874E+03  0.00000000000E+00 0.  1.
         -2   -1    0    0    0  501 -0.00000000000E+00 -0.00000000000E+00 -0.81332265555E+03  0.81332265555E+03  0.00000000000E+00 0.  1.
          2    1    1    2  502    0 -0.22660145227E+02 -0.17241927597E+02  0.23345413576E+03  0.23518418262E+03  0.00000000000E+00 0.  1.
         -2    1    1    2    0  502  0.22660145227E+02  0.17241927597E+02 -0.81220815258E+03  0.81270711167E+03  0.00000000000E+00 0.  1.
</event>
<event>
 4    1  0.3196713E+003  0.2619530E+02  0.7546771E-02  0.1455863E+00
          2   -1    0    0  501    0  0.00000000000E+00  0.00000000000E+00  0.18631777485E+04  0.18631777485E+04  0.00000000000E+00 0.  1.
         -2   -1    0    0    0  501 -0.00000000000E+00 -0.00000000000E+00 -0.21168824885E+01  0.21168824885E+01  0.00000000000E+00 0. -1.
          2    1    1    2  502    0 -0.16592675344E+02 -0.20270092893E+02  0.17781737061E+04  0.17783666446E+04  0.00000000000E+00 0.  1.
         -2    1    1    2    0  502  0.16592675344E+02  0.20270092893E+02  0.82887159990E+02  0.86927986472E+02  0.00000000000E+00 0. -1.
</event>
<event>
 4    1  0.3196713E+003  0.2262140E+02  0.7546771E-02  0.1497308E+00
          2   -1    0    0  501    0  0.00000000000E+00  0.00000000000E+00  0.13802546273E+04  0.13802546273E+04  0.00000000000E+00 0.  1.
         -2   -1    0    0    0  501 -0.00000000000E+00 -0.00000000000E+00 -0.37916505728E+00  0.37916505728E+00  0.00000000000E+00 0.  1.
          2    1    1    2  502    0 -0.28288321345E+01  0.22443816507E+02  0.58708774295E+03  0.58752339963E+03  0.00000000000E+00 0.  1.
         -2    1    1    2    0  502  0.28288321345E+01 -0.22443816507E+02  0.79278771926E+03  0.79311039269E+03  0.00000000000E+00 0.  1.
</event>
<event>
 4    1  0.3196713E+003  0.2249699E+02  0.7546771E-02  0.1498913E+00
          2   -1    0    0  501    0  0.00000000000E+00  0.00000000000E+00  0.10350787614E+04  0.10350787614E+04  0.00000000000E+00 0.  1.
         -2   -1    0    0    0  501 -0.00000000000E+00 -0.00000000000E+00 -0.50896225406E+01  0.50896225406E+01  0.00000000000E+00 0. -1.
          2    1    1    2  502    0 -0.18580294995E+02  0.12684126280E+02  0.10094657107E+04  0.10097163639E+04  0.00000000000E+00 0.  1.
         -2    1    1    2    0  502  0.18580294995E+02 -0.12684126280E+02  0.20523428141E+02  0.30452020036E+02  0.00000000000E+00 0. -1.
</event>
<event>
 4    1  0.3196713E+003  0.2018628E+02  0.7546771E-02  0.1531207E+00
          2   -1    0    0  501    0  0.00000000000E+00  0.00000000000E+00  0.11330501024E+02  0.11330501024E+02  0.00000000000E+00 0.  1.
         -2   -1    0    0    0  501 -0.00000000000E+00 -0.00000000000E+00 -0.36658697016E+02  0.36658697016E+02  0.00000000000E+00 0.  1.
          2    1    1    2  502    0 -0.20062579327E+02 -0.22313194851E+01 -0.93600962269E+01  0.22250781498E+02  0.00000000000E+00 0.  1.
         -2    1    1    2    0  502  0.20062579327E+02  0.22313194851E+01 -0.15968099765E+02  0.25738416541E+02  0.00000000000E+00 0.  1.
</event>
<event>
 4    1  0.3196713E+003  0.2436467E+02  0.7546771E-02  0.1476038E+00
          2   -1    0    0  501    0  0.00000000000E+00  0.00000000000E+00  0.44135302427E+02  0.44135302427E+02  0.00000000000E+00 0.  1.
         -2   -1    0    0    0  501 -0.00000000000E+00 -0.00000000000E+00 -0.30821026634E+03  0.30821026634E+03  0.00000000000E+00 0. -1.
          2    1    1    2  502    0  0.23849888435E+02 -0.49819808502E+01  0.40248303064E+02  0.47048519755E+02  0.00000000000E+00 0.  1.
         -2    1    1    2    0  502 -0.23849888435E+02  0.49819808502E+01 -0.30432326697E+03  0.30529704901E+03  0.00000000000E+00 0. -1.
</event>
<event>
 4    1  0.3196713E+003  0.2175787E+02  0.7546771E-02  0.1508714E+00
          2   -1    0    0  501    0  0.00000000000E+00  0.00000000000E+00  0.72453797542E+01  0.72453797542E+01  0.00000000000E+00 0. -1.
         -2   -1    0    0    0  501 -0.00000000000E+00 -0.00000000000E+00 -0.67206116350E+02  0.67206116350E+02  0.00000000000E+00 0. -1.
          2    1    1    2  502    0 -0.19962123187E+02 -0.86555411413E+01 -0.23775356769E+02  0.32228439988E+02  0.00000000000E+00 0. -1.
         -2    1    1    2    0  502  0.19962123187E+02  0.86555411413E+01 -0.36185379827E+02  0.42223056116E+02  0.00000000000E+00 0. -1.
</event>
<event>
 4    1  0.3196713E+003  0.2087695E+02  0.7546771E-02  0.1521029E+00
          2   -1    0    0  501    0  0.00000000000E+00  0.00000000000E+00  0.11121308364E+04  0.11121308364E+04  0.00000000000E+00 0. -1.
         -2   -1    0    0    0  501 -0.00000000000E+00 -0.00000000000E+00 -0.11450697985E+01  0.11450697985E+01  0.00000000000E+00 0. -1.
          2    1    1    2  502    0  0.20742139392E+02  0.23686519850E+01  0.10069355066E+04  0.10071519058E+04  0.00000000000E+00 0. -1.
         -2    1    1    2    0  502 -0.20742139392E+02 -0.23686519850E+01  0.10405025993E+03  0.10612400035E+03  0.00000000000E+00 0. -1.
</event>
<event>
 4    1  0.3196713E+003  0.3121557E+02  0.7546771E-02  0.1409319E+00
          2   -1    0    0  501    0  0.00000000000E+00  0.00000000000E+00  0.15628341921E+02  0.15628341921E+02  0.00000000000E+00 0.  1.
         -2   -1    0    0    0  501 -0.00000000000E+00 -0.00000000000E+00 -0.86653348912E+02  0.86653348912E+02  0.00000000000E+00 0. -1.
          2    1    1    2  502    0 -0.29937475641E+02  0.88407816637E+01 -0.84282414530E+01  0.32333374742E+02  0.00000000000E+00 0.  1.
         -2    1    1    2    0  502  0.29937475641E+02 -0.88407816637E+01 -0.62596765538E+02  0.69948316091E+02  0.00000000000E+00 0. -1.
</event>
<event>
 4    1  0.3196713E+003  0.3154701E+02  0.7546771E-02  0.1406613E+00
          2   -1    0    0  501    0  0.00000000000E+00  0.00000000000E+00  0.84431434988E+03  0.84431434988E+03  0.00000000000E+00 0. -1.
         -2   -1    0    0    0  501 -0.00000000000E+00 -0.00000000000E+00 -0.18051660473E+02  0.18051660473E+02  0.00000000000E+00 0.  1.
          2    1    1    2  502    0  0.26719599231E+02 -0.16771313286E+02  0.82999918016E+03  0.83059849085E+03  0.00000000000E+00 0. -1.
         -2    1    1    2    0  502 -0.26719599231E+02  0.16771313286E+02 -0.37364907523E+01  0.31767519506E+02  0.00000000000E+00 0.  1.
</event>
<event>
 4    1  0.3196713E+003  0.4468338E+02  0.7546771E-02  0.1323030E+00
          2   -1    0    0  501    0  0.00000000000E+00  0.00000000000E+00  0.10302030465E+04  0.10302030465E+04  0.00000000000E+00 0.  1.
         -2   -1    0    0    0  501 -0.00000000000E+00 -0.00000000000E+00 -0.14283292631E+02  0.14283292631E+02  0.00000000000E+00 0. -1.
          2    1    1    2  502    0  0.21806321059E+02 -0.39001138531E+02  0.99348095048E+03  0.99448529572E+03  0.00000000000E+00 0.  1.
         -2    1    1    2    0  502 -0.21806321059E+02  0.39001138531E+02  0.22438803401E+02  0.50001043418E+02  0.00000000000E+00 0. -1.
</event>
<event>
 4    1  0.3196713E+003  0.2648236E+02  0.7546771E-02  0.1452878E+00
          2   -1    0    0  501    0  0.00000000000E+00  0.00000000000E+00  0.14356236673E+03  0.14356236673E+03  0.00000000000E+00 0.  1.
         -2   -1    0    0    0  501 -0.00000000000E+00 -0.00000000000E+00 -0.10499805425E+02  0.10499805425E+02  0.00000000000E+00 0.  1.
          2    1    1    2  502    0  0.13948030671E+02 -0.22511499156E+02  0.12286121577E+03  0.12568290852E+03  0.00000000000E+00 0.  1.
         -2    1    1    2    0  502 -0.13948030671E+02  0.22511499156E+02  0.10201345539E+02  0.28379263639E+02  0.00000000000E+00 0.  1.
</event>
<event>
 4    1  0.3196713E+003  0.2478041E+02  0.7546771E-02  0.1471275E+00
          2   -1    0    0  501    0  0.00000000000E+00  0.00000000000E+00  0.84912944649E+01  0.84912944649E+01  0.00000000000E+00 0. -1.
         -2   -1    0    0    0  501 -0.00000000000E+00 -0.00000000000E+00 -0.81790504544E+02  0.81790504544E+02  0.00000000000E+00 0. -1.
          2    1    1    2  502    0 -0.76175585274E+01  0.23580529144E+02 -0.21287018167E+02  0.32668114348E+02  0.00000000000E+00 0. -1.
         -2    1    1    2    0  502  0.76175585274E+01 -0.23580529144E+02 -0.52012191912E+02  0.57613684660E+02  0.00000000000E+00 0. -1.
</event>
<event>
 4    1  0.3196713E+003  0.2665144E+02  0.7546771E-02  0.1451141E+00
          2   -1    0    0  501    0  0.00000000000E+00  0.00000000000E+00  0.73741267045E+01  0.73741267045E+01  0.00000000000E+00 0.  1.
         -2   -1    0    0    0  501 -0.00000000000E+00 -0.00000000000E+00 -0.13036545408E+03  0.13036545408E+03  0.00000000000E+00 0.  1.
          2    1    1    2  502    0 -0.22534798227E+02 -0.14229620106E+02 -0.26302615732E+02  0.37444983828E+02  0.00000000000E+00 0.  1.
         -2    1    1    2    0  502  0.22534798227E+02  0.14229620106E+02 -0.96688711645E+02  0.10029459696E+03  0.00000000000E+00 0.  1.
</event>
<event>
 4    1  0.3196713E+003  0.2042057E+02  0.7546771E-02  0.1527701E+00
          2   -1    0    0  501    0  0.00000000000E+00  0.00000000000E+00  0.12132955916E+04  0.12132955916E+04  0.00000000000E+00 0.  1.
         -2   -1    0    0    0  501 -0.00000000000E+00 -0.00000000000E+00 -0.34824754229E+00  0.34824754229E+00  0.00000000000E+00 0.  1.
          2    1    1    2  502    0 -0.10213034834E+02 -0.17683133424E+02  0.53706483302E+03  0.53745291343E+03  0.00000000000E+00 0.  1.
         -2    1    1    2    0  502  0.10213034834E+02  0.17683133424E+02  0.67588251104E+03  0.67619092572E+03  0.00000000000E+00 0.  1.
</event>
<event>
 4    1  0.3196713E+003  0.7906925E+02  0.7546771E-02  0.1206025E+00
          2   -1    0    0  501    0  0.00000000000E+00  0.00000000000E+00  0.18882087612E+04  0.18882087612E+04  0.00000000000E+00 0. -1.
         -2   -1    0    0    0  501 -0.00000000000E+00 -0.00000000000E+00 -0.40510519132E+01  0.40510519132E+01  0.00000000000E+00 0.  1.
          2    1    1    2  502    0  0.63671414522E+02  0.46881738473E+02  0.13464539540E+04  0.13487735898E+04  0.00000000000E+00 0. -1.
         -2    1    1    2    0  502 -0.63671414522E+02 -0.46881738473E+02  0.53770375530E+03  0.54348622328E+03  0.00000000000E+00 0.  1.
</event>
<event>
 4    1  0.3196713E+003  0.3258690E+02  0.7546771E-02  0.1398371E+00
          2   -1    0    0  501    0  0.00000000000E+00  0.00000000000E+00  0.39114904494E+03  0.39114904494E+03  0.00000000000E+00 0. -1.
         -2   -1    0    0    0  501 -0.00000000000E+00 -0.00000000000E+00 -0.11656088187E+02  0.11656088187E+02  0.00000000000E+00 0. -1.
          2    1    1    2  502    0  0.30336902090E+02 -0.11898662342E+02  0.36614207630E+03  0.36758934401E+03  0.00000000000E+00 0. -1.
         -2    1    1    2    0  502 -0.30336902090E+02  0.11898662342E+02  0.13350880448E+02  0.35215789110E+02  0.00000000000E+00 0. -1.
</event>
<event>
 4    1  0.3196713E+003  0.2257803E+02  0.7546771E-02  0.1497866E+00
          2   -1    0    0  501    0  0.00000000000E+00  0.00000000000E+00  0.60102279090E+02  0.60102279090E+02  0.00000000000E+00 0. -1.
         -2   -1    0    0    0  501 -0.00000000000E+00 -0.00000000000E+00 -0.90070405201E+01  0.90070405201E+01  0.00000000000E+00 0.  1.
          2    1    1    2  502    0 -0.10868591822E+02 -0.19789923521E+02  0.33893087863E+02  0.40724793014E+02  0.00000000000E+00 0. -1.
         -2    1    1    2    0  502  0.10868591822E+02  0.19789923521E+02  0.17202150707E+02  0.28384526596E+02  0.00000000000E+00 0.  1.
</event>
<event>
 4    1  0.3196713E+003  0.4264476E+02  0.7546771E-02  0.1333648E+00
          2   -1    0    0  501    0  0.00000000000E+00  0.00000000000E+00  0.11689823692E+04  0.11689823692E+04  0.00000000000E+00 0.  1.
         -2   -1    0    0    0  501 -0.00000000000E+00 -0.00000000000E+00 -0.19438225826E+02  0.19438225826E+02  0.00000000000E+00 0. -1.
          2    1    1    2  502    0  0.14474948245E+02 -0.40112986207E+02  0.11447084749E+04  0.11455025396E+04  0.00000000000E+00 0.  1.
         -2    1    1    2    0  502 -0.14474948245E+02  0.40112986207E+02  0.48356684704E+01  0.42918055393E+02  0.00000000000E+00 0. -1.
</event>
<event>
 4    1  0.3196713E+003  0.2697549E+02  0.7546771E-02  0.1447854E+00
          2   -1    0    0  501    0  0.00000000000E+00  0.00000000000E+00  0.13084005000E+02  0.13084005000E+02  0.00000000000E+00 0.  1.
         -2   -1    0    0    0  501 -0.00000000000E+00 -0.00000000000E+00 -0.58563872455E+03  0.58563872455E+03  0.00000000000E+00 0.  1.
          2    1    1    2  502    0  0.61479384465E+01 -0.26265568214E+02 -0.14850946182E+01  0.27016341847E+02  0.00000000000E+00 0.  1.
         -2    1    1    2    0  502 -0.61479384465E+01  0.26265568214E+02 -0.57106962493E+03  0.57170638770E+03  0.00000000000E+00 0.  1.
</event>
<event>
 4    1  0.3196713E+003  0.4416009E+02  0.7546771E-02  0.1325693E+00
          2   -1    0    0  501    0  0.00000000000E+00  0.00000000000E+00  0.48125434225E+03  0.48125434225E+03  0.00000000000E+00 0.  1.
         -2   -1    0    0    0  501 -0.00000000000E+00 -0.00000000000E+00 -0.36465281074E+02  0.36465281074E+02  0.00000000000E+00 0.  1.
          2    1    1    2  502    0  0.36187533166E+02  0.25309606845E+02  0.46644820752E+03  0.46853393053E+03  0.00000000000E+00 0.  1.
         -2    1    1    2    0  502 -0.36187533166E+02 -0.25309606845E+02 -0.21659146346E+02  0.49185692795E+02  0.00000000000E+00 0.  1.
</event>
<event>
 4    1  0.3196713E+003  0.2539089E+02  0.7546771E-02  0.1464478E+00
          2   -1    0    0  501    0  0.00000000000E+00  0.00000000000E+00  0.67222078439E+03  0.67222078439E+03  0.00000000000E+00 0.  1.
         -2   -1    0    0    0  501 -0.00000000000E+00 -0.00000000000E+00 -0.81224517393E+02  0.81224517393E+02  0.00000000000E+00 0. -1.
          2    1    1    2  502    0  0.26617195917E+01  0.25250989121E+02  0.66999011021E+03  0.67047106200E+03  0.00000000000E+00 0.  1.
         -2    1    1    2    0  502 -0.26617195917E+01 -0.25250989121E+02 -0.78993843209E+02  0.82974239784E+02  0.00000000000E+00 0. -1.
</event>
<event>
 4    1  0.3196713E+003  0.5107480E+02  0.7546771E-02  0.1293579E+00
          2   -1    0    0  501    0  0.00000000000E+00  0.00000000000E+00  0.11670374135E+04  0.11670374135E+04  0.00000000000E+00 0.  1.
         -2   -1    0    0    0  501 -0.00000000000E+00 -0.00000000000E+00 -0.22427946009E+01  0.22427946009E+01  0.00000000000E+00 0.  1.
          2    1    1    2  502    0 -0.15741559333E+02  0.48588459974E+02  0.61627765286E+03  0.61839047579E+03  0.00000000000E+00 0.  1.
         -2    1    1    2    0  502  0.15741559333E+02 -0.48588459974E+02  0.54851696600E+03  0.55088973227E+03  0.00000000000E+00 0.  1.
</event>
<event>
 4    1  0.3196713E+003  0.2596939E+02  0.7546771E-02  0.1458245E+00
          2   -1    0    0  501    0  0.00000000000E+00  0.00000000000E+00  0.60059420706E+03  0.60059420706E+03  0.00000000000E+00 0.  1.
         -2   -1    0    0    0  501 -0.00000000000E+00 -0.00000000000E+00 -0.11367062471E+01  0.11367062471E+01  0.00000000000E+00 0.  1.
          2    1    1    2  502    0 -0.24097817961E+02 -0.96801064595E+01  0.33288246275E+03  0.33389391024E+03  0.00000000000E+00 0.  1.
         -2    1    1    2    0  502  0.24097817961E+02  0.96801064595E+01  0.26657503806E+03  0.26783700306E+03  0.00000000000E+00 0.  1.
</event>
<event>
 4    1  0.3196713E+003  0.3383793E+02  0.7546771E-02  0.1388922E+00
          2   -1    0    0  501    0  0.00000000000E+00  0.00000000000E+00  0.10521521584E+02  0.10521521584E+02  0.00000000000E+00 0.  1.
         -2   -1    0    0    0  501 -0.00000000000E+00 -0.00000000000E+00 -0.41692609545E+03  0.41692609545E+03  0.00000000000E+00 0. -1.
          2    1    1    2  502    0  0.79982159485E+01 -0.32879081556E+02 -0.19476579664E+02  0.39042830555E+02  0.00000000000E+00 0.  1.
         -2    1    1    2    0  502 -0.79982159485E+01  0.32879081556E+02 -0.38692799420E+03  0.38840478648E+03  0.00000000000E+00 0. -1.
</event>
<event>
 4    1  0.3196713E+003  0.4378967E+02  0.7546771E-02  0.1327603E+00
          2   -1    0    0  501    0  0.00000000000E+00  0.00000000000E+00  0.13749415416E+04  0.13749415416E+04  0.00000000000E+00 0. -1.
         -2   -1    0    0    0  501 -0.00000000000E+00 -0.00000000000E+00 -0.16714969739E+01  0.16714969739E+01  0.00000000000E+00 0.  1.
          2    1    1    2  502    0 -0.37462294875E+02 -0.22674025329E+02  0.96676818586E+03  0.96775940200E+03  0.00000000000E+00 0. -1.
         -2    1    1    2    0  502  0.37462294875E+02  0.22674025329E+02  0.40650185873E+03  0.40885363654E+03  0.00000000000E+00 0.  1.
</event>
<event>
 4    1  0.3196713E+003  0.3044268E+02  0.7546771E-02  0.1415788E+00
          2   -1    0    0  501    0  0.00000000000E+00  0.00000000000E+00  0.13150086608E+02  0.13150086608E+02  0.00000000000E+00 0.  1.
         -2   -1    0    0    0  501 -0.00000000000E+00 -0.00000000000E+00 -0.26043334676E+03  0.26043334676E+03  0.00000000000E+00 0. -1.
          2    1    1    2  502    0  0.28815768433E+02 -0.98187851446E+01 -0.68154205688E+01  0.31196265956E+02  0.00000000000E+00 0.  1.
         -2    1    1    2    0  502 -0.28815768433E+02  0.98187851446E+01 -0.24046783959E+03  0.24238716742E+03  0.00000000000E+00 0. -1.
</event>
<event>
 4    1  0.3196713E+003  0.2786825E+02  0.7546771E-02  0.1439076E+00
          2   -1    0    0  501    0  0.00000000000E+00  0.00000000000E+00  0.57443361187E+03  0.57443361187E+03  0.00000000000E+00 0.  1.
         -2   -1    0    0    0  501 -0.00000000000E+00 -0.00000000000E+00 -0.71860142092E+01  0.71860142092E+01  0.00000000000E+00 0.  1.
          2    1    1    2  502    0 -0.12376008913E+01 -0.27840760893E+02  0.54565222846E+03  0.54636342671E+03  0.00000000000E+00 0.  1.
         -2    1    1    2    0  502  0.12376008913E+01  0.27840760893E+02  0.21595369203E+02  0.35256199371E+02  0.00000000000E+00 0.  1.
</event>
<event>
 4    1  0.3196713E+003  0.2051435E+02  0.7546771E-02  0.1526313E+00
          2   -1    0    0  501    0  0.00000000000E+00  0.00000000000E+00  0.71544524117E+02  0.71544524117E+02  0.00000000000E+00 0. -1.
         -2   -1    0    0    0  501 -0.00000000000E+00 -0.00000000000E+00 -0.23971450323E+03  0.23971450323E+03  0.00000000000E+00 0. -1.
          2    1    1    2  502    0  0.18363692673E+02 -0.91440388128E+01  0.69623220731E+02  0.72582584132E+02  0.00000000000E+00 0. -1.
         -2    1    1    2    0  502 -0.18363692673E+02  0.91440388128E+01 -0.23779319984E+03  0.23867644321E+03  0.00000000000E+00 0. -1.
</event>
<event>
 4    1  0.3196713E+003  0.3219999E+02  0.7546771E-02  0.1401395E+00
          2   -1    0    0  501    0  0.00000000000E+00  0.00000000000E+00  0.11693462945E+04  0.11693462945E+04  0.00000000000E+00 0.  1.
         -2   -1    0    0    0  501 -0.00000000000E+00 -0.00000000000E+00 -0.10314601756E+01  0.10314601756E+01  0.00000000000E+00 0. -1.
          2    1    1    2  502    0  0.11641839577E+02  0.30021770052E+02  0.80339770367E+03  0.80404272857E+03  0.00000000000E+00 0.  1.
         -2    1    1    2    0  502 -0.11641839577E+02 -0.30021770052E+02  0.36491713061E+03  0.36633502606E+03  0.00000000000E+00 0. -1.
</event>
<event>
 4    1  0.3196713E+003  0.4640995E+02  0.7546771E-02  0.1314536E+00
          2   -1    0    0  501    0  0.00000000000E+00  0.00000000000E+00  0.16907591054E+03  0.16907591054E+03  0.00000000000E+00 0. -1.
         -2   -1    0    0    0  501 -0.00000000000E+00 -0.00000000000E+00 -0.39428516050E+02  0.39428516050E+02  0.00000000000E+00 0. -1.
          2    1    1    2  502    0 -0.42777472377E+02  0.17999199196E+02  0.15059642077E+03  0.15758542212E+03  0.00000000000E+00 0. -1.
         -2    1    1    2    0  502  0.42777472377E+02 -0.17999199196E+02 -0.20949026279E+02  0.50919004475E+02  0.00000000000E+00 0. -1.
</event>
<event>
 4    1  0.3196713E+003  0.2247291E+02  0.7546771E-02  0.1499225E+00
          2   -1    0    0  501    0  0.00000000000E+00  0.00000000000E+00  0.10987296167E+04  0.10987296167E+04  0.00000000000E+00 0.  1.
         -2   -1    0    0    0  501 -0.00000000000E+00 -0.00000000000E+00 -0.19141491430E+03  0.19141491430E+03  0.00000000000E+00 0. -1.
          2    1    1    2  502    0  0.22365048161E+02  0.21991396601E+01  0.10979546353E+04  0.10981845987E+04  0.00000000000E+00 0.  1.
         -2    1    1    2    0  502 -0.22365048161E+02 -0.21991396601E+01 -0.19063993291E+03  0.19195993232E+03  0.00000000000E+00 0. -1.
</event>
<event>
 4    1  0.3196713E+003  0.2794714E+02  0.7546771E-02  0.1438319E+00
          2   -1    0    0  501    0  0.00000000000E+00  0.00000000000E+00  0.10855934007E+04  0.10855934007E+04  0.00000000000E+00 0. -1.
         -2   -1    0    0    0  501 -0.00000000000E+00 -0.00000000000E+00 -0.79654825313E+00  0.79654825313E+00  0.00000000000E+00 0.  1.
          2    1    1    2  502    0 -0.35230591711E+01  0.27724194163E+02  0.71137985386E+03  0.71192860553E+03  0.00000000000E+00 0. -1.
         -2    1    1    2    0  502  0.35230591711E+01 -0.27724194163E+02  0.37341699863E+03  0.37446134347E+03  0.00000000000E+00 0.  1.
</event>
<event>
 4    1  0.3196713E+003  0.3840346E+02  0.7546771E-02  0.1358104E+00
          2   -1    0    0  501    0  0.00000000000E+00  0.00000000000E+00  0.40952216321E+03  0.40952216321E+03  0.00000000000E+00 0. -1.
         -2   -1    0    0    0  501 -0.00000000000E+00 -0.00000000000E+00 -0.26515875129E+02  0.26515875129E+02  0.00000000000E+00 0. -1.
          2    1    1    2  502    0  0.37745636461E+02  0.70775927114E+01  0.39417665807E+03  0.39604300670E+03  0.00000000000E+00 0. -1.
         -2    1    1    2    0  502 -0.37745636461E+02 -0.70775927114E+01 -0.11170369985E+02  0.39995031642E+02  0.00000000000E+00 0. -1.
</event>
<event>
 4    1  0.3196713E+003  0.2525947E+02  0.7546771E-02  0.1465922E+00
          2   -1    0    0  501    0  0.00000000000E+00  0.00000000000E+00  0.21288667186E+03  0.21288667186E+03  0.00000000000E+00 0. -1.
         -2   -1    0    0    0  501 -0.00000000000E+00 -0.00000000000E+00 -0.90274626297E+01  0.90274626297E+01  0.00000000000E+00 0.  1.
          2    1    1    2  502    0  0.13061480134E+02  0.21620324236E+02  0.19261642300E+03  0.19426560965E+03  0.00000000000E+00 0. -1.
         -2    1    1    2    0  502 -0.13061480134E+02 -0.21620324236E+02  0.11242786224E+02  0.27648524833E+02  0.00000000000E+00 0.  1.
</event>
<event>
 4    1  0.3196713E+003  0.2098235E+02  0.7546771E-02  0.1519517E+00
          2   -1    0    0  501    0  0.00000000000E+00  0.00000000000E+00  0.41718454818E+01  0.41718454818E+01  0.00000000000E+00 0. -1.
         -2   -1    0    0    0  501 -0.00000000000E+00 -0.00000000000E+00 -0.25038199636E+03  0.25038199636E+03  0.00000000000E+00 0. -1.
          2    1    1    2  502    0  0.16942485894E+02  0.12377852374E+02 -0.26297611455E+02  0.33642583520E+02  0.00000000000E+00 0. -1.
         -2    1    1    2    0  502 -0.16942485894E+02 -0.12377852374E+02 -0.21991253942E+03  0.22091125832E+03  0.00000000000E+00 0. -1.
</event>
<event>
 4    1  0.3196713E+003  0.2054310E+02  0.7546771E-02  0.1525889E+00
          2   -1    0    0  501    0  0.00000000000E+00  0.00000000000E+00  0.13230295812E+04  0.13230295812E+04  0.00000000000E+00 0. -1.
         -2   -1    0    0    0  501 -0.00000000000E+00 -0.00000000000E+00 -0.54125292897E+00  0.54125292897E+00  0.00000000000E+00 0. -1.
          2    1    1    2  502    0  0.11382119055E+02  0.17101647270E+02  0.10853371498E+04  0.10855315508E+04  0.00000000000E+00 0. -1.
         -2    1    1    2    0  502 -0.11382119055E+02 -0.17101647270E+02  0.23715117846E+03  0.23803928335E+03  0.00000000000E+00 0. -1.
</event>
<event>
 4    1  0.3196713E+003  0.2066971E+02  0.7546771E-02  0.1524033E+00
          2   -1    0    0  501    0  0.00000000000E+00  0.00000000000E+00  0.37576590945E+02  0.37576590945E+02  0.00000000000E+00 0.  1.
         -2   -1    0    0    0  501 -0.00000000000E+00 -0.00000000000E+00 -0.15914702187E+02  0.15914702187E+02  0.00000000000E+00 0.  1.
          2    1    1    2  502    0 -0.96877767687E+01 -0.18258798897E+02  0.25123770397E+02  0.32533684004E+02  0.00000000000E+00 0.  1.
         -2    1    1    2    0  502  0.96877767687E+01  0.18258798897E+02 -0.34618816394E+01  0.20957609128E+02  0.00000000000E+00 0.  1.
</event>
<event>
 4    1  0.3196713E+003  0.2706393E+02  0.7546771E-02  0.1446967E+00
          2   -1    0    0  501    0  0.00000000000E+00  0.00000000000E+00  0.12295973505E+04  0.12295973505E+04  0.00000000000E+00 0.  1.
         -2   -1    0    0    0  501 -0.00000000000E+00 -0.00000000000E+00 -0.26690951937E+01  0.26690951937E+01  0.00000000000E+00 0. -1.
          2    1    1    2  502    0 -0.43044117821E+01  0.26719440811E+02  0.11565079635E+04  0.11568245874E+04  0.00000000000E+00 0.  1.
         -2    1    1    2    0  502  0.43044117821E+01 -0.26719440811E+02  0.70420291812E+02  0.75441858255E+02  0.00000000000E+00 0. -1.
</event>
<event>
 4    1  0.3196713E+003  0.4134327E+02  0.7546771E-02  0.1340789E+00
          2   -1    0    0  501    0  0.00000000000E+00  0.00000000000E+00  0.72028210229E+03  0.72028210229E+03  0.00000000000E+00 0. -1.
         -2   -1    0    0    0  501 -0.00000000000E+00 -0.00000000000E+00 -0.13699058630E+02  0.13699058630E+02  0.00000000000E+00 0.  1.
          2    1    1    2  502    0 -0.20030433855E+02  0.36166941726E+02  0.68698520510E+03  0.68822811479E+03  0.00000000000E+00 0. -1.
         -2    1    1    2    0  502  0.20030433855E+02 -0.36166941726E+02  0.19597838557E+02  0.45753046132E+02  0.00000000000E+00 0.  1.
</event>
<event>
 4    1  0.3196713E+003  0.2479679E+02  0.7546771E-02  0.1471090E+00
          2   -1    0    0  501    0  0.00000000000E+00  0.00000000000E+00  0.19202361650E+03  0.19202361650E+03  0.00000000000E+00 0.  1.
         -2   -1    0    0    0  501 -0.00000000000E+00 -0.00000000000E+00 -0.23959326974E+02  0.23959326974E+02  0.00000000000E+00 0. -1.
          2    1    1    2  502    0  0.20916792949E+02  0.13317980504E+02  0.18454849486E+03  0.18620694882E+03  0.00000000000E+00 0.  1.
         -2    1    1    2    0  502 -0.20916792949E+02 -0.13317980504E+02 -0.16484205339E+02  0.29775994654E+02  0.00000000000E+00 0. -1.
</event>
<event>
 4    1  0.3196713E+003  0.4534006E+02  0.7546771E-02  0.1319748E+00
          2   -1    0    0  501    0  0.00000000000E+00  0.00000000000E+00  0.28710869525E+03  0.28710869525E+03  0.00000000000E+00 0.  1.
         -2   -1    0    0    0  501 -0.00000000000E+00 -0.00000000000E+00 -0.71600892736E+01  0.71600892736E+01  0.00000000000E+00 0.  1.
          2    1    1    2  502    0 -0.11858805492E+02 -0.43761719632E+02  0.13975621695E+03  0.14692691907E+03  0.00000000000E+00 0.  1.
         -2    1    1    2    0  502  0.11858805492E+02  0.43761719632E+02  0.14019238903E+03  0.14734186545E+03  0.00000000000E+00 0.  1.
</event>
<event>
 4    1  0.3196713E+003  0.2787630E+02  0.7546771E-02  0.1438999E+00
          2   -1    0    0  501    0  0.00000000000E+00  0.00000000000E+00  0.10737474814E+04  0.10737474814E+04  0.00000000000E+00 0.  1.
         -2   -1    0    0    0  501 -0.00000000000E+00 -0.00000000000E+00 -0.72486053919E+00  0.72486053919E+00  0.00000000000E+00 0.  1.
          2    1    1    2  502    0  0.24900974488E+02  0.12531147696E+02  0.55785946199E+03  0.55855551875E+03  0.00000000000E+00 0.  1.
         -2    1    1    2    0  502 -0.24900974488E+02 -0.12531147696E+02  0.51516315886E+03  0.51591682318E+03  0.00000000000E+00 0.  1.
</event>
<event>
 4    1  0.3196713E+003  0.2617863E+02  0.7546771E-02  0.1456038E+00
          2   -1    0    0  501    0  0.00000000000E+00  0.00000000000E+00  0.94775644097E+03  0.94775644097E+03  0.00000000000E+00 0. -1.
         -2   -1    0    0    0  501 -0.00000000000E+00 -0.00000000000E+00 -0.53141240867E+01  0.53141240867E+01  0.00000000000E+00 0.  1.
          2    1    1    2  502    0 -0.22704391881E+02  0.13031930628E+02  0.91415014619E+03  0.91452490967E+03  0.00000000000E+00 0. -1.
         -2    1    1    2    0  502  0.22704391881E+02 -0.13031930628E+02  0.28292170687E+02  0.38545655381E+02  0.00000000000E+00 0.  1.
</event>
<event>
 4    1  0.3196713E+003  0.2231310E+02  0.7546771E-02  0.1501309E+00
          2   -1    0    0  501    0  0.00000000000E+00  0.00000000000E+00  0.23635980615E+03  0.23635980615E+03  0.00000000000E+00 0.  1.
         -2   -1    0    0    0  501 -0.00000000000E+00 -0.00000000000E+00 -0.67610783045E+02  0.67610783045E+02  0.00000000000E+00 0. -1.
          2    1    1    2  502    0 -0.18415655599E+02  0.12599124992E+02  0.23397350880E+03  0.23503505513E+03  0.00000000000E+00 0.  1.
         -2    1    1    2    0  502  0.18415655599E+02 -0.12599124992E+02 -0.65224485697E+02  0.68935534059E+02  0.00000000000E+00 0. -1.
</event>
<event>
 4    1  0.3196713E+003  0.7178416E+02  0.7546771E-02  0.1224324E+00
          2   -1    0    0  501    0  0.00000000000E+00  0.00000000000E+00  0.19057995293E+04  0.19057995293E+04  0.00000000000E+00 0.  1.
         -2   -1    0    0    0  501 -0.00000000000E+00 -0.00000000000E+00 -0.56535475335E+01  0.56535475335E+01  0.00000000000E+00 0. -1.
          2    1    1    2  502    0  0.11063574015E+02 -0.70926460672E+02  0.16404130013E+04  0.16419828806E+04  0.00000000000E+00 0.  1.
         -2    1    1    2    0  502 -0.11063574015E+02  0.70926460672E+02  0.25973298052E+03  0.26947019624E+03  0.00000000000E+00 0. -1.
</event>
<event>
 4    1  0.3196713E+003  0.2109820E+02  0.7546771E-02  0.1517867E+00
          2   -1    0    0  501    0  0.00000000000E+00  0.00000000000E+00  0.92330802983E+02  0.92330802983E+02  0.00000000000E+00 0.  1.
         -2   -1    0    0    0  501 -0.00000000000E+00 -0.00000000000E+00 -0.48677955822E+01  0.48677955822E+01  0.00000000000E+00 0.  1.
          2    1    1    2  502    0 -0.15092651256E+02  0.14742653188E+02  0.48492599730E+02  0.52883515140E+02  0.00000000000E+00 0.  1.
         -2    1    1    2    0  502  0.15092651256E+02 -0.14742653188E+02  0.38970407671E+02  0.44315083426E+02  0.00000000000E+00 0.  1.
</event>
<event>
 4    1  0.3196713E+003  0.2534581E+02  0.7546771E-02  0.1464972E+00
          2   -1    0    0  501    0  0.00000000000E+00  0.00000000000E+00  0.45338189639E+03  0.45338189639E+03  0.00000000000E+00 0. -1.
         -2   -1    0    0    0  501 -0.00000000000E+00 -0.00000000000E+00 -0.30642436760E+01  0.30642436760E+01  0.00000000000E+00 0. -1.
          2    1    1    2  502    0 -0.25262789328E+02 -0.20497511718E+01  0.39249358588E+03  0.39331110455E+03  0.00000000000E+00 0. -1.
         -2    1    1    2    0  502  0.25262789328E+02  0.20497511718E+01  0.57824066831E+02  0.63135035514E+02  0.00000000000E+00 0. -1.
</event>
<event>
 4    1  0.3196713E+003  0.2317054E+02  0.7546771E-02  0.1490368E+00
          2   -1    0    0  501    0  0.00000000000E+00  0.00000000000E+00  0.20334233774E+03  0.20334233774E+03  0.00000000000E+00 0.  1.
         -2   -1    0    0    0  501 -0.00000000000E+00 -0.00000000000E+00 -0.63114402171E+01  0.63114402171E+01  0.00000000000E+00 0. -1.
          2    1    1    2  502    0 -0.71298121866E+01 -0.22046306500E+02  0.17846428088E+03  0.17996214436E+03  0.00000000000E+00 0.  1.
         -2    1    1    2    0  502  0.71298121866E+01  0.22046306500E+02  0.18566616640E+02  0.29691633596E+02  0.00000000000E+00 0. -1.
</event>
<event>
 4    1  0.3196713E+003  0.2626901E+02  0.7546771E-02  0.1455092E+00
          2   -1    0    0  501    0  0.00000000000E+00  0.00000000000E+00  0.24831441568E+03  0.24831441568E+03  0.00000000000E+00 0. -1.
         -2   -1    0    0    0  501 -0.00000000000E+00 -0.00000000000E+00 -0.69193340641E+01  0.69193340641E+01  0.00000000000E+00 0. -1.
          2    1    1    2  502    0 -0.11765196792E+02 -0.23487040281E+02  0.21941515958E+03  0.22098206527E+03  0.00000000000E+00 0. -1.
         -2    1    1    2    0  502  0.11765196792E+02  0.23487040281E+02  0.21979922035E+02  0.34251684475E+02  0.00000000000E+00 0. -1.
</event>
<event>
 4    1  0.3196713E+003  0.4385412E+02  0.7546771E-02  0.1327269E+00
          2   -1    0    0  501    0  0.00000000000E+00  0.00000000000E+00  0.41132914353E+03  0.41132914353E+03  0.00000000000E+00 0. -1.
         -2   -1    0    0    0  501 -0.00000000000E+00 -0.00000000000E+00 -0.12272017124E+03  0.12272017124E+03  0.00000000000E+00 0. -1.
          2    1    1    2  502    0  0.11742800649E+02  0.42252698838E+02  0.40619304078E+03  0.40855350972E+03  0.00000000000E+00 0. -1.
         -2    1    1    2    0  502 -0.11742800649E+02 -0.42252698838E+02 -0.11758406848E+03  0.12549580505E+03  0.00000000000E+00 0. -1.
</event>
<event>
 4    1  0.3196713E+003  0.2138389E+02  0.7546771E-02  0.1513854E+00
          2   -1    0    0  501    0  0.00000000000E+00  0.00000000000E+00  0.93363634028E+01  0.93363634028E+01  0.00000000000E+00 0. -1.
         -2   -1    0    0    0  501 -0.00000000000E+00 -0.00000000000E+00 -0.34142989592E+03  0.34142989592E+03  0.00000000000E+00 0.  1.
          2    1    1    2  502    0 -0.20934750016E+02 -0.43597211376E+01 -0.37295076515E+01  0.21706684545E+02  0.00000000000E+00 0. -1.
         -2    1    1    2    0  502  0.20934750016E+02  0.43597211376E+01 -0.32836402487E+03  0.32905957478E+03  0.00000000000E+00 0.  1.
</event>
<event>
 4    1  0.3196713E+003  0.2349928E+02  0.7546771E-02  0.1486322E+00
          2   -1    0    0  501    0  0.00000000000E+00  0.00000000000E+00  0.12938476922E+02  0.12938476922E+02  0.00000000000E+00 0.  1.
         -2   -1    0    0    0  501 -0.00000000000E+00 -0.00000000000E+00 -0.17385141516E+03  0.17385141516E+03  0.00000000000E+00 0. -1.
          2    1    1    2  502    0 -0.72341750854E+01 -0.22358060785E+02  0.66832536053E+00  0.23508781977E+02  0.00000000000E+00 0.  1.
         -2    1    1    2    0  502  0.72341750854E+01  0.22358060785E+02 -0.16158126360E+03  0.16328111010E+03  0.00000000000E+00 0. -1.
</event>
<event>
 4    1  0.3196713E+003  0.3551640E+02  0.7546771E-02  0.1376969E+00
          2   -1    0    0  501    0  0.00000000000E+00  0.00000000000E+00  0.17554963768E+04  0.17554963768E+04  0.00000000000E+00 0.  1.
         -2   -1    0    0    0  501 -0.00000000000E+00 -0.00000000000E+00 -0.14383172444E+01  0.14383172444E+01  0.00000000000E+00 0.  1.
          2    1    1    2  502    0  0.32500388190E+02  0.14322695355E+02  0.14984613234E+04  0.14988821677E+04  0.00000000000E+00 0.  1.
         -2    1    1    2    0  502 -0.32500388190E+02 -0.14322695355E+02  0.25559673618E+03  0.25805252640E+03  0.00000000000E+00 0.  1.
</event>
<event>
 4    1  0.3196713E+003  0.2363460E+02  0.7546771E-02  0.1484680E+00
          2   -1    0    0  501    0  0.00000000000E+00  0.00000000000E+00  0.26977760758E+03  0.26977760758E+03  0.00000000000E+00 0. -1.
         -2   -1    0    0    0  501 -0.00000000000E+00 -0.00000000000E+00 -0.40043544103E+01  0.40043544103E+01  0.00000000000E+00 0. -1.
          2    1    1    2  502    0 -0.17118087945E+02  0.16296173551E+02  0.22801548426E+03  0.22923711582E+03  0.00000000000E+00 0. -1.
         -2    1    1    2    0  502  0.17118087945E+02 -0.16296173551E+02  0.37757768914E+02  0.44544846174E+02  0.00000000000E+00 0. -1.
</event>
<event>
 4    1  0.3196713E+003  0.2210198E+02  0.7546771E-02  0.1504093E+00
          2   -1    0    0  501    0  0.00000000000E+00  0.00000000000E+00  0.81146805203E+02  0.81146805203E+02  0.00000000000E+00 0. -1.
         -2   -1    0    0    0  501 -0.00000000000E+00 -0.00000000000E+00 -0.18031064070E+02  0.18031064070E+02  0.00000000000E+00 0. -1.
          2    1    1    2  502    0 -0.21792613310E+02 -0.36850145539E+01  0.72030952520E+02  0.75345573513E+02  0.00000000000E+00 0. -1.
         -2    1    1    2    0  502  0.21792613310E+02  0.36850145539E+01 -0.89152113873E+01  0.23832295760E+02  0.00000000000E+00 0. -1.
</event>
<event>
 4    1  0.3196713E+003  0.2930580E+02  0.7546771E-02  0.1425726E+00
          2   -1    0    0  501    0  0.00000000000E+00  0.00000000000E+00  0.38264679555E+03  0.38264679555E+03  0.00000000000E+00 0.  1.
         -2   -1    0    0    0  501 -0.00000000000E+00 -0.00000000000E+00 -0.89009404534E+01  0.89009404534E+01  0.00000000000E+00 0.  1.
          2    1    1    2  502    0  0.26893432134E+02 -0.11643603239E+02  0.35617393825E+03  0.35737753773E+03  0.00000000000E+00 0.  1.
         -2    1    1    2    0  502 -0.26893432134E+02  0.11643603239E+02  0.17571916854E+02  0.34170198277E+02  0.00000000000E+00 0.  1.
</event>
<event>
 4    1  0.3196713E+003  0.2697957E+02  0.7546771E-02  0.1447813E+00
          2   -1    0    0  501    0  0.00000000000E+00  0.00000000000E+00  0.99923006999E+02  0.99923006999E+02  0.00000000000E+00 0. -1.
         -2   -1    0    0    0  501 -0.00000000000E+00 -0.00000000000E+00 -0.44797473766E+02  0.44797473766E+02  0.00000000000E+00 0.  1.
          2    1    1    2  502    0  0.11852567879E+02  0.24236623817E+02  0.93778853689E+02  0.97582635230E+02  0.00000000000E+00 0. -1.
         -2    1    1    2    0  502 -0.11852567879E+02 -0.24236623817E+02 -0.38653320456E+02  0.47137845534E+02  0.00000000000E+00 0.  1.
</event>
<event>
 4    1  0.3196713E+003  0.2262350E+02  0.7546771E-02  0.1497281E+00
          2   -1    0    0  501    0  0.00000000000E+00  0.00000000000E+00  0.12057969565E+03  0.12057969565E+03  0.00000000000E+00 0.  1.
         -2   -1    0    0    0  501 -0.00000000000E+00 -0.00000000000E+00 -0.56756879846E+01  0.56756879846E+01  0.00000000000E+00 0. -1.
          2    1    1    2  502    0 -0.13105336884E+02 -0.18441067905E+02  0.89149934050E+02  0.91975722783E+02  0.00000000000E+00 0.  1.
         -2    1    1    2    0  502  0.13105336884E+02  0.18441067905E+02  0.25754073616E+02  0.34279660852E+02  0.00000000000E+00 0. -1.
</event>
<event>
 4    1  0.3196713E+003  0.2899432E+02  0.7546771E-02  0.1428542E+00
          2   -1    0    0  501    0  0.00000000000E+00  0.00000000000E+00  0.59702039046E+03  0.59702039046E+03  0.00000000000E+00 0.  1.
         -2   -1    0    0    0  501 -0.00000000000E+00 -0.00000000000E+00 -0.14125648954E+01  0.14125648954E+01  0.00000000000E+00 0.  1.
          2    1    1    2  502    0 -0.22928517272E+02  0.17746928145E+02  0.31460748503E+03  0.31594072229E+03  0.00000000000E+00 0.  1.
         -2    1    1    2    0  502  0.22928517272E+02 -0.17746928145E+02  0.28100034054E+03  0.28249223307E+03  0.00000000000E+00 0.  1.
</event>
<event>
 4    1  0.3196713E+003  0.2312523E+02  0.7546771E-02  0.1490932E+00
          2   -1    0    0  501    0  0.00000000000E+00  0.00000000000E+00  0.15255405669E+04  0.15255405669E+04  0.00000000000E+00 0. -1.
         -2   -1    0    0    0  501 -0.00000000000E+00 -0.00000000000E+00 -0.48079597524E+00  0.48079597524E+00  0.00000000000E+00 0.  1.
          2    1    1    2  502    0  0.22923679343E+00 -0.23124094788E+02  0.11596615153E+04  0.11598920667E+04  0.00000000000E+00 0. -1.
         -2    1    1    2    0  502 -0.22923679343E+00  0.23124094788E+02  0.36539825556E+03  0.36612929611E+03  0.00000000000E+00 0.  1.
</event>
<event>
 4    1  0.3196713E+003  0.2639600E+02  0.7546771E-02  0.1453772E+00
          2   -1    0    0  501    0  0.00000000000E+00  0.00000000000E+00  0.91225557429E+03  0.91225557429E+03  0.00000000000E+00 0.  1.
         -2   -1    0    0    0  501 -0.00000000000E+00 -0.00000000000E+00 -0.98799115701E+00  0.98799115701E+00  0.00000000000E+00 0.  1.
          2    1    1    2  502    0 -0.15315377362E+02  0.21498560779E+02  0.67316582096E+03  0.67368313873E+03  0.00000000000E+00 0.  1.
         -2    1    1    2    0  502  0.15315377362E+02 -0.21498560779E+02  0.23810176217E+03  0.23956042672E+03  0.00000000000E+00 0.  1.
</event>
<event>
 4    1  0.3196713E+003  0.5511929E+02  0.7546771E-02  0.1277382E+00
          2   -1    0    0  501    0  0.00000000000E+00  0.00000000000E+00  0.39120819239E+03  0.39120819239E+03  0.00000000000E+00 0.  1.
         -2   -1    0    0    0  501 -0.00000000000E+00 -0.00000000000E+00 -0.21936220079E+02  0.21936220079E+02  0.00000000000E+00 0.  1.
          2    1    1    2  502    0 -0.54588145827E+02 -0.76335182098E+01  0.35066300188E+03  0.35496855798E+03  0.00000000000E+00 0.  1.
         -2    1    1    2    0  502  0.54588145827E+02  0.76335182098E+01  0.18608970426E+02  0.58175854488E+02  0.00000000000E+00 0.  1.
</event>
<event>
 4    1  0.3196713E+003  0.2507648E+02  0.7546771E-02  0.1467950E+00
          2   -1    0    0  501    0  0.00000000000E+00  0.00000000000E+00  0.13182008528E+04  0.13182008528E+04  0.00000000000E+00 0.  1.
         -2   -1    0    0    0  501 -0.00000000000E+00 -0.00000000000E+00 -0.49719558996E+00  0.49719558996E+00  0.00000000000E+00 0.  1.
          2    1    1    2  502    0 -0.23130132678E+02 -0.96864362326E+01  0.79161751940E+03  0.79201460031E+03  0.00000000000E+00 0.  1.
         -2    1    1    2    0  502  0.23130132678E+02  0.96864362326E+01  0.52608613780E+03  0.52668344806E+03  0.00000000000E+00 0.  1.
</event>
<event>
 4    1  0.3196713E+003  0.3189741E+02  0.7546771E-02  0.1403794E+00
          2   -1    0    0  501    0  0.00000000000E+00  0.00000000000E+00  0.60994862953E+02  0.60994862953E+02  0.00000000000E+00 0. -1.
         -2   -1    0    0    0  501 -0.00000000000E+00 -0.00000000000E+00 -0.16680832872E+02  0.16680832872E+02  0.00000000000E+00 0. -1.
          2    1    1    2  502    0  0.31895075771E+02  0.38586838304E+00  0.22180187008E+02  0.38851067534E+02  0.00000000000E+00 0. -1.
         -2    1    1    2    0  502 -0.31895075771E+02 -0.38586838304E+00  0.22133843074E+02  0.38824628292E+02  0.00000000000E+00 0. -1.
</event>
<event>
 4    1  0.3196713E+003  0.2665783E+02  0.7546771E-02  0.1451076E+00
          2   -1    0    0  501    0  0.00000000000E+00  0.00000000000E+00  0.14144624963E+04  0.14144624963E+04  0.00000000000E+00 0. -1.
         -2   -1    0    0    0  501 -0.00000000000E+00 -0.00000000000E+00 -0.12946295770E+01  0.12946295770E+01  0.00000000000E+00 0.  1.
          2    1    1    2  502    0 -0.17347443521E+02 -0.20241195241E+02  0.12603276938E+04  0.12606095888E+04  0.00000000000E+00 0. -1.
         -2    1    1    2    0  502  0.17347443521E+02  0.20241195241E+02  0.15284017293E+03  0.15514753702E+03  0.00000000000E+00 0.  1.
</event>
<event>
 4    1  0.3196713E+003  0.4173600E+02  0.7546771E-02  0.1338603E+00
          2   -1    0    0  501    0  0.00000000000E+00  0.00000000000E+00  0.10286558423E+04  0.10286558423E+04  0.00000000000E+00 0. -1.
         -2   -1    0    0    0  501 -0.00000000000E+00 -0.00000000000E+00 -0.44931973382E+02  0.44931973382E+02  0.00000000000E+00 0. -1.
          2    1    1    2  502    0  0.23474553854E+02  0.34508535562E+02  0.10184435187E+04  0.10192983344E+04  0.00000000000E+00 0. -1.
         -2    1    1    2    0  502 -0.23474553854E+02 -0.34508535562E+02 -0.34719649742E+02  0.54289481334E+02  0.00000000000E+00 0. -1.
</event>
<event>
 4    1  0.3196713E+003  0.2523365E+02  0.7546771E-02  0.1466206E+00
          2   -1    0    0  501    0  0.00000000000E+00  0.00000000000E+00  0.10259873909E+04  0.10259873909E+04  0.00000000000E+00 0.  1.
         -2   -1    0    0    0  501 -0.00000000000E+00 -0.00000000000E+00 -0.19635121723E+01  0.19635121723E+01  0.00000000000E+00 0.  1.
          2    1    1    2  502    0  0.23435157177E+02 -0.93557703083E+01  0.93706967498E+03  0.93740936244E+03  0.00000000000E+00 0.  1.
         -2    1    1    2    0  502 -0.23435157177E+02  0.93557703083E+01  0.86954203744E+02  0.90541540625E+02  0.00000000000E+00 0.  1.
</event>
<event>
 4    1  0.3196713E+003  0.5968893E+02  0.7546771E-02  0.1260893E+00
          2   -1    0    0  501    0  0.00000000000E+00  0.00000000000E+00  0.37053051501E+03  0.37053051501E+03  0.00000000000E+00 0. -1.
         -2   -1    0    0    0  501 -0.00000000000E+00 -0.00000000000E+00 -0.10942752391E+02  0.10942752391E+02  0.00000000000E+00 0. -1.
          2    1    1    2  502    0 -0.57741858266E+02 -0.15121058903E+02  0.24622589384E+03  0.25335737490E+03  0.00000000000E+00 0. -1.
         -2    1    1    2    0  502  0.57741858266E+02  0.15121058903E+02  0.11336186878E+03  0.12811589250E+03  0.00000000000E+00 0. -1.
</event>
<event>
 4    1  0.3196713E+003  0.2377904E+02  0.7546771E-02  0.1482941E+00
          2   -1    0    0  501    0  0.00000000000E+00  0.00000000000E+00  0.13142262612E+04  0.13142262612E+04  0.00000000000E+00 0. -1.
         -2   -1    0    0    0  501 -0.00000000000E+00 -0.00000000000E+00 -0.12558219643E+01  0.12558219643E+01  0.00000000000E+00 0. -1.
          2    1    1    2  502    0 -0.22689027011E+02  0.71169285883E+01  0.11897820701E+04  0.11900196709E+04  0.00000000000E+00 0. -1.
         -2    1    1    2    0  502  0.22689027011E+02 -0.71169285883E+01  0.12318836905E+03  0.12546241225E+03  0.00000000000E+00 0. -1.
</event>
<event>
 4    1  0.3196713E+003  0.2578361E+02  0.7546771E-02  0.1460225E+00
          2   -1    0    0  501    0  0.00000000000E+00  0.00000000000E+00  0.37505710594E+03  0.37505710594E+03  0.00000000000E+00 0.  1.
         -2   -1    0    0    0  501 -0.00000000000E+00 -0.00000000000E+00 -0.44537703948E+01  0.44537703948E+01  0.00000000000E+00 0.  1.
          2    1    1    2  502    0 -0.25686534018E+02  0.22352392960E+01  0.33253271983E+03  0.33353081429E+03  0.00000000000E+00 0.  1.
         -2    1    1    2    0  502  0.25686534018E+02 -0.22352392960E+01  0.38070615717E+02  0.45980062044E+02  0.00000000000E+00 0.  1.
</event>
<event>
 4    1  0.3196713E+003  0.3404943E+02  0.7546771E-02  0.1387372E+00
          2   -1    0    0  501    0  0.00000000000E+00  0.00000000000E+00  0.48456191012E+03  0.48456191012E+03  0.00000000000E+00 0.  1.
         -2   -1    0    0    0  501 -0.00000000000E+00 -0.00000000000E+00 -0.27733565684E+01  0.27733565684E+01  0.00000000000E+00 0.  1.
          2    1    1    2  502    0  0.19577936371E+02  0.27858002234E+02  0.33117966101E+03  0.33292541469E+03  0.00000000000E+00 0.  1.
         -2    1    1    2    0  502 -0.19577936371E+02 -0.27858002234E+02  0.15060889255E+03  0.15440985200E+03  0.00000000000E+00 0.  1.
</event>
<event>
 4    1  0.3196713E+003  0.2588412E+02  0.7546771E-02  0.1459151E+00
          2   -1    0    0  501    0  0.00000000000E+00  0.00000000000E+00  0.32902537524E+03  0.32902537524E+03  0.00000000000E+00 0.  1.
         -2   -1    0    0    0  501 -0.00000000000E+00 -0.00000000000E+00 -0.27269422917E+02  0.27269422917E+02  0.00000000000E+00 0.  1.
          2    1    1    2  502    0 -0.25872679458E+02 -0.76954714923E+00  0.32224497358E+03  0.32328286490E+03  0.00000000000E+00 0.  1.
         -2    1    1    2    0  502  0.25872679458E+02  0.76954714923E+00 -0.20489021253E+02  0.33011933253E+02  0.00000000000E+00 0.  1.
</event>
<event>
 4    1  0.3196713E+003  0.2362310E+02  0.7546771E-02  0.1484819E+00
          2   -1    0    0  501    0  0.00000000000E+00  0.00000000000E+00  0.94549006111E+03  0.94549006111E+03  0.00000000000E+00 0.  1.
         -2   -1    0    0    0  501 -0.00000000000E+00 -0.00000000000E+00 -0.27783582509E+01  0.27783582509E+01  0.00000000000E+00 0.  1.
          2    1    1    2  502    0  0.21627325498E+02 -0.95031394396E+01  0.89212526010E+03  0.89243797016E+03  0.00000000000E+00 0.  1.
         -2    1    1    2    0  502 -0.21627325498E+02  0.95031394396E+01  0.50586442757E+02  0.55830449203E+02  0.00000000000E+00 0.  1.
</event>
<event>
 4    1  0.3196713E+003  0.2046049E+02  0.7546771E-02  0.1527109E+00
          2   -1    0    0  501    0  0.00000000000E+00  0.00000000000E+00  0.26505676207E+02  0.26505676207E+02  0.00000000000E+00 0.  1.
         -2   -1    0    0    0  501 -0.00000000000E+00 -0.00000000000E+00 -0.21642759641E+02  0.21642759641E+02  0.00000000000E+00 0. -1.
          2    1    1    2  502    0  0.80950417737E+01 -0.18791005954E+02  0.14946330431E+02  0.25338200399E+02  0.00000000000E+00 0.  1.
         -2    1    1    2    0  502 -0.80950417737E+01  0.18791005954E+02 -0.10083413865E+02  0.22810235449E+02  0.00000000000E+00 0. -1.
</event>
<event>
 4    1  0.3196713E+003  0.2082365E+02  0.7546771E-02  0.1521798E+00
          2   -1    0    0  501    0  0.00000000000E+00  0.00000000000E+00  0.75722554467E+03  0.75722554467E+03  0.00000000000E+00 0.  1.
         -2   -1    0    0    0  501 -0.00000000000E+00 -0.00000000000E+00 -0.99738287918E+00  0.99738287918E+00  0.00000000000E+00 0. -1.
          2    1    1    2  502    0 -0.15061790876E+02 -0.14379383690E+02  0.62551116167E+03  0.62585768158E+03  0.00000000000E+00 0.  1.
         -2    1    1    2    0  502  0.15061790876E+02  0.14379383690E+02  0.13071700012E+03  0.13236524597E+03  0.00000000000E+00 0. -1.
</event>
<event>
 4    1  0.3196713E+003  0.3155933E+02  0.7546771E-02  0.1406513E+00
          2   -1    0    0  501    0  0.00000000000E+00  0.00000000000E+00  0.11151449884E+03  0.11151449884E+03  0.00000000000E+00 0.  1.
         -2   -1    0    0    0  501 -0.00000000000E+00 -0.00000000000E+00 -0.10124233964E+03  0.10124233964E+03  0.00000000000E+00 0.  1.
          2    1    1    2  502    0 -0.30194157847E+02 -0.91817116206E+01  0.10671388194E+03  0.11128271921E+03  0.00000000000E+00 0.  1.
         -2    1    1    2    0  502  0.30194157847E+02  0.91817116206E+01 -0.96441722742E+02  0.10147411927E+03  0.00000000000E+00 0.  1.
</event>
<event>
 4    1  0.3196713E+003  0.2587271E+02  0.7546771E-02  0.1459273E+00
          2   -1    0    0  501    0  0.00000000000E+00  0.00000000000E+00  0.78020272324E+02  0.78020272324E+02  0.00000000000E+00 0. -1.
         -2   -1    0    0    0  501 -0.00000000000E+00 -0.00000000000E+00 -0.10866449847E+02  0.10866449847E+02  0.00000000000E+00 0. -1.
          2    1    1    2  502    0  0.10480877213E+02 -0.23654774292E+02  0.53964428778E+02  0.59846108540E+02  0.00000000000E+00 0. -1.
         -2    1    1    2    0  502 -0.10480877213E+02  0.23654774292E+02  0.13189393699E+02  0.29040613632E+02  0.00000000000E+00 0. -1.
</event>
<event>
 4    1  0.3196713E+003  0.2337492E+02  0.7546771E-02  0.1487843E+00
          2   -1    0    0  501    0  0.00000000000E+00  0.00000000000E+00  0.51792677664E+03  0.51792677664E+03  0.00000000000E+00 0.  1.
         -2   -1    0    0    0  501 -0.00000000000E+00 -0.00000000000E+00 -0.98723943205E+01  0.98723943205E+01  0.00000000000E+00 0. -1.
          2    1    1    2  502    0 -0.41867345710E+01 -0.22996919388E+02  0.50342854979E+03  0.50397092356E+03  0.00000000000E+00 0.  1.
         -2    1    1    2    0  502  0.41867345710E+01  0.22996919388E+02  0.46258325297E+01  0.23828247403E+02  0.00000000000E+00 0. -1.
</event>
<event>
 4    1  0.3196713E+003  0.2401633E+02  0.7546771E-02  0.1480116E+00
          2   -1    0    0  501    0  0.00000000000E+00  0.00000000000E+00  0.14973458397E+03  0.14973458397E+03  0.00000000000E+00 0. -1.
         -2   -1    0    0    0  501 -0.00000000000E+00 -0.00000000000E+00 -0.30210564606E+03  0.30210564606E+03  0.00000000000E+00 0.  1.
          2    1    1    2  502    0 -0.21544257698E+02 -0.10612685199E+02  0.14828964903E+03  0.15022184973E+03  0.00000000000E+00 0. -1.
         -2    1    1    2    0  502  0.21544257698E+02  0.10612685199E+02 -0.30066071111E+03  0.30161838030E+03  0.00000000000E+00 0.  1.
</event>
<event>
 4    1  0.3196713E+003  0.2689176E+02  0.7546771E-02  0.1448698E+00
          2   -1    0    0  501    0  0.00000000000E+00  0.00000000000E+00  0.17621079843E+04  0.17621079843E+04  0.00000000000E+00 0.  1.
         -2   -1    0    0    0  501 -0.00000000000E+00 -0.00000000000E+00 -0.93200961159E+00  0.93200961159E+00  0.00000000000E+00 0.  1.
          2    1    1    2  502    0  0.23728941267E+02 -0.12653233566E+02  0.15400583340E+04  0.15402931017E+04  0.00000000000E+00 0.  1.
         -2    1    1    2    0  502 -0.23728941267E+02  0.12653233566E+02  0.22111764069E+03  0.22274689223E+03  0.00000000000E+00 0.  1.
</event>
<event>
 4    1  0.3196713E+003  0.3072729E+02  0.7546771E-02  0.1413380E+00
          2   -1    0    0  501    0  0.00000000000E+00  0.00000000000E+00  0.29646206661E+03  0.29646206661E+03  0.00000000000E+00 0.  1.
         -2   -1    0    0    0  501 -0.00000000000E+00 -0.00000000000E+00 -0.51485949677E+01  0.51485949677E+01  0.00000000000E+00 0.  1.
          2    1    1    2  502    0  0.30535136863E+02  0.34309831845E+01  0.23879383318E+03  0.24076266529E+03  0.00000000000E+00 0.  1.
         -2    1    1    2    0  502 -0.30535136863E+02 -0.34309831845E+01  0.52519638455E+02  0.60847996288E+02  0.00000000000E+00 0.  1.
</event>
<event>
 4    1  0.3196713E+003  0.2410494E+02  0.7546771E-02  0.1479071E+00
          2   -1    0    0  501    0  0.00000000000E+00  0.00000000000E+00  0.12426366309E+03  0.12426366309E+03  0.00000000000E+00 0.  1.
         -2   -1    0    0    0  501 -0.00000000000E+00 -0.00000000000E+00 -0.23246229688E+02  0.23246229688E+02  0.00000000000E+00 0.  1.
          2    1    1    2  502    0 -0.69896760258E+01  0.23069299975E+02  0.11642980177E+03  0.11889889365E+03  0.00000000000E+00 0.  1.
         -2    1    1    2    0  502  0.69896760258E+01 -0.23069299975E+02 -0.15412368366E+02  0.28610999125E+02  0.00000000000E+00 0.  1.
</event>
<event>
 4    1  0.3196713E+003  0.2418632E+02  0.7546771E-02  0.1478116E+00
          2   -1    0    0  501    0  0.00000000000E+00  0.00000000000E+00  0.65772609630E+02  0.65772609630E+02  0.00000000000E+00 0.  1.
         -2   -1    0    0    0  501 -0.00000000000E+00 -0.00000000000E+00 -0.19562073255E+02  0.19562073255E+02  0.00000000000E+00 0.  1.
          2    1    1    2  502    0 -0.18234455989E+02  0.15889705546E+02  0.54614093248E+02  0.59730036907E+02  0.00000000000E+00 0.  1.
         -2    1    1    2    0  502  0.18234455989E+02 -0.15889705546E+02 -0.84035568731E+01  0.25604645978E+02  0.00000000000E+00 0.  1.
</event>
<event>
 4    1  0.3196713E+003  0.2627766E+02  0.7546771E-02  0.1455002E+00
          2   -1    0    0  501    0  0.00000000000E+00  0.00000000000E+00  0.57780589389E+03  0.57780589389E+03  0.00000000000E+00 0.  1.
         -2   -1    0    0    0  501 -0.00000000000E+00 -0.00000000000E+00 -0.85924803702E+01  0.85924803702E+01  0.00000000000E+00 0.  1.
          2    1    1    2  502    0  0.22424646038E+02  0.13698556371E+02  0.55665343722E+03  0.55727333003E+03  0.00000000000E+00 0.  1.
         -2    1    1    2    0  502 -0.22424646038E+02 -0.13698556371E+02  0.12559976298E+02  0.29125044226E+02  0.00000000000E+00 0.  1.
</event>
<event>
 4    1  0.3196713E+003  0.2316998E+02  0.7546771E-02  0.1490375E+00
          2   -1    0    0  501    0  0.00000000000E+00  0.00000000000E+00  0.63788371316E+03  0.63788371316E+03  0.00000000000E+00 0. -1.
         -2   -1    0    0    0  501 -0.00000000000E+00 -0.00000000000E+00 -0.10388869550E+01  0.10388869550E+01  0.00000000000E+00 0. -1.
          2    1    1    2  502    0 -0.22340130847E+02 -0.61454517454E+01  0.45763371962E+03  0.45821989192E+03  0.00000000000E+00 0. -1.
         -2    1    1    2    0  502  0.22340130847E+02  0.61454517454E+01  0.17921110658E+03  0.18070270819E+03  0.00000000000E+00 0. -1.
</event>
<event>
 4    1  0.3196713E+003  0.2222236E+02  0.7546771E-02  0.1502501E+00
          2   -1    0    0  501    0  0.00000000000E+00  0.00000000000E+00  0.11758052861E+03  0.11758052861E+03  0.00000000000E+00 0.  1.
         -2   -1    0    0    0  501 -0.00000000000E+00 -0.00000000000E+00 -0.18674203112E+02  0.18674203112E+02  0.00000000000E+00 0.  1.
          2    1    1    2  502    0  0.25103098125E+01 -0.22080118558E+02  0.10943206577E+03  0.11166561830E+03  0.00000000000E+00 0.  1.
         -2    1    1    2    0  502 -0.25103098125E+01  0.22080118558E+02 -0.10525740270E+02  0.24589113427E+02  0.00000000000E+00 0.  1.
</event>
<event>
 4    1  0.3196713E+003  0.2354191E+02  0.7546771E-02  0.1485803E+00
          2   -1    0    0  501    0  0.00000000000E+00  0.00000000000E+00  0.52984469339E+03  0.52984469339E+03  0.00000000000E+00 0.  1.
         -2   -1    0    0    0  501 -0.00000000000E+00 -0.00000000000E+00 -0.23838799677E+01  0.23838799677E+01  0.00000000000E+00 0. -1.
          2    1    1    2  502    0 -0.15713480347E+01  0.23489407643E+02  0.46308828035E+03  0.46368629137E+03  0.00000000000E+00 0.  1.
         -2    1    1    2    0  502  0.15713480347E+01 -0.23489407643E+02  0.64372533074E+02  0.68542281990E+02  0.00000000000E+00 0. -1.
</event>
<event>
 4    1  0.3196713E+003  0.2084583E+02  0.7546771E-02  0.1521477E+00
          2   -1    0    0  501    0  0.00000000000E+00  0.00000000000E+00  0.19287831101E+01  0.19287831101E+01  0.00000000000E+00 0. -1.
         -2   -1    0    0    0  501 -0.00000000000E+00 -0.00000000000E+00 -0.48777731967E+03  0.48777731967E+03  0.00000000000E+00 0. -1.
          2    1    1    2  502    0  0.11829781812E+02  0.17164059609E+02 -0.63309000409E+02  0.66652668459E+02  0.00000000000E+00 0. -1.
         -2    1    1    2    0  502 -0.11829781812E+02 -0.17164059609E+02 -0.42253953615E+03  0.42305343432E+03  0.00000000000E+00 0. -1.
</event>
<event>
 4    1  0.3196713E+003  0.3221633E+02  0.7546771E-02  0.1401266E+00
          2   -1    0    0  501    0  0.00000000000E+00  0.00000000000E+00  0.93820815828E+03  0.93820815828E+03  0.00000000000E+00 0. -1.
         -2   -1    0    0    0  501 -0.00000000000E+00 -0.00000000000E+00 -0.31937444760E+02  0.31937444760E+02  0.00000000000E+00 0.  1.
          2    1    1    2  502    0 -0.17288844808E+02 -0.27184324009E+02  0.92973314967E+03  0.93029114863E+03  0.00000000000E+00 0. -1.
         -2    1    1    2    0  502  0.17288844808E+02  0.27184324009E+02 -0.23462436146E+02  0.39854454412E+02  0.00000000000E+00 0.  1.
</event>
<event>
 4    1  0.3196713E+003  0.2668069E+02  0.7546771E-02  0.1450842E+00
          2   -1    0    0  501    0  0.00000000000E+00  0.00000000000E+00  0.81137667656E+02  0.81137667656E+02  0.00000000000E+00 0. -1.
         -2   -1    0    0    0  501 -0.00000000000E+00 -0.00000000000E+00 -0.92997417747E+01  0.92997417747E+01  0.00000000000E+00 0. -1.
          2    1    1    2  502    0  0.12269761941E+02 -0.23692024699E+02  0.46675852219E+02  0.53763317166E+02  0.00000000000E+00 0. -1.
         -2    1    1    2    0  502 -0.12269761941E+02  0.23692024699E+02  0.25162073663E+02  0.36674092264E+02  0.00000000000E+00 0. -1.
</event>
<event>
 4    1  0.3196713E+003  0.2193979E+02  0.7546771E-02  0.1506258E+00
          2   -1    0    0  501    0  0.00000000000E+00  0.00000000000E+00  0.15028719877E+04  0.15028719877E+04  0.00000000000E+00 0. -1.
         -2   -1    0    0    0  501 -0.00000000000E+00 -0.00000000000E+00 -0.62450053857E+00  0.62450053857E+00  0.00000000000E+00 0.  1.
          2    1    1    2  502    0  0.33431029956E+01 -0.21683588908E+02  0.12758023789E+04  0.12759910127E+04  0.00000000000E+00 0. -1.
         -2    1    1    2    0  502 -0.33431029956E+01  0.21683588908E+02  0.22644510822E+03  0.22750547554E+03  0.00000000000E+00 0.  1.
</event>
<event>
 4    1  0.3196713E+003  0.3065692E+02  0.7546771E-02  0.1413972E+00
          2   -1    0    0  501    0  0.00000000000E+00  0.00000000000E+00  0.19006544342E+03  0.19006544342E+03  0.00000000000E+00 0. -1.
         -2   -1    0    0    0  501 -0.00000000000E+00 -0.00000000000E+00 -0.81510022030E+03  0.81510022030E+03  0.00000000000E+00 0. -1.
          2    1    1    2  502    0 -0.23595618255E+01  0.30565979008E+02  0.18853864877E+03  0.19101483891E+03  0.00000000000E+00 0. -1.
         -2    1    1    2    0  502  0.23595618255E+01 -0.30565979008E+02 -0.81357342565E+03  0.81415082481E+03  0.00000000000E+00 0. -1.
</event>
<event>
 4    1  0.3196713E+003  0.1317996E+03  0.7546771E-02  0.1117885E+00
          2   -1    0    0  501    0  0.00000000000E+00  0.00000000000E+00  0.58884300189E+03  0.58884300189E+03  0.00000000000E+00 0. -1.
         -2   -1    0    0    0  501 -0.00000000000E+00 -0.00000000000E+00 -0.49055657914E+02  0.49055657914E+02  0.00000000000E+00 0. -1.
          2    1    1    2  502    0 -0.29765508859E+02 -0.12839454064E+03  0.47126988578E+03  0.48935309218E+03  0.00000000000E+00 0. -1.
         -2    1    1    2    0  502  0.29765508859E+02  0.12839454064E+03  0.68517458204E+02  0.14854556763E+03  0.00000000000E+00 0. -1.
</event>
<event>
 4    1  0.3196713E+003  0.2487158E+02  0.7546771E-02  0.1470245E+00
          2   -1    0    0  501    0  0.00000000000E+00  0.00000000000E+00  0.28242272368E+03  0.28242272368E+03  0.00000000000E+00 0.  1.
         -2   -1    0    0    0  501 -0.00000000000E+00 -0.00000000000E+00 -0.36922057518E+03  0.36922057518E+03  0.00000000000E+00 0. -1.
          2    1    1    2  502    0 -0.23998072937E+02 -0.65335959383E+01  0.28145485462E+03  0.28255164230E+03  0.00000000000E+00 0.  1.
         -2    1    1    2    0  502  0.23998072937E+02  0.65335959383E+01 -0.36825270612E+03  0.36909165656E+03  0.00000000000E+00 0. -1.
</event>
<event>
 4    1  0.3196713E+003  0.4937709E+02  0.7546771E-02  0.1300896E+00
          2   -1    0    0  501    0  0.00000000000E+00  0.00000000000E+00  0.42016188066E+03  0.42016188066E+03  0.00000000000E+00 0.  1.
         -2   -1    0    0    0  501 -0.00000000000E+00 -0.00000000000E+00 -0.96705338536E+02  0.96705338536E+02  0.00000000000E+00 0.  1.
          2    1    1    2  502    0 -0.25326050938E+02  0.42387358947E+02  0.41228835076E+03  0.41523460986E+03  0.00000000000E+00 0.  1.
         -2    1    1    2    0  502  0.25326050938E+02 -0.42387358947E+02 -0.88831808636E+02  0.10163260933E+03  0.00000000000E+00 0.  1.
</event>
<event>
 4    1  0.3196713E+003  0.3975038E+02  0.7546771E-02  0.1349955E+00
          2   -1    0    0  501    0  0.00000000000E+00  0.00000000000E+00  0.21783343091E+04  0.21783343091E+04  0.00000000000E+00 0. -1.
         -2   -1    0    0    0  501 -0.00000000000E+00 -0.00000000000E+00 -0.39048324730E+01  0.39048324730E+01  0.00000000000E+00 0.  1.
          2    1    1    2  502    0 -0.26254415775E+02  0.29846250270E+02  0.20717882826E+04  0.20721695830E+04  0.00000000000E+00 0. -1.
         -2    1    1    2    0  502  0.26254415775E+02 -0.29846250270E+02  0.10264119409E+03  0.11006955858E+03  0.00000000000E+00 0.  1.
</event>
<event>
 4    1  0.3196713E+003  0.2232815E+02  0.7546771E-02  0.1501111E+00
          2   -1    0    0  501    0  0.00000000000E+00  0.00000000000E+00  0.10283299777E+03  0.10283299777E+03  0.00000000000E+00 0.  1.
         -2   -1    0    0    0  501 -0.00000000000E+00 -0.00000000000E+00 -0.80088793928E+01  0.80088793928E+01  0.00000000000E+00 0. -1.
          2    1    1    2  502    0 -0.20059327955E+02 -0.98066216608E+01  0.82228460778E+02  0.85206022254E+02  0.00000000000E+00 0.  1.
         -2    1    1    2    0  502  0.20059327955E+02  0.98066216608E+01  0.12595657594E+02  0.25635854904E+02  0.00000000000E+00 0. -1.
</event>
<event>
 4    1  0.3196713E+003  0.2770437E+02  0.7546771E-02  0.1440658E+00
          2   -1    0    0  501    0  0.00000000000E+00  0.00000000000E+00  0.92191684393E+03  0.92191684393E+03  0.00000000000E+00 0.  1.
         -2   -1    0    0    0  501 -0.00000000000E+00 -0.00000000000E+00 -0.10028417581E+02  0.10028417581E+02  0.00000000000E+00 0.  1.
          2    1    1    2  502    0  0.57231707110E+01 -0.27106781812E+02  0.90215575891E+03  0.90258104657E+03  0.00000000000E+00 0.  1.
         -2    1    1    2    0  502 -0.57231707110E+01  0.27106781812E+02  0.97326674370E+01  0.29364214933E+02  0.00000000000E+00 0.  1.
</event>
<event>
 4    1  0.3196713E+003  0.2280533E+02  0.7546771E-02  0.1494957E+00
          2   -1    0    0  501    0  0.00000000000E+00  0.00000000000E+00  0.90459681183E+01  0.90459681183E+01  0.00000000000E+00 0.  1.
         -2   -1    0    0    0  501 -0.00000000000E+00 -0.00000000000E+00 -0.67159856641E+02  0.67159856641E+02  0.00000000000E+00 0. -1.
          2    1    1    2  502    0 -0.14364923009E+02 -0.17712480851E+02 -0.14601277811E+02  0.27079148891E+02  0.00000000000E+00 0.  1.
         -2    1    1    2    0  502  0.14364923009E+02  0.17712480851E+02 -0.43512610711E+02  0.49126675868E+02  0.00000000000E+00 0. -1.
</event>
<event>
 4    1  0.3196713E+003  0.3003220E+02  0.7546771E-02  0.1419317E+00
          2   -1    0    0  501    0  0.00000000000E+00  0.00000000000E+00  0.84310697179E+00  0.84310697179E+00  0.00000000000E+00 0. -1.
         -2   -1    0    0    0  501 -0.00000000000E+00 -0.00000000000E+00 -0.13256937654E+04  0.13256937654E+04  0.00000000000E+00 0.  1.
          2    1    1    2  502    0 -0.28773366992E+02 -0.86038715554E+01 -0.37100469024E+03  0.37221823361E+03  0.00000000000E+00 0. -1.
         -2    1    1    2    0  502  0.28773366992E+02  0.86038715554E+01 -0.95384596821E+03  0.95431863878E+03  0.00000000000E+00 0.  1.
</event>
<event>
 4    1  0.3196713E+003  0.4305328E+02  0.7546771E-02  0.1331466E+00
          2   -1    0    0  501    0  0.00000000000E+00  0.00000000000E+00  0.10429885404E+03  0.10429885404E+03  0.00000000000E+00 0.  1.
         -2   -1    0    0    0  501 -0.00000000000E+00 -0.00000000000E+00 -0.13087744678E+03  0.13087744678E+03  0.00000000000E+00 0. -1.
          2    1    1    2  502    0  0.35657244596E+02 -0.24127706140E+02  0.96024044763E+02  0.10523403664E+03  0.00000000000E+00 0.  1.
         -2    1    1    2    0  502 -0.35657244596E+02  0.24127706140E+02 -0.12260263750E+03  0.12994226417E+03  0.00000000000E+00 0. -1.
</event>
<event>
 4    1  0.3196713E+003  0.2918682E+02  0.7546771E-02  0.1426797E+00
          2   -1    0    0  501    0  0.00000000000E+00  0.00000000000E+00  0.56819211381E+03  0.56819211381E+03  0.00000000000E+00 0.  1.
         -2   -1    0    0    0  501 -0.00000000000E+00 -0.00000000000E+00 -0.50194350429E+01  0.50194350429E+01  0.00000000000E+00 0. -1.
          2    1    1    2  502    0  0.27920415393E+02 -0.85041576425E+01  0.52160188205E+03  0.52241783435E+03  0.00000000000E+00 0.  1.
         -2    1    1    2    0  502 -0.27920415393E+02  0.85041576425E+01  0.41570796718E+02  0.50793714500E+02  0.00000000000E+00 0. -1.
</event>
<event>
 4    1  0.3196713E+003  0.2247946E+02  0.7546771E-02  0.1499140E+00
          2   -1    0    0  501    0  0.00000000000E+00  0.00000000000E+00  0.13652667010E+04  0.13652667010E+04  0.00000000000E+00 0. -1.
         -2   -1    0    0    0  501 -0.00000000000E+00 -0.00000000000E+00 -0.39373004264E+00  0.39373004264E+00  0.00000000000E+00 0. -1.
          2    1    1    2  502    0  0.21527800752E+02  0.64714730656E+01  0.84961090154E+03  0.84990823633E+03  0.00000000000E+00 0. -1.
         -2    1    1    2    0  502 -0.21527800752E+02 -0.64714730656E+01  0.51526206939E+03  0.51575219469E+03  0.00000000000E+00 0. -1.
</event>
<event>
 4    1  0.3196713E+003  0.3531752E+02  0.7546771E-02  0.1378345E+00
          2   -1    0    0  501    0  0.00000000000E+00  0.00000000000E+00  0.54879636780E+01  0.54879636780E+01  0.00000000000E+00 0. -1.
         -2   -1    0    0    0  501 -0.00000000000E+00 -0.00000000000E+00 -0.25048853939E+03  0.25048853939E+03  0.00000000000E+00 0. -1.
          2    1    1    2  502    0 -0.34703809048E+02  0.65553432450E+01 -0.83545422046E+02  0.90703717853E+02  0.00000000000E+00 0. -1.
         -2    1    1    2    0  502  0.34703809048E+02 -0.65553432450E+01 -0.16145515367E+03  0.16527278522E+03  0.00000000000E+00 0. -1.
</event>
<event>
 4    1  0.3196713E+003  0.2372143E+02  0.7546771E-02  0.1483633E+00
          2   -1    0    0  501    0  0.00000000000E+00  0.00000000000E+00  0.29858416850E+03  0.29858416850E+03  0.00000000000E+00 0.  1.
         -2   -1    0    0    0  501 -0.00000000000E+00 -0.00000000000E+00 -0.29904519933E+01  0.29904519933E+01  0.00000000000E+00 0.  1.
          2    1    1    2  502    0 -0.23648844255E+02 -0.18542575213E+01  0.23949247464E+03  0.24066439603E+03  0.00000000000E+00 0.  1.
         -2    1    1    2    0  502  0.23648844255E+02  0.18542575213E+01  0.56101241859E+02  0.60910224460E+02  0.00000000000E+00 0.  1.
</event>
<event>
 4    1  0.3196713E+003  0.2551654E+02  0.7546771E-02  0.1463107E+00
          2   -1    0    0  501    0  0.00000000000E+00  0.00000000000E+00  0.54068588769E+02  0.54068588769E+02  0.00000000000E+00 0. -1.
         -2   -1    0    0    0  501 -0.00000000000E+00 -0.00000000000E+00 -0.16740949573E+03  0.16740949573E+03  0.00000000000E+00 0.  1.
          2    1    1    2  502    0  0.17070432907E+02  0.18965599034E+02  0.50011463282E+02  0.56144813527E+02  0.00000000000E+00 0. -1.
         -2    1    1    2    0  502 -0.17070432907E+02 -0.18965599034E+02 -0.16335237024E+03  0.16533327097E+03  0.00000000000E+00 0.  1.
</event>
<event>
 4    1  0.3196713E+003  0.2084815E+02  0.7546771E-02  0.1521444E+00
          2   -1    0    0  501    0  0.00000000000E+00  0.00000000000E+00  0.87619302685E+03  0.87619302685E+03  0.00000000000E+00 0. -1.
         -2   -1    0    0    0  501 -0.00000000000E+00 -0.00000000000E+00 -0.10874998233E+02  0.10874998233E+02  0.00000000000E+00 0.  1.
          2    1    1    2  502    0  0.88210060053E+01  0.18890084931E+02  0.86595909342E+03  0.86621001895E+03  0.00000000000E+00 0. -1.
         -2    1    1    2    0  502 -0.88210060053E+01 -0.18890084931E+02 -0.64106480436E+00  0.20858006130E+02  0.00000000000E+00 0.  1.
</event>
<event>
 4    1  0.3196713E+003  0.2518955E+02  0.7546771E-02  0.1466694E+00
          2   -1    0    0  501    0  0.00000000000E+00  0.00000000000E+00  0.15788719242E+04  0.15788719242E+04  0.00000000000E+00 0.  1.
         -2   -1    0    0    0  501 -0.00000000000E+00 -0.00000000000E+00 -0.54635159091E+01  0.54635159091E+01  0.00000000000E+00 0. -1.
          2    1    1    2  502    0  0.21741551537E+02  0.12720789151E+02  0.15491809130E+04  0.15493856895E+04  0.00000000000E+00 0.  1.
         -2    1    1    2    0  502 -0.21741551537E+02 -0.12720789151E+02  0.24227495218E+02  0.34949750563E+02  0.00000000000E+00 0. -1.
</event>
<event>
 4    1  0.3196713E+003  0.2763923E+02  0.7546771E-02  0.1441290E+00
          2   -1    0    0  501    0  0.00000000000E+00  0.00000000000E+00  0.45782448640E+03  0.45782448640E+03  0.00000000000E+00 0. -1.
         -2   -1    0    0    0  501 -0.00000000000E+00 -0.00000000000E+00 -0.23507634032E+01  0.23507634032E+01  0.00000000000E+00 0. -1.
          2    1    1    2  502    0 -0.11730493388E+02 -0.25026442518E+02  0.35168273194E+03  0.35276716293E+03  0.00000000000E+00 0. -1.
         -2    1    1    2    0  502  0.11730493388E+02  0.25026442518E+02  0.10379099106E+03  0.10740808687E+03  0.00000000000E+00 0. -1.
</event>
<event>
 4    1  0.3196713E+003  0.2663192E+02  0.7546771E-02  0.1451341E+00
          2   -1    0    0  501    0  0.00000000000E+00  0.00000000000E+00  0.76415059994E+03  0.76415059994E+03  0.00000000000E+00 0. -1.
         -2   -1    0    0    0  501 -0.00000000000E+00 -0.00000000000E+00 -0.97239722084E+00  0.97239722084E+00  0.00000000000E+00 0.  1.
          2    1    1    2  502    0  0.23952353107E+02 -0.11642328272E+02  0.46317989598E+03  0.46394490520E+03  0.00000000000E+00 0. -1.
         -2    1    1    2    0  502 -0.23952353107E+02  0.11642328272E+02  0.29999830675E+03  0.30117809196E+03  0.00000000000E+00 0.  1.
</event>
<event>
 4    1  0.3196713E+003  0.2284538E+02  0.7546771E-02  0.1494449E+00
          2   -1    0    0  501    0  0.00000000000E+00  0.00000000000E+00  0.13088354636E+03  0.13088354636E+03  0.00000000000E+00 0. -1.
         -2   -1    0    0    0  501 -0.00000000000E+00 -0.00000000000E+00 -0.37422734111E+02  0.37422734111E+02  0.00000000000E+00 0. -1.
          2    1    1    2  502    0  0.92205885218E+01  0.20901960472E+02  0.12627379791E+03  0.12832374388E+03  0.00000000000E+00 0. -1.
         -2    1    1    2    0  502 -0.92205885218E+01 -0.20901960472E+02 -0.32812985662E+02  0.39982536592E+02  0.00000000000E+00 0. -1.
</event>
<event>
 4    1  0.3196713E+003  0.3057767E+02  0.7546771E-02  0.1414642E+00
          2   -1    0    0  501    0  0.00000000000E+00  0.00000000000E+00  0.21698699230E+03  0.21698699230E+03  0.00000000000E+00 0.  1.
         -2   -1    0    0    0  501 -0.00000000000E+00 -0.00000000000E+00 -0.43406517583E+02  0.43406517583E+02  0.00000000000E+00 0.  1.
          2    1    1    2  502    0 -0.29180409072E+02 -0.91377057412E+01  0.21035577309E+03  0.21256656654E+03  0.00000000000E+00 0.  1.
         -2    1    1    2    0  502  0.29180409072E+02  0.91377057412E+01 -0.36775298366E+02  0.47826943345E+02  0.00000000000E+00 0.  1.
</event>
<event>
 4    1  0.3196713E+003  0.2944932E+02  0.7546771E-02  0.1424443E+00
          2   -1    0    0  501    0  0.00000000000E+00  0.00000000000E+00  0.43018604194E+02  0.43018604194E+02  0.00000000000E+00 0.  1.
         -2   -1    0    0    0  501 -0.00000000000E+00 -0.00000000000E+00 -0.38594395141E+02  0.38594395141E+02  0.00000000000E+00 0.  1.
          2    1    1    2  502    0  0.74274594039E+01  0.28497284809E+02  0.30414088505E+02  0.42335318285E+02  0.00000000000E+00 0.  1.
         -2    1    1    2    0  502 -0.74274594039E+01 -0.28497284809E+02 -0.25989879453E+02  0.39277681050E+02  0.00000000000E+00 0.  1.
</event>
<event>
 4    1  0.3196713E+003  0.2384136E+02  0.7546771E-02  0.1482195E+00
          2   -1    0    0  501    0  0.00000000000E+00  0.00000000000E+00  0.77404589624E+03  0.77404589624E+03  0.00000000000E+00 0.  1.
         -2   -1    0    0    0  501 -0.00000000000E+00 -0.00000000000E+00 -0.47103109622E+01  0.47103109622E+01  0.00000000000E+00 0.  1.
          2    1    1    2  502    0  0.20839494814E+02  0.11581267798E+02  0.74240862933E+03  0.74279134568E+03  0.00000000000E+00 0.  1.
         -2    1    1    2    0  502 -0.20839494814E+02 -0.11581267798E+02  0.26926955943E+02  0.35964861521E+02  0.00000000000E+00 0.  1.
</event>
<event>
 4    1  0.3196713E+003  0.2001329E+02  0.7546771E-02  0.1533833E+00
          2   -1    0    0  501    0  0.00000000000E+00  0.00000000000E+00  0.10523249384E+04  0.10523249384E+04  0.00000000000E+00 0.  1.
         -2   -1    0    0    0  501 -0.00000000000E+00 -0.00000000000E+00 -0.97179343721E+02  0.97179343721E+02  0.00000000000E+00 0. -1.
          2    1    1    2  502    0 -0.19282266297E+02 -0.53596546862E+01  0.10511982871E+04  0.10513887818E+04  0.00000000000E+00 0.  1.
         -2    1    1    2    0  502  0.19282266297E+02  0.53596546862E+01 -0.96052692395E+02  0.98115500347E+02  0.00000000000E+00 0. -1.
</event>
<event>
 4    1  0.3196713E+003  0.2740196E+02  0.7546771E-02  0.1443612E+00
          2   -1    0    0  501    0  0.00000000000E+00  0.00000000000E+00  0.16105287893E+04  0.16105287893E+04  0.00000000000E+00 0. -1.
         -2   -1    0    0    0  501 -0.00000000000E+00 -0.00000000000E+00 -0.57544376978E+01  0.57544376978E+01  0.00000000000E+00 0. -1.
          2    1    1    2  502    0 -0.24950682316E+02 -0.11328324018E+02  0.15770995894E+04  0.15773376247E+04  0.00000000000E+00 0. -1.
         -2    1    1    2    0  502  0.24950682316E+02  0.11328324018E+02  0.27674762172E+02  0.38945602247E+02  0.00000000000E+00 0. -1.
</event>
<event>
 4    1  0.3196713E+003  0.2241008E+02  0.7546771E-02  0.1500042E+00
          2   -1    0    0  501    0  0.00000000000E+00  0.00000000000E+00  0.40190778368E+03  0.40190778368E+03  0.00000000000E+00 0.  1.
         -2   -1    0    0    0  501 -0.00000000000E+00 -0.00000000000E+00 -0.19813586505E+02  0.19813586505E+02  0.00000000000E+00 0. -1.
          2    1    1    2  502    0  0.21223456454E+01  0.22309354264E+02  0.39515040789E+03  0.39578536670E+03  0.00000000000E+00 0.  1.
         -2    1    1    2    0  502 -0.21223456454E+01 -0.22309354264E+02 -0.13056210712E+02  0.25936003487E+02  0.00000000000E+00 0. -1.
</event>
<event>
 4    1  0.3196713E+003  0.2311608E+02  0.7546771E-02  0.1491046E+00
          2   -1    0    0  501    0  0.00000000000E+00  0.00000000000E+00  0.58214035116E+03  0.58214035116E+03  0.00000000000E+00 0. -1.
         -2   -1    0    0    0  501 -0.00000000000E+00 -0.00000000000E+00 -0.12883696989E+01  0.12883696989E+01  0.00000000000E+00 0. -1.
          2    1    1    2  502    0 -0.16726209974E+02 -0.15955785687E+02  0.44685139650E+03  0.44744890630E+03  0.00000000000E+00 0. -1.
         -2    1    1    2    0  502  0.16726209974E+02  0.15955785687E+02  0.13400058496E+03  0.13597981455E+03  0.00000000000E+00 0. -1.
</event>
<event>
 4    1  0.3196713E+003  0.2055069E+02  0.7546771E-02  0.1525778E+00
          2   -1    0    0  501    0  0.00000000000E+00  0.00000000000E+00  0.22796943151E+01  0.22796943151E+01  0.00000000000E+00 0. -1.
         -2   -1    0    0    0  501 -0.00000000000E+00 -0.00000000000E+00 -0.20339314252E+03  0.20339314252E+03  0.00000000000E+00 0. -1.
          2    1    1    2  502    0 -0.17580794356E+02  0.10641730846E+02 -0.69849277308E+02  0.72809699258E+02  0.00000000000E+00 0. -1.
         -2    1    1    2    0  502  0.17580794356E+02 -0.10641730846E+02 -0.13126417090E+03  0.13286313758E+03  0.00000000000E+00 0. -1.
</event>
<event>
 4    1  0.3196713E+003  0.2139405E+02  0.7546771E-02  0.1513713E+00
          2   -1    0    0  501    0  0.00000000000E+00  0.00000000000E+00  0.47695501269E+01  0.47695501269E+01  0.00000000000E+00 0.  1.
         -2   -1    0    0    0  501 -0.00000000000E+00 -0.00000000000E+00 -0.12781152886E+03  0.12781152886E+03  0.00000000000E+00 0.  1.
          2    1    1    2  502    0  0.13119646087E+02 -0.16899113873E+02 -0.28430413116E+02  0.35580803153E+02  0.00000000000E+00 0.  1.
         -2    1    1    2    0  502 -0.13119646087E+02  0.16899113873E+02 -0.94611565615E+02  0.97000275830E+02  0.00000000000E+00 0.  1.
</event>
<event>
 4    1  0.3196713E+003  0.2024115E+02  0.7546771E-02  0.1530381E+00
          2   -1    0    0  501    0  0.00000000000E+00  0.00000000000E+00  0.29629834273E+03  0.29629834273E+03  0.00000000000E+00 0.  1.
         -2   -1    0    0    0  501 -0.00000000000E+00 -0.00000000000E+00 -0.13911197317E+01  0.13911197317E+01  0.00000000000E+00 0. -1.
          2    1    1    2  502    0 -0.20241077805E+02 -0.54263356816E-01  0.15900444610E+03  0.16028761042E+03  0.00000000000E+00 0.  1.
         -2    1    1    2    0  502  0.20241077805E+02  0.54263356816E-01  0.13590277690E+03  0.13740185204E+03  0.00000000000E+00 0. -1.
</event>
<event>
 4    1  0.3196713E+003  0.2078967E+02  0.7546771E-02  0.1522289E+00
          2   -1    0    0  501    0  0.00000000000E+00  0.00000000000E+00  0.18836144692E+02  0.18836144692E+02  0.00000000000E+00 0. -1.
         -2   -1    0    0    0  501 -0.00000000000E+00 -0.00000000000E+00 -0.23029092260E+02  0.23029092260E+02  0.00000000000E+00 0. -1.
          2    1    1    2  502    0  0.87107772458E+01 -0.18876773821E+02 -0.83751297533E+00  0.20806529218E+02  0.00000000000E+00 0. -1.
         -2    1    1    2    0  502 -0.87107772458E+01  0.18876773821E+02 -0.33554345929E+01  0.21058707734E+02  0.00000000000E+00 0. -1.
</event>
<event>
 4    1  0.3196713E+003  0.2329200E+02  0.7546771E-02  0.1488864E+00
          2   -1    0    0  501    0  0.00000000000E+00  0.00000000000E+00  0.31864682445E+03  0.31864682445E+03  0.00000000000E+00 0.  1.
         -2   -1    0    0    0  501 -0.00000000000E+00 -0.00000000000E+00 -0.41781571956E+03  0.41781571956E+03  0.00000000000E+00 0.  1.
          2    1    1    2  502    0  0.91993450378E+01 -0.21398343129E+02  0.31789580223E+03  0.31874795389E+03  0.00000000000E+00 0.  1.
         -2    1    1    2    0  502 -0.91993450378E+01  0.21398343129E+02 -0.41706469734E+03  0.41771459012E+03  0.00000000000E+00 0.  1.
</event>
<event>
 4    1  0.3196713E+003  0.2079035E+02  0.7546771E-02  0.1522279E+00
          2   -1    0    0  501    0  0.00000000000E+00  0.00000000000E+00  0.11783908186E+04  0.11783908186E+04  0.00000000000E+00 0. -1.
         -2   -1    0    0    0  501 -0.00000000000E+00 -0.00000000000E+00 -0.13741545331E+01  0.13741545331E+01  0.00000000000E+00 0.  1.
          2    1    1    2  502    0  0.20303466713E+02 -0.44730192398E+01  0.10935625347E+04  0.10937601455E+04  0.00000000000E+00 0. -1.
         -2    1    1    2    0  502 -0.20303466713E+02  0.44730192398E+01  0.83454129354E+02  0.86004827585E+02  0.00000000000E+00 0.  1.
</event>
<event>
 4    1  0.3196713E+003  0.2414359E+02  0.7546771E-02  0.1478617E+00
          2   -1    0    0  501    0  0.00000000000E+00  0.00000000000E+00  0.39753272397E+01  0.39753272397E+01  0.00000000000E+00 0. -1.
         -2   -1    0    0    0  501 -0.00000000000E+00 -0.00000000000E+00 -0.16257239132E+04  0.16257239132E+04  0.00000000000E+00 0. -1.
          2    1    1    2  502    0 -0.71400033201E+01  0.23063674764E+02 -0.33640710199E+02  0.41407850991E+02  0.00000000000E+00 0. -1.
         -2    1    1    2    0  502  0.71400033201E+01 -0.23063674764E+02 -0.15881078758E+04  0.15882913895E+04  0.00000000000E+00 0. -1.
</event>
<event>
 4    1  0.3196713E+003  0.2319989E+02  0.7546771E-02  0.1490003E+00
          2   -1    0    0  501    0  0.00000000000E+00  0.00000000000E+00  0.10899486166E+04  0.10899486166E+04  0.00000000000E+00 0. -1.
         -2   -1    0    0    0  501 -0.00000000000E+00 -0.00000000000E+00 -0.22457888308E+01  0.22457888308E+01  0.00000000000E+00 0. -1.
          2    1    1    2  502    0 -0.55706679354E+01  0.22521162974E+02  0.10261867242E+04  0.10264489408E+04  0.00000000000E+00 0. -1.
         -2    1    1    2    0  502  0.55706679354E+01 -0.22521162974E+02  0.61516103611E+02  0.65745464683E+02  0.00000000000E+00 0. -1.
</event>
<event>
 4    1  0.3196713E+003  0.2538990E+02  0.7546771E-02  0.1464488E+00
          2   -1    0    0  501    0  0.00000000000E+00  0.00000000000E+00  0.15311701624E+02  0.15311701624E+02  0.00000000000E+00 0.  1.
         -2   -1    0    0    0  501 -0.00000000000E+00 -0.00000000000E+00 -0.65018191617E+02  0.65018191617E+02  0.00000000000E+00 0. -1.
          2    1    1    2  502    0 -0.42902674864E+01 -0.25024804205E+02 -0.10078394965E+01  0.25409898879E+02  0.00000000000E+00 0.  1.
         -2    1    1    2    0  502  0.42902674864E+01  0.25024804205E+02 -0.48698650497E+02  0.54919994363E+02  0.00000000000E+00 0. -1.
</event>
<event>
 4    1  0.3196713E+003  0.2149734E+02  0.7546771E-02  0.1512281E+00
          2   -1    0    0  501    0  0.00000000000E+00  0.00000000000E+00  0.75079304584E+01  0.75079304584E+01  0.00000000000E+00 0.  1.
         -2   -1    0    0    0  501 -0.00000000000E+00 -0.00000000000E+00 -0.87684919511E+02  0.87684919511E+02  0.00000000000E+00 0.  1.
          2    1    1    2  502    0 -0.17050664619E+02  0.13092374405E+02 -0.14104987354E+02  0.25711594656E+02  0.00000000000E+00 0.  1.
         -2    1    1    2    0  502  0.17050664619E+02 -0.13092374405E+02 -0.66072001698E+02  0.69481255313E+02  0.00000000000E+00 0.  1.
</event>
<event>
 4    1  0.3196713E+003  0.2613492E+02  0.7546771E-02  0.1456497E+00
          2   -1    0    0  501    0  0.00000000000E+00  0.00000000000E+00  0.81881977920E+03  0.81881977920E+03  0.00000000000E+00 0. -1.
         -2   -1    0    0    0  501 -0.00000000000E+00 -0.00000000000E+00 -0.17467211974E+02  0.17467211974E+02  0.00000000000E+00 0.  1.
          2    1    1    2  502    0  0.15706741848E+02 -0.20888567692E+02  0.80871315241E+03  0.80913533904E+03  0.00000000000E+00 0. -1.
         -2    1    1    2    0  502 -0.15706741848E+02  0.20888567692E+02 -0.73605851799E+01  0.27151652139E+02  0.00000000000E+00 0.  1.
</event>
<event>
 4    1  0.3196713E+003  0.2364627E+02  0.7546771E-02  0.1484539E+00
          2   -1    0    0  501    0  0.00000000000E+00  0.00000000000E+00  0.21189229657E+02  0.21189229657E+02  0.00000000000E+00 0.  1.
         -2   -1    0    0    0  501 -0.00000000000E+00 -0.00000000000E+00 -0.42176600594E+02  0.42176600594E+02  0.00000000000E+00 0. -1.
          2    1    1    2  502    0 -0.23543250650E+02  0.22048665761E+01  0.88909714436E+01  0.25262530772E+02  0.00000000000E+00 0.  1.
         -2    1    1    2    0  502  0.23543250650E+02 -0.22048665761E+01 -0.29878342381E+02  0.38103299480E+02  0.00000000000E+00 0. -1.
</event>
<event>
 4    1  0.3196713E+003  0.2784379E+02  0.7546771E-02  0.1439311E+00
          2   -1    0    0  501    0  0.00000000000E+00  0.00000000000E+00  0.13259597625E+04  0.13259597625E+04  0.00000000000E+00 0.  1.
         -2   -1    0    0    0  501 -0.00000000000E+00 -0.00000000000E+00 -0.63894035357E+00  0.63894035357E+00  0.00000000000E+00 0.  1.
          2    1    1    2  502    0  0.14535982258E+02  0.23748299635E+02  0.85593616360E+03  0.85638892605E+03  0.00000000000E+00 0.  1.
         -2    1    1    2    0  502 -0.14535982258E+02 -0.23748299635E+02  0.46938465853E+03  0.47020977678E+03  0.00000000000E+00 0.  1.
</event>
<event>
 4    1  0.3196713E+003  0.2326626E+02  0.7546771E-02  0.1489181E+00
          2   -1    0    0  501    0  0.00000000000E+00  0.00000000000E+00  0.17751446428E+04  0.17751446428E+04  0.00000000000E+00 0.  1.
         -2   -1    0    0    0  501 -0.00000000000E+00 -0.00000000000E+00 -0.13327551637E+01  0.13327551637E+01  0.00000000000E+00 0.  1.
          2    1    1    2  502    0 -0.43863249883E+01 -0.22849053323E+02  0.16669358310E+04  0.16670981926E+04  0.00000000000E+00 0.  1.
         -2    1    1    2    0  502  0.43863249883E+01  0.22849053323E+02  0.10687605661E+03  0.10937920534E+03  0.00000000000E+00 0.  1.
</event>
<event>
 4    1  0.3196713E+003  0.2000997E+02  0.7546771E-02  0.1533883E+00
          2   -1    0    0  501    0  0.00000000000E+00  0.00000000000E+00  0.25671587002E+03  0.25671587002E+03  0.00000000000E+00 0. -1.
         -2   -1    0    0    0  501 -0.00000000000E+00 -0.00000000000E+00 -0.35273109004E+01  0.35273109004E+01  0.00000000000E+00 0. -1.
          2    1    1    2  502    0  0.19993513941E+02 -0.81147636324E+00  0.22377886392E+03  0.22467171391E+03  0.00000000000E+00 0. -1.
         -2    1    1    2    0  502 -0.19993513941E+02  0.81147636324E+00  0.29409695199E+02  0.35571467011E+02  0.00000000000E+00 0. -1.
</event>
<event>
 4    1  0.3196713E+003  0.2244773E+02  0.7546771E-02  0.1499552E+00
          2   -1    0    0  501    0  0.00000000000E+00  0.00000000000E+00  0.14109389248E+04  0.14109389248E+04  0.00000000000E+00 0. -1.
         -2   -1    0    0    0  501 -0.00000000000E+00 -0.00000000000E+00 -0.11034145981E+01  0.11034145981E+01  0.00000000000E+00 0. -1.
          2    1    1    2  502    0  0.15980710223E+02 -0.15764436454E+02  0.12855459729E+04  0.12857419449E+04  0.00000000000E+00 0. -1.
         -2    1    1    2    0  502 -0.15980710223E+02  0.15764436454E+02  0.12428953732E+03  0.12630039447E+03  0.00000000000E+00 0. -1.
</event>
<event>
 4    1  0.3196713E+003  0.2141340E+02  0.7546771E-02  0.1513444E+00
          2   -1    0    0  501    0  0.00000000000E+00  0.00000000000E+00  0.65654127870E+02  0.65654127870E+02  0.00000000000E+00 0. -1.
         -2   -1    0    0    0  501 -0.00000000000E+00 -0.00000000000E+00 -0.86080835869E+01  0.86080835869E+01  0.00000000000E+00 0.  1.
          2    1    1    2  502    0  0.10077632631E+01 -0.21389668763E+02  0.44650946291E+02  0.49520102194E+02  0.00000000000E+00 0. -1.
         -2    1    1    2    0  502 -0.10077632631E+01  0.21389668763E+02  0.12395097992E+02  0.24742109263E+02  0.00000000000E+00 0.  1.
</event>
<event>
 4    1  0.3196713E+003  0.2693926E+02  0.7546771E-02  0.1448219E+00
          2   -1    0    0  501    0  0.00000000000E+00  0.00000000000E+00  0.24523450815E+03  0.24523450815E+03  0.00000000000E+00 0.  1.
         -2   -1    0    0    0  501 -0.00000000000E+00 -0.00000000000E+00 -0.36507363964E+01  0.36507363964E+01  0.00000000000E+00 0. -1.
          2    1    1    2  502    0 -0.36457943678E+01  0.26691416056E+02  0.17494877610E+03  0.17701072783E+03  0.00000000000E+00 0.  1.
         -2    1    1    2    0  502  0.36457943678E+01 -0.26691416056E+02  0.66634995658E+02  0.71874516722E+02  0.00000000000E+00 0. -1.
</event>
<event>
 4    1  0.3196713E+003  0.2020672E+02  0.7546771E-02  0.1530899E+00
          2   -1    0    0  501    0  0.00000000000E+00  0.00000000000E+00  0.11585295910E+03  0.11585295910E+03  0.00000000000E+00 0.  1.
         -2   -1    0    0    0  501 -0.00000000000E+00 -0.00000000000E+00 -0.22312977481E+03  0.22312977481E+03  0.00000000000E+00 0. -1.
          2    1    1    2  502    0  0.10942613679E+02 -0.16987372530E+02  0.11450905009E+03  0.11627826182E+03  0.00000000000E+00 0.  1.
         -2    1    1    2    0  502 -0.10942613679E+02  0.16987372530E+02 -0.22178586580E+03  0.22270447209E+03  0.00000000000E+00 0. -1.
</event>
<event>
 4    1  0.3196713E+003  0.4344828E+02  0.7546771E-02  0.1329383E+00
          2   -1    0    0  501    0  0.00000000000E+00  0.00000000000E+00  0.52486829871E+03  0.52486829871E+03  0.00000000000E+00 0. -1.
         -2   -1    0    0    0  501 -0.00000000000E+00 -0.00000000000E+00 -0.46268395279E+01  0.46268395279E+01  0.00000000000E+00 0.  1.
          2    1    1    2  502    0  0.30819439572E+02 -0.30625372424E+02  0.13519414587E+03  0.14200425476E+03  0.00000000000E+00 0. -1.
         -2    1    1    2    0  502 -0.30819439572E+02  0.30625372424E+02  0.38504731331E+03  0.38749088348E+03  0.00000000000E+00 0.  1.
</event>
<event>
 4    1  0.3196713E+003  0.3544034E+02  0.7546771E-02  0.1377494E+00
          2   -1    0    0  501    0  0.00000000000E+00  0.00000000000E+00  0.17361788097E+04  0.17361788097E+04  0.00000000000E+00 0. -1.
         -2   -1    0    0    0  501 -0.00000000000E+00 -0.00000000000E+00 -0.88133316624E+02  0.88133316624E+02  0.00000000000E+00 0. -1.
          2    1    1    2  502    0 -0.29114709792E+02  0.20207708909E+02  0.17324274011E+04  0.17327898655E+04  0.00000000000E+00 0. -1.
         -2    1    1    2    0  502  0.29114709792E+02 -0.20207708909E+02 -0.84381908032E+02  0.91522260837E+02  0.00000000000E+00 0. -1.
</event>
<event>
 4    1  0.3196713E+003  0.2623682E+02  0.7546771E-02  0.1455429E+00
          2   -1    0    0  501    0  0.00000000000E+00  0.00000000000E+00  0.21334909892E+02  0.21334909892E+02  0.00000000000E+00 0.  1.
         -2   -1    0    0    0  501 -0.00000000000E+00 -0.00000000000E+00 -0.32620515788E+02  0.32620515788E+02  0.00000000000E+00 0.  1.
          2    1    1    2  502    0 -0.17003808846E+02  0.19981027298E+02 -0.28264549764E+01  0.26388630410E+02  0.00000000000E+00 0.  1.
         -2    1    1    2    0  502  0.17003808846E+02 -0.19981027298E+02 -0.84591509196E+01  0.27566795270E+02  0.00000000000E+00 0.  1.
</event>
<event>
 4    1  0.3196713E+003  0.2051847E+02  0.7546771E-02  0.1526252E+00
          2   -1    0    0  501    0  0.00000000000E+00  0.00000000000E+00  0.10457401601E+02  0.10457401601E+02  0.00000000000E+00 0.  1.
         -2   -1    0    0    0  501 -0.00000000000E+00 -0.00000000000E+00 -0.58149400653E+02  0.58149400653E+02  0.00000000000E+00 0. -1.
          2    1    1    2  502    0  0.34895162882E+01  0.20219568435E+02 -0.48189719107E+01  0.21076768298E+02  0.00000000000E+00 0.  1.
         -2    1    1    2    0  502 -0.34895162882E+01 -0.20219568435E+02 -0.42873027141E+02  0.47530033956E+02  0.00000000000E+00 0. -1.
</event>
<event>
 4    1  0.3196713E+003  0.4041848E+02  0.7546771E-02  0.1346051E+00
          2   -1    0    0  501    0  0.00000000000E+00  0.00000000000E+00  0.20558145398E+04  0.20558145398E+04  0.00000000000E+00 0.  1.
         -2   -1    0    0    0  501 -0.00000000000E+00 -0.00000000000E+00 -0.97919785719E+02  0.97919785719E+02  0.00000000000E+00 0.  1.
          2    1    1    2  502    0  0.93148604944E+01  0.39330485150E+02  0.20514360781E+04  0.20518342127E+04  0.00000000000E+00 0.  1.
         -2    1    1    2    0  502 -0.93148604944E+01 -0.39330485150E+02 -0.93541324056E+02  0.10190011283E+03  0.00000000000E+00 0.  1.
</event>
<event>
 4    1  0.3196713E+003  0.2765775E+02  0.7546771E-02  0.1441110E+00
          2   -1    0    0  501    0  0.00000000000E+00  0.00000000000E+00  0.18622319036E+04  0.18622319036E+04  0.00000000000E+00 0. -1.
         -2   -1    0    0    0  501 -0.00000000000E+00 -0.00000000000E+00 -0.78015902144E+01  0.78015902144E+01  0.00000000000E+00 0.  1.
          2    1    1    2  502    0 -0.10899795538E+01 -0.27636260766E+02  0.18372837144E+04  0.18374918771E+04  0.00000000000E+00 0. -1.
         -2    1    1    2    0  502  0.10899795538E+01  0.27636260766E+02  0.17146598941E+02  0.32541616736E+02  0.00000000000E+00 0.  1.
</event>
<event>
 4    1  0.3196713E+003  0.2608848E+02  0.7546771E-02  0.1456986E+00
          2   -1    0    0  501    0  0.00000000000E+00  0.00000000000E+00  0.37739630624E+03  0.37739630624E+03  0.00000000000E+00 0. -1.
         -2   -1    0    0    0  501 -0.00000000000E+00 -0.00000000000E+00 -0.28082871387E+02  0.28082871387E+02  0.00000000000E+00 0.  1.
          2    1    1    2  502    0 -0.25816614080E+02  0.37565208749E+01  0.37077850564E+03  0.37169518326E+03  0.00000000000E+00 0. -1.
         -2    1    1    2    0  502  0.25816614080E+02 -0.37565208749E+01 -0.21465070788E+02  0.33783994369E+02  0.00000000000E+00 0.  1.
</event>
<event>
 4    1  0.3196713E+003  0.2545227E+02  0.7546771E-02  0.1463807E+00
          2   -1    0    0  501    0  0.00000000000E+00  0.00000000000E+00  0.59676837419E+03  0.59676837419E+03  0.00000000000E+00 0.  1.
         -2   -1    0    0    0  501 -0.00000000000E+00 -0.00000000000E+00 -0.10845194398E+03  0.10845194398E+03  0.00000000000E+00 0. -1.
          2    1    1    2  502    0  0.22455735224E+02  0.11981561208E+02  0.59499922092E+03  0.59554335757E+03  0.00000000000E+00 0.  1.
         -2    1    1    2    0  502 -0.22455735224E+02 -0.11981561208E+02 -0.10668279071E+03  0.10967696060E+03  0.00000000000E+00 0. -1.
</event>
<event>
 4    1  0.3196713E+003  0.2525544E+02  0.7546771E-02  0.1465966E+00
          2   -1    0    0  501    0  0.00000000000E+00  0.00000000000E+00  0.16231528466E+04  0.16231528466E+04  0.00000000000E+00 0.  1.
         -2   -1    0    0    0  501 -0.00000000000E+00 -0.00000000000E+00 -0.64967494888E+00  0.64967494888E+00  0.00000000000E+00 0. -1.
          2    1    1    2  502    0 -0.21256599288E+02 -0.13637963515E+02  0.13216146231E+04  0.13218559109E+04  0.00000000000E+00 0.  1.
         -2    1    1    2    0  502  0.21256599288E+02  0.13637963515E+02  0.30088854851E+03  0.30194661065E+03  0.00000000000E+00 0. -1.
</event>
<event>
 4    1  0.3196713E+003  0.2149065E+02  0.7546771E-02  0.1512374E+00
          2   -1    0    0  501    0  0.00000000000E+00  0.00000000000E+00  0.75615875912E+03  0.75615875912E+03  0.00000000000E+00 0. -1.
         -2   -1    0    0    0  501 -0.00000000000E+00 -0.00000000000E+00 -0.10455306050E+03  0.10455306050E+03  0.00000000000E+00 0. -1.
          2    1    1    2  502    0 -0.21475874937E+02  0.79678790213E+00  0.75489988345E+03  0.75520572171E+03  0.00000000000E+00 0. -1.
         -2    1    1    2    0  502  0.21475874937E+02 -0.79678790213E+00 -0.10329418483E+03  0.10550609791E+03  0.00000000000E+00 0. -1.
</event>
<event>
 4    1  0.3196713E+003  0.2020376E+02  0.7546771E-02  0.1530943E+00
          2   -1    0    0  501    0  0.00000000000E+00  0.00000000000E+00  0.14474982498E+04  0.14474982498E+04  0.00000000000E+00 0. -1.
         -2   -1    0    0    0  501 -0.00000000000E+00 -0.00000000000E+00 -0.81435658442E+00  0.81435658442E+00  0.00000000000E+00 0. -1.
          2    1    1    2  502    0 -0.12441083273E+01 -0.20165422785E+02  0.13088420922E+04  0.13089980193E+04  0.00000000000E+00 0. -1.
         -2    1    1    2    0  502  0.12441083273E+01  0.20165422785E+02  0.13784180101E+03  0.13931458713E+03  0.00000000000E+00 0. -1.
</event>
<event>
 4    1  0.3196713E+003  0.2625306E+02  0.7546771E-02  0.1455259E+00
          2   -1    0    0  501    0  0.00000000000E+00  0.00000000000E+00  0.35396072723E+02  0.35396072723E+02  0.00000000000E+00 0.  1.
         -2   -1    0    0    0  501 -0.00000000000E+00 -0.00000000000E+00 -0.10399837429E+03  0.10399837429E+03  0.00000000000E+00 0.  1.
          2    1    1    2  502    0  0.26251834184E+02  0.25363563052E+00  0.28533468842E+02  0.38773469966E+02  0.00000000000E+00 0.  1.
         -2    1    1    2    0  502 -0.26251834184E+02 -0.25363563052E+00 -0.97135770406E+02  0.10062097704E+03  0.00000000000E+00 0.  1.
</event>
<event>
 4    1  0.3196713E+003  0.4396169E+02  0.7546771E-02  0.1326714E+00
          2   -1    0    0  501    0  0.00000000000E+00  0.00000000000E+00  0.80138759296E+03  0.80138759296E+03  0.00000000000E+00 0.  1.
         -2   -1    0    0    0  501 -0.00000000000E+00 -0.00000000000E+00 -0.24927584663E+02  0.24927584663E+02  0.00000000000E+00 0. -1.
          2    1    1    2  502    0 -0.37439811164E+02  0.23041061268E+02  0.78089398254E+03  0.78213045071E+03  0.00000000000E+00 0.  1.
         -2    1    1    2    0  502  0.37439811164E+02 -0.23041061268E+02 -0.44339742454E+01  0.44184726908E+02  0.00000000000E+00 0. -1.
</event>
<event>
 4    1  0.3196713E+003  0.2422348E+02  0.7546771E-02  0.1477681E+00
          2   -1    0    0  501    0  0.00000000000E+00  0.00000000000E+00  0.68893101792E+02  0.68893101792E+02  0.00000000000E+00 0. -1.
         -2   -1    0    0    0  501 -0.00000000000E+00 -0.00000000000E+00 -0.14324216444E+02  0.14324216444E+02  0.00000000000E+00 0. -1.
          2    1    1    2  502    0  0.18844168129E+02 -0.15220847590E+02  0.53777038503E+02  0.58980901519E+02  0.00000000000E+00 0. -1.
         -2    1    1    2    0  502 -0.18844168129E+02  0.15220847590E+02  0.79184684456E+00  0.24236416717E+02  0.00000000000E+00 0. -1.
</event>
<event>
 4    1  0.3196713E+003  0.2719661E+02  0.7546771E-02  0.1445643E+00
          2   -1    0    0  501    0  0.00000000000E+00  0.00000000000E+00  0.12147196526E+03  0.12147196526E+03  0.00000000000E+00 0. -1.
         -2   -1    0    0    0  501 -0.00000000000E+00 -0.00000000000E+00 -0.63882635775E+03  0.63882635775E+03  0.00000000000E+00 0. -1.
          2    1    1    2  502    0  0.21199112121E+02 -0.17036814555E+02  0.11965589268E+03  0.12270773430E+03  0.00000000000E+00 0. -1.
         -2    1    1    2    0  502 -0.21199112121E+02  0.17036814555E+02 -0.63701028517E+03  0.63759058871E+03  0.00000000000E+00 0. -1.
</event>
<event>
 4    1  0.3196713E+003  0.2924545E+02  0.7546771E-02  0.1426269E+00
          2   -1    0    0  501    0  0.00000000000E+00  0.00000000000E+00  0.24471475810E+03  0.24471475810E+03  0.00000000000E+00 0.  1.
         -2   -1    0    0    0  501 -0.00000000000E+00 -0.00000000000E+00 -0.19799702022E+02  0.19799702022E+02  0.00000000000E+00 0. -1.
          2    1    1    2  502    0  0.21896012848E+02 -0.19387130746E+02  0.23247529488E+03  0.23430761606E+03  0.00000000000E+00 0.  1.
         -2    1    1    2    0  502 -0.21896012848E+02  0.19387130746E+02 -0.75602387991E+01  0.30206844058E+02  0.00000000000E+00 0. -1.
</event>
<event>
 4    1  0.3196713E+003  0.5406233E+02  0.7546771E-02  0.1281459E+00
          2   -1    0    0  501    0  0.00000000000E+00  0.00000000000E+00  0.19581030994E+03  0.19581030994E+03  0.00000000000E+00 0. -1.
         -2   -1    0    0    0  501 -0.00000000000E+00 -0.00000000000E+00 -0.10812945606E+03  0.10812945606E+03  0.00000000000E+00 0. -1.
          2    1    1    2  502    0  0.30930840927E+02 -0.44339802937E+02  0.18493187512E+03  0.19267208796E+03  0.00000000000E+00 0. -1.
         -2    1    1    2    0  502 -0.30930840927E+02  0.44339802937E+02 -0.97251021233E+02  0.11126767804E+03  0.00000000000E+00 0. -1.
</event>
<event>
 4    1  0.3196713E+003  0.5741191E+02  0.7546771E-02  0.1268889E+00
          2   -1    0    0  501    0  0.00000000000E+00  0.00000000000E+00  0.27591324868E+04  0.27591324868E+04  0.00000000000E+00 0. -1.
         -2   -1    0    0    0  501 -0.00000000000E+00 -0.00000000000E+00 -0.16594474405E+02  0.16594474405E+02  0.00000000000E+00 0.  1.
          2    1    1    2  502    0 -0.33367390564E+02 -0.46719849527E+02  0.27082438699E+04  0.27088523374E+04  0.00000000000E+00 0. -1.
         -2    1    1    2    0  502  0.33367390564E+02  0.46719849527E+02  0.34294142433E+02  0.66874623723E+02  0.00000000000E+00 0.  1.
</event>
<event>
 4    1  0.3196713E+003  0.2147003E+02  0.7546771E-02  0.1512659E+00
          2   -1    0    0  501    0  0.00000000000E+00  0.00000000000E+00  0.70687057290E+03  0.70687057290E+03  0.00000000000E+00 0.  1.
         -2   -1    0    0    0  501 -0.00000000000E+00 -0.00000000000E+00 -0.14989948850E+01  0.14989948850E+01  0.00000000000E+00 0. -1.
          2    1    1    2  502    0 -0.18360134179E+02 -0.11129578073E+02  0.61890557042E+03  0.61927785939E+03  0.00000000000E+00 0.  1.
         -2    1    1    2    0  502  0.18360134179E+02  0.11129578073E+02  0.86466007599E+02  0.89091708398E+02  0.00000000000E+00 0. -1.
</event>
<event>
 4    1  0.3196713E+003  0.2442984E+02  0.7546771E-02  0.1475284E+00
          2   -1    0    0  501    0  0.00000000000E+00  0.00000000000E+00  0.11398149930E+03  0.11398149930E+03  0.00000000000E+00 0. -1.
         -2   -1    0    0    0  501 -0.00000000000E+00 -0.00000000000E+00 -0.88405215538E+01  0.88405215538E+01  0.00000000000E+00 0. -1.
          2    1    1    2  502    0 -0.21690698357E+02 -0.11239681711E+02  0.91783119713E+02  0.94978723430E+02  0.00000000000E+00 0. -1.
         -2    1    1    2    0  502  0.21690698357E+02  0.11239681711E+02  0.13357858034E+02  0.27843297424E+02  0.00000000000E+00 0. -1.
</event>
<event>
 4    1  0.3196713E+003  0.4150142E+02  0.7546771E-02  0.1339905E+00
          2   -1    0    0  501    0  0.00000000000E+00  0.00000000000E+00  0.11231455575E+04  0.11231455575E+04  0.00000000000E+00 0. -1.
         -2   -1    0    0    0  501 -0.00000000000E+00 -0.00000000000E+00 -0.54145006572E+01  0.54145006572E+01  0.00000000000E+00 0. -1.
          2    1    1    2  502    0  0.37303439818E+02  0.18188493769E+02  0.10365995016E+04  0.10374299469E+04  0.00000000000E+00 0. -1.
         -2    1    1    2    0  502 -0.37303439818E+02 -0.18188493769E+02  0.81131555204E+02  0.91130111257E+02  0.00000000000E+00 0. -1.
</event>
<event>
 4    1  0.3196713E+003  0.2071060E+02  0.7546771E-02  0.1523437E+00
          2   -1    0    0  501    0  0.00000000000E+00  0.00000000000E+00  0.12872087478E+03  0.12872087478E+03  0.00000000000E+00 0. -1.
         -2   -1    0    0    0  501 -0.00000000000E+00 -0.00000000000E+00 -0.69461069109E+01  0.69461069109E+01  0.00000000000E+00 0.  1.
          2    1    1    2  502    0 -0.20017124981E+02  0.53144690109E+01  0.10981561344E+03  0.11175150035E+03  0.00000000000E+00 0. -1.
         -2    1    1    2    0  502  0.20017124981E+02 -0.53144690109E+01  0.11959154423E+02  0.23915481343E+02  0.00000000000E+00 0.  1.
</event>
<event>
 4    1  0.3196713E+003  0.3619919E+02  0.7546771E-02  0.1372323E+00
          2   -1    0    0  501    0  0.00000000000E+00  0.00000000000E+00  0.45924705476E+01  0.45924705476E+01  0.00000000000E+00 0. -1.
         -2   -1    0    0    0  501 -0.00000000000E+00 -0.00000000000E+00 -0.29006912128E+03  0.29006912128E+03  0.00000000000E+00 0. -1.
          2    1    1    2  502    0  0.22766140463E+02  0.28143971997E+02 -0.16156549405E+03  0.16557110008E+03  0.00000000000E+00 0. -1.
         -2    1    1    2    0  502 -0.22766140463E+02 -0.28143971997E+02 -0.12391115667E+03  0.12909049175E+03  0.00000000000E+00 0. -1.
</event>
<event>
 4    1  0.3196713E+003  0.4637178E+02  0.7546771E-02  0.1314719E+00
          2   -1    0    0  501    0  0.00000000000E+00  0.00000000000E+00  0.16212790081E+03  0.16212790081E+03  0.00000000000E+00 0.  1.
         -2   -1    0    0    0  501 -0.00000000000E+00 -0.00000000000E+00 -0.25119662102E+02  0.25119662102E+02  0.00000000000E+00 0.  1.
          2    1    1    2  502    0  0.11287667212E+02  0.44977005103E+02  0.13282559167E+03  0.14068752688E+03  0.00000000000E+00 0.  1.
         -2    1    1    2    0  502 -0.11287667212E+02 -0.44977005103E+02  0.41826470475E+01  0.46560036034E+02  0.00000000000E+00 0.  1.
</event>
<event>
 4    1  0.3196713E+003  0.2291004E+02  0.7546771E-02  0.1493631E+00
          2   -1    0    0  501    0  0.00000000000E+00  0.00000000000E+00  0.12073896542E+02  0.12073896542E+02  0.00000000000E+00 0. -1.
         -2   -1    0    0    0  501 -0.00000000000E+00 -0.00000000000E+00 -0.79699707414E+02  0.79699707414E+02  0.00000000000E+00 0. -1.
          2    1    1    2  502    0  0.22902256026E+02 -0.59733777016E+00 -0.28755651317E+01  0.23089803341E+02  0.00000000000E+00 0. -1.
         -2    1    1    2    0  502 -0.22902256026E+02  0.59733777016E+00 -0.64750245740E+02  0.68683800615E+02  0.00000000000E+00 0. -1.
</event>
<event>
 4    1  0.3196713E+003  0.2476917E+02  0.7546771E-02  0.1471402E+00
          2   -1    0    0  501    0  0.00000000000E+00  0.00000000000E+00  0.15209690344E+04  0.15209690344E+04  0.00000000000E+00 0. -1.
         -2   -1    0    0    0  501 -0.00000000000E+00 -0.00000000000E+00 -0.12482634636E+01  0.12482634636E+01  0.00000000000E+00 0. -1.
          2    1    1    2  502    0  0.33001738739E+01  0.24548336981E+02  0.13860339367E+04  0.13862552383E+04  0.00000000000E+00 0. -1.
         -2    1    1    2    0  502 -0.33001738739E+01 -0.24548336981E+02  0.13368683428E+03  0.13596205962E+03  0.00000000000E+00 0. -1.
</event>
<event>
 4    1  0.3196713E+003  0.2621602E+02  0.7546771E-02  0.1455646E+00
          2   -1    0    0  501    0  0.00000000000E+00  0.00000000000E+00  0.33879443721E+01  0.33879443721E+01  0.00000000000E+00 0.  1.
         -2   -1    0    0    0  501 -0.00000000000E+00 -0.00000000000E+00 -0.26096232139E+03  0.26096232139E+03  0.00000000000E+00 0.  1.
          2    1    1    2  502    0  0.15104303046E+02 -0.21427549141E+02 -0.66420022676E+02  0.71406577043E+02  0.00000000000E+00 0.  1.
         -2    1    1    2    0  502 -0.15104303046E+02  0.21427549141E+02 -0.19115435434E+03  0.19294368872E+03  0.00000000000E+00 0.  1.
</event>
<event>
 4    1  0.3196713E+003  0.2220906E+02  0.7546771E-02  0.1502676E+00
          2   -1    0    0  501    0  0.00000000000E+00  0.00000000000E+00  0.60219419472E+03  0.60219419472E+03  0.00000000000E+00 0.  1.
         -2   -1    0    0    0  501 -0.00000000000E+00 -0.00000000000E+00 -0.11264696532E+02  0.11264696532E+02  0.00000000000E+00 0. -1.
          2    1    1    2  502    0  0.59911969733E+01  0.21385694096E+02  0.59083235286E+03  0.59124961863E+03  0.00000000000E+00 0.  1.
         -2    1    1    2    0  502 -0.59911969733E+01 -0.21385694096E+02  0.97145333815E-01  0.22209272621E+02  0.00000000000E+00 0. -1.
</event>
<event>
 4    1  0.3196713E+003  0.2082212E+02  0.7546771E-02  0.1521820E+00
          2   -1    0    0  501    0  0.00000000000E+00  0.00000000000E+00  0.22650804992E+03  0.22650804992E+03  0.00000000000E+00 0. -1.
         -2   -1    0    0    0  501 -0.00000000000E+00 -0.00000000000E+00 -0.25300442242E+01  0.25300442242E+01  0.00000000000E+00 0.  1.
          2    1    1    2  502    0 -0.18932890370E+02  0.86663969571E+01  0.16849332803E+03  0.16977503457E+03  0.00000000000E+00 0. -1.
         -2    1    1    2    0  502  0.18932890370E+02 -0.86663969571E+01  0.55484677668E+02  0.59263059573E+02  0.00000000000E+00 0.  1.
</event>
<event>
 4    1  0.3196713E+003  0.2124095E+02  0.7546771E-02  0.1515852E+00
          2   -1    0    0  501    0  0.00000000000E+00  0.00000000000E+00  0.20328216551E+04  0.20328216551E+04  0.00000000000E+00 0.  1.
         -2   -1    0    0    0  501 -0.00000000000E+00 -0.00000000000E+00 -0.24534364618E+00  0.24534364618E+00  0.00000000000E+00 0. -1.
          2    1    1    2  502    0  0.21229579820E+02  0.69497213829E+00  0.13302045030E+04  0.13303740819E+04  0.00000000000E+00 0.  1.
         -2    1    1    2    0  502 -0.21229579820E+02 -0.69497213829E+00  0.70237180847E+03  0.70269291684E+03  0.00000000000E+00 0. -1.
</event>
<event>
 4    1  0.3196713E+003  0.2225964E+02  0.7546771E-02  0.1502010E+00
          2   -1    0    0  501    0  0.00000000000E+00  0.00000000000E+00  0.72026573026E+02  0.72026573026E+02  0.00000000000E+00 0.  1.
         -2   -1    0    0    0  501 -0.00000000000E+00 -0.00000000000E+00 -0.86501344009E+02  0.86501344009E+02  0.00000000000E+00 0.  1.
          2    1    1    2  502    0 -0.16149818694E+02 -0.15319109351E+02  0.68809427070E+02  0.72320322240E+02  0.00000000000E+00 0.  1.
         -2    1    1    2    0  502  0.16149818694E+02  0.15319109351E+02 -0.83284198052E+02  0.86207594795E+02  0.00000000000E+00 0.  1.
</event>
<event>
 4    1  0.3196713E+003  0.2557478E+02  0.7546771E-02  0.1462475E+00
          2   -1    0    0  501    0  0.00000000000E+00  0.00000000000E+00  0.36722237908E+03  0.36722237908E+03  0.00000000000E+00 0.  1.
         -2   -1    0    0    0  501 -0.00000000000E+00 -0.00000000000E+00 -0.18454957173E+01  0.18454957173E+01  0.00000000000E+00 0. -1.
          2    1    1    2  502    0 -0.42155488614E+01 -0.25224963065E+02  0.21715182377E+03  0.21865265646E+03  0.00000000000E+00 0.  1.
         -2    1    1    2    0  502  0.42155488614E+01  0.25224963065E+02  0.14822505960E+03  0.15041521834E+03  0.00000000000E+00 0. -1.
</event>
<event>
 4    1  0.3196713E+003  0.3283010E+02  0.7546771E-02  0.1396495E+00
          2   -1    0    0  501    0  0.00000000000E+00  0.00000000000E+00  0.23568616959E+03  0.23568616959E+03  0.00000000000E+00 0. -1.
         -2   -1    0    0    0  501 -0.00000000000E+00 -0.00000000000E+00 -0.16362530399E+02  0.16362530399E+02  0.00000000000E+00 0.  1.
          2    1    1    2  502    0 -0.30700328257E+02  0.11632072679E+02  0.21663520357E+03  0.21910870976E+03  0.00000000000E+00 0. -1.
         -2    1    1    2    0  502  0.30700328257E+02 -0.11632072679E+02  0.26884356234E+01  0.32939990225E+02  0.00000000000E+00 0.  1.
</event>
<event>
 4    1  0.3196713E+003  0.2474264E+02  0.7546771E-02  0.1471703E+00
          2   -1    0    0  501    0  0.00000000000E+00  0.00000000000E+00  0.34537058234E+03  0.34537058234E+03  0.00000000000E+00 0.  1.
         -2   -1    0    0    0  501 -0.00000000000E+00 -0.00000000000E+00 -0.46780576525E+01  0.46780576525E+01  0.00000000000E+00 0.  1.
          2    1    1    2  502    0  0.18595863781E+02 -0.16321523064E+02  0.30828114420E+03  0.30927247232E+03  0.00000000000E+00 0.  1.
         -2    1    1    2    0  502 -0.18595863781E+02  0.16321523064E+02  0.32411380478E+02  0.40776167665E+02  0.00000000000E+00 0.  1.
</event>
<event>
 4    1  0.3196713E+003  0.2203117E+02  0.7546771E-02  0.1505036E+00
          2   -1    0    0  501    0  0.00000000000E+00  0.00000000000E+00  0.22043479001E+03  0.22043479001E+03  0.00000000000E+00 0. -1.
         -2   -1    0    0    0  501 -0.00000000000E+00 -0.00000000000E+00 -0.22711684634E+01  0.22711684634E+01  0.00000000000E+00 0. -1.
          2    1    1    2  502    0  0.16293980969E+02 -0.14828304680E+02  0.12853033213E+03  0.13040482627E+03  0.00000000000E+00 0. -1.
         -2    1    1    2    0  502 -0.16293980969E+02  0.14828304680E+02  0.89633289417E+02  0.92301132210E+02  0.00000000000E+00 0. -1.
</event>
<event>
 4    1  0.3196713E+003  0.2115512E+02  0.7546771E-02  0.1517062E+00
          2   -1    0    0  501    0  0.00000000000E+00  0.00000000000E+00  0.14335390315E+04  0.14335390315E+04  0.00000000000E+00 0. -1.
         -2   -1    0    0    0  501 -0.00000000000E+00 -0.00000000000E+00 -0.56503045740E+00  0.56503045740E+00  0.00000000000E+00 0. -1.
          2    1    1    2  502    0  0.10718913850E+02 -0.18238528164E+02  0.11961503576E+04  0.11963374177E+04  0.00000000000E+00 0. -1.
         -2    1    1    2    0  502 -0.10718913850E+02  0.18238528164E+02  0.23682364341E+03  0.23776664422E+03  0.00000000000E+00 0. -1.
</event>
<event>
 4    1  0.3196713E+003  0.2445263E+02  0.7546771E-02  0.1475021E+00
          2   -1    0    0  501    0  0.00000000000E+00  0.00000000000E+00  0.92728277577E+03  0.92728277577E+03  0.00000000000E+00 0.  1.
         -2   -1    0    0    0  501 -0.00000000000E+00 -0.00000000000E+00 -0.21887188495E+02  0.21887188495E+02  0.00000000000E+00 0. -1.
          2    1    1    2  502    0 -0.10989154597E+02 -0.21844216310E+02  0.92023961269E+03  0.92056443341E+03  0.00000000000E+00 0.  1.
         -2    1    1    2    0  502  0.10989154597E+02  0.21844216310E+02 -0.14844025411E+02  0.28605530853E+02  0.00000000000E+00 0. -1.
</event>
<event>
 4    1  0.3196713E+003  0.2250312E+02  0.7546771E-02  0.1498833E+00
          2   -1    0    0  501    0  0.00000000000E+00  0.00000000000E+00  0.31874450392E+01  0.31874450392E+01  0.00000000000E+00 0.  1.
         -2   -1    0    0    0  501 -0.00000000000E+00 -0.00000000000E+00 -0.16150433699E+03  0.16150433699E+03  0.00000000000E+00 0.  1.
          2    1    1    2  502    0  0.14540888911E+02  0.17174200082E+02 -0.68642355140E+02  0.72236857060E+02  0.00000000000E+00 0.  1.
         -2    1    1    2    0  502 -0.14540888911E+02 -0.17174200082E+02 -0.89674536807E+02  0.92454924966E+02  0.00000000000E+00 0.  1.
</event>
<event>
 4    1  0.3196713E+003  0.2187139E+02  0.7546771E-02  0.1507178E+00
          2   -1    0    0  501    0  0.00000000000E+00  0.00000000000E+00  0.65337487296E+02  0.65337487296E+02  0.00000000000E+00 0. -1.
         -2   -1    0    0    0  501 -0.00000000000E+00 -0.00000000000E+00 -0.19527249228E+03  0.19527249228E+03  0.00000000000E+00 0.  1.
          2    1    1    2  502    0  0.11382464563E+02  0.18676113656E+02  0.62871393791E+02  0.66567032966E+02  0.00000000000E+00 0. -1.
         -2    1    1    2    0  502 -0.11382464563E+02 -0.18676113656E+02 -0.19280639878E+03  0.19404294661E+03  0.00000000000E+00 0.  1.
</event>
<event>
 4    1  0.3196713E+003  0.2385857E+02  0.7546771E-02  0.1481990E+00
          2   -1    0    0  501    0  0.00000000000E+00  0.00000000000E+00  0.58866015871E+03  0.58866015871E+03  0.00000000000E+00 0.  1.
         -2   -1    0    0    0  501 -0.00000000000E+00 -0.00000000000E+00 -0.48291644879E+01  0.48291644879E+01  0.00000000000E+00 0. -1.
          2    1    1    2  502    0 -0.17452254570E+02 -0.16268066297E+02  0.55729208431E+03  0.55780256221E+03  0.00000000000E+00 0.  1.
         -2    1    1    2    0  502  0.17452254570E+02  0.16268066297E+02  0.26538909911E+02  0.35686760989E+02  0.00000000000E+00 0. -1.
</event>
<event>
 4    1  0.3196713E+003  0.2204439E+02  0.7546771E-02  0.1504860E+00
          2   -1    0    0  501    0  0.00000000000E+00  0.00000000000E+00  0.11486218540E+04  0.11486218540E+04  0.00000000000E+00 0.  1.
         -2   -1    0    0    0  501 -0.00000000000E+00 -0.00000000000E+00 -0.33995616899E+01  0.33995616899E+01  0.00000000000E+00 0. -1.
          2    1    1    2  502    0 -0.20585148881E+02  0.78871225113E+01  0.11115890334E+04  0.11118075976E+04  0.00000000000E+00 0.  1.
         -2    1    1    2    0  502  0.20585148881E+02 -0.78871225113E+01  0.33633258981E+02  0.40213818094E+02  0.00000000000E+00 0. -1.
</event>
<event>
 4    1  0.3196713E+003  0.3658358E+02  0.7546771E-02  0.1369759E+00
          2   -1    0    0  501    0  0.00000000000E+00  0.00000000000E+00  0.45823466522E+03  0.45823466522E+03  0.00000000000E+00 0.  1.
         -2   -1    0    0    0  501 -0.00000000000E+00 -0.00000000000E+00 -0.69180208759E+01  0.69180208759E+01  0.00000000000E+00 0. -1.
          2    1    1    2  502    0  0.28791331884E+02  0.22570287229E+02  0.40244925125E+03  0.40410859740E+03  0.00000000000E+00 0.  1.
         -2    1    1    2    0  502 -0.28791331884E+02 -0.22570287229E+02  0.48867393087E+02  0.61044088694E+02  0.00000000000E+00 0. -1.
</event>
<event>
 4    1  0.3196713E+003  0.2334289E+02  0.7546771E-02  0.1488237E+00
          2   -1    0    0  501    0  0.00000000000E+00  0.00000000000E+00  0.67939607274E+03  0.67939607274E+03  0.00000000000E+00 0. -1.
         -2   -1    0    0    0  501 -0.00000000000E+00 -0.00000000000E+00 -0.32714344882E+01  0.32714344882E+01  0.00000000000E+00 0.  1.
          2    1    1    2  502    0  0.22356457338E+02  0.67141182548E+01  0.63461847705E+03  0.63504763757E+03  0.00000000000E+00 0. -1.
         -2    1    1    2    0  502 -0.22356457338E+02 -0.67141182548E+01  0.41506161200E+02  0.47619869657E+02  0.00000000000E+00 0.  1.
</event>
<event>
 4    1  0.3196713E+003  0.2535532E+02  0.7546771E-02  0.1464867E+00
          2   -1    0    0  501    0  0.00000000000E+00  0.00000000000E+00  0.10268763837E+04  0.10268763837E+04  0.00000000000E+00 0. -1.
         -2   -1    0    0    0  501 -0.00000000000E+00 -0.00000000000E+00 -0.91107293826E+00  0.91107293826E+00  0.00000000000E+00 0.  1.
          2    1    1    2  502    0 -0.19655352111E+02  0.16017474159E+02  0.80040762476E+03  0.80080912715E+03  0.00000000000E+00 0. -1.
         -2    1    1    2    0  502  0.19655352111E+02 -0.16017474159E+02  0.22555768601E+03  0.22697832950E+03  0.00000000000E+00 0.  1.
</event>
<event>
 4    1  0.3196713E+003  0.2054813E+02  0.7546771E-02  0.1525815E+00
          2   -1    0    0  501    0  0.00000000000E+00  0.00000000000E+00  0.17780551592E+02  0.17780551592E+02  0.00000000000E+00 0.  1.
         -2   -1    0    0    0  501 -0.00000000000E+00 -0.00000000000E+00 -0.11362307315E+03  0.11362307315E+03  0.00000000000E+00 0.  1.
          2    1    1    2  502    0 -0.69029425663E+01  0.19353940849E+02  0.10512974815E+02  0.23081340557E+02  0.00000000000E+00 0.  1.
         -2    1    1    2    0  502  0.69029425663E+01 -0.19353940849E+02 -0.10635549638E+03  0.10832228419E+03  0.00000000000E+00 0.  1.
</event>
<event>
 4    1  0.3196713E+003  0.4835252E+02  0.7546771E-02  0.1305478E+00
          2   -1    0    0  501    0  0.00000000000E+00  0.00000000000E+00  0.31787747230E+02  0.31787747230E+02  0.00000000000E+00 0. -1.
         -2   -1    0    0    0  501 -0.00000000000E+00 -0.00000000000E+00 -0.13049221057E+03  0.13049221057E+03  0.00000000000E+00 0. -1.
          2    1    1    2  502    0  0.18274637353E+01 -0.48317975428E+02  0.42474794860E+01  0.48538721194E+02  0.00000000000E+00 0. -1.
         -2    1    1    2    0  502 -0.18274637353E+01  0.48317975428E+02 -0.10295194283E+03  0.11374123661E+03  0.00000000000E+00 0. -1.
</event>
<event>
 4    1  0.3196713E+003  0.3205405E+02  0.7546771E-02  0.1402548E+00
          2   -1    0    0  501    0  0.00000000000E+00  0.00000000000E+00  0.22927088936E+03  0.22927088936E+03  0.00000000000E+00 0. -1.
         -2   -1    0    0    0  501 -0.00000000000E+00 -0.00000000000E+00 -0.58730966843E+02  0.58730966843E+02  0.00000000000E+00 0. -1.
          2    1    1    2  502    0  0.30153321569E+02  0.10873804217E+02  0.22366793007E+03  0.22595310434E+03  0.00000000000E+00 0. -1.
         -2    1    1    2    0  502 -0.30153321569E+02 -0.10873804217E+02 -0.53128007559E+02  0.62048751856E+02  0.00000000000E+00 0. -1.
</event>
<event>
 4    1  0.3196713E+003  0.2257766E+02  0.7546771E-02  0.1497871E+00
          2   -1    0    0  501    0  0.00000000000E+00  0.00000000000E+00  0.12122848631E+03  0.12122848631E+03  0.00000000000E+00 0.  1.
         -2   -1    0    0    0  501 -0.00000000000E+00 -0.00000000000E+00 -0.36136764355E+03  0.36136764355E+03  0.00000000000E+00 0.  1.
          2    1    1    2  502    0 -0.14328204921E+02  0.17448594211E+02  0.11982050527E+03  0.12192909570E+03  0.00000000000E+00 0.  1.
         -2    1    1    2    0  502  0.14328204921E+02 -0.17448594211E+02 -0.35995966251E+03  0.36066703416E+03  0.00000000000E+00 0.  1.
</event>
<event>
 4    1  0.3196713E+003  0.2180499E+02  0.7546771E-02  0.1508075E+00
          2   -1    0    0  501    0  0.00000000000E+00  0.00000000000E+00  0.30238000587E+02  0.30238000587E+02  0.00000000000E+00 0.  1.
         -2   -1    0    0    0  501 -0.00000000000E+00 -0.00000000000E+00 -0.15819820138E+02  0.15819820138E+02  0.00000000000E+00 0. -1.
          2    1    1    2  502    0 -0.18788288296E+02  0.11066059857E+02  0.90028537815E+01  0.23590439463E+02  0.00000000000E+00 0.  1.
         -2    1    1    2    0  502  0.18788288296E+02 -0.11066059857E+02  0.54153266682E+01  0.22467381262E+02  0.00000000000E+00 0. -1.
</event>
<event>
 4    1  0.3196713E+003  0.2044541E+02  0.7546771E-02  0.1527332E+00
          2   -1    0    0  501    0  0.00000000000E+00  0.00000000000E+00  0.97315848665E+03  0.97315848665E+03  0.00000000000E+00 0.  1.
         -2   -1    0    0    0  501 -0.00000000000E+00 -0.00000000000E+00 -0.28134933236E+01  0.28134933236E+01  0.00000000000E+00 0.  1.
          2    1    1    2  502    0 -0.14531955612E+02  0.14381825951E+02  0.93436540814E+03  0.93458907043E+03  0.00000000000E+00 0.  1.
         -2    1    1    2    0  502  0.14531955612E+02 -0.14381825951E+02  0.35979585194E+02  0.41382909544E+02  0.00000000000E+00 0.  1.
</event>
<event>
 4    1  0.3196713E+003  0.2190092E+02  0.7546771E-02  0.1506781E+00
          2   -1    0    0  501    0  0.00000000000E+00  0.00000000000E+00  0.11868407678E+04  0.11868407678E+04  0.00000000000E+00 0.  1.
         -2   -1    0    0    0  501 -0.00000000000E+00 -0.00000000000E+00 -0.29771172101E+02  0.29771172101E+02  0.00000000000E+00 0. -1.
          2    1    1    2  502    0  0.20712033056E+02 -0.71177218670E+01  0.11826978165E+04  0.11829005772E+04  0.00000000000E+00 0.  1.
         -2    1    1    2    0  502 -0.20712033056E+02  0.71177218670E+01 -0.25628220791E+02  0.33711362756E+02  0.00000000000E+00 0. -1.
</event>
<event>
 4    1  0.3196713E+003  0.3510504E+02  0.7546771E-02  0.1379826E+00
          2   -1    0    0  501    0  0.00000000000E+00  0.00000000000E+00  0.74332190057E+02  0.74332190057E+02  0.00000000000E+00 0. -1.
         -2   -1    0    0    0  501 -0.00000000000E+00 -0.00000000000E+00 -0.43401521027E+03  0.43401521027E+03  0.00000000000E+00 0. -1.
          2    1    1    2  502    0  0.33839609239E+02  0.93404802986E+01  0.69430274788E+02  0.77800557728E+02  0.00000000000E+00 0. -1.
         -2    1    1    2    0  502 -0.33839609239E+02 -0.93404802986E+01 -0.42911329500E+03  0.43054684260E+03  0.00000000000E+00 0. -1.
</event>
<event>
 4    1  0.3196713E+003  0.2231161E+02  0.7546771E-02  0.1501328E+00
          2   -1    0    0  501    0  0.00000000000E+00  0.00000000000E+00  0.20138941568E+02  0.20138941568E+02  0.00000000000E+00 0.  1.
         -2   -1    0    0    0  501 -0.00000000000E+00 -0.00000000000E+00 -0.16760311081E+03  0.16760311081E+03  0.00000000000E+00 0.  1.
          2    1    1    2  502    0  0.12462183911E+02  0.18506803862E+02  0.12940749994E+02  0.25792844501E+02  0.00000000000E+00 0.  1.
         -2    1    1    2    0  502 -0.12462183911E+02 -0.18506803862E+02 -0.16040491923E+03  0.16194920788E+03  0.00000000000E+00 0.  1.
</event>
<event>
 4    1  0.3196713E+003  0.2470430E+02  0.7546771E-02  0.1472139E+00
          2   -1    0    0  501    0  0.00000000000E+00  0.00000000000E+00  0.25595695483E+02  0.25595695483E+02  0.00000000000E+00 0.  1.
         -2   -1    0    0    0  501 -0.00000000000E+00 -0.00000000000E+00 -0.30959777782E+02  0.30959777782E+02  0.00000000000E+00 0.  1.
          2    1    1    2  502    0 -0.11276882324E+02  0.21980312890E+02  0.10874807409E+02  0.26991918529E+02  0.00000000000E+00 0.  1.
         -2    1    1    2    0  502  0.11276882324E+02 -0.21980312890E+02 -0.16238889708E+02  0.29563554736E+02  0.00000000000E+00 0.  1.
</event>
<event>
 4    1  0.3196713E+003  0.2015330E+02  0.7546771E-02  0.1531705E+00
          2   -1    0    0  501    0  0.00000000000E+00  0.00000000000E+00  0.62883364331E+03  0.62883364331E+03  0.00000000000E+00 0.  1.
         -2   -1    0    0    0  501 -0.00000000000E+00 -0.00000000000E+00 -0.85655137787E+00  0.85655137787E+00  0.00000000000E+00 0.  1.
          2    1    1    2  502    0  0.35947094231E+01  0.19830119992E+02  0.47012905215E+03  0.47056081570E+03  0.00000000000E+00 0.  1.
         -2    1    1    2    0  502 -0.35947094231E+01 -0.19830119992E+02  0.15784803979E+03  0.15912937900E+03  0.00000000000E+00 0.  1.
</event>
<event>
 4    1  0.3196713E+003  0.2386616E+02  0.7546771E-02  0.1481899E+00
          2   -1    0    0  501    0  0.00000000000E+00  0.00000000000E+00  0.43076153328E+01  0.43076153328E+01  0.00000000000E+00 0.  1.
         -2   -1    0    0    0  501 -0.00000000000E+00 -0.00000000000E+00 -0.26134058835E+03  0.26134058835E+03  0.00000000000E+00 0.  1.
          2    1    1    2  502    0  0.87927026184E+01  0.22187433257E+02 -0.35157693194E+02  0.42493025364E+02  0.00000000000E+00 0.  1.
         -2    1    1    2    0  502 -0.87927026184E+01 -0.22187433257E+02 -0.22187527983E+03  0.22315517832E+03  0.00000000000E+00 0.  1.
</event>
<event>
 4    1  0.3196713E+003  0.2106541E+02  0.7546771E-02  0.1518333E+00
          2   -1    0    0  501    0  0.00000000000E+00  0.00000000000E+00  0.66124218961E+03  0.66124218961E+03  0.00000000000E+00 0.  1.
         -2   -1    0    0    0  501 -0.00000000000E+00 -0.00000000000E+00 -0.15433543598E+02  0.15433543598E+02  0.00000000000E+00 0.  1.
          2    1    1    2  502    0  0.19387278537E+02 -0.82392249940E+01  0.65380456811E+03  0.65414384097E+03  0.00000000000E+00 0.  1.
         -2    1    1    2    0  502 -0.19387278537E+02  0.82392249940E+01 -0.79959220983E+01  0.22531892237E+02  0.00000000000E+00 0.  1.
</event>
<event>
 4    1  0.3196713E+003  0.2938911E+02  0.7546771E-02  0.1424980E+00
          2   -1    0    0  501    0  0.00000000000E+00  0.00000000000E+00  0.13707140386E+02  0.13707140386E+02  0.00000000000E+00 0. -1.
         -2   -1    0    0    0  501 -0.00000000000E+00 -0.00000000000E+00 -0.70227501002E+02  0.70227501002E+02  0.00000000000E+00 0.  1.
          2    1    1    2  502    0 -0.22391004714E+02 -0.19035825453E+02 -0.14808423797E+02  0.32909104487E+02  0.00000000000E+00 0. -1.
         -2    1    1    2    0  502  0.22391004714E+02  0.19035825453E+02 -0.41711936819E+02  0.51025536901E+02  0.00000000000E+00 0.  1.
</event>
<event>
 4    1  0.3196713E+003  0.2313978E+02  0.7546771E-02  0.1490750E+00
          2   -1    0    0  501    0  0.00000000000E+00  0.00000000000E+00  0.77653834262E+03  0.77653834262E+03  0.00000000000E+00 0. -1.
         -2   -1    0    0    0  501 -0.00000000000E+00 -0.00000000000E+00 -0.19920353597E+02  0.19920353597E+02  0.00000000000E+00 0. -1.
          2    1    1    2  502    0 -0.67310290399E+01  0.22139170505E+02  0.76958537981E+03  0.76993318310E+03  0.00000000000E+00 0. -1.
         -2    1    1    2    0  502  0.67310290399E+01 -0.22139170505E+02 -0.12967390782E+02  0.26525513120E+02  0.00000000000E+00 0. -1.
</event>
<event>
 4    1  0.3196713E+003  0.2032714E+02  0.7546771E-02  0.1529092E+00
          2   -1    0    0  501    0  0.00000000000E+00  0.00000000000E+00  0.16427023882E+01  0.16427023882E+01  0.00000000000E+00 0. -1.
         -2   -1    0    0    0  501 -0.00000000000E+00 -0.00000000000E+00 -0.35693020042E+03  0.35693020042E+03  0.00000000000E+00 0.  1.
          2    1    1    2  502    0 -0.17535950814E+02  0.10280221740E+02 -0.80218386846E+02  0.82753743832E+02  0.00000000000E+00 0. -1.
         -2    1    1    2    0  502  0.17535950814E+02 -0.10280221740E+02 -0.27506911118E+03  0.27581915897E+03  0.00000000000E+00 0.  1.
</event>
<event>
 4    1  0.3196713E+003  0.2178797E+02  0.7546771E-02  0.1508306E+00
          2   -1    0    0  501    0  0.00000000000E+00  0.00000000000E+00  0.53289418197E+03  0.53289418197E+03  0.00000000000E+00 0. -1.
         -2   -1    0    0    0  501 -0.00000000000E+00 -0.00000000000E+00 -0.27981054419E+01  0.27981054419E+01  0.00000000000E+00 0. -1.
          2    1    1    2  502    0  0.20963277377E+02 -0.59377173070E+01  0.48618464041E+03  0.48667260047E+03  0.00000000000E+00 0. -1.
         -2    1    1    2    0  502 -0.20963277377E+02  0.59377173070E+01  0.43911436122E+02  0.49019686938E+02  0.00000000000E+00 0. -1.
</event>
<event>
 4    1  0.3196713E+003  0.2029753E+02  0.7546771E-02  0.1529535E+00
          2   -1    0    0  501    0  0.00000000000E+00  0.00000000000E+00  0.34610684380E+01  0.34610684380E+01  0.00000000000E+00 0.  1.
         -2   -1    0    0    0  501 -0.00000000000E+00 -0.00000000000E+00 -0.15000912818E+03  0.15000912818E+03  0.00000000000E+00 0. -1.
          2    1    1    2  502    0 -0.18540879122E+01 -0.20212666910E+02 -0.38405615738E+02  0.43439393018E+02  0.00000000000E+00 0.  1.
         -2    1    1    2    0  502  0.18540879122E+01  0.20212666910E+02 -0.10814244401E+03  0.11003080360E+03  0.00000000000E+00 0. -1.
</event>
<event>
 4    1  0.3196713E+003  0.3174434E+02  0.7546771E-02  0.1405020E+00
          2   -1    0    0  501    0  0.00000000000E+00  0.00000000000E+00  0.99011070653E+03  0.99011070653E+03  0.00000000000E+00 0.  1.
         -2   -1    0    0    0  501 -0.00000000000E+00 -0.00000000000E+00 -0.14142058623E+03  0.14142058623E+03  0.00000000000E+00 0.  1.
          2    1    1    2  502    0  0.31412505090E+02 -0.45779455251E+01  0.98807119456E+03  0.98858099748E+03  0.00000000000E+00 0.  1.
         -2    1    1    2    0  502 -0.31412505090E+02  0.45779455251E+01 -0.13938107426E+03  0.14295029529E+03  0.00000000000E+00 0.  1.
</event>
<event>
 4    1  0.3196713E+003  0.3575308E+02  0.7546771E-02  0.1375345E+00
          2   -1    0    0  501    0  0.00000000000E+00  0.00000000000E+00  0.78799208831E+01  0.78799208831E+01  0.00000000000E+00 0.  1.
         -2   -1    0    0    0  501 -0.00000000000E+00 -0.00000000000E+00 -0.52971079487E+03  0.52971079487E+03  0.00000000000E+00 0.  1.
          2    1    1    2  502    0  0.29630463451E+02  0.20007957463E+02 -0.37030209879E+02  0.51473480258E+02  0.00000000000E+00 0.  1.
         -2    1    1    2    0  502 -0.29630463451E+02 -0.20007957463E+02 -0.48480066411E+03  0.48611723549E+03  0.00000000000E+00 0.  1.
</event>
<event>
 4    1  0.3196713E+003  0.2997793E+02  0.7546771E-02  0.1419788E+00
          2   -1    0    0  501    0  0.00000000000E+00  0.00000000000E+00  0.12958051134E+02  0.12958051134E+02  0.00000000000E+00 0. -1.
         -2   -1    0    0    0  501 -0.00000000000E+00 -0.00000000000E+00 -0.74261258374E+02  0.74261258374E+02  0.00000000000E+00 0. -1.
          2    1    1    2  502    0 -0.41436404043E+00  0.29975061316E+02 -0.19439737295E+02  0.35729251105E+02  0.00000000000E+00 0. -1.
         -2    1    1    2    0  502  0.41436404043E+00 -0.29975061316E+02 -0.41863469946E+02  0.51490058403E+02  0.00000000000E+00 0. -1.
</event>
<event>
 4    1  0.3196713E+003  0.2201667E+02  0.7546771E-02  0.1505229E+00
          2   -1    0    0  501    0  0.00000000000E+00  0.00000000000E+00  0.36033092982E+02  0.36033092982E+02  0.00000000000E+00 0. -1.
         -2   -1    0    0    0  501 -0.00000000000E+00 -0.00000000000E+00 -0.17220174341E+02  0.17220174341E+02  0.00000000000E+00 0.  1.
          2    1    1    2  502    0  0.20606682518E+01 -0.21920022950E+02  0.21861250395E+02  0.31026569721E+02  0.00000000000E+00 0. -1.
         -2    1    1    2    0  502 -0.20606682518E+01  0.21920022950E+02 -0.30483317550E+01  0.22226697602E+02  0.00000000000E+00 0.  1.
</event>
<event>
 4    1  0.3196713E+003  0.2753194E+02  0.7546771E-02  0.1442337E+00
          2   -1    0    0  501    0  0.00000000000E+00  0.00000000000E+00  0.41345998537E+03  0.41345998537E+03  0.00000000000E+00 0. -1.
         -2   -1    0    0    0  501 -0.00000000000E+00 -0.00000000000E+00 -0.65511627614E+02  0.65511627614E+02  0.00000000000E+00 0.  1.
          2    1    1    2  502    0 -0.12949660842E+02  0.24296372808E+02  0.41008523091E+03  0.41100839902E+03  0.00000000000E+00 0. -1.
         -2    1    1    2    0  502  0.12949660842E+02 -0.24296372808E+02 -0.62136873156E+02  0.67963213970E+02  0.00000000000E+00 0.  1.
</event>
<event>
 4    1  0.3196713E+003  0.3282100E+02  0.7546771E-02  0.1396565E+00
          2   -1    0    0  501    0  0.00000000000E+00  0.00000000000E+00  0.80395584128E+03  0.80395584128E+03  0.00000000000E+00 0. -1.
         -2   -1    0    0    0  501 -0.00000000000E+00 -0.00000000000E+00 -0.26315224885E+03  0.26315224885E+03  0.00000000000E+00 0. -1.
          2    1    1    2  502    0  0.31386595157E+02  0.95968525153E+01  0.80259575456E+03  0.80326655798E+03  0.00000000000E+00 0. -1.
         -2    1    1    2    0  502 -0.31386595157E+02 -0.95968525153E+01 -0.26179216213E+03  0.26384153215E+03  0.00000000000E+00 0. -1.
</event>
<event>
 4    1  0.3196713E+003  0.2461543E+02  0.7546771E-02  0.1473152E+00
          2   -1    0    0  501    0  0.00000000000E+00  0.00000000000E+00  0.71975048028E+02  0.71975048028E+02  0.00000000000E+00 0. -1.
         -2   -1    0    0    0  501 -0.00000000000E+00 -0.00000000000E+00 -0.13425357020E+02  0.13425357020E+02  0.00000000000E+00 0.  1.
          2    1    1    2  502    0  0.24551364999E+02  0.17747802157E+01  0.55351457114E+02  0.60578075017E+02  0.00000000000E+00 0. -1.
         -2    1    1    2    0  502 -0.24551364999E+02 -0.17747802157E+01  0.31982338942E+01  0.24822330031E+02  0.00000000000E+00 0.  1.
</event>
<event>
 4    1  0.3196713E+003  0.2529606E+02  0.7546771E-02  0.1465518E+00
          2   -1    0    0  501    0  0.00000000000E+00  0.00000000000E+00  0.11083718409E+03  0.11083718409E+03  0.00000000000E+00 0. -1.
         -2   -1    0    0    0  501 -0.00000000000E+00 -0.00000000000E+00 -0.50559927435E+02  0.50559927435E+02  0.00000000000E+00 0.  1.
          2    1    1    2  502    0 -0.19249648124E+02  0.16411636656E+02  0.10609023475E+03  0.10906433276E+03  0.00000000000E+00 0. -1.
         -2    1    1    2    0  502  0.19249648124E+02 -0.16411636656E+02 -0.45812978100E+02  0.52332778763E+02  0.00000000000E+00 0.  1.
</event>
<event>
 4    1  0.3196713E+003  0.2083483E+02  0.7546771E-02  0.1521636E+00
          2   -1    0    0  501    0  0.00000000000E+00  0.00000000000E+00  0.49235555821E+03  0.49235555821E+03  0.00000000000E+00 0.  1.
         -2   -1    0    0    0  501 -0.00000000000E+00 -0.00000000000E+00 -0.22933584479E+01  0.22933584479E+01  0.00000000000E+00 0.  1.
          2    1    1    2  502    0 -0.19926722817E+02  0.60840620958E+01  0.43907594011E+03  0.43956998450E+03  0.00000000000E+00 0.  1.
         -2    1    1    2    0  502  0.19926722817E+02 -0.60840620958E+01  0.50986259649E+02  0.55078932150E+02  0.00000000000E+00 0.  1.
</event>
<event>
 4    1  0.3196713E+003  0.2250706E+02  0.7546771E-02  0.1498782E+00
          2   -1    0    0  501    0  0.00000000000E+00  0.00000000000E+00  0.20398789366E+03  0.20398789366E+03  0.00000000000E+00 0.  1.
         -2   -1    0    0    0  501 -0.00000000000E+00 -0.00000000000E+00 -0.11360837266E+02  0.11360837266E+02  0.00000000000E+00 0.  1.
          2    1    1    2  502    0 -0.21907832975E+02  0.51589535353E+01  0.19149509001E+03  0.19281321906E+03  0.00000000000E+00 0.  1.
         -2    1    1    2    0  502  0.21907832975E+02 -0.51589535353E+01  0.11319663878E+01  0.22535511868E+02  0.00000000000E+00 0.  1.
</event>
<event>
 4    1  0.3196713E+003  0.2424284E+02  0.7546771E-02  0.1477455E+00
          2   -1    0    0  501    0  0.00000000000E+00  0.00000000000E+00  0.39101684878E+02  0.39101684878E+02  0.00000000000E+00 0. -1.
         -2   -1    0    0    0  501 -0.00000000000E+00 -0.00000000000E+00 -0.16997428793E+02  0.16997428793E+02  0.00000000000E+00 0. -1.
          2    1    1    2  502    0 -0.68244018403E+01  0.23262459943E+02  0.15101540947E+01  0.24289814089E+02  0.00000000000E+00 0. -1.
         -2    1    1    2    0  502  0.68244018403E+01 -0.23262459943E+02  0.20594101990E+02  0.31809299582E+02  0.00000000000E+00 0. -1.
</event>
<event>
 4    1  0.3196713E+003  0.2163062E+02  0.7546771E-02  0.1510449E+00
          2   -1    0    0  501    0  0.00000000000E+00  0.00000000000E+00  0.10767042402E+03  0.10767042402E+03  0.00000000000E+00 0.  1.
         -2   -1    0    0    0  501 -0.00000000000E+00 -0.00000000000E+00 -0.15273866443E+03  0.15273866443E+03  0.00000000000E+00 0. -1.
          2    1    1    2  502    0  0.18047392191E+02  0.11923737219E+02  0.10580485513E+03  0.10799329258E+03  0.00000000000E+00 0.  1.
         -2    1    1    2    0  502 -0.18047392191E+02 -0.11923737219E+02 -0.15087309553E+03  0.15241579587E+03  0.00000000000E+00 0. -1.
</event>
<event>
 4    1  0.3196713E+003  0.3204406E+02  0.7546771E-02  0.1402627E+00
          2   -1    0    0  501    0  0.00000000000E+00  0.00000000000E+00  0.32155788477E+03  0.32155788477E+03  0.00000000000E+00 0.  1.
         -2   -1    0    0    0  501 -0.00000000000E+00 -0.00000000000E+00 -0.31998950916E+02  0.31998950916E+02  0.00000000000E+00 0.  1.
          2    1    1    2  502    0  0.25778939498E+02  0.19033347481E+02  0.31250548029E+03  0.31414407085E+03  0.00000000000E+00 0.  1.
         -2    1    1    2    0  502 -0.25778939498E+02 -0.19033347481E+02 -0.22946546443E+02  0.39412764831E+02  0.00000000000E+00 0.  1.
</event>
<event>
 4    1  0.3196713E+003  0.5425688E+02  0.7546771E-02  0.1280701E+00
          2   -1    0    0  501    0  0.00000000000E+00  0.00000000000E+00  0.11318754011E+04  0.11318754011E+04  0.00000000000E+00 0. -1.
         -2   -1    0    0    0  501 -0.00000000000E+00 -0.00000000000E+00 -0.31606297889E+01  0.31606297889E+01  0.00000000000E+00 0.  1.
          2    1    1    2  502    0  0.42500654272E+02 -0.33726891699E+02  0.80319981848E+03  0.80503028343E+03  0.00000000000E+00 0. -1.
         -2    1    1    2    0  502 -0.42500654272E+02  0.33726891699E+02  0.32551495279E+03  0.33000574742E+03  0.00000000000E+00 0.  1.
</event>
<event>
 4    1  0.3196713E+003  0.2054306E+02  0.7546771E-02  0.1525890E+00
          2   -1    0    0  501    0  0.00000000000E+00  0.00000000000E+00  0.75566259428E+03  0.75566259428E+03  0.00000000000E+00 0.  1.
         -2   -1    0    0    0  501 -0.00000000000E+00 -0.00000000000E+00 -0.27430472381E+01  0.27430472381E+01  0.00000000000E+00 0.  1.
          2    1    1    2  502    0 -0.10595935520E+01  0.20515718745E+02  0.71486594968E+03  0.71516106121E+03  0.00000000000E+00 0.  1.
         -2    1    1    2    0  502  0.10595935520E+01 -0.20515718745E+02  0.38053597359E+02  0.43244580308E+02  0.00000000000E+00 0.  1.
</event>
<event>
 4    1  0.3196713E+003  0.2118773E+02  0.7546771E-02  0.1516601E+00
          2   -1    0    0  501    0  0.00000000000E+00  0.00000000000E+00  0.20403905057E+03  0.20403905057E+03  0.00000000000E+00 0.  1.
         -2   -1    0    0    0  501 -0.00000000000E+00 -0.00000000000E+00 -0.23766653532E+03  0.23766653532E+03  0.00000000000E+00 0.  1.
          2    1    1    2  502    0  0.14127702191E+02  0.15790126146E+02  0.20301441556E+03  0.20411705705E+03  0.00000000000E+00 0.  1.
         -2    1    1    2    0  502 -0.14127702191E+02 -0.15790126146E+02 -0.23664190031E+03  0.23758852884E+03  0.00000000000E+00 0.  1.
</event>
<event>
 4    1  0.3196713E+003  0.2124288E+02  0.7546771E-02  0.1515825E+00
          2   -1    0    0  501    0  0.00000000000E+00  0.00000000000E+00  0.16788774125E+02  0.16788774125E+02  0.00000000000E+00 0.  1.
         -2   -1    0    0    0  501 -0.00000000000E+00 -0.00000000000E+00 -0.26900367445E+02  0.26900367445E+02  0.00000000000E+00 0. -1.
          2    1    1    2  502    0 -0.25383120446E+01 -0.21090672112E+02 -0.56765679052E+01  0.21988244617E+02  0.00000000000E+00 0.  1.
         -2    1    1    2    0  502  0.25383120446E+01  0.21090672112E+02 -0.44350254144E+01  0.21700896953E+02  0.00000000000E+00 0. -1.
</event>
<event>
 4    1  0.3196713E+003  0.3787941E+02  0.7546771E-02  0.1361381E+00
          2   -1    0    0  501    0  0.00000000000E+00  0.00000000000E+00  0.68920538037E+03  0.68920538037E+03  0.00000000000E+00 0. -1.
         -2   -1    0    0    0  501 -0.00000000000E+00 -0.00000000000E+00 -0.20822862282E+01  0.20822862282E+01  0.00000000000E+00 0. -1.
          2    1    1    2  502    0 -0.35675694395E+02 -0.12731642170E+02  0.34832867622E+03  0.35038224350E+03  0.00000000000E+00 0. -1.
         -2    1    1    2    0  502  0.35675694395E+02  0.12731642170E+02  0.33879441792E+03  0.34090542310E+03  0.00000000000E+00 0. -1.
</event>
<event>
 4    1  0.3196713E+003  0.2929025E+02  0.7546771E-02  0.1425866E+00
          2   -1    0    0  501    0  0.00000000000E+00  0.00000000000E+00  0.40448096479E+02  0.40448096479E+02  0.00000000000E+00 0. -1.
         -2   -1    0    0    0  501 -0.00000000000E+00 -0.00000000000E+00 -0.40244423834E+03  0.40244423834E+03  0.00000000000E+00 0.  1.
          2    1    1    2  502    0  0.29231633664E+02  0.18521930679E+01  0.34533577304E+02  0.45282303246E+02  0.00000000000E+00 0. -1.
         -2    1    1    2    0  502 -0.29231633664E+02 -0.18521930679E+01 -0.39652971916E+03  0.39761003157E+03  0.00000000000E+00 0.  1.
</event>
<event>
 4    1  0.3196713E+003  0.3656143E+02  0.7546771E-02  0.1369906E+00
          2   -1    0    0  501    0  0.00000000000E+00  0.00000000000E+00  0.48767833161E+01  0.48767833161E+01  0.00000000000E+00 0.  1.
         -2   -1    0    0    0  501 -0.00000000000E+00 -0.00000000000E+00 -0.69075797513E+03  0.69075797513E+03  0.00000000000E+00 0. -1.
          2    1    1    2  502    0 -0.31765378139E+02 -0.18102449565E+02 -0.72808037350E+02  0.81472377106E+02  0.00000000000E+00 0.  1.
         -2    1    1    2    0  502  0.31765378139E+02  0.18102449565E+02 -0.61307315446E+03  0.61416238134E+03  0.00000000000E+00 0. -1.
</event>
<event>
 4    1  0.3196713E+003  0.2015892E+02  0.7546771E-02  0.1531620E+00
          2   -1    0    0  501    0  0.00000000000E+00  0.00000000000E+00  0.70449604956E+03  0.70449604956E+03  0.00000000000E+00 0.  1.
         -2   -1    0    0    0  501 -0.00000000000E+00 -0.00000000000E+00 -0.16250854328E+03  0.16250854328E+03  0.00000000000E+00 0.  1.
          2    1    1    2  502    0 -0.15454820535E+02 -0.12943360099E+02  0.70372598512E+03  0.70401466190E+03  0.00000000000E+00 0.  1.
         -2    1    1    2    0  502  0.15454820535E+02  0.12943360099E+02 -0.16173847884E+03  0.16298993094E+03  0.00000000000E+00 0.  1.
</event>
<event>
 4    1  0.3196713E+003  0.2217321E+02  0.7546771E-02  0.1503150E+00
          2   -1    0    0  501    0  0.00000000000E+00  0.00000000000E+00  0.13041066135E+04  0.13041066135E+04  0.00000000000E+00 0. -1.
         -2   -1    0    0    0  501 -0.00000000000E+00 -0.00000000000E+00 -0.17204326394E+02  0.17204326394E+02  0.00000000000E+00 0.  1.
          2    1    1    2  502    0  0.12656137251E+01  0.22137065821E+02  0.12968279675E+04  0.12970175129E+04  0.00000000000E+00 0. -1.
         -2    1    1    2    0  502 -0.12656137251E+01 -0.22137065821E+02 -0.99256804358E+01  0.24293426958E+02  0.00000000000E+00 0.  1.
</event>
<event>
 4    1  0.3196713E+003  0.2545539E+02  0.7546771E-02  0.1463773E+00
          2   -1    0    0  501    0  0.00000000000E+00  0.00000000000E+00  0.68989448391E+02  0.68989448391E+02  0.00000000000E+00 0. -1.
         -2   -1    0    0    0  501 -0.00000000000E+00 -0.00000000000E+00 -0.46500347139E+02  0.46500347139E+02  0.00000000000E+00 0. -1.
          2    1    1    2  502    0  0.25306377559E+02  0.27502716118E+01  0.62829019487E+02  0.67789840159E+02  0.00000000000E+00 0. -1.
         -2    1    1    2    0  502 -0.25306377559E+02 -0.27502716118E+01 -0.40339918235E+02  0.47699955370E+02  0.00000000000E+00 0. -1.
</event>
<event>
 4    1  0.3196713E+003  0.3736174E+02  0.7546771E-02  0.1364680E+00
          2   -1    0    0  501    0  0.00000000000E+00  0.00000000000E+00  0.61808503842E+02  0.61808503842E+02  0.00000000000E+00 0.  1.
         -2   -1    0    0    0  501 -0.00000000000E+00 -0.00000000000E+00 -0.39455326574E+02  0.39455326574E+02  0.00000000000E+00 0. -1.
          2    1    1    2  502    0 -0.11020893292E+02 -0.35699296993E+02  0.44285330989E+02  0.57940404171E+02  0.00000000000E+00 0.  1.
         -2    1    1    2    0  502  0.11020893292E+02  0.35699296993E+02 -0.21932153720E+02  0.43323426245E+02  0.00000000000E+00 0. -1.
</event>
<event>
 4    1  0.3196713E+003  0.4499693E+02  0.7546771E-02  0.1321455E+00
          2   -1    0    0  501    0  0.00000000000E+00  0.00000000000E+00  0.24601697895E+02  0.24601697895E+02  0.00000000000E+00 0. -1.
         -2   -1    0    0    0  501 -0.00000000000E+00 -0.00000000000E+00 -0.20617457633E+03  0.20617457633E+03  0.00000000000E+00 0.  1.
          2    1    1    2  502    0 -0.44973948280E+02  0.14378676274E+01 -0.13458955627E+01  0.45017051459E+02  0.00000000000E+00 0. -1.
         -2    1    1    2    0  502  0.44973948280E+02 -0.14378676274E+01 -0.18022698288E+03  0.18575922277E+03  0.00000000000E+00 0.  1.
</event>
<event>
 4    1  0.3196713E+003  0.2343534E+02  0.7546771E-02  0.1487103E+00
          2   -1    0    0  501    0  0.00000000000E+00  0.00000000000E+00  0.32586756827E+03  0.32586756827E+03  0.00000000000E+00 0.  1.
         -2   -1    0    0    0  501 -0.00000000000E+00 -0.00000000000E+00 -0.13338965910E+02  0.13338965910E+02  0.00000000000E+00 0. -1.
          2    1    1    2  502    0 -0.21949987671E+02 -0.82105644810E+01  0.31479108835E+03  0.31566223188E+03  0.00000000000E+00 0.  1.
         -2    1    1    2    0  502  0.21949987671E+02  0.82105644810E+01 -0.22624859973E+01  0.23544302298E+02  0.00000000000E+00 0. -1.
</event>
<event>
 4    1  0.3196713E+003  0.2355955E+02  0.7546771E-02  0.1485589E+00
          2   -1    0    0  501    0  0.00000000000E+00  0.00000000000E+00  0.17790035366E+04  0.17790035366E+04  0.00000000000E+00 0. -1.
         -2   -1    0    0    0  501 -0.00000000000E+00 -0.00000000000E+00 -0.60717157350E+00  0.60717157350E+00  0.00000000000E+00 0.  1.
          2    1    1    2  502    0 -0.22965532278E+02 -0.52570811934E+01  0.15096029532E+04  0.15097867826E+04  0.00000000000E+00 0. -1.
         -2    1    1    2    0  502  0.22965532278E+02  0.52570811934E+01  0.26879341180E+03  0.26982392555E+03  0.00000000000E+00 0.  1.
</event>
<event>
 4    1  0.3196713E+003  0.3162904E+02  0.7546771E-02  0.1405949E+00
          2   -1    0    0  501    0  0.00000000000E+00  0.00000000000E+00  0.13968895842E+03  0.13968895842E+03  0.00000000000E+00 0. -1.
         -2   -1    0    0    0  501 -0.00000000000E+00 -0.00000000000E+00 -0.19515853866E+02  0.19515853866E+02  0.00000000000E+00 0.  1.
          2    1    1    2  502    0 -0.13423640779E+02  0.28639174285E+02  0.12342110071E+03  0.12740943660E+03  0.00000000000E+00 0. -1.
         -2    1    1    2    0  502  0.13423640779E+02 -0.28639174285E+02 -0.32479961593E+01  0.31795375679E+02  0.00000000000E+00 0.  1.
</event>
<event>
 4    1  0.3196713E+003  0.2167785E+02  0.7546771E-02  0.1509803E+00
          2   -1    0    0  501    0  0.00000000000E+00  0.00000000000E+00  0.30384777315E+03  0.30384777315E+03  0.00000000000E+00 0.  1.
         -2   -1    0    0    0  501 -0.00000000000E+00 -0.00000000000E+00 -0.82262391795E+01  0.82262391795E+01  0.00000000000E+00 0.  1.
          2    1    1    2  502    0 -0.20366135222E+02  0.74262777367E+01  0.28841670042E+03  0.28923022343E+03  0.00000000000E+00 0.  1.
         -2    1    1    2    0  502  0.20366135222E+02 -0.74262777367E+01  0.72048335562E+01  0.22843788904E+02  0.00000000000E+00 0.  1.
</event>
<event>
 4    1  0.3196713E+003  0.2342284E+02  0.7546771E-02  0.1487256E+00
          2   -1    0    0  501    0  0.00000000000E+00  0.00000000000E+00  0.90922367980E+03  0.90922367980E+03  0.00000000000E+00 0.  1.
         -2   -1    0    0    0  501 -0.00000000000E+00 -0.00000000000E+00 -0.34452620099E+01  0.34452620099E+01  0.00000000000E+00 0.  1.
          2    1    1    2  502    0  0.19247697323E+02 -0.13347489082E+02  0.86734033745E+03  0.86765655088E+03  0.00000000000E+00 0.  1.
         -2    1    1    2    0  502 -0.19247697323E+02  0.13347489082E+02  0.38438080343E+02  0.45012390933E+02  0.00000000000E+00 0.  1.
</event>
<event>
 4    1  0.3196713E+003  0.3354897E+02  0.7546771E-02  0.1391062E+00
          2   -1    0    0  501    0  0.00000000000E+00  0.00000000000E+00  0.37447732744E+01  0.37447732744E+01  0.00000000000E+00 0.  1.
         -2   -1    0    0    0  501 -0.00000000000E+00 -0.00000000000E+00 -0.30303083669E+03  0.30303083669E+03  0.00000000000E+00 0. -1.
          2    1    1    2  502    0  0.28773107373E+02  0.17252260822E+02 -0.16349129661E+03  0.16689798165E+03  0.00000000000E+00 0.  1.
         -2    1    1    2    0  502 -0.28773107373E+02 -0.17252260822E+02 -0.13579476681E+03  0.13987762832E+03  0.00000000000E+00 0. -1.
</event>
<event>
 4    1  0.3196713E+003  0.3037400E+02  0.7546771E-02  0.1416374E+00
          2   -1    0    0  501    0  0.00000000000E+00  0.00000000000E+00  0.27086611397E+02  0.27086611397E+02  0.00000000000E+00 0.  1.
         -2   -1    0    0    0  501 -0.00000000000E+00 -0.00000000000E+00 -0.14075188002E+03  0.14075188002E+03  0.00000000000E+00 0.  1.
          2    1    1    2  502    0  0.15339353790E+02  0.26216103281E+02  0.16230687318E+02  0.34438569319E+02  0.00000000000E+00 0.  1.
         -2    1    1    2    0  502 -0.15339353790E+02 -0.26216103281E+02 -0.12989595594E+03  0.13339992210E+03  0.00000000000E+00 0.  1.
</event>
<event>
 4    1  0.3196713E+003  0.3303088E+02  0.7546771E-02  0.1394961E+00
          2   -1    0    0  501    0  0.00000000000E+00  0.00000000000E+00  0.49382325146E+01  0.49382325146E+01  0.00000000000E+00 0. -1.
         -2   -1    0    0    0  501 -0.00000000000E+00 -0.00000000000E+00 -0.24060680940E+03  0.24060680940E+03  0.00000000000E+00 0.  1.
          2    1    1    2  502    0 -0.23310394947E+02  0.23402234895E+02 -0.82731191872E+02  0.89081362918E+02  0.00000000000E+00 0. -1.
         -2    1    1    2    0  502  0.23310394947E+02 -0.23402234895E+02 -0.15293738502E+03  0.15646367900E+03  0.00000000000E+00 0.  1.
</event>
<event>
 4    1  0.3196713E+003  0.6207204E+02  0.7546771E-02  0.1252950E+00
          2   -1    0    0  501    0  0.00000000000E+00  0.00000000000E+00  0.13832977707E+04  0.13832977707E+04  0.00000000000E+00 0. -1.
         -2   -1    0    0    0  501 -0.00000000000E+00 -0.00000000000E+00 -0.29749820423E+02  0.29749820423E+02  0.00000000000E+00 0. -1.
          2    1    1    2  502    0  0.11079355212E+02  0.61075244314E+02  0.13494109648E+04  0.13508378473E+04  0.00000000000E+00 0. -1.
         -2    1    1    2    0  502 -0.11079355212E+02 -0.61075244314E+02  0.41369854178E+01  0.62209743837E+02  0.00000000000E+00 0. -1.
</event>
<event>
 4    1  0.3196713E+003  0.2066680E+02  0.7546771E-02  0.1524076E+00
          2   -1    0    0  501    0  0.00000000000E+00  0.00000000000E+00  0.57215401386E+03  0.57215401386E+03  0.00000000000E+00 0.  1.
         -2   -1    0    0    0  501 -0.00000000000E+00 -0.00000000000E+00 -0.11737563526E+01  0.11737563526E+01  0.00000000000E+00 0.  1.
          2    1    1    2  502    0 -0.57729626328E+01  0.19844130438E+02  0.45844190888E+03  0.45890750749E+03  0.00000000000E+00 0.  1.
         -2    1    1    2    0  502  0.57729626328E+01 -0.19844130438E+02  0.11253834863E+03  0.11442026272E+03  0.00000000000E+00 0.  1.
</event>
<event>
 4    1  0.3196713E+003  0.2273601E+02  0.7546771E-02  0.1495840E+00
          2   -1    0    0  501    0  0.00000000000E+00  0.00000000000E+00  0.76876715085E+03  0.76876715085E+03  0.00000000000E+00 0. -1.
         -2   -1    0    0    0  501 -0.00000000000E+00 -0.00000000000E+00 -0.68940522697E+00  0.68940522697E+00  0.00000000000E+00 0. -1.
          2    1    1    2  502    0  0.10409510198E+02  0.20213068316E+02  0.44444649181E+03  0.44502765096E+03  0.00000000000E+00 0. -1.
         -2    1    1    2    0  502 -0.10409510198E+02 -0.20213068316E+02  0.32363125381E+03  0.32442890512E+03  0.00000000000E+00 0. -1.
</event>
<event>
 4    1  0.3196713E+003  0.2244947E+02  0.7546771E-02  0.1499529E+00
          2   -1    0    0  501    0  0.00000000000E+00  0.00000000000E+00  0.44611425585E+03  0.44611425585E+03  0.00000000000E+00 0.  1.
         -2   -1    0    0    0  501 -0.00000000000E+00 -0.00000000000E+00 -0.41120560622E+03  0.41120560622E+03  0.00000000000E+00 0. -1.
          2    1    1    2  502    0 -0.22446823426E+02  0.34457312310E+00  0.44552502095E+03  0.44609026318E+03  0.00000000000E+00 0.  1.
         -2    1    1    2    0  502  0.22446823426E+02 -0.34457312310E+00 -0.41061637132E+03  0.41122959889E+03  0.00000000000E+00 0. -1.
</event>
<event>
 4    1  0.3196713E+003  0.3041954E+02  0.7546771E-02  0.1415985E+00
          2   -1    0    0  501    0  0.00000000000E+00  0.00000000000E+00  0.19474637602E+04  0.19474637602E+04  0.00000000000E+00 0. -1.
         -2   -1    0    0    0  501 -0.00000000000E+00 -0.00000000000E+00 -0.65430433252E+00  0.65430433252E+00  0.00000000000E+00 0. -1.
          2    1    1    2  502    0  0.21369040622E+02  0.21649768550E+02  0.14830901475E+04  0.14834020810E+04  0.00000000000E+00 0. -1.
         -2    1    1    2    0  502 -0.21369040622E+02 -0.21649768550E+02  0.46371930843E+03  0.46471598357E+03  0.00000000000E+00 0. -1.
</event>
<event>
 4    1  0.3196713E+003  0.2552039E+02  0.7546771E-02  0.1463065E+00
          2   -1    0    0  501    0  0.00000000000E+00  0.00000000000E+00  0.82787808966E+02  0.82787808966E+02  0.00000000000E+00 0. -1.
         -2   -1    0    0    0  501 -0.00000000000E+00 -0.00000000000E+00 -0.12342216440E+02  0.12342216440E+02  0.00000000000E+00 0. -1.
          2    1    1    2  502    0 -0.13162498193E+02  0.21864101291E+02  0.63864502502E+02  0.68774740739E+02  0.00000000000E+00 0. -1.
         -2    1    1    2    0  502  0.13162498193E+02 -0.21864101291E+02  0.65810900243E+01  0.26355284666E+02  0.00000000000E+00 0. -1.
</event>
<event>
 4    1  0.3196713E+003  0.2167290E+02  0.7546771E-02  0.1509871E+00
          2   -1    0    0  501    0  0.00000000000E+00  0.00000000000E+00  0.27181934404E+03  0.27181934404E+03  0.00000000000E+00 0.  1.
         -2   -1    0    0    0  501 -0.00000000000E+00 -0.00000000000E+00 -0.40532558930E+01  0.40532558930E+01  0.00000000000E+00 0.  1.
          2    1    1    2  502    0 -0.15831326388E+02 -0.14801471201E+02  0.23835706012E+03  0.23934034878E+03  0.00000000000E+00 0.  1.
         -2    1    1    2    0  502  0.15831326388E+02  0.14801471201E+02  0.29409028032E+02  0.36532251159E+02  0.00000000000E+00 0.  1.
</event>
<event>
 4    1  0.3196713E+003  0.2983534E+02  0.7546771E-02  0.1421033E+00
          2   -1    0    0  501    0  0.00000000000E+00  0.00000000000E+00  0.82514283407E+03  0.82514283407E+03  0.00000000000E+00 0. -1.
         -2   -1    0    0    0  501 -0.00000000000E+00 -0.00000000000E+00 -0.64256508162E+01  0.64256508162E+01  0.00000000000E+00 0.  1.
          2    1    1    2  502    0 -0.12802416186E+02  0.26948947949E+02  0.78863803754E+03  0.78920219331E+03  0.00000000000E+00 0. -1.
         -2    1    1    2    0  502  0.12802416186E+02 -0.26948947949E+02  0.30079145712E+02  0.42366291583E+02  0.00000000000E+00 0.  1.
</event>
<event>
 4    1  0.3196713E+003  0.2127348E+02  0.7546771E-02  0.1515396E+00
          2   -1    0    0  501    0  0.00000000000E+00  0.00000000000E+00  0.89730601442E+03  0.89730601442E+03  0.00000000000E+00 0.  1.
         -2   -1    0    0    0  501 -0.00000000000E+00 -0.00000000000E+00 -0.10071704782E+03  0.10071704782E+03  0.00000000000E+00 0.  1.
          2    1    1    2  502    0 -0.15843293629E+02  0.14196868077E+02  0.89605500989E+03  0.89630750402E+03  0.00000000000E+00 0.  1.
         -2    1    1    2    0  502  0.15843293629E+02 -0.14196868077E+02 -0.99466043294E+02  0.10171555822E+03  0.00000000000E+00 0.  1.
</event>
<event>
 4    1  0.3196713E+003  0.2009833E+02  0.7546771E-02  0.1532538E+00
          2   -1    0    0  501    0  0.00000000000E+00  0.00000000000E+00  0.27400876471E+03  0.27400876471E+03  0.00000000000E+00 0.  1.
         -2   -1    0    0    0  501 -0.00000000000E+00 -0.00000000000E+00 -0.36847973132E+01  0.36847973132E+01  0.00000000000E+00 0. -1.
          2    1    1    2  502    0  0.19136037172E+02 -0.61445154116E+01  0.24270546606E+03  0.24353621136E+03  0.00000000000E+00 0.  1.
         -2    1    1    2    0  502 -0.19136037172E+02  0.61445154116E+01  0.27618501342E+02  0.34157350668E+02  0.00000000000E+00 0. -1.
</event>
<event>
 4    1  0.3196713E+003  0.2126554E+02  0.7546771E-02  0.1515507E+00
          2   -1    0    0  501    0  0.00000000000E+00  0.00000000000E+00  0.65595254336E+03  0.65595254336E+03  0.00000000000E+00 0.  1.
         -2   -1    0    0    0  501 -0.00000000000E+00 -0.00000000000E+00 -0.25072467400E+02  0.25072467400E+02  0.00000000000E+00 0. -1.
          2    1    1    2  502    0 -0.15587839944E+02  0.14465216229E+02  0.65123839610E+03  0.65158550612E+03  0.00000000000E+00 0.  1.
         -2    1    1    2    0  502  0.15587839944E+02 -0.14465216229E+02 -0.20358320137E+02  0.29439504640E+02  0.00000000000E+00 0. -1.
</event>
<event>
 4    1  0.3196713E+003  0.2205602E+02  0.7546771E-02  0.1504705E+00
          2   -1    0    0  501    0  0.00000000000E+00  0.00000000000E+00  0.79615033269E+03  0.79615033269E+03  0.00000000000E+00 0. -1.
         -2   -1    0    0    0  501 -0.00000000000E+00 -0.00000000000E+00 -0.84557236961E+01  0.84557236961E+01  0.00000000000E+00 0.  1.
          2    1    1    2  502    0  0.21972912732E+02  0.19128680997E+01  0.78134224537E+03  0.78165348612E+03  0.00000000000E+00 0. -1.
         -2    1    1    2    0  502 -0.21972912732E+02 -0.19128680997E+01  0.63523636215E+01  0.22952570267E+02  0.00000000000E+00 0.  1.
</event>
<event>
 4    1  0.3196713E+003  0.2353892E+02  0.7546771E-02  0.1485840E+00
          2   -1    0    0  501    0  0.00000000000E+00  0.00000000000E+00  0.11299553372E+04  0.11299553372E+04  0.00000000000E+00 0. -1.
         -2   -1    0    0    0  501 -0.00000000000E+00 -0.00000000000E+00 -0.44709593393E+01  0.44709593393E+01  0.00000000000E+00 0.  1.
          2    1    1    2  502    0 -0.23451149811E+02  0.20308828718E+01  0.10979474268E+04  0.10981997237E+04  0.00000000000E+00 0. -1.
         -2    1    1    2    0  502  0.23451149811E+02 -0.20308828718E+01  0.27536951058E+02  0.36226572930E+02  0.00000000000E+00 0.  1.
</event>
<event>
 4    1  0.3196713E+003  0.2980781E+02  0.7546771E-02  0.1421274E+00
          2   -1    0    0  501    0  0.00000000000E+00  0.00000000000E+00  0.14603542634E+03  0.14603542634E+03  0.00000000000E+00 0.  1.
         -2   -1    0    0    0  501 -0.00000000000E+00 -0.00000000000E+00 -0.21708838765E+02  0.21708838765E+02  0.00000000000E+00 0.  1.
          2    1    1    2  502    0 -0.18008957022E+02  0.23752533505E+02  0.13331817559E+03  0.13660981415E+03  0.00000000000E+00 0.  1.
         -2    1    1    2    0  502  0.18008957022E+02 -0.23752533505E+02 -0.89915880147E+01  0.31134450950E+02  0.00000000000E+00 0.  1.
</event>
<event>
 4    1  0.3196713E+003  0.2096578E+02  0.7546771E-02  0.1519754E+00
          2   -1    0    0  501    0  0.00000000000E+00  0.00000000000E+00  0.55322742584E+02  0.55322742584E+02  0.00000000000E+00 0. -1.
         -2   -1    0    0    0  501 -0.00000000000E+00 -0.00000000000E+00 -0.39722052756E+02  0.39722052756E+02  0.00000000000E+00 0.  1.
          2    1    1    2  502    0  0.93548076509E+01 -0.18763030458E+02  0.50304978583E+02  0.54499124841E+02  0.00000000000E+00 0. -1.
         -2    1    1    2    0  502 -0.93548076509E+01  0.18763030458E+02 -0.34704288756E+02  0.40545670499E+02  0.00000000000E+00 0.  1.
</event>
<event>
 4    1  0.3196713E+003  0.3152421E+02  0.7546771E-02  0.1406798E+00
          2   -1    0    0  501    0  0.00000000000E+00  0.00000000000E+00  0.89225510541E+03  0.89225510541E+03  0.00000000000E+00 0.  1.
         -2   -1    0    0    0  501 -0.00000000000E+00 -0.00000000000E+00 -0.95916491477E+01  0.95916491477E+01  0.00000000000E+00 0.  1.
          2    1    1    2  502    0 -0.36392283770E+01 -0.31313444143E+02  0.86526691721E+03  0.86584098643E+03  0.00000000000E+00 0.  1.
         -2    1    1    2    0  502  0.36392283770E+01  0.31313444143E+02  0.17396539051E+02  0.36005768125E+02  0.00000000000E+00 0.  1.
</event>
<event>
 4    1  0.3196713E+003  0.2053747E+02  0.7546771E-02  0.1525972E+00
          2   -1    0    0  501    0  0.00000000000E+00  0.00000000000E+00  0.25769417398E+03  0.25769417398E+03  0.00000000000E+00 0.  1.
         -2   -1    0    0    0  501 -0.00000000000E+00 -0.00000000000E+00 -0.18221745866E+02  0.18221745866E+02  0.00000000000E+00 0. -1.
          2    1    1    2  502    0  0.19180204303E+02 -0.73421576104E+01  0.25135234519E+03  0.25218998582E+03  0.00000000000E+00 0.  1.
         -2    1    1    2    0  502 -0.19180204303E+02  0.73421576104E+01 -0.11879917078E+02  0.23725934023E+02  0.00000000000E+00 0. -1.
</event>
<event>
 4    1  0.3196713E+003  0.2160979E+02  0.7546771E-02  0.1510734E+00
          2   -1    0    0  501    0  0.00000000000E+00  0.00000000000E+00  0.51024637036E+03  0.51024637036E+03  0.00000000000E+00 0. -1.
         -2   -1    0    0    0  501 -0.00000000000E+00 -0.00000000000E+00 -0.59996034860E+01  0.59996034860E+01  0.00000000000E+00 0.  1.
          2    1    1    2  502    0 -0.20298064334E+02 -0.74142978246E+01  0.48974444418E+03  0.49022097449E+03  0.00000000000E+00 0. -1.
         -2    1    1    2    0  502  0.20298064334E+02  0.74142978246E+01  0.14502322700E+02  0.26024999359E+02  0.00000000000E+00 0.  1.
</event>
<event>
 4    1  0.3196713E+003  0.2491879E+02  0.7546771E-02  0.1469714E+00
          2   -1    0    0  501    0  0.00000000000E+00  0.00000000000E+00  0.28928915515E+03  0.28928915515E+03  0.00000000000E+00 0.  1.
         -2   -1    0    0    0  501 -0.00000000000E+00 -0.00000000000E+00 -0.34880628890E+01  0.34880628890E+01  0.00000000000E+00 0. -1.
          2    1    1    2  502    0 -0.13090872562E+02  0.21203188701E+02  0.23368843794E+03  0.23501325959E+03  0.00000000000E+00 0.  1.
         -2    1    1    2    0  502  0.13090872562E+02 -0.21203188701E+02  0.52112654324E+02  0.57763958453E+02  0.00000000000E+00 0. -1.
</event>
<event>
 4    1  0.3196713E+003  0.2908283E+02  0.7546771E-02  0.1427737E+00
          2   -1    0    0  501    0  0.00000000000E+00  0.00000000000E+00  0.12226291367E+04  0.12226291367E+04  0.00000000000E+00 0.  1.
         -2   -1    0    0    0  501 -0.00000000000E+00 -0.00000000000E+00 -0.34109900681E+01  0.34109900681E+01  0.00000000000E+00 0.  1.
          2    1    1    2  502    0 -0.25951090219E+02  0.13128295748E+02  0.11569456598E+04  0.11573111383E+04  0.00000000000E+00 0.  1.
         -2    1    1    2    0  502  0.25951090219E+02 -0.13128295748E+02  0.62272486901E+02  0.68728988481E+02  0.00000000000E+00 0.  1.
</event>
<event>
 4    1  0.3196713E+003  0.3149493E+02  0.7546771E-02  0.1407036E+00
          2   -1    0    0  501    0  0.00000000000E+00  0.00000000000E+00  0.41240408510E+02  0.41240408510E+02  0.00000000000E+00 0. -1.
         -2   -1    0    0    0  501 -0.00000000000E+00 -0.00000000000E+00 -0.14118702751E+03  0.14118702751E+03  0.00000000000E+00 0. -1.
          2    1    1    2  502    0  0.23217543991E+02 -0.21280890333E+02  0.33108398980E+02  0.45695697012E+02  0.00000000000E+00 0. -1.
         -2    1    1    2    0  502 -0.23217543991E+02  0.21280890333E+02 -0.13305501798E+03  0.13673173901E+03  0.00000000000E+00 0. -1.
</event>
<event>
 4    1  0.3196713E+003  0.2227448E+02  0.7546771E-02  0.1501815E+00
          2   -1    0    0  501    0  0.00000000000E+00  0.00000000000E+00  0.53637667584E+03  0.53637667584E+03  0.00000000000E+00 0. -1.
         -2   -1    0    0    0  501 -0.00000000000E+00 -0.00000000000E+00 -0.20372686015E+01  0.20372686015E+01  0.00000000000E+00 0.  1.
          2    1    1    2  502    0 -0.13837367974E+02 -0.17455075430E+02  0.46608379291E+03  0.46661574601E+03  0.00000000000E+00 0. -1.
         -2    1    1    2    0  502  0.13837367974E+02  0.17455075430E+02  0.68255614327E+02  0.71798198431E+02  0.00000000000E+00 0.  1.
</event>
<event>
 4    1  0.3196713E+003  0.2189145E+02  0.7546771E-02  0.1506908E+00
          2   -1    0    0  501    0  0.00000000000E+00  0.00000000000E+00  0.15143543442E+02  0.15143543442E+02  0.00000000000E+00 0.  1.
         -2   -1    0    0    0  501 -0.00000000000E+00 -0.00000000000E+00 -0.22100425259E+03  0.22100425259E+03  0.00000000000E+00 0.  1.
          2    1    1    2  502    0 -0.21639864274E+02 -0.33093401755E+01  0.63634353648E+01  0.22797560568E+02  0.00000000000E+00 0.  1.
         -2    1    1    2    0  502  0.21639864274E+02  0.33093401755E+01 -0.21222414451E+03  0.21335023546E+03  0.00000000000E+00 0.  1.
</event>
<event>
 4    1  0.3196713E+003  0.4250168E+02  0.7546771E-02  0.1334418E+00
          2   -1    0    0  501    0  0.00000000000E+00  0.00000000000E+00  0.20048991424E+04  0.20048991424E+04  0.00000000000E+00 0. -1.
         -2   -1    0    0    0  501 -0.00000000000E+00 -0.00000000000E+00 -0.23785945677E+01  0.23785945677E+01  0.00000000000E+00 0. -1.
          2    1    1    2  502    0  0.41413715615E+02  0.95549503759E+01  0.17922966558E+04  0.17928005174E+04  0.00000000000E+00 0. -1.
         -2    1    1    2    0  502 -0.41413715615E+02 -0.95549503759E+01  0.21022389201E+03  0.21447721951E+03  0.00000000000E+00 0. -1.
</event>
<event>
 4    1  0.3196713E+003  0.2526596E+02  0.7546771E-02  0.1465850E+00
          2   -1    0    0  501    0  0.00000000000E+00  0.00000000000E+00  0.40477829154E+03  0.40477829154E+03  0.00000000000E+00 0. -1.
         -2   -1    0    0    0  501 -0.00000000000E+00 -0.00000000000E+00 -0.17834534632E+01  0.17834534632E+01  0.00000000000E+00 0.  1.
          2    1    1    2  502    0 -0.11172801526E+02 -0.22661362960E+02  0.27064701510E+03  0.27182379522E+03  0.00000000000E+00 0. -1.
         -2    1    1    2    0  502  0.11172801526E+02  0.22661362960E+02  0.13234782297E+03  0.13473794977E+03  0.00000000000E+00 0.  1.
</event>
<event>
 4    1  0.3196713E+003  0.2152650E+02  0.7546771E-02  0.1511879E+00
          2   -1    0    0  501    0  0.00000000000E+00  0.00000000000E+00  0.13364794982E+02  0.13364794982E+02  0.00000000000E+00 0. -1.
         -2   -1    0    0    0  501 -0.00000000000E+00 -0.00000000000E+00 -0.61723443324E+02  0.61723443324E+02  0.00000000000E+00 0. -1.
          2    1    1    2  502    0  0.43470206196E+01  0.21083018027E+02  0.67537003471E+00  0.21537092702E+02  0.00000000000E+00 0. -1.
         -2    1    1    2    0  502 -0.43470206196E+01 -0.21083018027E+02 -0.49034018377E+02  0.53551145604E+02  0.00000000000E+00 0. -1.
</event>
<event>
 4    1  0.3196713E+003  0.2870243E+02  0.7546771E-02  0.1431218E+00
          2   -1    0    0  501    0  0.00000000000E+00  0.00000000000E+00  0.42354522192E+03  0.42354522192E+03  0.00000000000E+00 0.  1.
         -2   -1    0    0    0  501 -0.00000000000E+00 -0.00000000000E+00 -0.20129780402E+01  0.20129780402E+01  0.00000000000E+00 0.  1.
          2    1    1    2  502    0 -0.20555817082E+02 -0.20032163976E+02  0.24984472728E+03  0.25148800560E+03  0.00000000000E+00 0.  1.
         -2    1    1    2    0  502  0.20555817082E+02  0.20032163976E+02  0.17168751660E+03  0.17407019436E+03  0.00000000000E+00 0.  1.
</event>
<event>
 4    1  0.3196713E+003  0.2416957E+02  0.7546771E-02  0.1478312E+00
          2   -1    0    0  501    0  0.00000000000E+00  0.00000000000E+00  0.10345839934E+03  0.10345839934E+03  0.00000000000E+00 0.  1.
         -2   -1    0    0    0  501 -0.00000000000E+00 -0.00000000000E+00 -0.55067924669E+03  0.55067924669E+03  0.00000000000E+00 0.  1.
          2    1    1    2  502    0  0.16372702734E+02 -0.17779274260E+02  0.10177727433E+03  0.10460775094E+03  0.00000000000E+00 0.  1.
         -2    1    1    2    0  502 -0.16372702734E+02  0.17779274260E+02 -0.54899812167E+03  0.54952989508E+03  0.00000000000E+00 0.  1.
</event>
<event>
 4    1  0.3196713E+003  0.2137122E+02  0.7546771E-02  0.1514030E+00
          2   -1    0    0  501    0  0.00000000000E+00  0.00000000000E+00  0.53474215517E+03  0.53474215517E+03  0.00000000000E+00 0.  1.
         -2   -1    0    0    0  501 -0.00000000000E+00 -0.00000000000E+00 -0.16536723295E+01  0.16536723295E+01  0.00000000000E+00 0. -1.
          2    1    1    2  502    0  0.13019585264E+02  0.16947553399E+02  0.45303467181E+03  0.45353846918E+03  0.00000000000E+00 0.  1.
         -2    1    1    2    0  502 -0.13019585264E+02 -0.16947553399E+02  0.80053811024E+02  0.82857358310E+02  0.00000000000E+00 0. -1.
</event>
<event>
 4    1  0.3196713E+003  0.2995389E+02  0.7546771E-02  0.1419998E+00
          2   -1    0    0  501    0  0.00000000000E+00  0.00000000000E+00  0.28064958065E+03  0.28064958065E+03  0.00000000000E+00 0. -1.
         -2   -1    0    0    0  501 -0.00000000000E+00 -0.00000000000E+00 -0.47500276983E+01  0.47500276983E+01  0.00000000000E+00 0. -1.
          2    1    1    2  502    0 -0.26066693598E+02  0.14756800696E+02  0.21954512817E+03  0.22157910322E+03  0.00000000000E+00 0. -1.
         -2    1    1    2    0  502  0.26066693598E+02 -0.14756800696E+02  0.56354424780E+02  0.63820505124E+02  0.00000000000E+00 0. -1.
</event>
<event>
 4    1  0.3196713E+003  0.2744841E+02  0.7546771E-02  0.1443155E+00
          2   -1    0    0  501    0  0.00000000000E+00  0.00000000000E+00  0.73944670070E+03  0.73944670070E+03  0.00000000000E+00 0. -1.
         -2   -1    0    0    0  501 -0.00000000000E+00 -0.00000000000E+00 -0.14251035350E+01  0.14251035350E+01  0.00000000000E+00 0. -1.
          2    1    1    2  502    0  0.25666581879E+02  0.97283966014E+01  0.56678373301E+03  0.56744798451E+03  0.00000000000E+00 0. -1.
         -2    1    1    2    0  502 -0.25666581879E+02 -0.97283966014E+01  0.17123786416E+03  0.17342381972E+03  0.00000000000E+00 0. -1.
</event>
<event>
 4    1  0.3196713E+003  0.2438552E+02  0.7546771E-02  0.1475796E+00
          2   -1    0    0  501    0  0.00000000000E+00  0.00000000000E+00  0.10278879210E+04  0.10278879210E+04  0.00000000000E+00 0.  1.
         -2   -1    0    0    0  501 -0.00000000000E+00 -0.00000000000E+00 -0.85039596930E+02  0.85039596930E+02  0.00000000000E+00 0. -1.
          2    1    1    2  502    0 -0.15955900615E+02  0.18440789813E+02  0.10259918944E+04  0.10262816480E+04  0.00000000000E+00 0.  1.
         -2    1    1    2    0  502  0.15955900615E+02 -0.18440789813E+02 -0.83143570354E+02  0.86645869980E+02  0.00000000000E+00 0. -1.
</event>
<event>
 4    1  0.3196713E+003  0.2081817E+02  0.7546771E-02  0.1521877E+00
          2   -1    0    0  501    0  0.00000000000E+00  0.00000000000E+00  0.10689396836E+02  0.10689396836E+02  0.00000000000E+00 0. -1.
         -2   -1    0    0    0  501 -0.00000000000E+00 -0.00000000000E+00 -0.41204765103E+02  0.41204765103E+02  0.00000000000E+00 0. -1.
          2    1    1    2  502    0 -0.77805696609E+01  0.19309539332E+02 -0.18542377038E+02  0.27878581737E+02  0.00000000000E+00 0. -1.
         -2    1    1    2    0  502  0.77805696609E+01 -0.19309539332E+02 -0.11972991229E+02  0.24015580202E+02  0.00000000000E+00 0. -1.
</event>
<event>
 4    1  0.3196713E+003  0.2381358E+02  0.7546771E-02  0.1482527E+00
          2   -1    0    0  501    0  0.00000000000E+00  0.00000000000E+00  0.70660088032E+03  0.70660088032E+03  0.00000000000E+00 0. -1.
         -2   -1    0    0    0  501 -0.00000000000E+00 -0.00000000000E+00 -0.14844829927E+01  0.14844829927E+01  0.00000000000E+00 0. -1.
          2    1    1    2  502    0 -0.15526742490E+02  0.18055664704E+02  0.59251715054E+03  0.59299549782E+03  0.00000000000E+00 0. -1.
         -2    1    1    2    0  502  0.15526742490E+02 -0.18055664704E+02  0.11259924679E+03  0.11508986549E+03  0.00000000000E+00 0. -1.
</event>
<event>
 4    1  0.3196713E+003  0.2779295E+02  0.7546771E-02  0.1439801E+00
          2   -1    0    0  501    0  0.00000000000E+00  0.00000000000E+00  0.25141848177E+02  0.25141848177E+02  0.00000000000E+00 0. -1.
         -2   -1    0    0    0  501 -0.00000000000E+00 -0.00000000000E+00 -0.32644397211E+02  0.32644397211E+02  0.00000000000E+00 0. -1.
          2    1    1    2  502    0 -0.20445396433E+02  0.18826415926E+02  0.32573134668E+01  0.27983178214E+02  0.00000000000E+00 0. -1.
         -2    1    1    2    0  502  0.20445396433E+02 -0.18826415926E+02 -0.10759862501E+02  0.29803067174E+02  0.00000000000E+00 0. -1.
</event>
<event>
 4    1  0.3196713E+003  0.2182925E+02  0.7546771E-02  0.1507747E+00
          2   -1    0    0  501    0  0.00000000000E+00  0.00000000000E+00  0.22309648046E+03  0.22309648046E+03  0.00000000000E+00 0. -1.
         -2   -1    0    0    0  501 -0.00000000000E+00 -0.00000000000E+00 -0.25779349513E+02  0.25779349513E+02  0.00000000000E+00 0. -1.
          2    1    1    2  502    0 -0.93161728781E+01 -0.19741450811E+02  0.21782995294E+03  0.21892100026E+03  0.00000000000E+00 0. -1.
         -2    1    1    2    0  502  0.93161728781E+01  0.19741450811E+02 -0.20512821991E+02  0.29954829715E+02  0.00000000000E+00 0. -1.
</event>
<event>
 4    1  0.3196713E+003  0.4270198E+02  0.7546771E-02  0.1333340E+00
          2   -1    0    0  501    0  0.00000000000E+00  0.00000000000E+00  0.93397108241E+03  0.93397108241E+03  0.00000000000E+00 0. -1.
         -2   -1    0    0    0  501 -0.00000000000E+00 -0.00000000000E+00 -0.19924598420E+01  0.19924598420E+01  0.00000000000E+00 0. -1.
          2    1    1    2  502    0 -0.22302510935E+02 -0.36415067107E+02  0.53236970330E+03  0.53407954472E+03  0.00000000000E+00 0. -1.
         -2    1    1    2    0  502  0.22302510935E+02  0.36415067107E+02  0.39960891927E+03  0.40188399753E+03  0.00000000000E+00 0. -1.
</event>
<event>
 4    1  0.3196713E+003  0.4373370E+02  0.7546771E-02  0.1327894E+00
          2   -1    0    0  501    0  0.00000000000E+00  0.00000000000E+00  0.46998560529E+03  0.46998560529E+03  0.00000000000E+00 0. -1.
         -2   -1    0    0    0  501 -0.00000000000E+00 -0.00000000000E+00 -0.10052062699E+03  0.10052062699E+03  0.00000000000E+00 0.  1.
          2    1    1    2  502    0 -0.39876369747E+02  0.17958598896E+02  0.46415173355E+03  0.46620753737E+03  0.00000000000E+00 0. -1.
         -2    1    1    2    0  502  0.39876369747E+02 -0.17958598896E+02 -0.94686755259E+02  0.10429869491E+03  0.00000000000E+00 0.  1.
</event>
<event>
 4    1  0.3196713E+003  0.3512543E+02  0.7546771E-02  0.1379684E+00
          2   -1    0    0  501    0  0.00000000000E+00  0.00000000000E+00  0.15354390239E+03  0.15354390239E+03  0.00000000000E+00 0.  1.
         -2   -1    0    0    0  501 -0.00000000000E+00 -0.00000000000E+00 -0.41472879563E+02  0.41472879563E+02  0.00000000000E+00 0.  1.
          2    1    1    2  502    0  0.36907853140E+01 -0.34930984891E+02  0.14358957029E+03  0.14782340917E+03  0.00000000000E+00 0.  1.
         -2    1    1    2    0  502 -0.36907853140E+01  0.34930984891E+02 -0.31518547457E+02  0.47193372792E+02  0.00000000000E+00 0.  1.
</event>
<event>
 4    1  0.3196713E+003  0.2312816E+02  0.7546771E-02  0.1490895E+00
          2   -1    0    0  501    0  0.00000000000E+00  0.00000000000E+00  0.22350454855E+03  0.22350454855E+03  0.00000000000E+00 0.  1.
         -2   -1    0    0    0  501 -0.00000000000E+00 -0.00000000000E+00 -0.57501507884E+01  0.57501507884E+01  0.00000000000E+00 0. -1.
          2    1    1    2  502    0  0.12805272885E+02  0.19259719970E+02  0.19645925137E+03  0.19781594799E+03  0.00000000000E+00 0.  1.
         -2    1    1    2    0  502 -0.12805272885E+02 -0.19259719970E+02  0.21295146389E+02  0.31438751354E+02  0.00000000000E+00 0. -1.
</event>
<event>
 4    1  0.3196713E+003  0.3347545E+02  0.7546771E-02  0.1391610E+00
          2   -1    0    0  501    0  0.00000000000E+00  0.00000000000E+00  0.60204681427E+03  0.60204681427E+03  0.00000000000E+00 0. -1.
         -2   -1    0    0    0  501 -0.00000000000E+00 -0.00000000000E+00 -0.10674829248E+03  0.10674829248E+03  0.00000000000E+00 0. -1.
          2    1    1    2  502    0 -0.23914227739E+02  0.23424676938E+02  0.59894348376E+03  0.59987823974E+03  0.00000000000E+00 0. -1.
         -2    1    1    2    0  502  0.23914227739E+02 -0.23424676938E+02 -0.10364496197E+03  0.10891686701E+03  0.00000000000E+00 0. -1.
</event>
<event>
 4    1  0.3196713E+003  0.2251531E+02  0.7546771E-02  0.1498676E+00
          2   -1    0    0  501    0  0.00000000000E+00  0.00000000000E+00  0.28630885014E+01  0.28630885014E+01  0.00000000000E+00 0.  1.
         -2   -1    0    0    0  501 -0.00000000000E+00 -0.00000000000E+00 -0.15011572813E+04  0.15011572813E+04  0.00000000000E+00 0.  1.
          2    1    1    2  502    0  0.22515172801E+02 -0.78285172474E-01 -0.42877466513E+02  0.48429497926E+02  0.00000000000E+00 0.  1.
         -2    1    1    2    0  502 -0.22515172801E+02  0.78285172474E-01 -0.14554167263E+04  0.14555908719E+04  0.00000000000E+00 0.  1.
</event>
<event>
 4    1  0.3196713E+003  0.2649684E+02  0.7546771E-02  0.1452729E+00
          2   -1    0    0  501    0  0.00000000000E+00  0.00000000000E+00  0.15261003351E+04  0.15261003351E+04  0.00000000000E+00 0. -1.
         -2   -1    0    0    0  501 -0.00000000000E+00 -0.00000000000E+00 -0.55066569786E+00  0.55066569786E+00  0.00000000000E+00 0. -1.
          2    1    1    2  502    0 -0.26400016452E+02 -0.22631367668E+01  0.10724220427E+04  0.10727493278E+04  0.00000000000E+00 0. -1.
         -2    1    1    2    0  502  0.26400016452E+02  0.22631367668E+01  0.45312762666E+03  0.45390167294E+03  0.00000000000E+00 0. -1.
</event>
<event>
 4    1  0.3196713E+003  0.2451045E+02  0.7546771E-02  0.1474355E+00
          2   -1    0    0  501    0  0.00000000000E+00  0.00000000000E+00  0.17503588450E+03  0.17503588450E+03  0.00000000000E+00 0. -1.
         -2   -1    0    0    0  501 -0.00000000000E+00 -0.00000000000E+00 -0.46324949575E+02  0.46324949575E+02  0.00000000000E+00 0. -1.
          2    1    1    2  502    0 -0.17462721594E+02  0.17199288117E+02  0.17085682342E+03  0.17260595664E+03  0.00000000000E+00 0. -1.
         -2    1    1    2    0  502  0.17462721594E+02 -0.17199288117E+02 -0.42145888494E+02  0.48754877440E+02  0.00000000000E+00 0. -1.
</event>
<event>
 4    1  0.3196713E+003  0.2735951E+02  0.7546771E-02  0.1444030E+00
          2   -1    0    0  501    0  0.00000000000E+00  0.00000000000E+00  0.70223906593E+02  0.70223906593E+02  0.00000000000E+00 0. -1.
         -2   -1    0    0    0  501 -0.00000000000E+00 -0.00000000000E+00 -0.70220344664E+02  0.70220344664E+02  0.00000000000E+00 0. -1.
          2    1    1    2  502    0  0.24191337527E+02 -0.12779743178E+02  0.64674837798E+02  0.70223765858E+02  0.00000000000E+00 0. -1.
         -2    1    1    2    0  502 -0.24191337527E+02  0.12779743178E+02 -0.64671275869E+02  0.70220485399E+02  0.00000000000E+00 0. -1.
</event>
<event>
 4    1  0.3196713E+003  0.3156494E+02  0.7546771E-02  0.1406468E+00
          2   -1    0    0  501    0  0.00000000000E+00  0.00000000000E+00  0.12971490593E+03  0.12971490593E+03  0.00000000000E+00 0. -1.
         -2   -1    0    0    0  501 -0.00000000000E+00 -0.00000000000E+00 -0.32364152507E+02  0.32364152507E+02  0.00000000000E+00 0.  1.
          2    1    1    2  502    0  0.66798557218E+01 -0.30850036043E+02  0.11944791366E+03  0.12354816580E+03  0.00000000000E+00 0. -1.
         -2    1    1    2    0  502 -0.66798557218E+01  0.30850036043E+02 -0.22097160237E+02  0.38530892630E+02  0.00000000000E+00 0.  1.
</event>
<event>
 4    1  0.3196713E+003  0.4442432E+02  0.7546771E-02  0.1324343E+00
          2   -1    0    0  501    0  0.00000000000E+00  0.00000000000E+00  0.10562207322E+03  0.10562207322E+03  0.00000000000E+00 0.  1.
         -2   -1    0    0    0  501 -0.00000000000E+00 -0.00000000000E+00 -0.23775764370E+02  0.23775764370E+02  0.00000000000E+00 0.  1.
          2    1    1    2  502    0 -0.38293112715E+02 -0.22520170262E+02  0.70861826899E+02  0.83635632726E+02  0.00000000000E+00 0.  1.
         -2    1    1    2    0  502  0.38293112715E+02  0.22520170262E+02  0.10984481947E+02  0.45762204860E+02  0.00000000000E+00 0.  1.
</event>
<event>
 4    1  0.3196713E+003  0.3355220E+02  0.7546771E-02  0.1391038E+00
          2   -1    0    0  501    0  0.00000000000E+00  0.00000000000E+00  0.58446108200E+03  0.58446108200E+03  0.00000000000E+00 0. -1.
         -2   -1    0    0    0  501 -0.00000000000E+00 -0.00000000000E+00 -0.24763659652E+01  0.24763659652E+01  0.00000000000E+00 0.  1.
          2    1    1    2  502    0 -0.31919580802E+02  0.10338774908E+02  0.42932594142E+03  0.43063501238E+03  0.00000000000E+00 0. -1.
         -2    1    1    2    0  502  0.31919580802E+02 -0.10338774908E+02  0.15265877461E+03  0.15630243559E+03  0.00000000000E+00 0.  1.
</event>
<event>
 4    1  0.3196713E+003  0.2471811E+02  0.7546771E-02  0.1471982E+00
          2   -1    0    0  501    0  0.00000000000E+00  0.00000000000E+00  0.16867756268E+02  0.16867756268E+02  0.00000000000E+00 0. -1.
         -2   -1    0    0    0  501 -0.00000000000E+00 -0.00000000000E+00 -0.13108212330E+03  0.13108212330E+03  0.00000000000E+00 0.  1.
          2    1    1    2  502    0 -0.21037993577E+02 -0.12976433745E+02  0.58223589759E+01  0.25394583488E+02  0.00000000000E+00 0. -1.
         -2    1    1    2    0  502  0.21037993577E+02  0.12976433745E+02 -0.12003672601E+03  0.12255529608E+03  0.00000000000E+00 0.  1.
</event>
<event>
 4    1  0.3196713E+003  0.2306206E+02  0.7546771E-02  0.1491720E+00
          2   -1    0    0  501    0  0.00000000000E+00  0.00000000000E+00  0.15299597370E+04  0.15299597370E+04  0.00000000000E+00 0.  1.
         -2   -1    0    0    0  501 -0.00000000000E+00 -0.00000000000E+00 -0.71156478227E+01  0.71156478227E+01  0.00000000000E+00 0.  1.
          2    1    1    2  502    0  0.13900485036E+02  0.18402039346E+02  0.15109515350E+04  0.15111275259E+04  0.00000000000E+00 0.  1.
         -2    1    1    2    0  502 -0.13900485036E+02 -0.18402039346E+02  0.11892554199E+02  0.25947858904E+02  0.00000000000E+00 0.  1.
</event>
<event>
 4    1  0.3196713E+003  0.2373390E+02  0.7546771E-02  0.1483483E+00
          2   -1    0    0  501    0  0.00000000000E+00  0.00000000000E+00  0.63695655833E+03  0.63695655833E+03  0.00000000000E+00 0. -1.
         -2   -1    0    0    0  501 -0.00000000000E+00 -0.00000000000E+00 -0.17975366486E+02  0.17975366486E+02  0.00000000000E+00 0. -1.
          2    1    1    2  502    0  0.39383049709E+01  0.23404864068E+02  0.62879957232E+03  0.62924732821E+03  0.00000000000E+00 0. -1.
         -2    1    1    2    0  502 -0.39383049709E+01 -0.23404864068E+02 -0.98183804710E+01  0.25684596613E+02  0.00000000000E+00 0. -1.
</event>
<event>
 4    1  0.3196713E+003  0.2369504E+02  0.7546771E-02  0.1483950E+00
          2   -1    0    0  501    0  0.00000000000E+00  0.00000000000E+00  0.15355365085E+04  0.15355365085E+04  0.00000000000E+00 0. -1.
         -2   -1    0    0    0  501 -0.00000000000E+00 -0.00000000000E+00 -0.49184052280E+02  0.49184052280E+02  0.00000000000E+00 0. -1.
          2    1    1    2  502    0  0.49015549716E+01  0.23182528246E+02  0.15325857579E+04  0.15327689194E+04  0.00000000000E+00 0. -1.
         -2    1    1    2    0  502 -0.49015549716E+01 -0.23182528246E+02 -0.46233301703E+02  0.51951641392E+02  0.00000000000E+00 0. -1.
</event>
<event>
 4    1  0.3196713E+003  0.2245006E+02  0.7546771E-02  0.1499522E+00
          2   -1    0    0  501    0  0.00000000000E+00  0.00000000000E+00  0.12728933827E+03  0.12728933827E+03  0.00000000000E+00 0. -1.
         -2   -1    0    0    0  501 -0.00000000000E+00 -0.00000000000E+00 -0.27445321160E+02  0.27445321160E+02  0.00000000000E+00 0. -1.
          2    1    1    2  502    0 -0.10257423633E+02  0.19969736979E+02  0.12149119921E+03  0.12354803365E+03  0.00000000000E+00 0. -1.
         -2    1    1    2    0  502  0.10257423633E+02 -0.19969736979E+02 -0.21647182098E+02  0.31186625777E+02  0.00000000000E+00 0. -1.
</event>
<event>
 4    1  0.3196713E+003  0.6357008E+02  0.7546771E-02  0.1248162E+00
          2   -1    0    0  501    0  0.00000000000E+00  0.00000000000E+00  0.78672137762E+02  0.78672137762E+02  0.00000000000E+00 0.  1.
         -2   -1    0    0    0  501 -0.00000000000E+00 -0.00000000000E+00 -0.55593975740E+02  0.55593975740E+02  0.00000000000E+00 0.  1.
          2    1    1    2  502    0 -0.21005826666E+01  0.63535363831E+02  0.30050313741E+02  0.70314836703E+02  0.00000000000E+00 0.  1.
         -2    1    1    2    0  502  0.21005826666E+01 -0.63535363831E+02 -0.69721517190E+01  0.63951276799E+02  0.00000000000E+00 0.  1.
</event>
<event>
 4    1  0.3196713E+003  0.2677576E+02  0.7546771E-02  0.1449874E+00
          2   -1    0    0  501    0  0.00000000000E+00  0.00000000000E+00  0.18341277716E+04  0.18341277716E+04  0.00000000000E+00 0. -1.
         -2   -1    0    0    0  501 -0.00000000000E+00 -0.00000000000E+00 -0.11156780489E+01  0.11156780489E+01  0.00000000000E+00 0.  1.
          2    1    1    2  502    0 -0.23403098807E+02 -0.13009081631E+02  0.16561111727E+04  0.16563276118E+04  0.00000000000E+00 0. -1.
         -2    1    1    2    0  502  0.23403098807E+02  0.13009081631E+02  0.17690092089E+03  0.17891583789E+03  0.00000000000E+00 0.  1.
</event>
<event>
 4    1  0.3196713E+003  0.2582804E+02  0.7546771E-02  0.1459750E+00
          2   -1    0    0  501    0  0.00000000000E+00  0.00000000000E+00  0.63604481680E+03  0.63604481680E+03  0.00000000000E+00 0.  1.
         -2   -1    0    0    0  501 -0.00000000000E+00 -0.00000000000E+00 -0.48896007007E+02  0.48896007007E+02  0.00000000000E+00 0.  1.
          2    1    1    2  502    0  0.12435754489E+02 -0.22637130691E+02  0.63235195803E+03  0.63287920372E+03  0.00000000000E+00 0.  1.
         -2    1    1    2    0  502 -0.12435754489E+02  0.22637130691E+02 -0.45203148237E+02  0.52061620088E+02  0.00000000000E+00 0.  1.
</event>
<event>
 4    1  0.3196713E+003  0.2107912E+02  0.7546771E-02  0.1518138E+00
          2   -1    0    0  501    0  0.00000000000E+00  0.00000000000E+00  0.88108566106E+02  0.88108566106E+02  0.00000000000E+00 0. -1.
         -2   -1    0    0    0  501 -0.00000000000E+00 -0.00000000000E+00 -0.24097700507E+03  0.24097700507E+03  0.00000000000E+00 0.  1.
          2    1    1    2  502    0 -0.98520939431E+01  0.18635061999E+02  0.86377752739E+02  0.88912571996E+02  0.00000000000E+00 0. -1.
         -2    1    1    2    0  502  0.98520939431E+01 -0.18635061999E+02 -0.23924619171E+03  0.24017299918E+03  0.00000000000E+00 0.  1.
</event>
<event>
 4    1  0.3196713E+003  0.2678823E+02  0.7546771E-02  0.1449747E+00
          2   -1    0    0  501    0  0.00000000000E+00  0.00000000000E+00  0.10986013000E+04  0.10986013000E+04  0.00000000000E+00 0.  1.
         -2   -1    0    0    0  501 -0.00000000000E+00 -0.00000000000E+00 -0.20601681840E+03  0.20601681840E+03  0.00000000000E+00 0.  1.
          2    1    1    2  502    0  0.24403343060E+02  0.11049259141E+02  0.10975663644E+04  0.10978932250E+04  0.00000000000E+00 0.  1.
         -2    1    1    2    0  502 -0.24403343060E+02 -0.11049259141E+02 -0.20498188278E+03  0.20672489340E+03  0.00000000000E+00 0.  1.
</event>
<event>
 4    1  0.3196713E+003  0.5292515E+02  0.7546771E-02  0.1285965E+00
          2   -1    0    0  501    0  0.00000000000E+00  0.00000000000E+00  0.25757628124E+03  0.25757628124E+03  0.00000000000E+00 0. -1.
         -2   -1    0    0    0  501 -0.00000000000E+00 -0.00000000000E+00 -0.25235532331E+03  0.25235532331E+03  0.00000000000E+00 0.  1.
          2    1    1    2  502    0  0.51801311114E+02  0.10848767825E+02  0.25202217691E+03  0.25751941529E+03  0.00000000000E+00 0. -1.
         -2    1    1    2    0  502 -0.51801311114E+02 -0.10848767825E+02 -0.24680121899E+03  0.25241218926E+03  0.00000000000E+00 0.  1.
</event>
<event>
 4    1  0.3196713E+003  0.7138585E+02  0.7546771E-02  0.1225395E+00
          2   -1    0    0  501    0  0.00000000000E+00  0.00000000000E+00  0.20767813006E+04  0.20767813006E+04  0.00000000000E+00 0. -1.
         -2   -1    0    0    0  501 -0.00000000000E+00 -0.00000000000E+00 -0.31220604968E+01  0.31220604968E+01  0.00000000000E+00 0.  1.
          2    1    1    2  502    0  0.30988173833E+02 -0.64309196366E+02  0.15179743930E+04  0.15196519988E+04  0.00000000000E+00 0. -1.
         -2    1    1    2    0  502 -0.30988173833E+02  0.64309196366E+02  0.55568484711E+03  0.56025136230E+03  0.00000000000E+00 0.  1.
</event>
<event>
 4    1  0.3196713E+003  0.2618012E+02  0.7546771E-02  0.1456022E+00
          2   -1    0    0  501    0  0.00000000000E+00  0.00000000000E+00  0.29343264807E+01  0.29343264807E+01  0.00000000000E+00 0. -1.
         -2   -1    0    0    0  501 -0.00000000000E+00 -0.00000000000E+00 -0.92375912730E+03  0.92375912730E+03  0.00000000000E+00 0.  1.
          2    1    1    2  502    0 -0.21182022924E+02 -0.15385728624E+02 -0.59907557836E+02  0.65378239700E+02  0.00000000000E+00 0. -1.
         -2    1    1    2    0  502  0.21182022924E+02  0.15385728624E+02 -0.86091724299E+03  0.86131521408E+03  0.00000000000E+00 0.  1.
</event>
<event>
 4    1  0.3196713E+003  0.2117075E+02  0.7546771E-02  0.1516841E+00
          2   -1    0    0  501    0  0.00000000000E+00  0.00000000000E+00  0.47613335598E+01  0.47613335598E+01  0.00000000000E+00 0. -1.
         -2   -1    0    0    0  501 -0.00000000000E+00 -0.00000000000E+00 -0.98282359149E+02  0.98282359149E+02  0.00000000000E+00 0.  1.
          2    1    1    2  502    0 -0.20880143908E+02  0.34957457247E+01 -0.36174759500E+02  0.41914363561E+02  0.00000000000E+00 0. -1.
         -2    1    1    2    0  502  0.20880143908E+02 -0.34957457247E+01 -0.57346266089E+02  0.61129329148E+02  0.00000000000E+00 0.  1.
</event>
<event>
 4    1  0.3196713E+003  0.2349191E+02  0.7546771E-02  0.1486412E+00
          2   -1    0    0  501    0  0.00000000000E+00  0.00000000000E+00  0.83790551244E+03  0.83790551244E+03  0.00000000000E+00 0.  1.
         -2   -1    0    0    0  501 -0.00000000000E+00 -0.00000000000E+00 -0.23302469306E+03  0.23302469306E+03  0.00000000000E+00 0.  1.
          2    1    1    2  502    0 -0.15660997732E+02  0.17510079392E+02  0.83714824731E+03  0.83747779535E+03  0.00000000000E+00 0.  1.
         -2    1    1    2    0  502  0.15660997732E+02 -0.17510079392E+02 -0.23226742793E+03  0.23345241015E+03  0.00000000000E+00 0.  1.
</event>
<event>
 4    1  0.3196713E+003  0.2179610E+02  0.7546771E-02  0.1508195E+00
          2   -1    0    0  501    0  0.00000000000E+00  0.00000000000E+00  0.17688491946E+03  0.17688491946E+03  0.00000000000E+00 0.  1.
         -2   -1    0    0    0  501 -0.00000000000E+00 -0.00000000000E+00 -0.10249623076E+03  0.10249623076E+03  0.00000000000E+00 0. -1.
          2    1    1    2  502    0  0.15473570657E+02 -0.15350523423E+02  0.17504258128E+03  0.17639437412E+03  0.00000000000E+00 0.  1.
         -2    1    1    2    0  502 -0.15473570657E+02  0.15350523423E+02 -0.10065389259E+03  0.10298677610E+03  0.00000000000E+00 0. -1.
</event>
<event>
 4    1  0.3196713E+003  0.2014707E+02  0.7546771E-02  0.1531799E+00
          2   -1    0    0  501    0  0.00000000000E+00  0.00000000000E+00  0.10401470738E+03  0.10401470738E+03  0.00000000000E+00 0.  1.
         -2   -1    0    0    0  501 -0.00000000000E+00 -0.00000000000E+00 -0.21627899426E+02  0.21627899426E+02  0.00000000000E+00 0.  1.
          2    1    1    2  502    0  0.22847166131E+01  0.20017108692E+02  0.98065508292E+02  0.10011367782E+03  0.00000000000E+00 0.  1.
         -2    1    1    2    0  502 -0.22847166131E+01 -0.20017108692E+02 -0.15678700343E+02  0.25528928979E+02  0.00000000000E+00 0.  1.
</event>
<event>
 4    1  0.3196713E+003  0.3183527E+02  0.7546771E-02  0.1404291E+00
          2   -1    0    0  501    0  0.00000000000E+00  0.00000000000E+00  0.43155978196E+03  0.43155978196E+03  0.00000000000E+00 0.  1.
         -2   -1    0    0    0  501 -0.00000000000E+00 -0.00000000000E+00 -0.25503670434E+02  0.25503670434E+02  0.00000000000E+00 0.  1.
          2    1    1    2  502    0  0.20227000919E+02  0.24583594780E+02  0.42078392729E+03  0.42198649050E+03  0.00000000000E+00 0.  1.
         -2    1    1    2    0  502 -0.20227000919E+02 -0.24583594780E+02 -0.14727815765E+02  0.35076961893E+02  0.00000000000E+00 0.  1.
</event>
<event>
 4    1  0.3196713E+003  0.4144700E+02  0.7546771E-02  0.1340209E+00
          2   -1    0    0  501    0  0.00000000000E+00  0.00000000000E+00  0.21218699289E+04  0.21218699289E+04  0.00000000000E+00 0.  1.
         -2   -1    0    0    0  501 -0.00000000000E+00 -0.00000000000E+00 -0.10641515392E+02  0.10641515392E+02  0.00000000000E+00 0.  1.
          2    1    1    2  502    0 -0.41410527927E+02 -0.17384861154E+01  0.20805079091E+04  0.20809207131E+04  0.00000000000E+00 0.  1.
         -2    1    1    2    0  502  0.41410527927E+02  0.17384861154E+01  0.30720504353E+02  0.51590731192E+02  0.00000000000E+00 0.  1.
</event>
<event>
 4    1  0.3196713E+003  0.3039252E+02  0.7546771E-02  0.1416216E+00
          2   -1    0    0  501    0  0.00000000000E+00  0.00000000000E+00  0.29837902988E+03  0.29837902988E+03  0.00000000000E+00 0.  1.
         -2   -1    0    0    0  501 -0.00000000000E+00 -0.00000000000E+00 -0.21551059083E+02  0.21551059083E+02  0.00000000000E+00 0.  1.
          2    1    1    2  502    0  0.21571992425E+02  0.21409207166E+02  0.28644459163E+03  0.28805244155E+03  0.00000000000E+00 0.  1.
         -2    1    1    2    0  502 -0.21571992425E+02 -0.21409207166E+02 -0.96166208288E+01  0.31877647417E+02  0.00000000000E+00 0.  1.
</event>
<event>
 4    1  0.3196713E+003  0.2019678E+02  0.7546771E-02  0.1531049E+00
          2   -1    0    0  501    0  0.00000000000E+00  0.00000000000E+00  0.35203646309E+02  0.35203646309E+02  0.00000000000E+00 0. -1.
         -2   -1    0    0    0  501 -0.00000000000E+00 -0.00000000000E+00 -0.22152374624E+02  0.22152374624E+02  0.00000000000E+00 0. -1.
          2    1    1    2  502    0 -0.11773258086E+01  0.20162433320E+02  0.26330793821E+02  0.33184642784E+02  0.00000000000E+00 0. -1.
         -2    1    1    2    0  502  0.11773258086E+01 -0.20162433320E+02 -0.13279522136E+02  0.24171378149E+02  0.00000000000E+00 0. -1.
</event>
<event>
 4    1  0.3196713E+003  0.2531641E+02  0.7546771E-02  0.1465295E+00
          2   -1    0    0  501    0  0.00000000000E+00  0.00000000000E+00  0.18536976487E+03  0.18536976487E+03  0.00000000000E+00 0. -1.
         -2   -1    0    0    0  501 -0.00000000000E+00 -0.00000000000E+00 -0.44618775480E+01  0.44618775480E+01  0.00000000000E+00 0. -1.
          2    1    1    2  502    0  0.24321668047E+02  0.70268995612E+01  0.13548608286E+03  0.13783105421E+03  0.00000000000E+00 0. -1.
         -2    1    1    2    0  502 -0.24321668047E+02 -0.70268995612E+01  0.45421804456E+02  0.52000588209E+02  0.00000000000E+00 0. -1.
</event>
<event>
 4    1  0.3196713E+003  0.4212337E+02  0.7546771E-02  0.1336473E+00
          2   -1    0    0  501    0  0.00000000000E+00  0.00000000000E+00  0.22634089978E+02  0.22634089978E+02  0.00000000000E+00 0. -1.
         -2   -1    0    0    0  501 -0.00000000000E+00 -0.00000000000E+00 -0.32067342981E+03  0.32067342981E+03  0.00000000000E+00 0.  1.
          2    1    1    2  502    0 -0.36005984885E+02 -0.21862010828E+02  0.18418352857E+00  0.42123774624E+02  0.00000000000E+00 0. -1.
         -2    1    1    2    0  502  0.36005984885E+02  0.21862010828E+02 -0.29822352336E+03  0.30118374517E+03  0.00000000000E+00 0.  1.
</event>
<event>
 4    1  0.3196713E+003  0.2681603E+02  0.7546771E-02  0.1449465E+00
          2   -1    0    0  501    0  0.00000000000E+00  0.00000000000E+00  0.17014470740E+03  0.17014470740E+03  0.00000000000E+00 0. -1.
         -2   -1    0    0    0  501 -0.00000000000E+00 -0.00000000000E+00 -0.10765781211E+02  0.10765781211E+02  0.00000000000E+00 0. -1.
          2    1    1    2  502    0 -0.19129482599E+02 -0.18792614956E+02  0.15018787359E+03  0.15256309139E+03  0.00000000000E+00 0. -1.
         -2    1    1    2    0  502  0.19129482599E+02  0.18792614956E+02  0.91910526020E+01  0.28347397223E+02  0.00000000000E+00 0. -1.
</event>
<event>
 4    1  0.3196713E+003  0.2332753E+02  0.7546771E-02  0.1488426E+00
          2   -1    0    0  501    0  0.00000000000E+00  0.00000000000E+00  0.64089651491E+02  0.64089651491E+02  0.00000000000E+00 0.  1.
         -2   -1    0    0    0  501 -0.00000000000E+00 -0.00000000000E+00 -0.15866695577E+02  0.15866695577E+02  0.00000000000E+00 0.  1.
          2    1    1    2  502    0 -0.29700672680E+01 -0.23137681284E+02  0.51369010613E+02  0.56417628859E+02  0.00000000000E+00 0.  1.
         -2    1    1    2    0  502  0.29700672680E+01  0.23137681284E+02 -0.31460546981E+01  0.23538718209E+02  0.00000000000E+00 0.  1.
</event>
<event>
 4    1  0.3196713E+003  0.2113785E+02  0.7546771E-02  0.1517306E+00
          2   -1    0    0  501    0  0.00000000000E+00  0.00000000000E+00  0.15749108286E+02  0.15749108286E+02  0.00000000000E+00 0. -1.
         -2   -1    0    0    0  501 -0.00000000000E+00 -0.00000000000E+00 -0.90532507207E+02  0.90532507207E+02  0.00000000000E+00 0. -1.
          2    1    1    2  502    0  0.20947521892E+02  0.28301670450E+01  0.66423613351E+01  0.22156928556E+02  0.00000000000E+00 0. -1.
         -2    1    1    2    0  502 -0.20947521892E+02 -0.28301670450E+01 -0.81425760256E+02  0.84124686937E+02  0.00000000000E+00 0. -1.
</event>
<event>
 4    1  0.3196713E+003  0.2249840E+02  0.7546771E-02  0.1498895E+00
          2   -1    0    0  501    0  0.00000000000E+00  0.00000000000E+00  0.11018913001E+04  0.11018913001E+04  0.00000000000E+00 0.  1.
         -2   -1    0    0    0  501 -0.00000000000E+00 -0.00000000000E+00 -0.68939943029E+01  0.68939943029E+01  0.00000000000E+00 0.  1.
          2    1    1    2  502    0 -0.10163025906E+01  0.22475430477E+02  0.10831023136E+04  0.10833359588E+04  0.00000000000E+00 0.  1.
         -2    1    1    2    0  502  0.10163025906E+01 -0.22475430477E+02  0.11894992252E+02  0.25449335684E+02  0.00000000000E+00 0.  1.
</event>
<event>
 4    1  0.3196713E+003  0.2515634E+02  0.7546771E-02  0.1467062E+00
          2   -1    0    0  501    0  0.00000000000E+00  0.00000000000E+00  0.99484980423E+02  0.99484980423E+02  0.00000000000E+00 0. -1.
         -2   -1    0    0    0  501 -0.00000000000E+00 -0.00000000000E+00 -0.66193115288E+01  0.66193115288E+01  0.00000000000E+00 0. -1.
          2    1    1    2  502    0  0.17154017307E+02  0.18400575998E+02  0.56909428697E+02  0.62221576495E+02  0.00000000000E+00 0. -1.
         -2    1    1    2    0  502 -0.17154017307E+02 -0.18400575998E+02  0.35956240197E+02  0.43882715457E+02  0.00000000000E+00 0. -1.
</event>
<event>
 4    1  0.3196713E+003  0.5248412E+02  0.7546771E-02  0.1287747E+00
          2   -1    0    0  501    0  0.00000000000E+00  0.00000000000E+00  0.16626645317E+03  0.16626645317E+03  0.00000000000E+00 0.  1.
         -2   -1    0    0    0  501 -0.00000000000E+00 -0.00000000000E+00 -0.16879461912E+02  0.16879461912E+02  0.00000000000E+00 0.  1.
          2    1    1    2  502    0 -0.41484050921E+02 -0.32150527064E+02  0.87147008212E+02  0.10173093881E+03  0.00000000000E+00 0.  1.
         -2    1    1    2    0  502  0.41484050921E+02  0.32150527064E+02  0.62239983042E+02  0.81414976266E+02  0.00000000000E+00 0.  1.
</event>
<event>
 4    1  0.3196713E+003  0.3021412E+02  0.7546771E-02  0.1417745E+00
          2   -1    0    0  501    0  0.00000000000E+00  0.00000000000E+00  0.48931730414E+02  0.48931730414E+02  0.00000000000E+00 0. -1.
         -2   -1    0    0    0  501 -0.00000000000E+00 -0.00000000000E+00 -0.34894995335E+02  0.34894995335E+02  0.00000000000E+00 0. -1.
          2    1    1    2  502    0  0.69887721536E+01  0.29394731567E+02  0.35610350609E+02  0.46701073335E+02  0.00000000000E+00 0. -1.
         -2    1    1    2    0  502 -0.69887721536E+01 -0.29394731567E+02 -0.21573615531E+02  0.37125652414E+02  0.00000000000E+00 0. -1.
</event>
<event>
 4    1  0.3196713E+003  0.2677363E+02  0.7546771E-02  0.1449895E+00
          2   -1    0    0  501    0  0.00000000000E+00  0.00000000000E+00  0.19671739227E+03  0.19671739227E+03  0.00000000000E+00 0.  1.
         -2   -1    0    0    0  501 -0.00000000000E+00 -0.00000000000E+00 -0.57137356006E+01  0.57137356006E+01  0.00000000000E+00 0.  1.
          2    1    1    2  502    0 -0.25420329106E+02 -0.84044111061E+01  0.15642050882E+03  0.15869531448E+03  0.00000000000E+00 0.  1.
         -2    1    1    2    0  502  0.25420329106E+02  0.84044111061E+01  0.34583147851E+02  0.43735813393E+02  0.00000000000E+00 0.  1.
</event>
<event>
 4    1  0.3196713E+003  0.2409444E+02  0.7546771E-02  0.1479194E+00
          2   -1    0    0  501    0  0.00000000000E+00  0.00000000000E+00  0.27802482423E+04  0.27802482423E+04  0.00000000000E+00 0. -1.
         -2   -1    0    0    0  501 -0.00000000000E+00 -0.00000000000E+00 -0.21384252259E+00  0.21384252259E+00  0.00000000000E+00 0. -1.
          2    1    1    2  502    0  0.79608952231E+01  0.22741275070E+02  0.11767290076E+04  0.11769756577E+04  0.00000000000E+00 0. -1.
         -2    1    1    2    0  502 -0.79608952231E+01 -0.22741275070E+02  0.16033053922E+04  0.16034864272E+04  0.00000000000E+00 0. -1.
</event>
<event>
 4    1  0.3196713E+003  0.2746048E+02  0.7546771E-02  0.1443037E+00
          2   -1    0    0  501    0  0.00000000000E+00  0.00000000000E+00  0.11342567166E+04  0.11342567166E+04  0.00000000000E+00 0. -1.
         -2   -1    0    0    0  501 -0.00000000000E+00 -0.00000000000E+00 -0.39099293622E+01  0.39099293622E+01  0.00000000000E+00 0. -1.
          2    1    1    2  502    0  0.21968902711E+02  0.16475593521E+02  0.10836223374E+04  0.10839702247E+04  0.00000000000E+00 0. -1.
         -2    1    1    2    0  502 -0.21968902711E+02 -0.16475593521E+02  0.46724449866E+02  0.54196421317E+02  0.00000000000E+00 0. -1.
</event>
<event>
 4    1  0.3196713E+003  0.2156024E+02  0.7546771E-02  0.1511414E+00
          2   -1    0    0  501    0  0.00000000000E+00  0.00000000000E+00  0.77544297224E+02  0.77544297224E+02  0.00000000000E+00 0. -1.
         -2   -1    0    0    0  501 -0.00000000000E+00 -0.00000000000E+00 -0.25954492848E+02  0.25954492848E+02  0.00000000000E+00 0.  1.
          2    1    1    2  502    0 -0.16141494945E+02 -0.14293216131E+02  0.71176371127E+02  0.74370153242E+02  0.00000000000E+00 0. -1.
         -2    1    1    2    0  502  0.16141494945E+02  0.14293216131E+02 -0.19586566751E+02  0.29128636829E+02  0.00000000000E+00 0.  1.
</event>
<event>
 4    1  0.3196713E+003  0.2575755E+02  0.7546771E-02  0.1460504E+00
          2   -1    0    0  501    0  0.00000000000E+00  0.00000000000E+00  0.60134467615E+03  0.60134467615E+03  0.00000000000E+00 0. -1.
         -2   -1    0    0    0  501 -0.00000000000E+00 -0.00000000000E+00 -0.84010036954E+01  0.84010036954E+01  0.00000000000E+00 0.  1.
          2    1    1    2  502    0 -0.22878438468E+02 -0.11833365198E+02  0.58062131271E+03  0.58119236080E+03  0.00000000000E+00 0. -1.
         -2    1    1    2    0  502  0.22878438468E+02  0.11833365198E+02  0.12322359737E+02  0.28553319039E+02  0.00000000000E+00 0.  1.
</event>
<event>
 4    1  0.3196713E+003  0.2038875E+02  0.7546771E-02  0.1528174E+00
          2   -1    0    0  501    0  0.00000000000E+00  0.00000000000E+00  0.13105684999E+03  0.13105684999E+03  0.00000000000E+00 0.  1.
         -2   -1    0    0    0  501 -0.00000000000E+00 -0.00000000000E+00 -0.10466735817E+02  0.10466735817E+02  0.00000000000E+00 0.  1.
          2    1    1    2  502    0 -0.21684136434E+01  0.20273117448E+02  0.11936961549E+03  0.12109833365E+03  0.00000000000E+00 0.  1.
         -2    1    1    2    0  502  0.21684136434E+01 -0.20273117448E+02  0.12204986776E+01  0.20425252160E+02  0.00000000000E+00 0.  1.
</event>
<event>
 4    1  0.3196713E+003  0.4938675E+02  0.7546771E-02  0.1300853E+00
          2   -1    0    0  501    0  0.00000000000E+00  0.00000000000E+00  0.35275987396E+03  0.35275987396E+03  0.00000000000E+00 0.  1.
         -2   -1    0    0    0  501 -0.00000000000E+00 -0.00000000000E+00 -0.89841440994E+02  0.89841440994E+02  0.00000000000E+00 0.  1.
          2    1    1    2  502    0 -0.84578985698E+01 -0.48657114839E+02  0.34407376017E+03  0.34760006230E+03  0.00000000000E+00 0.  1.
         -2    1    1    2    0  502  0.84578985698E+01  0.48657114839E+02 -0.81155327204E+02  0.95001252656E+02  0.00000000000E+00 0.  1.
</event>
<event>
 4    1  0.3196713E+003  0.2003007E+02  0.7546771E-02  0.1533576E+00
          2   -1    0    0  501    0  0.00000000000E+00  0.00000000000E+00  0.22292200340E+02  0.22292200340E+02  0.00000000000E+00 0. -1.
         -2   -1    0    0    0  501 -0.00000000000E+00 -0.00000000000E+00 -0.24050802846E+02  0.24050802846E+02  0.00000000000E+00 0. -1.
          2    1    1    2  502    0 -0.19121184688E+02  0.59652464469E+01  0.10745501725E+02  0.22730369033E+02  0.00000000000E+00 0. -1.
         -2    1    1    2    0  502  0.19121184688E+02 -0.59652464469E+01 -0.12504104230E+02  0.23612634153E+02  0.00000000000E+00 0. -1.
</event>
<event>
 4    1  0.3196713E+003  0.2826534E+02  0.7546771E-02  0.1435295E+00
          2   -1    0    0  501    0  0.00000000000E+00  0.00000000000E+00  0.22718109410E+03  0.22718109410E+03  0.00000000000E+00 0.  1.
         -2   -1    0    0    0  501 -0.00000000000E+00 -0.00000000000E+00 -0.43580000480E+01  0.43580000480E+01  0.00000000000E+00 0. -1.
          2    1    1    2  502    0  0.27696852929E+02  0.56403679091E+01  0.16227716101E+03  0.16472038853E+03  0.00000000000E+00 0.  1.
         -2    1    1    2    0  502 -0.27696852929E+02 -0.56403679091E+01  0.60545933037E+02  0.66818705611E+02  0.00000000000E+00 0. -1.
</event>
<event>
 4    1  0.3196713E+003  0.3034342E+02  0.7546771E-02  0.1416635E+00
          2   -1    0    0  501    0  0.00000000000E+00  0.00000000000E+00  0.16728068800E+04  0.16728068800E+04  0.00000000000E+00 0.  1.
         -2   -1    0    0    0  501 -0.00000000000E+00 -0.00000000000E+00 -0.41360114371E+02  0.41360114371E+02  0.00000000000E+00 0. -1.
          2    1    1    2  502    0  0.17564525092E+02  0.24742886083E+02  0.16670848953E+04  0.16673610200E+04  0.00000000000E+00 0.  1.
         -2    1    1    2    0  502 -0.17564525092E+02 -0.24742886083E+02 -0.35638129639E+02  0.46805974380E+02  0.00000000000E+00 0. -1.
</event>
<event>
 4    1  0.3196713E+003  0.2136343E+02  0.7546771E-02  0.1514139E+00
          2   -1    0    0  501    0  0.00000000000E+00  0.00000000000E+00  0.18117060355E+04  0.18117060355E+04  0.00000000000E+00 0. -1.
         -2   -1    0    0    0  501 -0.00000000000E+00 -0.00000000000E+00 -0.55566593404E+00  0.55566593404E+00  0.00000000000E+00 0.  1.
          2    1    1    2  502    0 -0.21329333064E+02  0.12064514958E+01  0.15755258500E+04  0.15756706826E+04  0.00000000000E+00 0. -1.
         -2    1    1    2    0  502  0.21329333064E+02 -0.12064514958E+01  0.23562451956E+03  0.23659101883E+03  0.00000000000E+00 0.  1.
</event>
<event>
 4    1  0.3196713E+003  0.2648461E+02  0.7546771E-02  0.1452855E+00
          2   -1    0    0  501    0  0.00000000000E+00  0.00000000000E+00  0.11119054242E+04  0.11119054242E+04  0.00000000000E+00 0. -1.
         -2   -1    0    0    0  501 -0.00000000000E+00 -0.00000000000E+00 -0.14216112106E+02  0.14216112106E+02  0.00000000000E+00 0. -1.
          2    1    1    2  502    0  0.26161111114E+02  0.41268335306E+01  0.10992707553E+04  0.10995897543E+04  0.00000000000E+00 0. -1.
         -2    1    1    2    0  502 -0.26161111114E+02 -0.41268335306E+01 -0.15814431983E+01  0.26531781929E+02  0.00000000000E+00 0. -1.
</event>
<event>
 4    1  0.3196713E+003  0.2413631E+02  0.7546771E-02  0.1478702E+00
          2   -1    0    0  501    0  0.00000000000E+00  0.00000000000E+00  0.28423910396E+03  0.28423910396E+03  0.00000000000E+00 0.  1.
         -2   -1    0    0    0  501 -0.00000000000E+00 -0.00000000000E+00 -0.37471580493E+01  0.37471580493E+01  0.00000000000E+00 0.  1.
          2    1    1    2  502    0 -0.14408678702E+02  0.19363661875E+02  0.23716518106E+03  0.23839019386E+03  0.00000000000E+00 0.  1.
         -2    1    1    2    0  502  0.14408678702E+02 -0.19363661875E+02  0.43326764855E+02  0.49596068150E+02  0.00000000000E+00 0.  1.
</event>
<event>
 4    1  0.3196713E+003  0.2174474E+02  0.7546771E-02  0.1508892E+00
          2   -1    0    0  501    0  0.00000000000E+00  0.00000000000E+00  0.20124558157E+03  0.20124558157E+03  0.00000000000E+00 0.  1.
         -2   -1    0    0    0  501 -0.00000000000E+00 -0.00000000000E+00 -0.23641847424E+01  0.23641847424E+01  0.00000000000E+00 0.  1.
          2    1    1    2  502    0 -0.15510129286E+02 -0.15240382846E+02  0.91426602879E+02  0.93976896596E+02  0.00000000000E+00 0.  1.
         -2    1    1    2    0  502  0.15510129286E+02  0.15240382846E+02  0.10745479394E+03  0.10963286971E+03  0.00000000000E+00 0.  1.
</event>
<event>
 4    1  0.3196713E+003  0.2215133E+02  0.7546771E-02  0.1503439E+00
          2   -1    0    0  501    0  0.00000000000E+00  0.00000000000E+00  0.51697093185E+03  0.51697093185E+03  0.00000000000E+00 0. -1.
         -2   -1    0    0    0  501 -0.00000000000E+00 -0.00000000000E+00 -0.18832643778E+01  0.18832643778E+01  0.00000000000E+00 0. -1.
          2    1    1    2  502    0 -0.22151103088E+02 -0.10134691686E+00  0.44025299089E+03  0.44080991099E+03  0.00000000000E+00 0. -1.
         -2    1    1    2    0  502  0.22151103088E+02  0.10134691686E+00  0.74834676590E+02  0.78044285246E+02  0.00000000000E+00 0. -1.
</event>
<event>
 4    1  0.3196713E+003  0.2726242E+02  0.7546771E-02  0.1444990E+00
          2   -1    0    0  501    0  0.00000000000E+00  0.00000000000E+00  0.33495219358E+02  0.33495219358E+02  0.00000000000E+00 0.  1.
         -2   -1    0    0    0  501 -0.00000000000E+00 -0.00000000000E+00 -0.24506190552E+02  0.24506190552E+02  0.00000000000E+00 0.  1.
          2    1    1    2  502    0 -0.16520894184E+02 -0.21686396496E+02  0.13411364631E+02  0.30382633837E+02  0.00000000000E+00 0.  1.
         -2    1    1    2    0  502  0.16520894184E+02  0.21686396496E+02 -0.44223358242E+01  0.27618776073E+02  0.00000000000E+00 0.  1.
</event>
<event>
 4    1  0.3196713E+003  0.2059180E+02  0.7546771E-02  0.1525173E+00
          2   -1    0    0  501    0  0.00000000000E+00  0.00000000000E+00  0.27858292755E+03  0.27858292755E+03  0.00000000000E+00 0.  1.
         -2   -1    0    0    0  501 -0.00000000000E+00 -0.00000000000E+00 -0.20126250238E+02  0.20126250238E+02  0.00000000000E+00 0.  1.
          2    1    1    2  502    0 -0.74465087011E+01 -0.19198220706E+02  0.27282436721E+03  0.27360036095E+03  0.00000000000E+00 0.  1.
         -2    1    1    2    0  502  0.74465087011E+01  0.19198220706E+02 -0.14367689895E+02  0.25108816839E+02  0.00000000000E+00 0.  1.
</event>
<event>
 4    1  0.3196713E+003  0.2333848E+02  0.7546771E-02  0.1488291E+00
          2   -1    0    0  501    0  0.00000000000E+00  0.00000000000E+00  0.24792052383E+04  0.24792052383E+04  0.00000000000E+00 0. -1.
         -2   -1    0    0    0  501 -0.00000000000E+00 -0.00000000000E+00 -0.25729277829E+00  0.25729277829E+00  0.00000000000E+00 0.  1.
          2    1    1    2  502    0 -0.92789635082E+01 -0.21414611171E+02  0.17133428378E+04  0.17135017843E+04  0.00000000000E+00 0. -1.
         -2    1    1    2    0  502  0.92789635082E+01  0.21414611171E+02  0.76560510767E+03  0.76596074679E+03  0.00000000000E+00 0.  1.
</event>
<event>
 4    1  0.3196713E+003  0.2840802E+02  0.7546771E-02  0.1433955E+00
          2   -1    0    0  501    0  0.00000000000E+00  0.00000000000E+00  0.10912152129E+04  0.10912152129E+04  0.00000000000E+00 0.  1.
         -2   -1    0    0    0  501 -0.00000000000E+00 -0.00000000000E+00 -0.10035259280E+01  0.10035259280E+01  0.00000000000E+00 0.  1.
          2    1    1    2  502    0 -0.24561103898E+02 -0.14274729015E+02  0.82519212358E+03  0.82568096534E+03  0.00000000000E+00 0.  1.
         -2    1    1    2    0  502  0.24561103898E+02  0.14274729015E+02  0.26501956337E+03  0.26653777346E+03  0.00000000000E+00 0.  1.
</event>
<event>
 4    1  0.3196713E+003  0.2445900E+02  0.7546771E-02  0.1474947E+00
          2   -1    0    0  501    0  0.00000000000E+00  0.00000000000E+00  0.85923415757E+03  0.85923415757E+03  0.00000000000E+00 0.  1.
         -2   -1    0    0    0  501 -0.00000000000E+00 -0.00000000000E+00 -0.31644573224E+01  0.31644573224E+01  0.00000000000E+00 0.  1.
          2    1    1    2  502    0  0.19413396554E+02  0.14878259312E+02  0.80885434369E+03  0.80922406778E+03  0.00000000000E+00 0.  1.
         -2    1    1    2    0  502 -0.19413396554E+02 -0.14878259312E+02  0.47215356557E+02  0.53174547113E+02  0.00000000000E+00 0.  1.
</event>
<event>
 4    1  0.3196713E+003  0.2187455E+02  0.7546771E-02  0.1507136E+00
          2   -1    0    0  501    0  0.00000000000E+00  0.00000000000E+00  0.47679190730E+03  0.47679190730E+03  0.00000000000E+00 0.  1.
         -2   -1    0    0    0  501 -0.00000000000E+00 -0.00000000000E+00 -0.92971481229E+02  0.92971481229E+02  0.00000000000E+00 0. -1.
          2    1    1    2  502    0  0.18535800301E+02 -0.11615510643E+02  0.47525016787E+03  0.47575331637E+03  0.00000000000E+00 0.  1.
         -2    1    1    2    0  502 -0.18535800301E+02  0.11615510643E+02 -0.91429741802E+02  0.94010072153E+02  0.00000000000E+00 0. -1.
</event>
<event>
 4    1  0.3196713E+003  0.2354816E+02  0.7546771E-02  0.1485727E+00
          2   -1    0    0  501    0  0.00000000000E+00  0.00000000000E+00  0.64893950730E+02  0.64893950730E+02  0.00000000000E+00 0.  1.
         -2   -1    0    0    0  501 -0.00000000000E+00 -0.00000000000E+00 -0.11094431862E+02  0.11094431862E+02  0.00000000000E+00 0.  1.
          2    1    1    2  502    0 -0.22952929491E+02 -0.52610850677E+01  0.45113119700E+02  0.50889189003E+02  0.00000000000E+00 0.  1.
         -2    1    1    2    0  502  0.22952929491E+02  0.52610850677E+01  0.86863991670E+01  0.25099193589E+02  0.00000000000E+00 0.  1.
</event>
<event>
 4    1  0.3196713E+003  0.2248935E+02  0.7546771E-02  0.1499012E+00
          2   -1    0    0  501    0  0.00000000000E+00  0.00000000000E+00  0.47181382860E+02  0.47181382860E+02  0.00000000000E+00 0.  1.
         -2   -1    0    0    0  501 -0.00000000000E+00 -0.00000000000E+00 -0.53658870204E+02  0.53658870204E+02  0.00000000000E+00 0.  1.
          2    1    1    2  502    0 -0.10330787340E+02 -0.19976128827E+02  0.41864723325E+02  0.47522899207E+02  0.00000000000E+00 0.  1.
         -2    1    1    2    0  502  0.10330787340E+02  0.19976128827E+02 -0.48342210669E+02  0.53317353857E+02  0.00000000000E+00 0.  1.
</event>
<event>
 4    1  0.3196713E+003  0.2372411E+02  0.7546771E-02  0.1483600E+00
          2   -1    0    0  501    0  0.00000000000E+00  0.00000000000E+00  0.38812493124E+03  0.38812493124E+03  0.00000000000E+00 0.  1.
         -2   -1    0    0    0  501 -0.00000000000E+00 -0.00000000000E+00 -0.88437178721E+01  0.88437178721E+01  0.00000000000E+00 0. -1.
          2    1    1    2  502    0 -0.14497733801E+02 -0.18778949636E+02  0.37112374058E+03  0.37188124994E+03  0.00000000000E+00 0.  1.
         -2    1    1    2    0  502  0.14497733801E+02  0.18778949636E+02  0.81574727835E+01  0.25087399168E+02  0.00000000000E+00 0. -1.
</event>
<event>
 4    1  0.3196713E+003  0.3239242E+02  0.7546771E-02  0.1399885E+00
          2   -1    0    0  501    0  0.00000000000E+00  0.00000000000E+00  0.82327050580E+03  0.82327050580E+03  0.00000000000E+00 0. -1.
         -2   -1    0    0    0  501 -0.00000000000E+00 -0.00000000000E+00 -0.47642856842E+01  0.47642856842E+01  0.00000000000E+00 0. -1.
          2    1    1    2  502    0  0.31957903493E+02 -0.52878235011E+01  0.76359156146E+03  0.76427831410E+03  0.00000000000E+00 0. -1.
         -2    1    1    2    0  502 -0.31957903493E+02  0.52878235011E+01  0.54914658660E+02  0.63756477387E+02  0.00000000000E+00 0. -1.
</event>
<event>
 4    1  0.3196713E+003  0.7540816E+02  0.7546771E-02  0.1214929E+00
          2   -1    0    0  501    0  0.00000000000E+00  0.00000000000E+00  0.63160325067E+03  0.63160325067E+03  0.00000000000E+00 0.  1.
         -2   -1    0    0    0  501 -0.00000000000E+00 -0.00000000000E+00 -0.37267598621E+02  0.37267598621E+02  0.00000000000E+00 0. -1.
          2    1    1    2  502    0  0.67349385431E+02  0.33918301062E+02  0.58841865310E+03  0.59323090124E+03  0.00000000000E+00 0.  1.
         -2    1    1    2    0  502 -0.67349385431E+02 -0.33918301062E+02  0.59169989470E+01  0.75639948053E+02  0.00000000000E+00 0. -1.
</event>
<event>
 4    1  0.3196713E+003  0.2029626E+02  0.7546771E-02  0.1529554E+00
          2   -1    0    0  501    0  0.00000000000E+00  0.00000000000E+00  0.24342245973E+02  0.24342245973E+02  0.00000000000E+00 0. -1.
         -2   -1    0    0    0  501 -0.00000000000E+00 -0.00000000000E+00 -0.22696725325E+02  0.22696725325E+02  0.00000000000E+00 0.  1.
          2    1    1    2  502    0 -0.18244719920E+02  0.88920421427E+01  0.12685443900E+02  0.23934466892E+02  0.00000000000E+00 0. -1.
         -2    1    1    2    0  502  0.18244719920E+02 -0.88920421427E+01 -0.11039923253E+02  0.23104504407E+02  0.00000000000E+00 0.  1.
</event>
<event>
 4    1  0.3196713E+003  0.2509547E+02  0.7546771E-02  0.1467738E+00
          2   -1    0    0  501    0  0.00000000000E+00  0.00000000000E+00  0.72210207397E+02  0.72210207397E+02  0.00000000000E+00 0.  1.
         -2   -1    0    0    0  501 -0.00000000000E+00 -0.00000000000E+00 -0.19451191772E+03  0.19451191772E+03  0.00000000000E+00 0.  1.
          2    1    1    2  502    0 -0.12256970817E+02  0.21898611731E+02  0.69186101272E+02  0.73596869081E+02  0.00000000000E+00 0.  1.
         -2    1    1    2    0  502  0.12256970817E+02 -0.21898611731E+02 -0.19148781160E+03  0.19312525604E+03  0.00000000000E+00 0.  1.
</event>
<event>
 4    1  0.3196713E+003  0.3168598E+02  0.7546771E-02  0.1405490E+00
          2   -1    0    0  501    0  0.00000000000E+00  0.00000000000E+00  0.94614401973E+02  0.94614401973E+02  0.00000000000E+00 0.  1.
         -2   -1    0    0    0  501 -0.00000000000E+00 -0.00000000000E+00 -0.13391636547E+03  0.13391636547E+03  0.00000000000E+00 0. -1.
          2    1    1    2  502    0  0.14481411530E+02 -0.28183154157E+02  0.89993795267E+02  0.95409038590E+02  0.00000000000E+00 0.  1.
         -2    1    1    2    0  502 -0.14481411530E+02  0.28183154157E+02 -0.12929575876E+03  0.13312172885E+03  0.00000000000E+00 0. -1.
</event>
<event>
 4    1  0.3196713E+003  0.2921366E+02  0.7546771E-02  0.1426555E+00
          2   -1    0    0  501    0  0.00000000000E+00  0.00000000000E+00  0.53365836648E+03  0.53365836648E+03  0.00000000000E+00 0. -1.
         -2   -1    0    0    0  501 -0.00000000000E+00 -0.00000000000E+00 -0.31588984787E+01  0.31588984787E+01  0.00000000000E+00 0.  1.
          2    1    1    2  502    0  0.21749876125E+02 -0.19503348993E+02  0.45385161862E+03  0.45479086342E+03  0.00000000000E+00 0. -1.
         -2    1    1    2    0  502 -0.21749876125E+02  0.19503348993E+02  0.76647849384E+02  0.82026401533E+02  0.00000000000E+00 0.  1.
</event>
<event>
 4    1  0.3196713E+003  0.3175736E+02  0.7546771E-02  0.1404916E+00
          2   -1    0    0  501    0  0.00000000000E+00  0.00000000000E+00  0.15871902706E+04  0.15871902706E+04  0.00000000000E+00 0.  1.
         -2   -1    0    0    0  501 -0.00000000000E+00 -0.00000000000E+00 -0.71103381385E+00  0.71103381385E+00  0.00000000000E+00 0.  1.
          2    1    1    2  502    0  0.22707736110E+02 -0.22201099124E+02  0.10521522416E+04  0.10526314025E+04  0.00000000000E+00 0.  1.
         -2    1    1    2    0  502 -0.22707736110E+02  0.22201099124E+02  0.53432699519E+03  0.53526990189E+03  0.00000000000E+00 0.  1.
</event>
<event>
 4    1  0.3196713E+003  0.2074183E+02  0.7546771E-02  0.1522983E+00
          2   -1    0    0  501    0  0.00000000000E+00  0.00000000000E+00  0.34455083129E+03  0.34455083129E+03  0.00000000000E+00 0. -1.
         -2   -1    0    0    0  501 -0.00000000000E+00 -0.00000000000E+00 -0.14089879475E+01  0.14089879475E+01  0.00000000000E+00 0. -1.
          2    1    1    2  502    0  0.17274083495E+02  0.11481705344E+02  0.22992345352E+03  0.23085713763E+03  0.00000000000E+00 0. -1.
         -2    1    1    2    0  502 -0.17274083495E+02 -0.11481705344E+02  0.11321838982E+03  0.11510268160E+03  0.00000000000E+00 0. -1.
</event>
<event>
 4    1  0.3196713E+003  0.3645320E+02  0.7546771E-02  0.1370625E+00
          2   -1    0    0  501    0  0.00000000000E+00  0.00000000000E+00  0.75326101222E+03  0.75326101222E+03  0.00000000000E+00 0.  1.
         -2   -1    0    0    0  501 -0.00000000000E+00 -0.00000000000E+00 -0.13747300050E+02  0.13747300050E+02  0.00000000000E+00 0.  1.
          2    1    1    2  502    0 -0.36360567351E+02 -0.25970901509E+01  0.72781007444E+03  0.72872240270E+03  0.00000000000E+00 0.  1.
         -2    1    1    2    0  502  0.36360567351E+02  0.25970901509E+01  0.11703637722E+02  0.38285909565E+02  0.00000000000E+00 0.  1.
</event>
<event>
 4    1  0.3196713E+003  0.2196996E+02  0.7546771E-02  0.1505854E+00
          2   -1    0    0  501    0  0.00000000000E+00  0.00000000000E+00  0.24337449236E+03  0.24337449236E+03  0.00000000000E+00 0.  1.
         -2   -1    0    0    0  501 -0.00000000000E+00 -0.00000000000E+00 -0.60527299641E+01  0.60527299641E+01  0.00000000000E+00 0.  1.
          2    1    1    2  502    0  0.21833933133E+02  0.24410259185E+01  0.22092097240E+03  0.22201070985E+03  0.00000000000E+00 0.  1.
         -2    1    1    2    0  502 -0.21833933133E+02 -0.24410259185E+01  0.16400789997E+02  0.27416512472E+02  0.00000000000E+00 0.  1.
</event>
<event>
 4    1  0.3196713E+003  0.3149118E+02  0.7546771E-02  0.1407066E+00
          2   -1    0    0  501    0  0.00000000000E+00  0.00000000000E+00  0.17786278252E+04  0.17786278252E+04  0.00000000000E+00 0. -1.
         -2   -1    0    0    0  501 -0.00000000000E+00 -0.00000000000E+00 -0.55786784427E+00  0.55786784427E+00  0.00000000000E+00 0.  1.
          2    1    1    2  502    0  0.29087612585E+02  0.12066656959E+02  0.86816982741E+03  0.86874077989E+03  0.00000000000E+00 0. -1.
         -2    1    1    2    0  502 -0.29087612585E+02 -0.12066656959E+02  0.90990012992E+03  0.91044491313E+03  0.00000000000E+00 0.  1.
</event>
<event>
 4    1  0.3196713E+003  0.2496665E+02  0.7546771E-02  0.1469177E+00
          2   -1    0    0  501    0  0.00000000000E+00  0.00000000000E+00  0.94707305009E+02  0.94707305009E+02  0.00000000000E+00 0.  1.
         -2   -1    0    0    0  501 -0.00000000000E+00 -0.00000000000E+00 -0.54825378825E+02  0.54825378825E+02  0.00000000000E+00 0. -1.
          2    1    1    2  502    0 -0.22205369635E+02 -0.11412945772E+02  0.90076089221E+02  0.93472111462E+02  0.00000000000E+00 0.  1.
         -2    1    1    2    0  502  0.22205369635E+02  0.11412945772E+02 -0.50194163036E+02  0.56060572373E+02  0.00000000000E+00 0. -1.
</event>
<event>
 4    1  0.3196713E+003  0.2660429E+02  0.7546771E-02  0.1451624E+00
          2   -1    0    0  501    0  0.00000000000E+00  0.00000000000E+00  0.25430948782E+03  0.25430948782E+03  0.00000000000E+00 0.  1.
         -2   -1    0    0    0  501 -0.00000000000E+00 -0.00000000000E+00 -0.16352073188E+02  0.16352073188E+02  0.00000000000E+00 0.  1.
          2    1    1    2  502    0  0.14750827297E+02  0.22140493576E+02  0.24225581389E+03  0.24371226421E+03  0.00000000000E+00 0.  1.
         -2    1    1    2    0  502 -0.14750827297E+02 -0.22140493576E+02 -0.42983992600E+01  0.26949296798E+02  0.00000000000E+00 0.  1.
</event>
<event>
 4    1  0.3196713E+003  0.2973973E+02  0.7546771E-02  0.1421872E+00
          2   -1    0    0  501    0  0.00000000000E+00  0.00000000000E+00  0.23433758137E+03  0.23433758137E+03  0.00000000000E+00 0. -1.
         -2   -1    0    0    0  501 -0.00000000000E+00 -0.00000000000E+00 -0.55270869216E+01  0.55270869216E+01  0.00000000000E+00 0. -1.
          2    1    1    2  502    0  0.29681979422E+02  0.18525110053E+01  0.18194465766E+03  0.18435918787E+03  0.00000000000E+00 0. -1.
         -2    1    1    2    0  502 -0.29681979422E+02 -0.18525110053E+01  0.46865836787E+02  0.55505480425E+02  0.00000000000E+00 0. -1.
</event>
<event>
 4    1  0.3196713E+003  0.2739969E+02  0.7546771E-02  0.1443634E+00
          2   -1    0    0  501    0  0.00000000000E+00  0.00000000000E+00  0.11496402361E+04  0.11496402361E+04  0.00000000000E+00 0. -1.
         -2   -1    0    0    0  501 -0.00000000000E+00 -0.00000000000E+00 -0.34520697958E+02  0.34520697958E+02  0.00000000000E+00 0. -1.
          2    1    1    2  502    0 -0.85056478361E+00 -0.27386484072E+02  0.11440133375E+04  0.11443414085E+04  0.00000000000E+00 0. -1.
         -2    1    1    2    0  502  0.85056478361E+00  0.27386484072E+02 -0.28893799351E+02  0.39819525503E+02  0.00000000000E+00 0. -1.
</event>
<event>
 4    1  0.3196713E+003  0.2301487E+02  0.7546771E-02  0.1492311E+00
          2   -1    0    0  501    0  0.00000000000E+00  0.00000000000E+00  0.10382120624E+03  0.10382120624E+03  0.00000000000E+00 0.  1.
         -2   -1    0    0    0  501 -0.00000000000E+00 -0.00000000000E+00 -0.26682365329E+03  0.26682365329E+03  0.00000000000E+00 0. -1.
          2    1    1    2  502    0 -0.15154792996E+02  0.17320988758E+02  0.10204089538E+03  0.10460415255E+03  0.00000000000E+00 0.  1.
         -2    1    1    2    0  502  0.15154792996E+02 -0.17320988758E+02 -0.26504334243E+03  0.26604070698E+03  0.00000000000E+00 0. -1.
</event>
<event>
 4    1  0.3196713E+003  0.2607488E+02  0.7546771E-02  0.1457129E+00
          2   -1    0    0  501    0  0.00000000000E+00  0.00000000000E+00  0.16113750904E+02  0.16113750904E+02  0.00000000000E+00 0. -1.
         -2   -1    0    0    0  501 -0.00000000000E+00 -0.00000000000E+00 -0.46710056387E+02  0.46710056387E+02  0.00000000000E+00 0. -1.
          2    1    1    2  502    0 -0.25437118844E+02 -0.57317109420E+01 -0.55307091058E+01  0.26654985812E+02  0.00000000000E+00 0. -1.
         -2    1    1    2    0  502  0.25437118844E+02  0.57317109420E+01 -0.25065596378E+02  0.36168821479E+02  0.00000000000E+00 0. -1.
</event>
<event>
 4    1  0.3196713E+003  0.2054917E+02  0.7546771E-02  0.1525800E+00
          2   -1    0    0  501    0  0.00000000000E+00  0.00000000000E+00  0.39073624620E+03  0.39073624620E+03  0.00000000000E+00 0.  1.
         -2   -1    0    0    0  501 -0.00000000000E+00 -0.00000000000E+00 -0.76319754929E+02  0.76319754929E+02  0.00000000000E+00 0.  1.
          2    1    1    2  502    0 -0.16307231194E+02  0.12503711544E+02  0.38907695456E+03  0.38961923099E+03  0.00000000000E+00 0.  1.
         -2    1    1    2    0  502  0.16307231194E+02 -0.12503711544E+02 -0.74660463285E+02  0.77436770139E+02  0.00000000000E+00 0.  1.
</event>
<event>
 4    1  0.3196713E+003  0.4105078E+02  0.7546771E-02  0.1342436E+00
          2   -1    0    0  501    0  0.00000000000E+00  0.00000000000E+00  0.56831955871E+03  0.56831955871E+03  0.00000000000E+00 0. -1.
         -2   -1    0    0    0  501 -0.00000000000E+00 -0.00000000000E+00 -0.30151896805E+02  0.30151896805E+02  0.00000000000E+00 0.  1.
          2    1    1    2  502    0  0.37766300975E+02  0.16089522301E+02  0.55322525875E+03  0.55474620606E+03  0.00000000000E+00 0. -1.
         -2    1    1    2    0  502 -0.37766300975E+02 -0.16089522301E+02 -0.15057596846E+02  0.43725249456E+02  0.00000000000E+00 0.  1.
</event>
<event>
 4    1  0.3196713E+003  0.2965364E+02  0.7546771E-02  0.1422631E+00
          2   -1    0    0  501    0  0.00000000000E+00  0.00000000000E+00  0.17031900926E+03  0.17031900926E+03  0.00000000000E+00 0.  1.
         -2   -1    0    0    0  501 -0.00000000000E+00 -0.00000000000E+00 -0.45025660232E+02  0.45025660232E+02  0.00000000000E+00 0. -1.
          2    1    1    2  502    0 -0.18410056746E+02 -0.23246678109E+02  0.16395796003E+03  0.16661797889E+03  0.00000000000E+00 0.  1.
         -2    1    1    2    0  502  0.18410056746E+02  0.23246678109E+02 -0.38664611005E+02  0.48726690598E+02  0.00000000000E+00 0. -1.
</event>
<event>
 4    1  0.3196713E+003  0.2932244E+02  0.7546771E-02  0.1425577E+00
          2   -1    0    0  501    0  0.00000000000E+00  0.00000000000E+00  0.12568054731E+03  0.12568054731E+03  0.00000000000E+00 0. -1.
         -2   -1    0    0    0  501 -0.00000000000E+00 -0.00000000000E+00 -0.12932523642E+03  0.12932523642E+03  0.00000000000E+00 0.  1.
          2    1    1    2  502    0 -0.29265642565E+02  0.18241534557E+01  0.12226232972E+03  0.12572940244E+03  0.00000000000E+00 0. -1.
         -2    1    1    2    0  502  0.29265642565E+02 -0.18241534557E+01 -0.12590701883E+03  0.12927638130E+03  0.00000000000E+00 0.  1.
</event>
<event>
 4    1  0.3196713E+003  0.2208906E+02  0.7546771E-02  0.1504265E+00
          2   -1    0    0  501    0  0.00000000000E+00  0.00000000000E+00  0.81029022053E+03  0.81029022053E+03  0.00000000000E+00 0.  1.
         -2   -1    0    0    0  501 -0.00000000000E+00 -0.00000000000E+00 -0.35771103585E+02  0.35771103585E+02  0.00000000000E+00 0.  1.
          2    1    1    2  502    0  0.11237966573E+02  0.19016689098E+02  0.80671450843E+03  0.80701686753E+03  0.00000000000E+00 0.  1.
         -2    1    1    2    0  502 -0.11237966573E+02 -0.19016689098E+02 -0.32195391490E+02  0.39044456587E+02  0.00000000000E+00 0.  1.
</event>
<event>
 4    1  0.3196713E+003  0.2172560E+02  0.7546771E-02  0.1509152E+00
          2   -1    0    0  501    0  0.00000000000E+00  0.00000000000E+00  0.25602283336E+03  0.25602283336E+03  0.00000000000E+00 0. -1.
         -2   -1    0    0    0  501 -0.00000000000E+00 -0.00000000000E+00 -0.30381715478E+01  0.30381715478E+01  0.00000000000E+00 0. -1.
          2    1    1    2  502    0 -0.32846852340E+01  0.21475851324E+02  0.45270335508E+02  0.50213590035E+02  0.00000000000E+00 0. -1.
         -2    1    1    2    0  502  0.32846852340E+01 -0.21475851324E+02  0.20771432631E+03  0.20884741488E+03  0.00000000000E+00 0. -1.
</event>
<event>
 4    1  0.3196713E+003  0.2460790E+02  0.7546771E-02  0.1473238E+00
          2   -1    0    0  501    0  0.00000000000E+00  0.00000000000E+00  0.22896817859E+02  0.22896817859E+02  0.00000000000E+00 0. -1.
         -2   -1    0    0    0  501 -0.00000000000E+00 -0.00000000000E+00 -0.79019033782E+02  0.79019033782E+02  0.00000000000E+00 0. -1.
          2    1    1    2  502    0  0.53367780949E+01 -0.24022226415E+02  0.13503522116E+02  0.28069443741E+02  0.00000000000E+00 0. -1.
         -2    1    1    2    0  502 -0.53367780949E+01  0.24022226415E+02 -0.69625738040E+02  0.73846407901E+02  0.00000000000E+00 0. -1.
</event>
<event>
 4    1  0.3196713E+003  0.2501893E+02  0.7546771E-02  0.1468592E+00
          2   -1    0    0  501    0  0.00000000000E+00  0.00000000000E+00  0.10906618134E+03  0.10906618134E+03  0.00000000000E+00 0. -1.
         -2   -1    0    0    0  501 -0.00000000000E+00 -0.00000000000E+00 -0.12933060634E+02  0.12933060634E+02  0.00000000000E+00 0.  1.
          2    1    1    2  502    0  0.15415107104E+02 -0.19705871055E+02  0.93561079619E+02  0.96848451203E+02  0.00000000000E+00 0. -1.
         -2    1    1    2    0  502 -0.15415107104E+02  0.19705871055E+02  0.25720410865E+01  0.25150790771E+02  0.00000000000E+00 0.  1.
</event>
<event>
 4    1  0.3196713E+003  0.2326310E+02  0.7546771E-02  0.1489221E+00
          2   -1    0    0  501    0  0.00000000000E+00  0.00000000000E+00  0.11154700478E+04  0.11154700478E+04  0.00000000000E+00 0. -1.
         -2   -1    0    0    0  501 -0.00000000000E+00 -0.00000000000E+00 -0.17974663401E+01  0.17974663401E+01  0.00000000000E+00 0. -1.
          2    1    1    2  502    0  0.20937433010E+02 -0.10138823356E+02  0.10341631043E+04  0.10344247185E+04  0.00000000000E+00 0. -1.
         -2    1    1    2    0  502 -0.20937433010E+02  0.10138823356E+02  0.79509477190E+02  0.82842795723E+02  0.00000000000E+00 0. -1.
</event>
<event>
 4    1  0.3196713E+003  0.2629836E+02  0.7546771E-02  0.1454786E+00
          2   -1    0    0  501    0  0.00000000000E+00  0.00000000000E+00  0.14256199126E+03  0.14256199126E+03  0.00000000000E+00 0.  1.
         -2   -1    0    0    0  501 -0.00000000000E+00 -0.00000000000E+00 -0.81180145353E+02  0.81180145353E+02  0.00000000000E+00 0.  1.
          2    1    1    2  502    0  0.33921900831E+01  0.26078661541E+02  0.13916784853E+03  0.14163083565E+03  0.00000000000E+00 0.  1.
         -2    1    1    2    0  502 -0.33921900831E+01 -0.26078661541E+02 -0.77786002626E+02  0.82111300963E+02  0.00000000000E+00 0.  1.
</event>
<event>
 4    1  0.3196713E+003  0.3716137E+02  0.7546771E-02  0.1365974E+00
          2   -1    0    0  501    0  0.00000000000E+00  0.00000000000E+00  0.41595092093E+02  0.41595092093E+02  0.00000000000E+00 0. -1.
         -2   -1    0    0    0  501 -0.00000000000E+00 -0.00000000000E+00 -0.58366304125E+02  0.58366304125E+02  0.00000000000E+00 0. -1.
          2    1    1    2  502    0  0.33149619922E+02  0.16794937817E+02  0.24433657392E+02  0.44474384210E+02  0.00000000000E+00 0. -1.
         -2    1    1    2    0  502 -0.33149619922E+02 -0.16794937817E+02 -0.41204869424E+02  0.55487012008E+02  0.00000000000E+00 0. -1.
</event>
<event>
 4    1  0.3196713E+003  0.4162265E+02  0.7546771E-02  0.1339231E+00
          2   -1    0    0  501    0  0.00000000000E+00  0.00000000000E+00  0.28186079345E+04  0.28186079345E+04  0.00000000000E+00 0.  1.
         -2   -1    0    0    0  501 -0.00000000000E+00 -0.00000000000E+00 -0.24618385107E+01  0.24618385107E+01  0.00000000000E+00 0.  1.
          2    1    1    2  502    0 -0.40285463395E+02 -0.10465494406E+02  0.26299013223E+04  0.26302306762E+04  0.00000000000E+00 0.  1.
         -2    1    1    2    0  502  0.40285463395E+02  0.10465494406E+02  0.18624477366E+03  0.19083909676E+03  0.00000000000E+00 0.  1.
</event>
<event>
 4    1  0.3196713E+003  0.2325148E+02  0.7546771E-02  0.1489364E+00
          2   -1    0    0  501    0  0.00000000000E+00  0.00000000000E+00  0.29088170418E+03  0.29088170418E+03  0.00000000000E+00 0. -1.
         -2   -1    0    0    0  501 -0.00000000000E+00 -0.00000000000E+00 -0.19357979167E+01  0.19357979167E+01  0.00000000000E+00 0.  1.
          2    1    1    2  502    0 -0.19356825729E+02  0.12881952204E+02  0.17371129766E+03  0.17526050989E+03  0.00000000000E+00 0.  1.
         -2    1    1    2    0  502  0.19356825729E+02 -0.12881952204E+02  0.11523460860E+03  0.11755699220E+03  0.00000000000E+00 0. -1.
</event>
<event>
 4    1  0.3196713E+003  0.2511474E+02  0.7546771E-02  0.1467524E+00
          2   -1    0    0  501    0  0.00000000000E+00  0.00000000000E+00  0.75225854038E+03  0.75225854038E+03  0.00000000000E+00 0. -1.
         -2   -1    0    0    0  501 -0.00000000000E+00 -0.00000000000E+00 -0.23047615754E+01  0.23047615754E+01  0.00000000000E+00 0. -1.
          2    1    1    2  502    0 -0.24691880145E+02  0.45892550434E+01  0.67590452018E+03  0.67637095636E+03  0.00000000000E+00 0. -1.
         -2    1    1    2    0  502  0.24691880145E+02 -0.45892550434E+01  0.74049258627E+02  0.78192345598E+02  0.00000000000E+00 0. -1.
</event>
<event>
 4    1  0.3196713E+003  0.2178172E+02  0.7546771E-02  0.1508390E+00
          2   -1    0    0  501    0  0.00000000000E+00  0.00000000000E+00  0.16380901096E+04  0.16380901096E+04  0.00000000000E+00 0.  1.
         -2   -1    0    0    0  501 -0.00000000000E+00 -0.00000000000E+00 -0.10959261344E+01  0.10959261344E+01  0.00000000000E+00 0.  1.
          2    1    1    2  502    0 -0.10537989584E+02 -0.19062901992E+02  0.15214954892E+04  0.15216513947E+04  0.00000000000E+00 0.  1.
         -2    1    1    2    0  502  0.10537989584E+02  0.19062901992E+02  0.11549869429E+03  0.11753464102E+03  0.00000000000E+00 0.  1.
</event>
<event>
 4    1  0.3196713E+003  0.6039928E+02  0.7546771E-02  0.1258482E+00
          2   -1    0    0  501    0  0.00000000000E+00  0.00000000000E+00  0.10093902461E+04  0.10093902461E+04  0.00000000000E+00 0.  1.
         -2   -1    0    0    0  501 -0.00000000000E+00 -0.00000000000E+00 -0.12734940706E+02  0.12734940706E+02  0.00000000000E+00 0. -1.
          2    1    1    2  502    0  0.47803052014E+02  0.36918027499E+02  0.93083375061E+03  0.93279126487E+03  0.00000000000E+00 0.  1.
         -2    1    1    2    0  502 -0.47803052014E+02 -0.36918027499E+02  0.65821554814E+02  0.89333921969E+02  0.00000000000E+00 0. -1.
</event>
<event>
 4    1  0.3196713E+003  0.2153956E+02  0.7546771E-02  0.1511699E+00
          2   -1    0    0  501    0  0.00000000000E+00  0.00000000000E+00  0.93391862118E+02  0.93391862118E+02  0.00000000000E+00 0. -1.
         -2   -1    0    0    0  501 -0.00000000000E+00 -0.00000000000E+00 -0.29375427583E+02  0.29375427583E+02  0.00000000000E+00 0.  1.
          2    1    1    2  502    0  0.29436934488E+01  0.21337461807E+02  0.87961208542E+02  0.90560072967E+02  0.00000000000E+00 0. -1.
         -2    1    1    2    0  502 -0.29436934488E+01 -0.21337461807E+02 -0.23944774008E+02  0.32207216735E+02  0.00000000000E+00 0.  1.
</event>
<event>
 4    1  0.3196713E+003  0.2068640E+02  0.7546771E-02  0.1523790E+00
          2   -1    0    0  501    0  0.00000000000E+00  0.00000000000E+00  0.49734846924E+03  0.49734846924E+03  0.00000000000E+00 0. -1.
         -2   -1    0    0    0  501 -0.00000000000E+00 -0.00000000000E+00 -0.14598748369E+03  0.14598748369E+03  0.00000000000E+00 0. -1.
          2    1    1    2  502    0 -0.18919155121E+01  0.20599700017E+02  0.49639914970E+03  0.49682999386E+03  0.00000000000E+00 0. -1.
         -2    1    1    2    0  502  0.18919155121E+01 -0.20599700017E+02 -0.14503816415E+03  0.14650595907E+03  0.00000000000E+00 0. -1.
</event>
<event>
 4    1  0.3196713E+003  0.2459158E+02  0.7546771E-02  0.1473425E+00
          2   -1    0    0  501    0  0.00000000000E+00  0.00000000000E+00  0.13339043547E+02  0.13339043547E+02  0.00000000000E+00 0. -1.
         -2   -1    0    0    0  501 -0.00000000000E+00 -0.00000000000E+00 -0.13289620208E+03  0.13289620208E+03  0.00000000000E+00 0.  1.
          2    1    1    2  502    0  0.24105095174E+02  0.48672571169E+01 -0.42896945063E+00  0.24595321099E+02  0.00000000000E+00 0. -1.
         -2    1    1    2    0  502 -0.24105095174E+02 -0.48672571169E+01 -0.11912818908E+03  0.12163992452E+03  0.00000000000E+00 0.  1.
</event>
<event>
 4    1  0.3196713E+003  0.2127911E+02  0.7546771E-02  0.1515317E+00
          2   -1    0    0  501    0  0.00000000000E+00  0.00000000000E+00  0.43816052700E+03  0.43816052700E+03  0.00000000000E+00 0.  1.
         -2   -1    0    0    0  501 -0.00000000000E+00 -0.00000000000E+00 -0.27798773490E+01  0.27798773490E+01  0.00000000000E+00 0.  1.
          2    1    1    2  502    0  0.21226973253E+02  0.14886641454E+01  0.39244025946E+03  0.39301673980E+03  0.00000000000E+00 0.  1.
         -2    1    1    2    0  502 -0.21226973253E+02 -0.14886641454E+01  0.42940390183E+02  0.47923664546E+02  0.00000000000E+00 0.  1.
</event>
<event>
 4    1  0.3196713E+003  0.5534216E+02  0.7546771E-02  0.1276536E+00
          2   -1    0    0  501    0  0.00000000000E+00  0.00000000000E+00  0.11440538743E+04  0.11440538743E+04  0.00000000000E+00 0.  1.
         -2   -1    0    0    0  501 -0.00000000000E+00 -0.00000000000E+00 -0.36301107656E+02  0.36301107656E+02  0.00000000000E+00 0. -1.
          2    1    1    2  502    0  0.55326935560E+02  0.12979991726E+01  0.11218751546E+04  0.11232393410E+04  0.00000000000E+00 0.  1.
         -2    1    1    2    0  502 -0.55326935560E+02 -0.12979991726E+01 -0.14122387977E+02  0.57115640962E+02  0.00000000000E+00 0. -1.
</event>
<event>
 4    1  0.3196713E+003  0.3661007E+02  0.7546771E-02  0.1369584E+00
          2   -1    0    0  501    0  0.00000000000E+00  0.00000000000E+00  0.19342957421E+04  0.19342957421E+04  0.00000000000E+00 0. -1.
         -2   -1    0    0    0  501 -0.00000000000E+00 -0.00000000000E+00 -0.63924015256E+01  0.63924015256E+01  0.00000000000E+00 0.  1.
          2    1    1    2  502    0  0.35769445999E+02 -0.78002437726E+01  0.18801968586E+04  0.18805532495E+04  0.00000000000E+00 0. -1.
         -2    1    1    2    0  502 -0.35769445999E+02  0.78002437726E+01  0.47706481951E+02  0.60134894115E+02  0.00000000000E+00 0.  1.
</event>
<event>
 4    1  0.3196713E+003  0.2234895E+02  0.7546771E-02  0.1500839E+00
          2   -1    0    0  501    0  0.00000000000E+00  0.00000000000E+00  0.23982781879E+02  0.23982781879E+02  0.00000000000E+00 0. -1.
         -2   -1    0    0    0  501 -0.00000000000E+00 -0.00000000000E+00 -0.63185191838E+02  0.63185191838E+02  0.00000000000E+00 0. -1.
          2    1    1    2  502    0  0.66690671203E+01 -0.21330703974E+02  0.16084230578E+02  0.27535029718E+02  0.00000000000E+00 0. -1.
         -2    1    1    2    0  502 -0.66690671203E+01  0.21330703974E+02 -0.55286640537E+02  0.59632944000E+02  0.00000000000E+00 0. -1.
</event>
<event>
 4    1  0.3196713E+003  0.3366164E+02  0.7546771E-02  0.1390224E+00
          2   -1    0    0  501    0  0.00000000000E+00  0.00000000000E+00  0.24825382493E+03  0.24825382493E+03  0.00000000000E+00 0.  1.
         -2   -1    0    0    0  501 -0.00000000000E+00 -0.00000000000E+00 -0.93269362624E+01  0.93269362624E+01  0.00000000000E+00 0.  1.
          2    1    1    2  502    0 -0.14297602252E+02  0.30474324687E+02  0.21149514608E+03  0.21415719159E+03  0.00000000000E+00 0.  1.
         -2    1    1    2    0  502  0.14297602252E+02 -0.30474324687E+02  0.27431742584E+02  0.43423569597E+02  0.00000000000E+00 0.  1.
</event>
<event>
 4    1  0.3196713E+003  0.2176429E+02  0.7546771E-02  0.1508627E+00
          2   -1    0    0  501    0  0.00000000000E+00  0.00000000000E+00  0.69676348883E+03  0.69676348883E+03  0.00000000000E+00 0. -1.
         -2   -1    0    0    0  501 -0.00000000000E+00 -0.00000000000E+00 -0.31286114494E+01  0.31286114494E+01  0.00000000000E+00 0.  1.
          2    1    1    2  502    0  0.20631664119E+02  0.69295665560E+01  0.65641663090E+03  0.65677734262E+03  0.00000000000E+00 0. -1.
         -2    1    1    2    0  502 -0.20631664119E+02 -0.69295665560E+01  0.37218246483E+02  0.43114757662E+02  0.00000000000E+00 0.  1.
</event>
<event>
 4    1  0.3196713E+003  0.3006336E+02  0.7546771E-02  0.1419047E+00
          2   -1    0    0  501    0  0.00000000000E+00  0.00000000000E+00  0.11369797962E+01  0.11369797962E+01  0.00000000000E+00 0. -1.
         -2   -1    0    0    0  501 -0.00000000000E+00 -0.00000000000E+00 -0.92414197602E+03  0.92414197602E+03  0.00000000000E+00 0. -1.
          2    1    1    2  502    0  0.20960357227E+02  0.21551546469E+02 -0.28850299574E+03  0.29006513800E+03  0.00000000000E+00 0. -1.
         -2    1    1    2    0  502 -0.20960357227E+02 -0.21551546469E+02 -0.63450200048E+03  0.63521381781E+03  0.00000000000E+00 0. -1.
</event>
<event>
 4    1  0.3196713E+003  0.2292292E+02  0.7546771E-02  0.1493468E+00
          2   -1    0    0  501    0  0.00000000000E+00  0.00000000000E+00  0.26093355073E+02  0.26093355073E+02  0.00000000000E+00 0.  1.
         -2   -1    0    0    0  501 -0.00000000000E+00 -0.00000000000E+00 -0.95622011069E+02  0.95622011069E+02  0.00000000000E+00 0.  1.
          2    1    1    2  502    0 -0.11618093849E+02  0.19760573259E+02  0.19306721970E+02  0.29970149707E+02  0.00000000000E+00 0.  1.
         -2    1    1    2    0  502  0.11618093849E+02 -0.19760573259E+02 -0.88835377967E+02  0.91745216435E+02  0.00000000000E+00 0.  1.
</event>
<event>
 4    1  0.3196713E+003  0.2684535E+02  0.7546771E-02  0.1449168E+00
          2   -1    0    0  501    0  0.00000000000E+00  0.00000000000E+00  0.82097448105E+03  0.82097448105E+03  0.00000000000E+00 0. -1.
         -2   -1    0    0    0  501 -0.00000000000E+00 -0.00000000000E+00 -0.87851974516E+00  0.87851974516E+00  0.00000000000E+00 0. -1.
          2    1    1    2  502    0  0.23259784717E+02  0.13403525266E+02  0.39849367808E+03  0.39939689977E+03  0.00000000000E+00 0. -1.
         -2    1    1    2    0  502 -0.23259784717E+02 -0.13403525266E+02  0.42160228322E+03  0.42245610102E+03  0.00000000000E+00 0. -1.
</event>
<event>
 4    1  0.3196713E+003  0.3243105E+02  0.7546771E-02  0.1399583E+00
          2   -1    0    0  501    0  0.00000000000E+00  0.00000000000E+00  0.45915676441E+03  0.45915676441E+03  0.00000000000E+00 0. -1.
         -2   -1    0    0    0  501 -0.00000000000E+00 -0.00000000000E+00 -0.71384939188E+01  0.71384939188E+01  0.00000000000E+00 0.  1.
          2    1    1    2  502    0  0.32421227575E+02 -0.79803968874E+00  0.41814192647E+03  0.41939771523E+03  0.00000000000E+00 0. -1.
         -2    1    1    2    0  502 -0.32421227575E+02  0.79803968874E+00  0.33876344022E+02  0.46897543103E+02  0.00000000000E+00 0.  1.
</event>
<event>
 4    1  0.3196713E+003  0.2047770E+02  0.7546771E-02  0.1526854E+00
          2   -1    0    0  501    0  0.00000000000E+00  0.00000000000E+00  0.73408626564E+01  0.73408626564E+01  0.00000000000E+00 0.  1.
         -2   -1    0    0    0  501 -0.00000000000E+00 -0.00000000000E+00 -0.12734466925E+03  0.12734466925E+03  0.00000000000E+00 0.  1.
          2    1    1    2  502    0  0.20437309335E+02 -0.12855090769E+01 -0.99944849982E+01  0.22786528406E+02  0.00000000000E+00 0.  1.
         -2    1    1    2    0  502 -0.20437309335E+02  0.12855090769E+01 -0.11000932160E+03  0.11189900350E+03  0.00000000000E+00 0.  1.
</event>
<event>
 4    1  0.3196713E+003  0.2092170E+02  0.7546771E-02  0.1520386E+00
          2   -1    0    0  501    0  0.00000000000E+00  0.00000000000E+00  0.37671625273E+01  0.37671625273E+01  0.00000000000E+00 0. -1.
         -2   -1    0    0    0  501 -0.00000000000E+00 -0.00000000000E+00 -0.38611329840E+03  0.38611329840E+03  0.00000000000E+00 0.  1.
          2    1    1    2  502    0 -0.12778216546E+02 -0.16566072124E+02 -0.28182698882E+02  0.35099602277E+02  0.00000000000E+00 0. -1.
         -2    1    1    2    0  502  0.12778216546E+02  0.16566072124E+02 -0.35416343699E+03  0.35478085865E+03  0.00000000000E+00 0.  1.
</event>
<event>
 4    1  0.3196713E+003  0.3028646E+02  0.7546771E-02  0.1417123E+00
          2   -1    0    0  501    0  0.00000000000E+00  0.00000000000E+00  0.89539771172E+01  0.89539771172E+01  0.00000000000E+00 0.  1.
         -2   -1    0    0    0  501 -0.00000000000E+00 -0.00000000000E+00 -0.11302633462E+03  0.11302633462E+03  0.00000000000E+00 0.  1.
          2    1    1    2  502    0  0.30231359037E+02 -0.18260173704E+01 -0.33372907864E+02  0.45066843554E+02  0.00000000000E+00 0.  1.
         -2    1    1    2    0  502 -0.30231359037E+02  0.18260173704E+01 -0.70699449635E+02  0.76913468179E+02  0.00000000000E+00 0.  1.
</event>
<event>
 4    1  0.3196713E+003  0.2077956E+02  0.7546771E-02  0.1522436E+00
          2   -1    0    0  501    0  0.00000000000E+00  0.00000000000E+00  0.28936215208E+03  0.28936215208E+03  0.00000000000E+00 0. -1.
         -2   -1    0    0    0  501 -0.00000000000E+00 -0.00000000000E+00 -0.27450509951E+01  0.27450509951E+01  0.00000000000E+00 0. -1.
          2    1    1    2  502    0  0.20311765425E+02  0.43843195834E+01  0.24197839774E+03  0.24286896682E+03  0.00000000000E+00 0. -1.
         -2    1    1    2    0  502 -0.20311765425E+02 -0.43843195834E+01  0.44638703347E+02  0.49238236254E+02  0.00000000000E+00 0. -1.
</event>
<event>
 4    1  0.3196713E+003  0.3510850E+02  0.7546771E-02  0.1379802E+00
          2   -1    0    0  501    0  0.00000000000E+00  0.00000000000E+00  0.16772993517E+03  0.16772993517E+03  0.00000000000E+00 0.  1.
         -2   -1    0    0    0  501 -0.00000000000E+00 -0.00000000000E+00 -0.32286816539E+02  0.32286816539E+02  0.00000000000E+00 0. -1.
          2    1    1    2  502    0 -0.21538271865E+02 -0.27725617771E+02  0.15561471634E+03  0.15952600721E+03  0.00000000000E+00 0.  1.
         -2    1    1    2    0  502  0.21538271865E+02  0.27725617771E+02 -0.20171597708E+02  0.40490744496E+02  0.00000000000E+00 0. -1.
</event>
<event>
 4    1  0.3196713E+003  0.2010613E+02  0.7546771E-02  0.1532420E+00
          2   -1    0    0  501    0  0.00000000000E+00  0.00000000000E+00  0.21538396165E+02  0.21538396165E+02  0.00000000000E+00 0. -1.
         -2   -1    0    0    0  501 -0.00000000000E+00 -0.00000000000E+00 -0.32942696160E+02  0.32942696160E+02  0.00000000000E+00 0. -1.
          2    1    1    2  502    0 -0.11037038238E+02 -0.16805954620E+02  0.12165862968E+02  0.23500309477E+02  0.00000000000E+00 0. -1.
         -2    1    1    2    0  502  0.11037038238E+02  0.16805954620E+02 -0.23570162963E+02  0.30980782848E+02  0.00000000000E+00 0. -1.
</event>
<event>
 4    1  0.3196713E+003  0.2568254E+02  0.7546771E-02  0.1461311E+00
          2   -1    0    0  501    0  0.00000000000E+00  0.00000000000E+00  0.12953078490E+04  0.12953078490E+04  0.00000000000E+00 0.  1.
         -2   -1    0    0    0  501 -0.00000000000E+00 -0.00000000000E+00 -0.62705528718E+00  0.62705528718E+00  0.00000000000E+00 0. -1.
          2    1    1    2  502    0 -0.24593618519E+02  0.73990653365E+01  0.36644524120E+03  0.36734412618E+03  0.00000000000E+00 0. -1.
         -2    1    1    2    0  502  0.24593618519E+02 -0.73990653365E+01  0.92823555253E+03  0.92859077812E+03  0.00000000000E+00 0.  1.
</event>
<event>
 4    1  0.3196713E+003  0.5284521E+02  0.7546771E-02  0.1286286E+00
          2   -1    0    0  501    0  0.00000000000E+00  0.00000000000E+00  0.16427608246E+04  0.16427608246E+04  0.00000000000E+00 0. -1.
         -2   -1    0    0    0  501 -0.00000000000E+00 -0.00000000000E+00 -0.19340883215E+01  0.19340883215E+01  0.00000000000E+00 0. -1.
          2    1    1    2  502    0 -0.17786272413E+02 -0.49762085846E+02  0.11065348054E+04  0.11077959615E+04  0.00000000000E+00 0. -1.
         -2    1    1    2    0  502  0.17786272413E+02  0.49762085846E+02  0.53429193084E+03  0.53689895141E+03  0.00000000000E+00 0. -1.
</event>
<event>
 4    1  0.3196713E+003  0.3953163E+02  0.7546771E-02  0.1351253E+00
          2   -1    0    0  501    0  0.00000000000E+00  0.00000000000E+00  0.37025430562E+02  0.37025430562E+02  0.00000000000E+00 0.  1.
         -2   -1    0    0    0  501 -0.00000000000E+00 -0.00000000000E+00 -0.16230260531E+03  0.16230260531E+03  0.00000000000E+00 0.  1.
          2    1    1    2  502    0  0.49724303726E+01 -0.39217653709E+02  0.23092507423E+02  0.45782238099E+02  0.00000000000E+00 0.  1.
         -2    1    1    2    0  502 -0.49724303726E+01  0.39217653709E+02 -0.14836968217E+03  0.15354579778E+03  0.00000000000E+00 0.  1.
</event>
<event>
 4    1  0.3196713E+003  0.3675958E+02  0.7546771E-02  0.1368598E+00
          2   -1    0    0  501    0  0.00000000000E+00  0.00000000000E+00  0.11404014981E+04  0.11404014981E+04  0.00000000000E+00 0.  1.
         -2   -1    0    0    0  501 -0.00000000000E+00 -0.00000000000E+00 -0.12000610392E+01  0.12000610392E+01  0.00000000000E+00 0.  1.
          2    1    1    2  502    0 -0.12159222427E+02 -0.34690344106E+02  0.63374906411E+03  0.63481425860E+03  0.00000000000E+00 0.  1.
         -2    1    1    2    0  502  0.12159222427E+02  0.34690344106E+02  0.50545237297E+03  0.50678730055E+03  0.00000000000E+00 0.  1.
</event>
<event>
 4    1  0.3196713E+003  0.2109941E+02  0.7546771E-02  0.1517850E+00
          2   -1    0    0  501    0  0.00000000000E+00  0.00000000000E+00  0.37640284465E+02  0.37640284465E+02  0.00000000000E+00 0.  1.
         -2   -1    0    0    0  501 -0.00000000000E+00 -0.00000000000E+00 -0.33827550693E+02  0.33827550693E+02  0.00000000000E+00 0.  1.
          2    1    1    2  502    0  0.31979986179E+01 -0.20855648345E+02  0.30724016682E+02  0.37271308860E+02  0.00000000000E+00 0.  1.
         -2    1    1    2    0  502 -0.31979986179E+01  0.20855648345E+02 -0.26911282910E+02  0.34196526299E+02  0.00000000000E+00 0.  1.
</event>
<event>
 4    1  0.3196713E+003  0.5576900E+02  0.7546771E-02  0.1274928E+00
          2   -1    0    0  501    0  0.00000000000E+00  0.00000000000E+00  0.24130732484E+03  0.24130732484E+03  0.00000000000E+00 0. -1.
         -2   -1    0    0    0  501 -0.00000000000E+00 -0.00000000000E+00 -0.18114913246E+02  0.18114913246E+02  0.00000000000E+00 0.  1.
          2    1    1    2  502    0  0.55536901510E+02 -0.50826600036E+01  0.18126610963E+03  0.18965121503E+03  0.00000000000E+00 0. -1.
         -2    1    1    2    0  502 -0.55536901510E+02  0.50826600036E+01  0.41926301969E+02  0.69771023060E+02  0.00000000000E+00 0.  1.
</event>
<event>
 4    1  0.3196713E+003  0.2423276E+02  0.7546771E-02  0.1477572E+00
          2   -1    0    0  501    0  0.00000000000E+00  0.00000000000E+00  0.47769870911E+03  0.47769870911E+03  0.00000000000E+00 0.  1.
         -2   -1    0    0    0  501 -0.00000000000E+00 -0.00000000000E+00 -0.33486089325E+02  0.33486089325E+02  0.00000000000E+00 0.  1.
          2    1    1    2  502    0  0.18369543809E+02 -0.15804637478E+02  0.47296341435E+03  0.47358380253E+03  0.00000000000E+00 0.  1.
         -2    1    1    2    0  502 -0.18369543809E+02  0.15804637478E+02 -0.28750794560E+02  0.37600995909E+02  0.00000000000E+00 0.  1.
</event>
<event>
 4    1  0.3196713E+003  0.3029989E+02  0.7546771E-02  0.1417008E+00
          2   -1    0    0  501    0  0.00000000000E+00  0.00000000000E+00  0.19043681025E+04  0.19043681025E+04  0.00000000000E+00 0. -1.
         -2   -1    0    0    0  501 -0.00000000000E+00 -0.00000000000E+00 -0.74198227424E+00  0.74198227424E+00  0.00000000000E+00 0. -1.
          2    1    1    2  502    0 -0.11988776368E+02 -0.27827195903E+02  0.15155636752E+04  0.15158665301E+04  0.00000000000E+00 0. -1.
         -2    1    1    2    0  502  0.11988776368E+02  0.27827195903E+02  0.38806244501E+03  0.38924355462E+03  0.00000000000E+00 0. -1.
</event>
<event>
 4    1  0.3196713E+003  0.2668544E+02  0.7546771E-02  0.1450794E+00
          2   -1    0    0  501    0  0.00000000000E+00  0.00000000000E+00  0.86039395845E+02  0.86039395845E+02  0.00000000000E+00 0. -1.
         -2   -1    0    0    0  501 -0.00000000000E+00 -0.00000000000E+00 -0.90124055272E+01  0.90124055272E+01  0.00000000000E+00 0. -1.
          2    1    1    2  502    0 -0.75470905386E+01  0.25595973927E+02  0.52093366507E+02  0.58530601321E+02  0.00000000000E+00 0. -1.
         -2    1    1    2    0  502  0.75470905386E+01 -0.25595973927E+02  0.24933623811E+02  0.36521200052E+02  0.00000000000E+00 0. -1.
</event>
<event>
 4    1  0.3196713E+003  0.2599262E+02  0.7546771E-02  0.1457999E+00
          2   -1    0    0  501    0  0.00000000000E+00  0.00000000000E+00  0.19609393160E+03  0.19609393160E+03  0.00000000000E+00 0.  1.
         -2   -1    0    0    0  501 -0.00000000000E+00 -0.00000000000E+00 -0.52250091037E+01  0.52250091037E+01  0.00000000000E+00 0.  1.
          2    1    1    2  502    0  0.25943408699E+02 -0.15986697691E+01  0.15418029251E+03  0.15635593624E+03  0.00000000000E+00 0.  1.
         -2    1    1    2    0  502 -0.25943408699E+02  0.15986697691E+01  0.36688629994E+02  0.44963004468E+02  0.00000000000E+00 0.  1.
</event>
<event>
 4    1  0.3196713E+003  0.2262129E+02  0.7546771E-02  0.1497309E+00
          2   -1    0    0  501    0  0.00000000000E+00  0.00000000000E+00  0.65533796726E+03  0.65533796726E+03  0.00000000000E+00 0.  1.
         -2   -1    0    0    0  501 -0.00000000000E+00 -0.00000000000E+00 -0.18260851468E+02  0.18260851468E+02  0.00000000000E+00 0.  1.
          2    1    1    2  502    0 -0.28975091403E+01  0.22434959831E+02  0.64805834431E+03  0.64845303655E+03  0.00000000000E+00 0.  1.
         -2    1    1    2    0  502  0.28975091403E+01 -0.22434959831E+02 -0.10981228514E+02  0.25145782181E+02  0.00000000000E+00 0.  1.
</event>
<event>
 4    1  0.3196713E+003  0.2488301E+02  0.7546771E-02  0.1470116E+00
          2   -1    0    0  501    0  0.00000000000E+00  0.00000000000E+00  0.15154181746E+03  0.15154181746E+03  0.00000000000E+00 0.  1.
         -2   -1    0    0    0  501 -0.00000000000E+00 -0.00000000000E+00 -0.35609179521E+02  0.35609179521E+02  0.00000000000E+00 0.  1.
          2    1    1    2  502    0  0.15163305208E+02 -0.19729119141E+02  0.14600992164E+03  0.14811502687E+03  0.00000000000E+00 0.  1.
         -2    1    1    2    0  502 -0.15163305208E+02  0.19729119141E+02 -0.30077283707E+02  0.39035970106E+02  0.00000000000E+00 0.  1.
</event>
<event>
 4    1  0.3196713E+003  0.2298217E+02  0.7546771E-02  0.1492722E+00
          2   -1    0    0  501    0  0.00000000000E+00  0.00000000000E+00  0.37740906074E+03  0.37740906074E+03  0.00000000000E+00 0. -1.
         -2   -1    0    0    0  501 -0.00000000000E+00 -0.00000000000E+00 -0.28944881808E+02  0.28944881808E+02  0.00000000000E+00 0.  1.
          2    1    1    2  502    0  0.19338016798E+02  0.12418582231E+02  0.37243638920E+03  0.37314480310E+03  0.00000000000E+00 0. -1.
         -2    1    1    2    0  502 -0.19338016798E+02 -0.12418582231E+02 -0.23972210265E+02  0.33209139454E+02  0.00000000000E+00 0.  1.
</event>
<event>
 4    1  0.3196713E+003  0.5673614E+02  0.7546771E-02  0.1271344E+00
          2   -1    0    0  501    0  0.00000000000E+00  0.00000000000E+00  0.98622699485E+01  0.98622699485E+01  0.00000000000E+00 0. -1.
         -2   -1    0    0    0  501 -0.00000000000E+00 -0.00000000000E+00 -0.34896648400E+03  0.34896648400E+03  0.00000000000E+00 0.  1.
          2    1    1    2  502    0  0.37771520037E+02  0.42335585605E+02 -0.12392201383E+03  0.13629253481E+03  0.00000000000E+00 0. -1.
         -2    1    1    2    0  502 -0.37771520037E+02 -0.42335585605E+02 -0.21518220023E+03  0.22253621914E+03  0.00000000000E+00 0.  1.
</event>
<event>
 4    1  0.3196713E+003  0.2328319E+02  0.7546771E-02  0.1488972E+00
          2   -1    0    0  501    0  0.00000000000E+00  0.00000000000E+00  0.11706595486E+04  0.11706595486E+04  0.00000000000E+00 0.  1.
         -2   -1    0    0    0  501 -0.00000000000E+00 -0.00000000000E+00 -0.64811967013E+00  0.64811967013E+00  0.00000000000E+00 0. -1.
          2    1    1    2  502    0 -0.10089538961E+02 -0.20983516995E+02  0.89793633389E+03  0.89823814576E+03  0.00000000000E+00 0.  1.
         -2    1    1    2    0  502  0.10089538961E+02  0.20983516995E+02  0.27207509502E+03  0.27306952249E+03  0.00000000000E+00 0. -1.
</event>
<event>
 4    1  0.3196713E+003  0.2088499E+02  0.7546771E-02  0.1520913E+00
          2   -1    0    0  501    0  0.00000000000E+00  0.00000000000E+00  0.64024390369E+03  0.64024390369E+03  0.00000000000E+00 0.  1.
         -2   -1    0    0    0  501 -0.00000000000E+00 -0.00000000000E+00 -0.91071010335E+00  0.91071010335E+00  0.00000000000E+00 0. -1.
          2    1    1    2  502    0 -0.20799942236E+02  0.18828251997E+01  0.48057248912E+03  0.48102609070E+03  0.00000000000E+00 0.  1.
         -2    1    1    2    0  502  0.20799942236E+02 -0.18828251997E+01  0.15876070446E+03  0.16012852310E+03  0.00000000000E+00 0. -1.
</event>
<event>
 4    1  0.3196713E+003  0.2135416E+02  0.7546771E-02  0.1514268E+00
          2   -1    0    0  501    0  0.00000000000E+00  0.00000000000E+00  0.24702920773E+02  0.24702920773E+02  0.00000000000E+00 0. -1.
         -2   -1    0    0    0  501 -0.00000000000E+00 -0.00000000000E+00 -0.33553117591E+02  0.33553117591E+02  0.00000000000E+00 0.  1.
          2    1    1    2  502    0 -0.20789823452E+02  0.48768029536E+01  0.15111244980E+02  0.26160078193E+02  0.00000000000E+00 0. -1.
         -2    1    1    2    0  502  0.20789823452E+02 -0.48768029536E+01 -0.23961441798E+02  0.32095960171E+02  0.00000000000E+00 0.  1.
</event>
<event>
 4    1  0.3196713E+003  0.3158070E+02  0.7546771E-02  0.1406340E+00
          2   -1    0    0  501    0  0.00000000000E+00  0.00000000000E+00  0.16627239294E+04  0.16627239294E+04  0.00000000000E+00 0. -1.
         -2   -1    0    0    0  501 -0.00000000000E+00 -0.00000000000E+00 -0.51709880566E+02  0.51709880566E+02  0.00000000000E+00 0. -1.
          2    1    1    2  502    0  0.23079997071E+02 -0.21555839511E+02  0.16577376635E+04  0.16580384499E+04  0.00000000000E+00 0. -1.
         -2    1    1    2    0  502 -0.23079997071E+02  0.21555839511E+02 -0.46723614586E+02  0.56395360109E+02  0.00000000000E+00 0. -1.
</event>
<event>
 4    1  0.3196713E+003  0.3042768E+02  0.7546771E-02  0.1415916E+00
          2   -1    0    0  501    0  0.00000000000E+00  0.00000000000E+00  0.19152235305E+04  0.19152235305E+04  0.00000000000E+00 0. -1.
         -2   -1    0    0    0  501 -0.00000000000E+00 -0.00000000000E+00 -0.66430918194E+02  0.66430918194E+02  0.00000000000E+00 0.  1.
          2    1    1    2  502    0 -0.28638158895E+02  0.10281028670E+02  0.19116118599E+04  0.19118540076E+04  0.00000000000E+00 0. -1.
         -2    1    1    2    0  502  0.28638158895E+02 -0.10281028670E+02 -0.62819247612E+02  0.69800441016E+02  0.00000000000E+00 0.  1.
</event>
<event>
 4    1  0.3196713E+003  0.3670602E+02  0.7546771E-02  0.1368950E+00
          2   -1    0    0  501    0  0.00000000000E+00  0.00000000000E+00  0.19820906735E+03  0.19820906735E+03  0.00000000000E+00 0. -1.
         -2   -1    0    0    0  501 -0.00000000000E+00 -0.00000000000E+00 -0.82439112397E+01  0.82439112397E+01  0.00000000000E+00 0. -1.
          2    1    1    2  502    0  0.35417181908E+02  0.96413095401E+01  0.13822064210E+03  0.14301145942E+03  0.00000000000E+00 0. -1.
         -2    1    1    2    0  502 -0.35417181908E+02 -0.96413095401E+01  0.51744514010E+02  0.63441519166E+02  0.00000000000E+00 0. -1.
</event>
<event>
 4    1  0.3196713E+003  0.6779955E+02  0.7546771E-02  0.1235411E+00
          2   -1    0    0  501    0  0.00000000000E+00  0.00000000000E+00  0.44065127950E+03  0.44065127950E+03  0.00000000000E+00 0. -1.
         -2   -1    0    0    0  501 -0.00000000000E+00 -0.00000000000E+00 -0.13201004400E+02  0.13201004400E+02  0.00000000000E+00 0. -1.
          2    1    1    2  502    0 -0.23050404687E+02  0.63760940670E+02  0.31765966560E+03  0.32481447299E+03  0.00000000000E+00 0. -1.
         -2    1    1    2    0  502  0.23050404687E+02 -0.63760940670E+02  0.10979060950E+03  0.12903781091E+03  0.00000000000E+00 0. -1.
</event>
<event>
 4    1  0.3196713E+003  0.2053990E+02  0.7546771E-02  0.1525936E+00
          2   -1    0    0  501    0  0.00000000000E+00  0.00000000000E+00  0.24267646493E+02  0.24267646493E+02  0.00000000000E+00 0. -1.
         -2   -1    0    0    0  501 -0.00000000000E+00 -0.00000000000E+00 -0.24287509629E+02  0.24287509629E+02  0.00000000000E+00 0. -1.
          2    1    1    2  502    0  0.55561176314E+01  0.19774155421E+02  0.12932752086E+02  0.24272283417E+02  0.00000000000E+00 0. -1.
         -2    1    1    2    0  502 -0.55561176314E+01 -0.19774155421E+02 -0.12952615222E+02  0.24282872705E+02  0.00000000000E+00 0. -1.
</event>
<event>
 4    1  0.3196713E+003  0.2090678E+02  0.7546771E-02  0.1520600E+00
          2   -1    0    0  501    0  0.00000000000E+00  0.00000000000E+00  0.46580041062E+03  0.46580041062E+03  0.00000000000E+00 0. -1.
         -2   -1    0    0    0  501 -0.00000000000E+00 -0.00000000000E+00 -0.14815325043E+02  0.14815325043E+02  0.00000000000E+00 0.  1.
          2    1    1    2  502    0 -0.16459933370E+02  0.12890464945E+02  0.45806564002E+03  0.45854249973E+03  0.00000000000E+00 0. -1.
         -2    1    1    2    0  502  0.16459933370E+02 -0.12890464945E+02 -0.70805544466E+01  0.22073235928E+02  0.00000000000E+00 0.  1.
</event>
<event>
 4    1  0.3196713E+003  0.2083738E+02  0.7546771E-02  0.1521599E+00
          2   -1    0    0  501    0  0.00000000000E+00  0.00000000000E+00  0.56524420113E+03  0.56524420113E+03  0.00000000000E+00 0.  1.
         -2   -1    0    0    0  501 -0.00000000000E+00 -0.00000000000E+00 -0.32232994638E+02  0.32232994638E+02  0.00000000000E+00 0. -1.
          2    1    1    2  502    0 -0.20737256466E+02 -0.20402852943E+01  0.56166305655E+03  0.56204945126E+03  0.00000000000E+00 0.  1.
         -2    1    1    2    0  502  0.20737256466E+02  0.20402852943E+01 -0.28651850052E+02  0.35427744512E+02  0.00000000000E+00 0. -1.
</event>
<event>
 4    1  0.3196713E+003  0.2614824E+02  0.7546771E-02  0.1456357E+00
          2   -1    0    0  501    0  0.00000000000E+00  0.00000000000E+00  0.18984167030E+04  0.18984167030E+04  0.00000000000E+00 0. -1.
         -2   -1    0    0    0  501 -0.00000000000E+00 -0.00000000000E+00 -0.51089073995E+01  0.51089073995E+01  0.00000000000E+00 0.  1.
          2    1    1    2  502    0  0.17505692990E+01 -0.26089578460E+02  0.18642558389E+04  0.18644392089E+04  0.00000000000E+00 0. -1.
         -2    1    1    2    0  502 -0.17505692990E+01  0.26089578460E+02  0.29051956629E+02  0.39086401485E+02  0.00000000000E+00 0.  1.
</event>
<event>
 4    1  0.3196713E+003  0.2251353E+02  0.7546771E-02  0.1498699E+00
          2   -1    0    0  501    0  0.00000000000E+00  0.00000000000E+00  0.12996968526E+02  0.12996968526E+02  0.00000000000E+00 0.  1.
         -2   -1    0    0    0  501 -0.00000000000E+00 -0.00000000000E+00 -0.10290800123E+03  0.10290800123E+03  0.00000000000E+00 0. -1.
          2    1    1    2  502    0  0.60132261178E+01  0.21695621129E+02  0.71449262853E+00  0.22524861026E+02  0.00000000000E+00 0.  1.
         -2    1    1    2    0  502 -0.60132261178E+01 -0.21695621129E+02 -0.90625525329E+02  0.93380108726E+02  0.00000000000E+00 0. -1.
</event>
<event>
 4    1  0.3196713E+003  0.2362563E+02  0.7546771E-02  0.1484788E+00
          2   -1    0    0  501    0  0.00000000000E+00  0.00000000000E+00  0.15919886183E+03  0.15919886183E+03  0.00000000000E+00 0.  1.
         -2   -1    0    0    0  501 -0.00000000000E+00 -0.00000000000E+00 -0.51046732967E+01  0.51046732967E+01  0.00000000000E+00 0.  1.
          2    1    1    2  502    0  0.65521746049E+01 -0.22698884478E+02  0.12301941905E+03  0.12526750502E+03  0.00000000000E+00 0.  1.
         -2    1    1    2    0  502 -0.65521746049E+01  0.22698884478E+02  0.31074769479E+02  0.39036030110E+02  0.00000000000E+00 0.  1.
</event>
<event>
 4    1  0.3196713E+003  0.3998896E+02  0.7546771E-02  0.1348551E+00
          2   -1    0    0  501    0  0.00000000000E+00  0.00000000000E+00  0.31006004964E+03  0.31006004964E+03  0.00000000000E+00 0.  1.
         -2   -1    0    0    0  501 -0.00000000000E+00 -0.00000000000E+00 -0.34074797230E+02  0.34074797230E+02  0.00000000000E+00 0.  1.
          2    1    1    2  502    0  0.39977313151E+02 -0.96495231320E+00  0.29650431794E+03  0.29918878197E+03  0.00000000000E+00 0.  1.
         -2    1    1    2    0  502 -0.39977313151E+02  0.96495231320E+00 -0.20519065531E+02  0.44946064900E+02  0.00000000000E+00 0.  1.
</event>
<event>
 4    1  0.3196713E+003  0.2155718E+02  0.7546771E-02  0.1511456E+00
          2   -1    0    0  501    0  0.00000000000E+00  0.00000000000E+00  0.57654559834E+02  0.57654559834E+02  0.00000000000E+00 0.  1.
         -2   -1    0    0    0  501 -0.00000000000E+00 -0.00000000000E+00 -0.37374891735E+02  0.37374891735E+02  0.00000000000E+00 0. -1.
          2    1    1    2  502    0  0.14040618744E+02 -0.16357653822E+02  0.52220280554E+02  0.56494862726E+02  0.00000000000E+00 0.  1.
         -2    1    1    2    0  502 -0.14040618744E+02  0.16357653822E+02 -0.31940612455E+02  0.38534588843E+02  0.00000000000E+00 0. -1.
</event>
<event>
 4    1  0.3196713E+003  0.2552709E+02  0.7546771E-02  0.1462992E+00
          2   -1    0    0  501    0  0.00000000000E+00  0.00000000000E+00  0.31346713469E+03  0.31346713469E+03  0.00000000000E+00 0. -1.
         -2   -1    0    0    0  501 -0.00000000000E+00 -0.00000000000E+00 -0.32296817496E+01  0.32296817496E+01  0.00000000000E+00 0. -1.
          2    1    1    2  502    0 -0.20367022669E+02 -0.15388844319E+02  0.24964470850E+03  0.25094643377E+03  0.00000000000E+00 0. -1.
         -2    1    1    2    0  502  0.20367022669E+02  0.15388844319E+02  0.60592744441E+02  0.65750382666E+02  0.00000000000E+00 0. -1.
</event>
<event>
 4    1  0.3196713E+003  0.2073200E+02  0.7546771E-02  0.1523126E+00
          2   -1    0    0  501    0  0.00000000000E+00  0.00000000000E+00  0.77977832876E+01  0.77977832876E+01  0.00000000000E+00 0. -1.
         -2   -1    0    0    0  501 -0.00000000000E+00 -0.00000000000E+00 -0.88834700296E+03  0.88834700296E+03  0.00000000000E+00 0. -1.
          2    1    1    2  502    0  0.17954946080E+02 -0.10365128080E+02 -0.63258395525E+01  0.21675613368E+02  0.00000000000E+00 0. -1.
         -2    1    1    2    0  502 -0.17954946080E+02  0.10365128080E+02 -0.87422338012E+03  0.87446917288E+03  0.00000000000E+00 0. -1.
</event>
<event>
 4    1  0.3196713E+003  0.2157212E+02  0.7546771E-02  0.1511251E+00
          2   -1    0    0  501    0  0.00000000000E+00  0.00000000000E+00  0.11823482894E+04  0.11823482894E+04  0.00000000000E+00 0.  1.
         -2   -1    0    0    0  501 -0.00000000000E+00 -0.00000000000E+00 -0.21422589016E+02  0.21422589016E+02  0.00000000000E+00 0. -1.
          2    1    1    2  502    0  0.17336464684E+02 -0.12837580274E+02  0.11767935860E+04  0.11769912916E+04  0.00000000000E+00 0.  1.
         -2    1    1    2    0  502 -0.17336464684E+02  0.12837580274E+02 -0.15867885622E+02  0.26779586799E+02  0.00000000000E+00 0. -1.
</event>
<event>
 4    1  0.3196713E+003  0.2241692E+02  0.7546771E-02  0.1499953E+00
          2   -1    0    0  501    0  0.00000000000E+00  0.00000000000E+00  0.71537478787E+03  0.71537478787E+03  0.00000000000E+00 0. -1.
         -2   -1    0    0    0  501 -0.00000000000E+00 -0.00000000000E+00 -0.32069450130E+01  0.32069450130E+01  0.00000000000E+00 0. -1.
          2    1    1    2  502    0  0.19375365666E+02 -0.11274472473E+02  0.67359587586E+03  0.67396878451E+03  0.00000000000E+00 0. -1.
         -2    1    1    2    0  502 -0.19375365666E+02  0.11274472473E+02  0.38571967007E+02  0.44612948378E+02  0.00000000000E+00 0. -1.
</event>
<event>
 4    1  0.3196713E+003  0.2290872E+02  0.7546771E-02  0.1493648E+00
          2   -1    0    0  501    0  0.00000000000E+00  0.00000000000E+00  0.23241947288E+01  0.23241947288E+01  0.00000000000E+00 0.  1.
         -2   -1    0    0    0  501 -0.00000000000E+00 -0.00000000000E+00 -0.67258168141E+03  0.67258168141E+03  0.00000000000E+00 0.  1.
          2    1    1    2  502    0 -0.21860302765E+02 -0.68510317942E+01 -0.60094317648E+02  0.64312801892E+02  0.00000000000E+00 0.  1.
         -2    1    1    2    0  502  0.21860302765E+02  0.68510317942E+01 -0.61016316904E+03  0.61059307425E+03  0.00000000000E+00 0.  1.
</event>
<event>
 4    1  0.3196713E+003  0.2436819E+02  0.7546771E-02  0.1475997E+00
          2   -1    0    0  501    0  0.00000000000E+00  0.00000000000E+00  0.29637730910E+03  0.29637730910E+03  0.00000000000E+00 0.  1.
         -2   -1    0    0    0  501 -0.00000000000E+00 -0.00000000000E+00 -0.15327304154E+03  0.15327304154E+03  0.00000000000E+00 0. -1.
          2    1    1    2  502    0  0.23153024074E+02 -0.75990802357E+01  0.29490303945E+03  0.29590811281E+03  0.00000000000E+00 0.  1.
         -2    1    1    2    0  502 -0.23153024074E+02  0.75990802357E+01 -0.15179877189E+03  0.15374223783E+03  0.00000000000E+00 0. -1.
</event>
<event>
 4    1  0.3196713E+003  0.2185792E+02  0.7546771E-02  0.1507360E+00
          2   -1    0    0  501    0  0.00000000000E+00  0.00000000000E+00  0.59613424332E+03  0.59613424332E+03  0.00000000000E+00 0. -1.
         -2   -1    0    0    0  501 -0.00000000000E+00 -0.00000000000E+00 -0.89750856492E+00  0.89750856492E+00  0.00000000000E+00 0. -1.
          2    1    1    2  502    0  0.12233735719E+02 -0.18113649564E+02  0.39528097373E+03  0.39588485293E+03  0.00000000000E+00 0. -1.
         -2    1    1    2    0  502 -0.12233735719E+02  0.18113649564E+02  0.19995576102E+03  0.20114689895E+03  0.00000000000E+00 0. -1.
</event>
<event>
 4    1  0.3196713E+003  0.2796508E+02  0.7546771E-02  0.1438147E+00
          2   -1    0    0  501    0  0.00000000000E+00  0.00000000000E+00  0.13516855439E+04  0.13516855439E+04  0.00000000000E+00 0.  1.
         -2   -1    0    0    0  501 -0.00000000000E+00 -0.00000000000E+00 -0.71338319710E+02  0.71338319710E+02  0.00000000000E+00 0.  1.
          2    1    1    2  502    0 -0.25318544112E+02 -0.11875049540E+02  0.13487944053E+04  0.13490842795E+04  0.00000000000E+00 0.  1.
         -2    1    1    2    0  502  0.25318544112E+02  0.11875049540E+02 -0.68447181166E+02  0.73939584034E+02  0.00000000000E+00 0.  1.
</event>
<event>
 4    1  0.3196713E+003  0.3379748E+02  0.7546771E-02  0.1389220E+00
          2   -1    0    0  501    0  0.00000000000E+00  0.00000000000E+00  0.24843226818E+04  0.24843226818E+04  0.00000000000E+00 0. -1.
         -2   -1    0    0    0  501 -0.00000000000E+00 -0.00000000000E+00 -0.46081586947E+00  0.46081586947E+00  0.00000000000E+00 0. -1.
          2    1    1    2  502    0  0.33708027164E+02 -0.24573187223E+01  0.13005182355E+04  0.13009573208E+04  0.00000000000E+00 0. -1.
         -2    1    1    2    0  502 -0.33708027164E+02  0.24573187223E+01  0.11833436304E+04  0.11838261769E+04  0.00000000000E+00 0. -1.
</event>
<event>
 4    1  0.3196713E+003  0.3134348E+02  0.7546771E-02  0.1408270E+00
          2   -1    0    0  501    0  0.00000000000E+00  0.00000000000E+00  0.36664386468E+03  0.36664386468E+03  0.00000000000E+00 0. -1.
         -2   -1    0    0    0  501 -0.00000000000E+00 -0.00000000000E+00 -0.52944284023E+02  0.52944284023E+02  0.00000000000E+00 0. -1.
          2    1    1    2  502    0 -0.10398608893E+02  0.29568274554E+02  0.36126616691E+03  0.36262329942E+03  0.00000000000E+00 0. -1.
         -2    1    1    2    0  502  0.10398608893E+02 -0.29568274554E+02 -0.47566586249E+02  0.56964849288E+02  0.00000000000E+00 0. -1.
</event>
<event>
 4    1  0.3196713E+003  0.2406775E+02  0.7546771E-02  0.1479509E+00
          2   -1    0    0  501    0  0.00000000000E+00  0.00000000000E+00  0.64137275915E+03  0.64137275915E+03  0.00000000000E+00 0. -1.
         -2   -1    0    0    0  501 -0.00000000000E+00 -0.00000000000E+00 -0.51843970289E+01  0.51843970289E+01  0.00000000000E+00 0.  1.
          2    1    1    2  502    0 -0.83231692152E+01  0.22582773407E+02  0.61186784912E+03  0.61234101739E+03  0.00000000000E+00 0. -1.
         -2    1    1    2    0  502  0.83231692152E+01 -0.22582773407E+02  0.24320513003E+02  0.34216138783E+02  0.00000000000E+00 0.  1.
</event>
<event>
 4    1  0.3196713E+003  0.2047226E+02  0.7546771E-02  0.1526935E+00
          2   -1    0    0  501    0  0.00000000000E+00  0.00000000000E+00  0.37090910183E+03  0.37090910183E+03  0.00000000000E+00 0.  1.
         -2   -1    0    0    0  501 -0.00000000000E+00 -0.00000000000E+00 -0.12244211776E+01  0.12244211776E+01  0.00000000000E+00 0. -1.
          2    1    1    2  502    0  0.11911601849E+02 -0.16650145389E+02  0.23652239021E+03  0.23740672836E+03  0.00000000000E+00 0.  1.
         -2    1    1    2    0  502 -0.11911601849E+02  0.16650145389E+02  0.13316229044E+03  0.13472679465E+03  0.00000000000E+00 0. -1.
</event>
<event>
 4    1  0.3196713E+003  0.2338786E+02  0.7546771E-02  0.1487684E+00
          2   -1    0    0  501    0  0.00000000000E+00  0.00000000000E+00  0.11789773088E+04  0.11789773088E+04  0.00000000000E+00 0.  1.
         -2   -1    0    0    0  501 -0.00000000000E+00 -0.00000000000E+00 -0.51453146717E+00  0.51453146717E+00  0.00000000000E+00 0. -1.
          2    1    1    2  502    0 -0.17378473619E+02 -0.15651862332E+02  0.77413024751E+03  0.77448346157E+03  0.00000000000E+00 0.  1.
         -2    1    1    2    0  502  0.17378473619E+02  0.15651862332E+02  0.40433252981E+03  0.40500837868E+03  0.00000000000E+00 0. -1.
</event>
<event>
 4    1  0.3196713E+003  0.2571904E+02  0.7546771E-02  0.1460918E+00
          2   -1    0    0  501    0  0.00000000000E+00  0.00000000000E+00  0.20384901345E+02  0.20384901345E+02  0.00000000000E+00 0.  1.
         -2   -1    0    0    0  501 -0.00000000000E+00 -0.00000000000E+00 -0.63483113967E+02  0.63483113967E+02  0.00000000000E+00 0. -1.
          2    1    1    2  502    0 -0.23973732408E+02 -0.93128468977E+01  0.77704352395E+01  0.26867240772E+02  0.00000000000E+00 0.  1.
         -2    1    1    2    0  502  0.23973732408E+02  0.93128468977E+01 -0.50868647862E+02  0.57000774540E+02  0.00000000000E+00 0. -1.
</event>
<event>
 4    1  0.3196713E+003  0.4093676E+02  0.7546771E-02  0.1343082E+00
          2   -1    0    0  501    0  0.00000000000E+00  0.00000000000E+00  0.78143654911E+03  0.78143654911E+03  0.00000000000E+00 0.  1.
         -2   -1    0    0    0  501 -0.00000000000E+00 -0.00000000000E+00 -0.21523775825E+01  0.21523775825E+01  0.00000000000E+00 0.  1.
          2    1    1    2  502    0 -0.23581144209E+02  0.33462631518E+02  0.41329186978E+03  0.41531432397E+03  0.00000000000E+00 0.  1.
         -2    1    1    2    0  502  0.23581144209E+02 -0.33462631518E+02  0.36599230175E+03  0.36827460272E+03  0.00000000000E+00 0.  1.
</event>
<event>
 4    1  0.3196713E+003  0.2376823E+02  0.7546771E-02  0.1483070E+00
          2   -1    0    0  501    0  0.00000000000E+00  0.00000000000E+00  0.39208027289E+03  0.39208027289E+03  0.00000000000E+00 0.  1.
         -2   -1    0    0    0  501 -0.00000000000E+00 -0.00000000000E+00 -0.18993797334E+01  0.18993797334E+01  0.00000000000E+00 0. -1.
          2    1    1    2  502    0  0.16657980110E+02 -0.16954068787E+02  0.29187850622E+03  0.29284465360E+03  0.00000000000E+00 0.  1.
         -2    1    1    2    0  502 -0.16657980110E+02  0.16954068787E+02  0.98302386944E+02  0.10113499903E+03  0.00000000000E+00 0. -1.
</event>
<event>
 4    1  0.3196713E+003  0.2107098E+02  0.7546771E-02  0.1518254E+00
          2   -1    0    0  501    0  0.00000000000E+00  0.00000000000E+00  0.52452713182E+03  0.52452713182E+03  0.00000000000E+00 0. -1.
         -2   -1    0    0    0  501 -0.00000000000E+00 -0.00000000000E+00 -0.12712949706E+03  0.12712949706E+03  0.00000000000E+00 0. -1.
          2    1    1    2  502    0  0.57166174811E+01  0.20280696833E+02  0.52344060888E+03  0.52386454108E+03  0.00000000000E+00 0. -1.
         -2    1    1    2    0  502 -0.57166174811E+01 -0.20280696833E+02 -0.12604297412E+03  0.12779208780E+03  0.00000000000E+00 0. -1.
</event>
<event>
 4    1  0.3196713E+003  0.2178935E+02  0.7546771E-02  0.1508287E+00
          2   -1    0    0  501    0  0.00000000000E+00  0.00000000000E+00  0.81788298994E+02  0.81788298994E+02  0.00000000000E+00 0. -1.
         -2   -1    0    0    0  501 -0.00000000000E+00 -0.00000000000E+00 -0.59978089250E+02  0.59978089250E+02  0.00000000000E+00 0.  1.
          2    1    1    2  502    0  0.19720135182E+02 -0.92677864803E+01  0.78270837287E+02  0.81247151134E+02  0.00000000000E+00 0. -1.
         -2    1    1    2    0  502 -0.19720135182E+02  0.92677864803E+01 -0.56460627543E+02  0.60519237110E+02  0.00000000000E+00 0.  1.
</event>
<event>
 4    1  0.3196713E+003  0.2648817E+02  0.7546771E-02  0.1452818E+00
          2   -1    0    0  501    0  0.00000000000E+00  0.00000000000E+00  0.96969894097E+02  0.96969894097E+02  0.00000000000E+00 0. -1.
         -2   -1    0    0    0  501 -0.00000000000E+00 -0.00000000000E+00 -0.20190249256E+02  0.20190249256E+02  0.00000000000E+00 0.  1.
          2    1    1    2  502    0  0.26059576908E+02 -0.47456971502E+01  0.85313710761E+02  0.89331139217E+02  0.00000000000E+00 0. -1.
         -2    1    1    2    0  502 -0.26059576908E+02  0.47456971502E+01 -0.85340659201E+01  0.27829004136E+02  0.00000000000E+00 0.  1.
</event>
<event>
 4    1  0.3196713E+003  0.3039091E+02  0.7546771E-02  0.1416229E+00
          2   -1    0    0  501    0  0.00000000000E+00  0.00000000000E+00  0.70205036063E+02  0.70205036063E+02  0.00000000000E+00 0. -1.
         -2   -1    0    0    0  501 -0.00000000000E+00 -0.00000000000E+00 -0.35460506805E+02  0.35460506805E+02  0.00000000000E+00 0. -1.
          2    1    1    2  502    0  0.39771706667E+01 -0.30129549850E+02  0.59273670465E+02  0.66610627313E+02  0.00000000000E+00 0. -1.
         -2    1    1    2    0  502 -0.39771706667E+01  0.30129549850E+02 -0.24529141206E+02  0.39054915555E+02  0.00000000000E+00 0. -1.
</event>
<event>
 4    1  0.3196713E+003  0.2782786E+02  0.7546771E-02  0.1439465E+00
          2   -1    0    0  501    0  0.00000000000E+00  0.00000000000E+00  0.14031786582E+03  0.14031786582E+03  0.00000000000E+00 0.  1.
         -2   -1    0    0    0  501 -0.00000000000E+00 -0.00000000000E+00 -0.17261886520E+03  0.17261886520E+03  0.00000000000E+00 0.  1.
          2    1    1    2  502    0 -0.86272426878E+01  0.26456767064E+02  0.13779631013E+03  0.14057813814E+03  0.00000000000E+00 0.  1.
         -2    1    1    2    0  502  0.86272426878E+01 -0.26456767064E+02 -0.17009730950E+03  0.17235859288E+03  0.00000000000E+00 0.  1.
</event>
<event>
 4    1  0.3196713E+003  0.3257787E+02  0.7546771E-02  0.1398441E+00
          2   -1    0    0  501    0  0.00000000000E+00  0.00000000000E+00  0.12032811166E+04  0.12032811166E+04  0.00000000000E+00 0.  1.
         -2   -1    0    0    0  501 -0.00000000000E+00 -0.00000000000E+00 -0.11189930983E+01  0.11189930983E+01  0.00000000000E+00 0.  1.
          2    1    1    2  502    0 -0.28539567495E+02  0.15710172984E+02  0.32395472565E+03  0.32558866798E+03  0.00000000000E+00 0.  1.
         -2    1    1    2    0  502  0.28539567495E+02 -0.15710172984E+02  0.87820739789E+03  0.87881144176E+03  0.00000000000E+00 0.  1.
</event>
<event>
 4    1  0.3196713E+003  0.2252789E+02  0.7546771E-02  0.1498513E+00
          2   -1    0    0  501    0  0.00000000000E+00  0.00000000000E+00  0.32316346533E+03  0.32316346533E+03  0.00000000000E+00 0.  1.
         -2   -1    0    0    0  501 -0.00000000000E+00 -0.00000000000E+00 -0.72174782505E+01  0.72174782505E+01  0.00000000000E+00 0. -1.
          2    1    1    2  502    0 -0.46689799018E+01  0.22038750506E+02  0.30409074002E+03  0.30492406278E+03  0.00000000000E+00 0.  1.
         -2    1    1    2    0  502  0.46689799018E+01 -0.22038750506E+02  0.11855247061E+02  0.25456880800E+02  0.00000000000E+00 0. -1.
</event>
<event>
 4    1  0.3196713E+003  0.3058921E+02  0.7546771E-02  0.1414544E+00
          2   -1    0    0  501    0  0.00000000000E+00  0.00000000000E+00  0.40485083394E+03  0.40485083394E+03  0.00000000000E+00 0. -1.
         -2   -1    0    0    0  501 -0.00000000000E+00 -0.00000000000E+00 -0.31634648308E+01  0.31634648308E+01  0.00000000000E+00 0.  1.
          2    1    1    2  502    0  0.30061673574E+02  0.56564714822E+01  0.30673143650E+03  0.30825293838E+03  0.00000000000E+00 0. -1.
         -2    1    1    2    0  502 -0.30061673574E+02 -0.56564714822E+01  0.94955932617E+02  0.99761360390E+02  0.00000000000E+00 0.  1.
</event>
<event>
 4    1  0.3196713E+003  0.2093209E+02  0.7546771E-02  0.1520237E+00
          2   -1    0    0  501    0  0.00000000000E+00  0.00000000000E+00  0.82517133062E+03  0.82517133062E+03  0.00000000000E+00 0. -1.
         -2   -1    0    0    0  501 -0.00000000000E+00 -0.00000000000E+00 -0.20582869861E+01  0.20582869861E+01  0.00000000000E+00 0. -1.
          2    1    1    2  502    0  0.17978824073E+02  0.10719804934E+02  0.76784829283E+03  0.76813355162E+03  0.00000000000E+00 0. -1.
         -2    1    1    2    0  502 -0.17978824073E+02 -0.10719804934E+02  0.55264750810E+02  0.59096065986E+02  0.00000000000E+00 0. -1.
</event>
<event>
 4    1  0.3196713E+003  0.2015637E+02  0.7546771E-02  0.1531659E+00
          2   -1    0    0  501    0  0.00000000000E+00  0.00000000000E+00  0.10531248628E+03  0.10531248628E+03  0.00000000000E+00 0. -1.
         -2   -1    0    0    0  501 -0.00000000000E+00 -0.00000000000E+00 -0.38837759026E+01  0.38837759026E+01  0.00000000000E+00 0. -1.
          2    1    1    2  502    0  0.18469855110E+02 -0.80711689114E+01  0.55175580976E+02  0.58742012661E+02  0.00000000000E+00 0. -1.
         -2    1    1    2    0  502 -0.18469855110E+02  0.80711689114E+01  0.46253129398E+02  0.50454249519E+02  0.00000000000E+00 0. -1.
</event>
<event>
 4    1  0.3196713E+003  0.2412881E+02  0.7546771E-02  0.1478790E+00
          2   -1    0    0  501    0  0.00000000000E+00  0.00000000000E+00  0.14049894350E+04  0.14049894350E+04  0.00000000000E+00 0.  1.
         -2   -1    0    0    0  501 -0.00000000000E+00 -0.00000000000E+00 -0.96593052513E+00  0.96593052513E+00  0.00000000000E+00 0.  1.
          2    1    1    2  502    0  0.21790412071E+02 -0.10362318931E+02  0.12332155734E+04  0.12334516003E+04  0.00000000000E+00 0.  1.
         -2    1    1    2    0  502 -0.21790412071E+02  0.10362318931E+02  0.17080793103E+03  0.17250376522E+03  0.00000000000E+00 0.  1.
</event>
<event>
 4    1  0.3196713E+003  0.2176130E+02  0.7546771E-02  0.1508667E+00
          2   -1    0    0  501    0  0.00000000000E+00  0.00000000000E+00  0.40102605115E+03  0.40102605115E+03  0.00000000000E+00 0. -1.
         -2   -1    0    0    0  501 -0.00000000000E+00 -0.00000000000E+00 -0.11089925825E+02  0.11089925825E+02  0.00000000000E+00 0.  1.
          2    1    1    2  502    0 -0.20334095773E+02 -0.77510530418E+01  0.38974680875E+03  0.39035385127E+03  0.00000000000E+00 0. -1.
         -2    1    1    2    0  502  0.20334095773E+02  0.77510530418E+01  0.18931657290E+00  0.21762125698E+02  0.00000000000E+00 0.  1.
</event>
<event>
 4    1  0.3196713E+003  0.4720985E+02  0.7546771E-02  0.1310745E+00
          2   -1    0    0  501    0  0.00000000000E+00  0.00000000000E+00  0.64783159632E+03  0.64783159632E+03  0.00000000000E+00 0.  1.
         -2   -1    0    0    0  501 -0.00000000000E+00 -0.00000000000E+00 -0.17203647576E+02  0.17203647576E+02  0.00000000000E+00 0.  1.
          2    1    1    2  502    0  0.19496993160E+02 -0.42995778627E+02  0.61273083933E+03  0.61454686655E+03  0.00000000000E+00 0.  1.
         -2    1    1    2    0  502 -0.19496993160E+02  0.42995778627E+02  0.17897109421E+02  0.50488377353E+02  0.00000000000E+00 0.  1.
</event>
<event>
 4    1  0.3196713E+003  0.2190500E+02  0.7546771E-02  0.1506726E+00
          2   -1    0    0  501    0  0.00000000000E+00  0.00000000000E+00  0.35115241848E+03  0.35115241848E+03  0.00000000000E+00 0.  1.
         -2   -1    0    0    0  501 -0.00000000000E+00 -0.00000000000E+00 -0.31262057152E+01  0.31262057152E+01  0.00000000000E+00 0.  1.
          2    1    1    2  502    0  0.12762256522E+02  0.17803198649E+02  0.30691570603E+03  0.30769640830E+03  0.00000000000E+00 0.  1.
         -2    1    1    2    0  502 -0.12762256522E+02 -0.17803198649E+02  0.41110506739E+02  0.46582215899E+02  0.00000000000E+00 0.  1.
</event>
<event>
 4    1  0.3196713E+003  0.2082440E+02  0.7546771E-02  0.1521787E+00
          2   -1    0    0  501    0  0.00000000000E+00  0.00000000000E+00  0.19411412525E+01  0.19411412525E+01  0.00000000000E+00 0. -1.
         -2   -1    0    0    0  501 -0.00000000000E+00 -0.00000000000E+00 -0.55106294835E+03  0.55106294835E+03  0.00000000000E+00 0.  1.
          2    1    1    2  502    0  0.16181265074E+02  0.13108100843E+02 -0.61349805224E+02  0.64787763105E+02  0.00000000000E+00 0. -1.
         -2    1    1    2    0  502 -0.16181265074E+02 -0.13108100843E+02 -0.48777200187E+03  0.48821632649E+03  0.00000000000E+00 0.  1.
</event>
<event>
 4    1  0.3196713E+003  0.4942031E+02  0.7546771E-02  0.1300706E+00
          2   -1    0    0  501    0  0.00000000000E+00  0.00000000000E+00  0.68316205856E+02  0.68316205856E+02  0.00000000000E+00 0. -1.
         -2   -1    0    0    0  501 -0.00000000000E+00 -0.00000000000E+00 -0.18502852515E+03  0.18502852515E+03  0.00000000000E+00 0. -1.
          2    1    1    2  502    0  0.46924841976E+02  0.15505699547E+02  0.55422250317E+02  0.74256268039E+02  0.00000000000E+00 0. -1.
         -2    1    1    2    0  502 -0.46924841976E+02 -0.15505699547E+02 -0.17213456961E+03  0.17908846296E+03  0.00000000000E+00 0. -1.
</event>
<event>
 4    1  0.3196713E+003  0.3024707E+02  0.7546771E-02  0.1417461E+00
          2   -1    0    0  501    0  0.00000000000E+00  0.00000000000E+00  0.12821871322E+04  0.12821871322E+04  0.00000000000E+00 0.  1.
         -2   -1    0    0    0  501 -0.00000000000E+00 -0.00000000000E+00 -0.18210986298E+01  0.18210986298E+01  0.00000000000E+00 0.  1.
          2    1    1    2  502    0  0.99286021920E+01 -0.28571108378E+02  0.11408574609E+04  0.11412583544E+04  0.00000000000E+00 0.  1.
         -2    1    1    2    0  502 -0.99286021920E+01  0.28571108378E+02  0.13950857276E+03  0.14274987653E+03  0.00000000000E+00 0.  1.
</event>
<event>
 4    1  0.3196713E+003  0.2661932E+02  0.7546771E-02  0.1451470E+00
          2   -1    0    0  501    0  0.00000000000E+00  0.00000000000E+00  0.24446667098E+02  0.24446667098E+02  0.00000000000E+00 0. -1.
         -2   -1    0    0    0  501 -0.00000000000E+00 -0.00000000000E+00 -0.46604408349E+02  0.46604408349E+02  0.00000000000E+00 0. -1.
          2    1    1    2  502    0  0.22199897930E+02  0.14688517834E+02  0.10764624315E+02  0.28713501370E+02  0.00000000000E+00 0. -1.
         -2    1    1    2    0  502 -0.22199897930E+02 -0.14688517834E+02 -0.32922365566E+02  0.42337574077E+02  0.00000000000E+00 0. -1.
</event>
<event>
 4    1  0.3196713E+003  0.2053263E+02  0.7546771E-02  0.1526043E+00
          2   -1    0    0  501    0  0.00000000000E+00  0.00000000000E+00  0.21962325670E+03  0.21962325670E+03  0.00000000000E+00 0.  1.
         -2   -1    0    0    0  501 -0.00000000000E+00 -0.00000000000E+00 -0.22332123137E+02  0.22332123137E+02  0.00000000000E+00 0.  1.
          2    1    1    2  502    0  0.19647100947E+02  0.59649359114E+01  0.21430701188E+03  0.21528837492E+03  0.00000000000E+00 0.  1.
         -2    1    1    2    0  502 -0.19647100947E+02 -0.59649359114E+01 -0.17015878318E+02  0.26667004912E+02  0.00000000000E+00 0.  1.
</event>
<event>
 4    1  0.3196713E+003  0.2127978E+02  0.7546771E-02  0.1515308E+00
          2   -1    0    0  501    0  0.00000000000E+00  0.00000000000E+00  0.10337374159E+02  0.10337374159E+02  0.00000000000E+00 0. -1.
         -2   -1    0    0    0  501 -0.00000000000E+00 -0.00000000000E+00 -0.91575508665E+02  0.91575508665E+02  0.00000000000E+00 0.  1.
          2    1    1    2  502    0 -0.54205057072E+01 -0.20577831185E+02 -0.38155603730E+01  0.21619147055E+02  0.00000000000E+00 0. -1.
         -2    1    1    2    0  502  0.54205057072E+01  0.20577831185E+02 -0.77422574134E+02  0.80293735770E+02  0.00000000000E+00 0.  1.
</event>
<event>
 4    1  0.3196713E+003  0.2163262E+02  0.7546771E-02  0.1510421E+00
          2   -1    0    0  501    0  0.00000000000E+00  0.00000000000E+00  0.20851391408E+01  0.20851391408E+01  0.00000000000E+00 0.  1.
         -2   -1    0    0    0  501 -0.00000000000E+00 -0.00000000000E+00 -0.25259671308E+03  0.25259671308E+03  0.00000000000E+00 0. -1.
          2    1    1    2  502    0  0.11758278940E+01  0.21600627242E+02 -0.16777794032E+03  0.16916680208E+03  0.00000000000E+00 0. -1.
         -2    1    1    2    0  502 -0.11758278940E+01 -0.21600627242E+02 -0.82733633625E+02  0.85515050145E+02  0.00000000000E+00 0.  1.
</event>
<event>
 4    1  0.3196713E+003  0.2054327E+02  0.7546771E-02  0.1525887E+00
          2   -1    0    0  501    0  0.00000000000E+00  0.00000000000E+00  0.43620194052E+01  0.43620194052E+01  0.00000000000E+00 0.  1.
         -2   -1    0    0    0  501 -0.00000000000E+00 -0.00000000000E+00 -0.29689508414E+03  0.29689508414E+03  0.00000000000E+00 0. -1.
          2    1    1    2  502    0  0.12570346662E+02 -0.16248461684E+02 -0.22592626829E+02  0.30536091913E+02  0.00000000000E+00 0.  1.
         -2    1    1    2    0  502 -0.12570346662E+02  0.16248461684E+02 -0.26994043791E+03  0.27072101163E+03  0.00000000000E+00 0. -1.
</event>
<event>
 4    1  0.3196713E+003  0.3278929E+02  0.7546771E-02  0.1396809E+00
          2   -1    0    0  501    0  0.00000000000E+00  0.00000000000E+00  0.16655034694E+04  0.16655034694E+04  0.00000000000E+00 0. -1.
         -2   -1    0    0    0  501 -0.00000000000E+00 -0.00000000000E+00 -0.72398557827E+01  0.72398557827E+01  0.00000000000E+00 0. -1.
          2    1    1    2  502    0  0.26388110690E+02  0.19462923522E+02  0.16273460015E+04  0.16276763027E+04  0.00000000000E+00 0. -1.
         -2    1    1    2    0  502 -0.26388110690E+02 -0.19462923522E+02  0.30917612171E+02  0.45067022535E+02  0.00000000000E+00 0. -1.
</event>
<event>
 4    1  0.3196713E+003  0.2126892E+02  0.7546771E-02  0.1515460E+00
          2   -1    0    0  501    0  0.00000000000E+00  0.00000000000E+00  0.28824449086E+03  0.28824449086E+03  0.00000000000E+00 0.  1.
         -2   -1    0    0    0  501 -0.00000000000E+00 -0.00000000000E+00 -0.22751505936E+01  0.22751505936E+01  0.00000000000E+00 0. -1.
          2    1    1    2  502    0  0.20137005704E+02 -0.68460122625E+01  0.22388873609E+03  0.22489671636E+03  0.00000000000E+00 0.  1.
         -2    1    1    2    0  502 -0.20137005704E+02  0.68460122625E+01  0.62080604175E+02  0.65622925090E+02  0.00000000000E+00 0. -1.
</event>
<event>
 4    1  0.3196713E+003  0.3174856E+02  0.7546771E-02  0.1404986E+00
          2   -1    0    0  501    0  0.00000000000E+00  0.00000000000E+00  0.53028716426E+03  0.53028716426E+03  0.00000000000E+00 0. -1.
         -2   -1    0    0    0  501 -0.00000000000E+00 -0.00000000000E+00 -0.27931698475E+02  0.27931698475E+02  0.00000000000E+00 0.  1.
          2    1    1    2  502    0 -0.20366842979E+02  0.24354931327E+02  0.52062290153E+03  0.52159004646E+03  0.00000000000E+00 0. -1.
         -2    1    1    2    0  502  0.20366842979E+02 -0.24354931327E+02 -0.18267435743E+02  0.36628816272E+02  0.00000000000E+00 0.  1.
</event>
<event>
 4    1  0.3196713E+003  0.2374592E+02  0.7546771E-02  0.1483338E+00
          2   -1    0    0  501    0  0.00000000000E+00  0.00000000000E+00  0.53217246617E+03  0.53217246617E+03  0.00000000000E+00 0.  1.
         -2   -1    0    0    0  501 -0.00000000000E+00 -0.00000000000E+00 -0.13601033431E+01  0.13601033431E+01  0.00000000000E+00 0. -1.
          2    1    1    2  502    0  0.12160593696E+02  0.20395796335E+02  0.39080651554E+03  0.39152726743E+03  0.00000000000E+00 0.  1.
         -2    1    1    2    0  502 -0.12160593696E+02 -0.20395796335E+02  0.14000584728E+03  0.14200530208E+03  0.00000000000E+00 0. -1.
</event>
<event>
 4    1  0.3196713E+003  0.2403493E+02  0.7546771E-02  0.1479896E+00
          2   -1    0    0  501    0  0.00000000000E+00  0.00000000000E+00  0.64860190829E+03  0.64860190829E+03  0.00000000000E+00 0. -1.
         -2   -1    0    0    0  501 -0.00000000000E+00 -0.00000000000E+00 -0.11339782942E+02  0.11339782942E+02  0.00000000000E+00 0. -1.
          2    1    1    2  502    0  0.79233726659E+01  0.22691361662E+02  0.63537864754E+03  0.63583307831E+03  0.00000000000E+00 0. -1.
         -2    1    1    2    0  502 -0.79233726659E+01 -0.22691361662E+02  0.18834778141E+01  0.24108612925E+02  0.00000000000E+00 0. -1.
</event>
<event>
 4    1  0.3196713E+003  0.2172729E+02  0.7546771E-02  0.1509129E+00
          2   -1    0    0  501    0  0.00000000000E+00  0.00000000000E+00  0.10813443023E+04  0.10813443023E+04  0.00000000000E+00 0. -1.
         -2   -1    0    0    0  501 -0.00000000000E+00 -0.00000000000E+00 -0.25173724616E+01  0.25173724616E+01  0.00000000000E+00 0.  1.
          2    1    1    2  502    0  0.20674216099E+02 -0.66822051602E+01  0.10321176678E+04  0.10323463349E+04  0.00000000000E+00 0. -1.
         -2    1    1    2    0  502 -0.20674216099E+02  0.66822051602E+01  0.46709262065E+02  0.51515339849E+02  0.00000000000E+00 0.  1.
</event>
<event>
 4    1  0.3196713E+003  0.2247102E+02  0.7546771E-02  0.1499250E+00
          2   -1    0    0  501    0  0.00000000000E+00  0.00000000000E+00  0.48820780226E+03  0.48820780226E+03  0.00000000000E+00 0.  1.
         -2   -1    0    0    0  501 -0.00000000000E+00 -0.00000000000E+00 -0.45142290613E+01  0.45142290613E+01  0.00000000000E+00 0. -1.
          2    1    1    2  502    0  0.14154316396E+02 -0.17452855630E+02  0.45815161520E+03  0.45870235377E+03  0.00000000000E+00 0.  1.
         -2    1    1    2    0  502 -0.14154316396E+02  0.17452855630E+02  0.25541957991E+02  0.34019677545E+02  0.00000000000E+00 0. -1.
</event>
<event>
 4    1  0.3196713E+003  0.2637586E+02  0.7546771E-02  0.1453980E+00
          2   -1    0    0  501    0  0.00000000000E+00  0.00000000000E+00  0.26254084620E+02  0.26254084620E+02  0.00000000000E+00 0.  1.
         -2   -1    0    0    0  501 -0.00000000000E+00 -0.00000000000E+00 -0.55527422957E+03  0.55527422957E+03  0.00000000000E+00 0. -1.
          2    1    1    2  502    0  0.22368487791E+02  0.13976288561E+02  0.19231513287E+02  0.32642564104E+02  0.00000000000E+00 0.  1.
         -2    1    1    2    0  502 -0.22368487791E+02 -0.13976288561E+02 -0.54825165824E+03  0.54888575009E+03  0.00000000000E+00 0. -1.
</event>
<event>
 4    1  0.3196713E+003  0.2048481E+02  0.7546771E-02  0.1526749E+00
          2   -1    0    0  501    0  0.00000000000E+00  0.00000000000E+00  0.51041425333E+02  0.51041425333E+02  0.00000000000E+00 0.  1.
         -2   -1    0    0    0  501 -0.00000000000E+00 -0.00000000000E+00 -0.12841049964E+04  0.12841049964E+04  0.00000000000E+00 0. -1.
          2    1    1    2  502    0 -0.19520993798E+02  0.62095363895E+01  0.48900969047E+02  0.53018226250E+02  0.00000000000E+00 0.  1.
         -2    1    1    2    0  502  0.19520993798E+02 -0.62095363895E+01 -0.12819645401E+04  0.12821281955E+04  0.00000000000E+00 0. -1.
</event>
<event>
 4    1  0.3196713E+003  0.2038862E+02  0.7546771E-02  0.1528175E+00
          2   -1    0    0  501    0  0.00000000000E+00  0.00000000000E+00  0.38008344045E+02  0.38008344045E+02  0.00000000000E+00 0.  1.
         -2   -1    0    0    0  501 -0.00000000000E+00 -0.00000000000E+00 -0.13891545066E+02  0.13891545066E+02  0.00000000000E+00 0.  1.
          2    1    1    2  502    0  0.19407955059E+02  0.62471705472E+01  0.24026057590E+02  0.31511066354E+02  0.00000000000E+00 0.  1.
         -2    1    1    2    0  502 -0.19407955059E+02 -0.62471705472E+01  0.90741388405E-01  0.20388822757E+02  0.00000000000E+00 0.  1.
</event>
<event>
 4    1  0.3196713E+003  0.7224315E+02  0.7546771E-02  0.1223099E+00
          2   -1    0    0  501    0  0.00000000000E+00  0.00000000000E+00  0.18215174193E+04  0.18215174193E+04  0.00000000000E+00 0. -1.
         -2   -1    0    0    0  501 -0.00000000000E+00 -0.00000000000E+00 -0.37903729559E+01  0.37903729559E+01  0.00000000000E+00 0. -1.
          2    1    1    2  502    0  0.55761010590E+02  0.45932371387E+02  0.13597515482E+04  0.13616693233E+04  0.00000000000E+00 0. -1.
         -2    1    1    2    0  502 -0.55761010590E+02 -0.45932371387E+02  0.45797549813E+03  0.46363846900E+03  0.00000000000E+00 0. -1.
</event>
<event>
 4    1  0.3196713E+003  0.2194592E+02  0.7546771E-02  0.1506176E+00
          2   -1    0    0  501    0  0.00000000000E+00  0.00000000000E+00  0.23791007866E+03  0.23791007866E+03  0.00000000000E+00 0. -1.
         -2   -1    0    0    0  501 -0.00000000000E+00 -0.00000000000E+00 -0.32091019900E+02  0.32091019900E+02  0.00000000000E+00 0. -1.
          2    1    1    2  502    0 -0.21900091390E+02 -0.14174622495E+01  0.23358261273E+03  0.23461129592E+03  0.00000000000E+00 0. -1.
         -2    1    1    2    0  502  0.21900091390E+02  0.14174622495E+01 -0.27763553970E+02  0.35389802643E+02  0.00000000000E+00 0. -1.
</event>
<event>
 4    1  0.3196713E+003  0.2111215E+02  0.7546771E-02  0.1517670E+00
          2   -1    0    0  501    0  0.00000000000E+00  0.00000000000E+00  0.17766246304E+03  0.17766246304E+03  0.00000000000E+00 0. -1.
         -2   -1    0    0    0  501 -0.00000000000E+00 -0.00000000000E+00 -0.25841454603E+01  0.25841454603E+01  0.00000000000E+00 0. -1.
          2    1    1    2  502    0 -0.62366117265E+01 -0.20169969555E+02  0.10292608401E+03  0.10506903334E+03  0.00000000000E+00 0. -1.
         -2    1    1    2    0  502  0.62366117265E+01  0.20169969555E+02  0.72152233571E+02  0.75177575160E+02  0.00000000000E+00 0. -1.
</event>
<event>
 4    1  0.3196713E+003  0.2437531E+02  0.7546771E-02  0.1475914E+00
          2   -1    0    0  501    0  0.00000000000E+00  0.00000000000E+00  0.12362641512E+03  0.12362641512E+03  0.00000000000E+00 0. -1.
         -2   -1    0    0    0  501 -0.00000000000E+00 -0.00000000000E+00 -0.96302318309E+02  0.96302318309E+02  0.00000000000E+00 0. -1.
          2    1    1    2  502    0  0.29492829530E+01  0.24196233225E+02  0.12084735966E+03  0.12328114337E+03  0.00000000000E+00 0. -1.
         -2    1    1    2    0  502 -0.29492829530E+01 -0.24196233225E+02 -0.93523262848E+02  0.96647590068E+02  0.00000000000E+00 0. -1.
</event>
<event>
 4    1  0.3196713E+003  0.2146718E+02  0.7546771E-02  0.1512698E+00
          2   -1    0    0  501    0  0.00000000000E+00  0.00000000000E+00  0.10595316272E+04  0.10595316272E+04  0.00000000000E+00 0.  1.
         -2   -1    0    0    0  501 -0.00000000000E+00 -0.00000000000E+00 -0.50812660989E+00  0.50812660989E+00  0.00000000000E+00 0.  1.
          2    1    1    2  502    0  0.21208711208E+02 -0.33211557652E+01  0.32836968671E+03  0.32907064691E+03  0.00000000000E+00 0.  1.
         -2    1    1    2    0  502 -0.21208711208E+02  0.33211557652E+01  0.73065381387E+03  0.73096910689E+03  0.00000000000E+00 0.  1.
</event>
<event>
 4    1  0.3196713E+003  0.2337606E+02  0.7546771E-02  0.1487829E+00
          2   -1    0    0  501    0  0.00000000000E+00  0.00000000000E+00  0.52407060638E+03  0.52407060638E+03  0.00000000000E+00 0.  1.
         -2   -1    0    0    0  501 -0.00000000000E+00 -0.00000000000E+00 -0.10602853199E+01  0.10602853199E+01  0.00000000000E+00 0.  1.
          2    1    1    2  502    0  0.13756876524E+02 -0.18899436290E+02  0.29533434852E+03  0.29625802565E+03  0.00000000000E+00 0.  1.
         -2    1    1    2    0  502 -0.13756876524E+02  0.18899436290E+02  0.22767597254E+03  0.22887286605E+03  0.00000000000E+00 0.  1.
</event>
<event>
 4    1  0.3196713E+003  0.2278566E+02  0.7546771E-02  0.1495207E+00
          2   -1    0    0  501    0  0.00000000000E+00  0.00000000000E+00  0.10056342744E+03  0.10056342744E+03  0.00000000000E+00 0. -1.
         -2   -1    0    0    0  501 -0.00000000000E+00 -0.00000000000E+00 -0.10923819312E+03  0.10923819312E+03  0.00000000000E+00 0. -1.
          2    1    1    2  502    0  0.22640966542E+02 -0.25638109937E+01  0.98054532747E+02  0.10066716389E+03  0.00000000000E+00 0. -1.
         -2    1    1    2    0  502 -0.22640966542E+02  0.25638109937E+01 -0.10672929843E+03  0.10913445668E+03  0.00000000000E+00 0. -1.
</event>
<event>
 4    1  0.3196713E+003  0.4016416E+02  0.7546771E-02  0.1347527E+00
          2   -1    0    0  501    0  0.00000000000E+00  0.00000000000E+00  0.23561546315E+03  0.23561546315E+03  0.00000000000E+00 0. -1.
         -2   -1    0    0    0  501 -0.00000000000E+00 -0.00000000000E+00 -0.70395873495E+01  0.70395873495E+01  0.00000000000E+00 0. -1.
          2    1    1    2  502    0 -0.29676203982E+02  0.27064419494E+02  0.13437765267E+03  0.14025160756E+03  0.00000000000E+00 0. -1.
         -2    1    1    2    0  502  0.29676203982E+02 -0.27064419494E+02  0.94198223123E+02  0.10240344293E+03  0.00000000000E+00 0. -1.
</event>
<event>
 4    1  0.3196713E+003  0.2025659E+02  0.7546771E-02  0.1530149E+00
          2   -1    0    0  501    0  0.00000000000E+00  0.00000000000E+00  0.34970148396E+03  0.34970148396E+03  0.00000000000E+00 0. -1.
         -2   -1    0    0    0  501 -0.00000000000E+00 -0.00000000000E+00 -0.26216621212E+02  0.26216621212E+02  0.00000000000E+00 0. -1.
          2    1    1    2  502    0  0.19650845195E+02  0.49166760056E+01  0.34544711880E+03  0.34604051975E+03  0.00000000000E+00 0. -1.
         -2    1    1    2    0  502 -0.19650845195E+02 -0.49166760056E+01 -0.21962256053E+02  0.29877585424E+02  0.00000000000E+00 0. -1.
</event>
<event>
 4    1  0.3196713E+003  0.2717824E+02  0.7546771E-02  0.1445826E+00
          2   -1    0    0  501    0  0.00000000000E+00  0.00000000000E+00  0.24864459053E+03  0.24864459053E+03  0.00000000000E+00 0.  1.
         -2   -1    0    0    0  501 -0.00000000000E+00 -0.00000000000E+00 -0.44149576190E+01  0.44149576190E+01  0.00000000000E+00 0.  1.
          2    1    1    2  502    0 -0.26920029379E+02 -0.37374427087E+01  0.19448288379E+03  0.19637272863E+03  0.00000000000E+00 0.  1.
         -2    1    1    2    0  502  0.26920029379E+02  0.37374427087E+01  0.49746749118E+02  0.56686819522E+02  0.00000000000E+00 0.  1.
</event>
<event>
 4    1  0.3196713E+003  0.2550499E+02  0.7546771E-02  0.1463233E+00
          2   -1    0    0  501    0  0.00000000000E+00  0.00000000000E+00  0.34460252645E+02  0.34460252645E+02  0.00000000000E+00 0. -1.
         -2   -1    0    0    0  501 -0.00000000000E+00 -0.00000000000E+00 -0.12197210756E+04  0.12197210756E+04  0.00000000000E+00 0.  1.
          2    1    1    2  502    0 -0.24069293566E+02  0.84364384022E+01  0.29588763335E+02  0.39064041027E+02  0.00000000000E+00 0. -1.
         -2    1    1    2    0  502  0.24069293566E+02 -0.84364384022E+01 -0.12148495863E+04  0.12151172872E+04  0.00000000000E+00 0.  1.
</event>
<event>
 4    1  0.3196713E+003  0.2058842E+02  0.7546771E-02  0.1525223E+00
          2   -1    0    0  501    0  0.00000000000E+00  0.00000000000E+00  0.72861457814E+02  0.72861457814E+02  0.00000000000E+00 0. -1.
         -2   -1    0    0    0  501 -0.00000000000E+00 -0.00000000000E+00 -0.13021882169E+02  0.13021882169E+02  0.00000000000E+00 0. -1.
          2    1    1    2  502    0 -0.14582158689E+02  0.14534224046E+02  0.61859843410E+02  0.65196037053E+02  0.00000000000E+00 0. -1.
         -2    1    1    2    0  502  0.14582158689E+02 -0.14534224046E+02 -0.20202677656E+01  0.20687302929E+02  0.00000000000E+00 0. -1.
</event>
<event>
 4    1  0.3196713E+003  0.2145899E+02  0.7546771E-02  0.1512812E+00
          2   -1    0    0  501    0  0.00000000000E+00  0.00000000000E+00  0.29066127727E+01  0.29066127727E+01  0.00000000000E+00 0.  1.
         -2   -1    0    0    0  501 -0.00000000000E+00 -0.00000000000E+00 -0.83214852930E+03  0.83214852930E+03  0.00000000000E+00 0.  1.
          2    1    1    2  502    0  0.13458972132E+02  0.16713590776E+02 -0.38935215970E+02  0.44457160167E+02  0.00000000000E+00 0.  1.
         -2    1    1    2    0  502 -0.13458972132E+02 -0.16713590776E+02 -0.79030670056E+03  0.79059798191E+03  0.00000000000E+00 0.  1.
</event>
<event>
 4    1  0.3196713E+003  0.3542173E+02  0.7546771E-02  0.1377622E+00
          2   -1    0    0  501    0  0.00000000000E+00  0.00000000000E+00  0.21219905563E+04  0.21219905563E+04  0.00000000000E+00 0. -1.
         -2   -1    0    0    0  501 -0.00000000000E+00 -0.00000000000E+00 -0.22866757524E+01  0.22866757524E+01  0.00000000000E+00 0. -1.
          2    1    1    2  502    0  0.28692461114E+02 -0.20771169420E+02  0.19744156285E+04  0.19747333422E+04  0.00000000000E+00 0. -1.
         -2    1    1    2    0  502 -0.28692461114E+02  0.20771169420E+02  0.14528825207E+03  0.14954388986E+03  0.00000000000E+00 0. -1.
</event>
<event>
 4    1  0.3196713E+003  0.2614305E+02  0.7546771E-02  0.1456412E+00
          2   -1    0    0  501    0  0.00000000000E+00  0.00000000000E+00  0.17236278301E+04  0.17236278301E+04  0.00000000000E+00 0.  1.
         -2   -1    0    0    0  501 -0.00000000000E+00 -0.00000000000E+00 -0.13373523477E+01  0.13373523477E+01  0.00000000000E+00 0.  1.
          2    1    1    2  502    0 -0.23727052158E+02 -0.10976620041E+02  0.15845522183E+04  0.15847678668E+04  0.00000000000E+00 0.  1.
         -2    1    1    2    0  502  0.23727052158E+02  0.10976620041E+02  0.13773825943E+03  0.14019731560E+03  0.00000000000E+00 0.  1.
</event>
<event>
 4    1  0.3196713E+003  0.4155691E+02  0.7546771E-02  0.1339596E+00
          2   -1    0    0  501    0  0.00000000000E+00  0.00000000000E+00  0.38550710855E+03  0.38550710855E+03  0.00000000000E+00 0.  1.
         -2   -1    0    0    0  501 -0.00000000000E+00 -0.00000000000E+00 -0.17066528392E+02  0.17066528392E+02  0.00000000000E+00 0. -1.
          2    1    1    2  502    0  0.11996366695E+02  0.39787739778E+02  0.35708246141E+03  0.35949250520E+03  0.00000000000E+00 0.  1.
         -2    1    1    2    0  502 -0.11996366695E+02 -0.39787739778E+02  0.11358118751E+02  0.43081131741E+02  0.00000000000E+00 0. -1.
</event>
<event>
 4    1  0.3196713E+003  0.3453386E+02  0.7546771E-02  0.1383870E+00
          2   -1    0    0  501    0  0.00000000000E+00  0.00000000000E+00  0.77975221974E+03  0.77975221974E+03  0.00000000000E+00 0. -1.
         -2   -1    0    0    0  501 -0.00000000000E+00 -0.00000000000E+00 -0.13449406509E+03  0.13449406509E+03  0.00000000000E+00 0.  1.
          2    1    1    2  502    0  0.16008760743E+02  0.30599137774E+02  0.77714562351E+03  0.77791253223E+03  0.00000000000E+00 0. -1.
         -2    1    1    2    0  502 -0.16008760743E+02 -0.30599137774E+02 -0.13188746886E+03  0.13633375259E+03  0.00000000000E+00 0.  1.
</event>
<event>
 4    1  0.3196713E+003  0.2612091E+02  0.7546771E-02  0.1456644E+00
          2   -1    0    0  501    0  0.00000000000E+00  0.00000000000E+00  0.17931874163E+03  0.17931874163E+03  0.00000000000E+00 0.  1.
         -2   -1    0    0    0  501 -0.00000000000E+00 -0.00000000000E+00 -0.27568982864E+02  0.27568982864E+02  0.00000000000E+00 0.  1.
          2    1    1    2  502    0 -0.36507124173E+01  0.25864532903E+02  0.17191534989E+03  0.17388843921E+03  0.00000000000E+00 0.  1.
         -2    1    1    2    0  502  0.36507124173E+01 -0.25864532903E+02 -0.20165591128E+02  0.32999285280E+02  0.00000000000E+00 0.  1.
</event>
<event>
 4    1  0.3196713E+003  0.3568761E+02  0.7546771E-02  0.1375793E+00
          2   -1    0    0  501    0  0.00000000000E+00  0.00000000000E+00  0.96210556546E+02  0.96210556546E+02  0.00000000000E+00 0. -1.
         -2   -1    0    0    0  501 -0.00000000000E+00 -0.00000000000E+00 -0.13660957302E+02  0.13660957302E+02  0.00000000000E+00 0.  1.
          2    1    1    2  502    0  0.28385736185E+02 -0.21629941098E+02  0.31604764605E+02  0.47670384059E+02  0.00000000000E+00 0. -1.
         -2    1    1    2    0  502 -0.28385736185E+02  0.21629941098E+02  0.50944834639E+02  0.62201129789E+02  0.00000000000E+00 0.  1.
</event>
<event>
 4    1  0.3196713E+003  0.2172070E+02  0.7546771E-02  0.1509219E+00
          2   -1    0    0  501    0  0.00000000000E+00  0.00000000000E+00  0.60839727915E+02  0.60839727915E+02  0.00000000000E+00 0.  1.
         -2   -1    0    0    0  501 -0.00000000000E+00 -0.00000000000E+00 -0.79056810113E+01  0.79056810113E+01  0.00000000000E+00 0.  1.
          2    1    1    2  502    0 -0.12768574693E+02 -0.17571344553E+02  0.31218491987E+02  0.38031340905E+02  0.00000000000E+00 0.  1.
         -2    1    1    2    0  502  0.12768574693E+02  0.17571344553E+02  0.21715554917E+02  0.30714068022E+02  0.00000000000E+00 0.  1.
</event>
<event>
 4    1  0.3196713E+003  0.2193479E+02  0.7546771E-02  0.1506325E+00
          2   -1    0    0  501    0  0.00000000000E+00  0.00000000000E+00  0.68095170426E+03  0.68095170426E+03  0.00000000000E+00 0. -1.
         -2   -1    0    0    0  501 -0.00000000000E+00 -0.00000000000E+00 -0.74611897291E+02  0.74611897291E+02  0.00000000000E+00 0. -1.
          2    1    1    2  502    0 -0.23643444033E+01 -0.21806993557E+02  0.67915868266E+03  0.67951280439E+03  0.00000000000E+00 0. -1.
         -2    1    1    2    0  502  0.23643444033E+01  0.21806993557E+02 -0.72818875691E+02  0.76050797164E+02  0.00000000000E+00 0. -1.
</event>
<event>
 4    1  0.3196713E+003  0.2863451E+02  0.7546771E-02  0.1431846E+00
          2   -1    0    0  501    0  0.00000000000E+00  0.00000000000E+00  0.23265946058E+03  0.23265946058E+03  0.00000000000E+00 0.  1.
         -2   -1    0    0    0  501 -0.00000000000E+00 -0.00000000000E+00 -0.45453242661E+02  0.45453242661E+02  0.00000000000E+00 0. -1.
          2    1    1    2  502    0  0.26607275117E+02 -0.10582447873E+02  0.22715988871E+03  0.22895752953E+03  0.00000000000E+00 0.  1.
         -2    1    1    2    0  502 -0.26607275117E+02  0.10582447873E+02 -0.39953670793E+02  0.49155173705E+02  0.00000000000E+00 0. -1.
</event>
<event>
 4    1  0.3196713E+003  0.3953779E+02  0.7546771E-02  0.1351216E+00
          2   -1    0    0  501    0  0.00000000000E+00  0.00000000000E+00  0.17783429973E+02  0.17783429973E+02  0.00000000000E+00 0. -1.
         -2   -1    0    0    0  501 -0.00000000000E+00 -0.00000000000E+00 -0.35500789572E+03  0.35500789572E+03  0.00000000000E+00 0. -1.
          2    1    1    2  502    0 -0.21504675833E+02 -0.33178088651E+02 -0.69320412087E+01  0.40140874985E+02  0.00000000000E+00 0. -1.
         -2    1    1    2    0  502  0.21504675833E+02  0.33178088651E+02 -0.33029242454E+03  0.33265045071E+03  0.00000000000E+00 0. -1.
</event>
<event>
 4    1  0.3196713E+003  0.2848049E+02  0.7546771E-02  0.1433277E+00
          2   -1    0    0  501    0  0.00000000000E+00  0.00000000000E+00  0.43714454085E+03  0.43714454085E+03  0.00000000000E+00 0.  1.
         -2   -1    0    0    0  501 -0.00000000000E+00 -0.00000000000E+00 -0.18693158692E+02  0.18693158692E+02  0.00000000000E+00 0. -1.
          2    1    1    2  502    0  0.53641351878E+01  0.27970777711E+02  0.42553701611E+03  0.42648902733E+03  0.00000000000E+00 0.  1.
         -2    1    1    2    0  502 -0.53641351878E+01 -0.27970777711E+02 -0.70856339543E+01  0.29348672212E+02  0.00000000000E+00 0. -1.
</event>
<event>
 4    1  0.3196713E+003  0.2457065E+02  0.7546771E-02  0.1473664E+00
          2   -1    0    0  501    0  0.00000000000E+00  0.00000000000E+00  0.12255496631E+01  0.12255496631E+01  0.00000000000E+00 0. -1.
         -2   -1    0    0    0  501 -0.00000000000E+00 -0.00000000000E+00 -0.49724104777E+03  0.49724104777E+03  0.00000000000E+00 0.  1.
          2    1    1    2  502    0 -0.67003821751E+01 -0.23639396264E+02 -0.27206426293E+03  0.27317152000E+03  0.00000000000E+00 0. -1.
         -2    1    1    2    0  502  0.67003821751E+01  0.23639396264E+02 -0.22395123518E+03  0.22529507744E+03  0.00000000000E+00 0.  1.
</event>
<event>
 4    1  0.3196713E+003  0.2747268E+02  0.7546771E-02  0.1442917E+00
          2   -1    0    0  501    0  0.00000000000E+00  0.00000000000E+00  0.17403538035E+04  0.17403538035E+04  0.00000000000E+00 0. -1.
         -2   -1    0    0    0  501 -0.00000000000E+00 -0.00000000000E+00 -0.12620399264E+01  0.12620399264E+01  0.00000000000E+00 0.  1.
          2    1    1    2  502    0  0.15690235130E+02 -0.22551377726E+02  0.15750452803E+04  0.15752848578E+04  0.00000000000E+00 0. -1.
         -2    1    1    2    0  502 -0.15690235130E+02  0.22551377726E+02  0.16404648326E+03  0.16633098564E+03  0.00000000000E+00 0.  1.
</event>
<event>
 4    1  0.3196713E+003  0.4301587E+02  0.7546771E-02  0.1331665E+00
          2   -1    0    0  501    0  0.00000000000E+00  0.00000000000E+00  0.16042275106E+03  0.16042275106E+03  0.00000000000E+00 0. -1.
         -2   -1    0    0    0  501 -0.00000000000E+00 -0.00000000000E+00 -0.48454405047E+02  0.48454405047E+02  0.00000000000E+00 0. -1.
          2    1    1    2  502    0 -0.42782471769E+02 -0.44749282726E+01  0.14714867304E+03  0.15330719765E+03  0.00000000000E+00 0. -1.
         -2    1    1    2    0  502  0.42782471769E+02  0.44749282726E+01 -0.35180327025E+02  0.55569958460E+02  0.00000000000E+00 0. -1.
</event>
<event>
 4    1  0.3196713E+003  0.2219980E+02  0.7546771E-02  0.1502798E+00
          2   -1    0    0  501    0  0.00000000000E+00  0.00000000000E+00  0.77398868183E+03  0.77398868183E+03  0.00000000000E+00 0. -1.
         -2   -1    0    0    0  501 -0.00000000000E+00 -0.00000000000E+00 -0.72564376691E+00  0.72564376691E+00  0.00000000000E+00 0.  1.
          2    1    1    2  502    0  0.20599773190E+02 -0.82752679611E+01  0.25104819699E+03  0.25202783165E+03  0.00000000000E+00 0. -1.
         -2    1    1    2    0  502 -0.20599773190E+02  0.82752679611E+01  0.52221484108E+03  0.52268649395E+03  0.00000000000E+00 0.  1.
</event>
<event>
 4    1  0.3196713E+003  0.2018733E+02  0.7546771E-02  0.1531191E+00
          2   -1    0    0  501    0  0.00000000000E+00  0.00000000000E+00  0.78863326494E+01  0.78863326494E+01  0.00000000000E+00 0.  1.
         -2   -1    0    0    0  501 -0.00000000000E+00 -0.00000000000E+00 -0.52309772733E+02  0.52309772733E+02  0.00000000000E+00 0.  1.
          2    1    1    2  502    0  0.15221867789E+02  0.13259822136E+02 -0.18896796042E+02  0.27651709581E+02  0.00000000000E+00 0.  1.
         -2    1    1    2    0  502 -0.15221867789E+02 -0.13259822136E+02 -0.25526644042E+02  0.32544395802E+02  0.00000000000E+00 0.  1.
</event>
<event>
 4    1  0.3196713E+003  0.2290494E+02  0.7546771E-02  0.1493695E+00
          2   -1    0    0  501    0  0.00000000000E+00  0.00000000000E+00  0.60150576242E+01  0.60150576242E+01  0.00000000000E+00 0.  1.
         -2   -1    0    0    0  501 -0.00000000000E+00 -0.00000000000E+00 -0.87755672162E+02  0.87755672162E+02  0.00000000000E+00 0.  1.
          2    1    1    2  502    0 -0.72714441614E+01 -0.21720083128E+02 -0.44531941320E+02  0.50077237434E+02  0.00000000000E+00 0.  1.
         -2    1    1    2    0  502  0.72714441614E+01  0.21720083128E+02 -0.37208673218E+02  0.43693492352E+02  0.00000000000E+00 0.  1.
</event>
<event>
 4    1  0.3196713E+003  0.2867615E+02  0.7546771E-02  0.1431460E+00
          2   -1    0    0  501    0  0.00000000000E+00  0.00000000000E+00  0.90039150984E+02  0.90039150984E+02  0.00000000000E+00 0.  1.
         -2   -1    0    0    0  501 -0.00000000000E+00 -0.00000000000E+00 -0.11383700015E+02  0.11383700015E+02  0.00000000000E+00 0. -1.
          2    1    1    2  502    0  0.23742599026E+02 -0.16081373336E+02  0.61876831147E+02  0.68198708270E+02  0.00000000000E+00 0.  1.
         -2    1    1    2    0  502 -0.23742599026E+02  0.16081373336E+02  0.16778619822E+02  0.33224142728E+02  0.00000000000E+00 0. -1.
</event>
<event>
 4    1  0.3196713E+003  0.4565002E+02  0.7546771E-02  0.1318221E+00
          2   -1    0    0  501    0  0.00000000000E+00  0.00000000000E+00  0.16175922823E+03  0.16175922823E+03  0.00000000000E+00 0. -1.
         -2   -1    0    0    0  501 -0.00000000000E+00 -0.00000000000E+00 -0.14782881852E+02  0.14782881852E+02  0.00000000000E+00 0. -1.
          2    1    1    2  502    0  0.19638554913E+02 -0.41209848604E+02  0.10513396479E+03  0.11461707994E+03  0.00000000000E+00 0. -1.
         -2    1    1    2    0  502 -0.19638554913E+02  0.41209848604E+02  0.41842381579E+02  0.61925030135E+02  0.00000000000E+00 0. -1.
</event>
<event>
 4    1  0.3196713E+003  0.3627572E+02  0.7546771E-02  0.1371810E+00
          2   -1    0    0  501    0  0.00000000000E+00  0.00000000000E+00  0.39687109314E+03  0.39687109314E+03  0.00000000000E+00 0.  1.
         -2   -1    0    0    0  501 -0.00000000000E+00 -0.00000000000E+00 -0.91169544705E+01  0.91169544705E+01  0.00000000000E+00 0.  1.
          2    1    1    2  502    0 -0.31761736965E+02 -0.17524836827E+02  0.35580330087E+03  0.35764775513E+03  0.00000000000E+00 0.  1.
         -2    1    1    2    0  502  0.31761736965E+02  0.17524836827E+02  0.31950837801E+02  0.48340292480E+02  0.00000000000E+00 0.  1.
</event>
<event>
 4    1  0.3196713E+003  0.2750725E+02  0.7546771E-02  0.1442578E+00
          2   -1    0    0  501    0  0.00000000000E+00  0.00000000000E+00  0.18499582514E+02  0.18499582514E+02  0.00000000000E+00 0.  1.
         -2   -1    0    0    0  501 -0.00000000000E+00 -0.00000000000E+00 -0.44733411153E+02  0.44733411153E+02  0.00000000000E+00 0. -1.
          2    1    1    2  502    0 -0.23777338399E+02  0.13830645826E+02 -0.38626375780E+01  0.27777122859E+02  0.00000000000E+00 0.  1.
         -2    1    1    2    0  502  0.23777338399E+02 -0.13830645826E+02 -0.22371191060E+02  0.35455870808E+02  0.00000000000E+00 0. -1.
</event>
<event>
 4    1  0.3196713E+003  0.3924843E+02  0.7546771E-02  0.1352947E+00
          2   -1    0    0  501    0  0.00000000000E+00  0.00000000000E+00  0.17118453720E+04  0.17118453720E+04  0.00000000000E+00 0.  1.
         -2   -1    0    0    0  501 -0.00000000000E+00 -0.00000000000E+00 -0.13973142142E+02  0.13973142142E+02  0.00000000000E+00 0.  1.
          2    1    1    2  502    0 -0.23295857854E+02  0.31587055989E+02  0.16835973289E+04  0.16840547512E+04  0.00000000000E+00 0.  1.
         -2    1    1    2    0  502  0.23295857854E+02 -0.31587055989E+02  0.14274900958E+02  0.41763762960E+02  0.00000000000E+00 0.  1.
</event>
<event>
 4    1  0.3196713E+003  0.2212890E+02  0.7546771E-02  0.1503736E+00
          2   -1    0    0  501    0  0.00000000000E+00  0.00000000000E+00  0.16421355310E+04  0.16421355310E+04  0.00000000000E+00 0.  1.
         -2   -1    0    0    0  501 -0.00000000000E+00 -0.00000000000E+00 -0.29348245462E+01  0.29348245462E+01  0.00000000000E+00 0. -1.
          2    1    1    2  502    0  0.14841054101E+02  0.16414366875E+02  0.15992282643E+04  0.15993813584E+04  0.00000000000E+00 0.  1.
         -2    1    1    2    0  502 -0.14841054101E+02 -0.16414366875E+02  0.39972442162E+02  0.45688997134E+02  0.00000000000E+00 0. -1.
</event>
<event>
 4    1  0.3196713E+003  0.5205116E+02  0.7546771E-02  0.1289516E+00
          2   -1    0    0  501    0  0.00000000000E+00  0.00000000000E+00  0.87261353283E+03  0.87261353283E+03  0.00000000000E+00 0.  1.
         -2   -1    0    0    0  501 -0.00000000000E+00 -0.00000000000E+00 -0.57413367064E+02  0.57413367064E+02  0.00000000000E+00 0.  1.
          2    1    1    2  502    0 -0.15987712122E+02  0.49535005552E+02  0.85986513074E+03  0.86143912540E+03  0.00000000000E+00 0.  1.
         -2    1    1    2    0  502  0.15987712122E+02 -0.49535005552E+02 -0.44664964972E+02  0.68587774493E+02  0.00000000000E+00 0.  1.
</event>
<event>
 4    1  0.3196713E+003  0.2417852E+02  0.7546771E-02  0.1478207E+00
          2   -1    0    0  501    0  0.00000000000E+00  0.00000000000E+00  0.12278825724E+04  0.12278825724E+04  0.00000000000E+00 0. -1.
         -2   -1    0    0    0  501 -0.00000000000E+00 -0.00000000000E+00 -0.29531986930E+01  0.29531986930E+01  0.00000000000E+00 0. -1.
          2    1    1    2  502    0  0.20915783945E+02  0.12129752373E+02  0.11760958606E+04  0.11763443689E+04  0.00000000000E+00 0. -1.
         -2    1    1    2    0  502 -0.20915783945E+02 -0.12129752373E+02  0.48833513066E+02  0.54491402157E+02  0.00000000000E+00 0. -1.
</event>
<event>
 4    1  0.3196713E+003  0.2240543E+02  0.7546771E-02  0.1500102E+00
          2   -1    0    0  501    0  0.00000000000E+00  0.00000000000E+00  0.34568156695E+02  0.34568156695E+02  0.00000000000E+00 0. -1.
         -2   -1    0    0    0  501 -0.00000000000E+00 -0.00000000000E+00 -0.17125299662E+02  0.17125299662E+02  0.00000000000E+00 0.  1.
          2    1    1    2  502    0  0.78868645756E+01  0.20971419830E+02  0.18798588749E+02  0.29247051500E+02  0.00000000000E+00 0. -1.
         -2    1    1    2    0  502 -0.78868645756E+01 -0.20971419830E+02 -0.13557317164E+01  0.22446404857E+02  0.00000000000E+00 0.  1.
</event>
<event>
 4    1  0.3196713E+003  0.3407553E+02  0.7546771E-02  0.1387182E+00
          2   -1    0    0  501    0  0.00000000000E+00  0.00000000000E+00  0.21892824518E+04  0.21892824518E+04  0.00000000000E+00 0. -1.
         -2   -1    0    0    0  501 -0.00000000000E+00 -0.00000000000E+00 -0.13789449132E+03  0.13789449132E+03  0.00000000000E+00 0. -1.
          2    1    1    2  502    0 -0.25195165760E+02 -0.22942219408E+02  0.21870425748E+04  0.21873080181E+04  0.00000000000E+00 0. -1.
         -2    1    1    2    0  502  0.25195165760E+02  0.22942219408E+02 -0.13565461433E+03  0.13986892506E+03  0.00000000000E+00 0. -1.
</event>
<event>
 4    1  0.3196713E+003  0.2544454E+02  0.7546771E-02  0.1463891E+00
          2   -1    0    0  501    0  0.00000000000E+00  0.00000000000E+00  0.16428891769E+02  0.16428891769E+02  0.00000000000E+00 0. -1.
         -2   -1    0    0    0  501 -0.00000000000E+00 -0.00000000000E+00 -0.11869903445E+03  0.11869903445E+03  0.00000000000E+00 0. -1.
          2    1    1    2  502    0  0.19546155198E+02  0.16290258160E+02  0.40859469041E+01  0.25770519127E+02  0.00000000000E+00 0. -1.
         -2    1    1    2    0  502 -0.19546155198E+02 -0.16290258160E+02 -0.10635608958E+03  0.10935740709E+03  0.00000000000E+00 0. -1.
</event>
<event>
 4    1  0.3196713E+003  0.2780570E+02  0.7546771E-02  0.1439678E+00
          2   -1    0    0  501    0  0.00000000000E+00  0.00000000000E+00  0.88225518535E+03  0.88225518535E+03  0.00000000000E+00 0. -1.
         -2   -1    0    0    0  501 -0.00000000000E+00 -0.00000000000E+00 -0.76242673086E+01  0.76242673086E+01  0.00000000000E+00 0. -1.
          2    1    1    2  502    0  0.12048506779E+02  0.25059741468E+02  0.85590393119E+03  0.85635547326E+03  0.00000000000E+00 0. -1.
         -2    1    1    2    0  502 -0.12048506779E+02 -0.25059741468E+02  0.18726986850E+02  0.33523979395E+02  0.00000000000E+00 0. -1.
</event>
<event>
 4    1  0.3196713E+003  0.3387195E+02  0.7546771E-02  0.1388672E+00
          2   -1    0    0  501    0  0.00000000000E+00  0.00000000000E+00  0.38269404890E+03  0.38269404890E+03  0.00000000000E+00 0. -1.
         -2   -1    0    0    0  501 -0.00000000000E+00 -0.00000000000E+00 -0.17225237192E+02  0.17225237192E+02  0.00000000000E+00 0. -1.
          2    1    1    2  502    0  0.18431736991E+02  0.28417956794E+02  0.36446177314E+03  0.36603236644E+03  0.00000000000E+00 0. -1.
         -2    1    1    2    0  502 -0.18431736991E+02 -0.28417956794E+02  0.10070385619E+01  0.33886919652E+02  0.00000000000E+00 0. -1.
</event>
<event>
 4    1  0.3196713E+003  0.3713664E+02  0.7546771E-02  0.1366134E+00
          2   -1    0    0  501    0  0.00000000000E+00  0.00000000000E+00  0.10054393133E+02  0.10054393133E+02  0.00000000000E+00 0.  1.
         -2   -1    0    0    0  501 -0.00000000000E+00 -0.00000000000E+00 -0.13796983402E+03  0.13796983402E+03  0.00000000000E+00 0. -1.
          2    1    1    2  502    0  0.72261160595E+01  0.36426800669E+02 -0.69604329288E+02  0.78891642244E+02  0.00000000000E+00 0.  1.
         -2    1    1    2    0  502 -0.72261160595E+01 -0.36426800669E+02 -0.58311111600E+02  0.69132584909E+02  0.00000000000E+00 0. -1.
</event>
<event>
 4    1  0.3196713E+003  0.2617894E+02  0.7546771E-02  0.1456035E+00
          2   -1    0    0  501    0  0.00000000000E+00  0.00000000000E+00  0.12221548376E+04  0.12221548376E+04  0.00000000000E+00 0. -1.
         -2   -1    0    0    0  501 -0.00000000000E+00 -0.00000000000E+00 -0.70854548183E+01  0.70854548183E+01  0.00000000000E+00 0.  1.
          2    1    1    2  502    0 -0.15359110030E+01  0.26133843095E+02  0.11973322807E+04  0.11976184398E+04  0.00000000000E+00 0. -1.
         -2    1    1    2    0  502  0.15359110030E+01 -0.26133843095E+02  0.17737102096E+02  0.31621852701E+02  0.00000000000E+00 0.  1.
</event>
<event>
 4    1  0.3196713E+003  0.2558534E+02  0.7546771E-02  0.1462361E+00
          2   -1    0    0  501    0  0.00000000000E+00  0.00000000000E+00  0.81810459502E+01  0.81810459502E+01  0.00000000000E+00 0. -1.
         -2   -1    0    0    0  501 -0.00000000000E+00 -0.00000000000E+00 -0.88906373100E+02  0.88906373100E+02  0.00000000000E+00 0. -1.
          2    1    1    2  502    0 -0.16170010340E+02 -0.19827771008E+02 -0.25011512616E+02  0.35779680000E+02  0.00000000000E+00 0. -1.
         -2    1    1    2    0  502  0.16170010340E+02  0.19827771008E+02 -0.55713814534E+02  0.61307739050E+02  0.00000000000E+00 0. -1.
</event>
<event>
 4    1  0.3196713E+003  0.4618950E+02  0.7546771E-02  0.1315596E+00
          2   -1    0    0  501    0  0.00000000000E+00  0.00000000000E+00  0.14508349844E+04  0.14508349844E+04  0.00000000000E+00 0. -1.
         -2   -1    0    0    0  501 -0.00000000000E+00 -0.00000000000E+00 -0.12818860787E+02  0.12818860787E+02  0.00000000000E+00 0. -1.
          2    1    1    2  502    0 -0.27164432566E+02 -0.37357240705E+02  0.14075810946E+04  0.14083387404E+04  0.00000000000E+00 0. -1.
         -2    1    1    2    0  502  0.27164432566E+02  0.37357240705E+02  0.30435029071E+02  0.55315104847E+02  0.00000000000E+00 0. -1.
</event>
<event>
 4    1  0.3196713E+003  0.4037806E+02  0.7546771E-02  0.1346285E+00
          2   -1    0    0  501    0  0.00000000000E+00  0.00000000000E+00  0.39084489012E+03  0.39084489012E+03  0.00000000000E+00 0.  1.
         -2   -1    0    0    0  501 -0.00000000000E+00 -0.00000000000E+00 -0.58122888672E+01  0.58122888672E+01  0.00000000000E+00 0.  1.
          2    1    1    2  502    0 -0.37610701730E+02 -0.14690902623E+02  0.29789322344E+03  0.30061729836E+03  0.00000000000E+00 0.  1.
         -2    1    1    2    0  502  0.37610701730E+02  0.14690902623E+02  0.87139377814E+02  0.96039880624E+02  0.00000000000E+00 0.  1.
</event>
<event>
 4    1  0.3196713E+003  0.3231421E+02  0.7546771E-02  0.1400497E+00
          2   -1    0    0  501    0  0.00000000000E+00  0.00000000000E+00  0.14391129177E+04  0.14391129177E+04  0.00000000000E+00 0.  1.
         -2   -1    0    0    0  501 -0.00000000000E+00 -0.00000000000E+00 -0.50322146998E+01  0.50322146998E+01  0.00000000000E+00 0.  1.
          2    1    1    2  502    0 -0.26312213623E+02 -0.18758355545E+02  0.13850299320E+04  0.13854068432E+04  0.00000000000E+00 0.  1.
         -2    1    1    2    0  502  0.26312213623E+02  0.18758355545E+02  0.49050770963E+02  0.58738289220E+02  0.00000000000E+00 0.  1.
</event>
<event>
 4    1  0.3196713E+003  0.2138194E+02  0.7546771E-02  0.1513881E+00
          2   -1    0    0  501    0  0.00000000000E+00  0.00000000000E+00  0.25456289835E+03  0.25456289835E+03  0.00000000000E+00 0.  1.
         -2   -1    0    0    0  501 -0.00000000000E+00 -0.00000000000E+00 -0.59051967917E+02  0.59051967917E+02  0.00000000000E+00 0.  1.
          2    1    1    2  502    0 -0.18404065571E+02 -0.10884738888E+02  0.25215996568E+03  0.25306488390E+03  0.00000000000E+00 0.  1.
         -2    1    1    2    0  502  0.18404065571E+02  0.10884738888E+02 -0.56649035249E+02  0.60549982369E+02  0.00000000000E+00 0.  1.
</event>
<event>
 4    1  0.3196713E+003  0.3622860E+02  0.7546771E-02  0.1372126E+00
          2   -1    0    0  501    0  0.00000000000E+00  0.00000000000E+00  0.71273474971E+03  0.71273474971E+03  0.00000000000E+00 0. -1.
         -2   -1    0    0    0  501 -0.00000000000E+00 -0.00000000000E+00 -0.35015772294E+02  0.35015772294E+02  0.00000000000E+00 0.  1.
          2    1    1    2  502    0 -0.18316464358E+02  0.31257293726E+02  0.70277073987E+03  0.70370393213E+03  0.00000000000E+00 0. -1.
         -2    1    1    2    0  502  0.18316464358E+02 -0.31257293726E+02 -0.25051762453E+02  0.44046589876E+02  0.00000000000E+00 0.  1.
</event>
<event>
 4    1  0.3196713E+003  0.2967790E+02  0.7546771E-02  0.1422416E+00
          2   -1    0    0  501    0  0.00000000000E+00  0.00000000000E+00  0.49469969127E+03  0.49469969127E+03  0.00000000000E+00 0. -1.
         -2   -1    0    0    0  501 -0.00000000000E+00 -0.00000000000E+00 -0.47020751591E+02  0.47020751591E+02  0.00000000000E+00 0.  1.
          2    1    1    2  502    0  0.24729976830E+02  0.16407491194E+02  0.48952218068E+03  0.49042098538E+03  0.00000000000E+00 0. -1.
         -2    1    1    2    0  502 -0.24729976830E+02 -0.16407491194E+02 -0.41843240997E+02  0.51299457487E+02  0.00000000000E+00 0.  1.
</event>
<event>
 4    1  0.3196713E+003  0.2297969E+02  0.7546771E-02  0.1492753E+00
          2   -1    0    0  501    0  0.00000000000E+00  0.00000000000E+00  0.36923074441E+02  0.36923074441E+02  0.00000000000E+00 0.  1.
         -2   -1    0    0    0  501 -0.00000000000E+00 -0.00000000000E+00 -0.37286065060E+02  0.37286065060E+02  0.00000000000E+00 0.  1.
          2    1    1    2  502    0 -0.89257409145E+01 -0.21175397493E+02  0.28950448524E+02  0.36962072177E+02  0.00000000000E+00 0.  1.
         -2    1    1    2    0  502  0.89257409145E+01  0.21175397493E+02 -0.29313439143E+02  0.37247067324E+02  0.00000000000E+00 0.  1.
</event>
<event>
 4    1  0.3196713E+003  0.3727098E+02  0.7546771E-02  0.1365265E+00
          2   -1    0    0  501    0  0.00000000000E+00  0.00000000000E+00  0.68430119846E+03  0.68430119846E+03  0.00000000000E+00 0.  1.
         -2   -1    0    0    0  501 -0.00000000000E+00 -0.00000000000E+00 -0.70523125040E+01  0.70523125040E+01  0.00000000000E+00 0. -1.
          2    1    1    2  502    0 -0.32444040248E+02  0.18344216467E+02  0.63033799846E+03  0.63143892684E+03  0.00000000000E+00 0.  1.
         -2    1    1    2    0  502  0.32444040248E+02 -0.18344216467E+02  0.46910887505E+02  0.59914584134E+02  0.00000000000E+00 0. -1.
</event>
<event>
 4    1  0.3196713E+003  0.2271925E+02  0.7546771E-02  0.1496054E+00
          2   -1    0    0  501    0  0.00000000000E+00  0.00000000000E+00  0.56620239789E+01  0.56620239789E+01  0.00000000000E+00 0.  1.
         -2   -1    0    0    0  501 -0.00000000000E+00 -0.00000000000E+00 -0.13220626469E+03  0.13220626469E+03  0.00000000000E+00 0. -1.
          2    1    1    2  502    0 -0.66005219293E+01  0.21739301496E+02 -0.24863200094E+02  0.33680006505E+02  0.00000000000E+00 0.  1.
         -2    1    1    2    0  502  0.66005219293E+01 -0.21739301496E+02 -0.10168104062E+03  0.10418828216E+03  0.00000000000E+00 0. -1.
</event>
<event>
 4    1  0.3196713E+003  0.4015983E+02  0.7546771E-02  0.1347552E+00
          2   -1    0    0  501    0  0.00000000000E+00  0.00000000000E+00  0.52448395983E+03  0.52448395983E+03  0.00000000000E+00 0. -1.
         -2   -1    0    0    0  501 -0.00000000000E+00 -0.00000000000E+00 -0.36946310856E+01  0.36946310856E+01  0.00000000000E+00 0.  1.
          2    1    1    2  502    0 -0.34368424186E+02  0.20775551244E+02  0.36854200984E+03  0.37072365062E+03  0.00000000000E+00 0. -1.
         -2    1    1    2    0  502  0.34368424186E+02 -0.20775551244E+02  0.15224731890E+03  0.15745494029E+03  0.00000000000E+00 0.  1.
</event>
<event>
 4    1  0.3196713E+003  0.2412149E+02  0.7546771E-02  0.1478876E+00
          2   -1    0    0  501    0  0.00000000000E+00  0.00000000000E+00  0.28465980624E+03  0.28465980624E+03  0.00000000000E+00 0. -1.
         -2   -1    0    0    0  501 -0.00000000000E+00 -0.00000000000E+00 -0.25336023726E+01  0.25336023726E+01  0.00000000000E+00 0. -1.
          2    1    1    2  502    0  0.84237542497E+01 -0.22602797932E+02  0.20418713180E+03  0.20560698165E+03  0.00000000000E+00 0. -1.
         -2    1    1    2    0  502 -0.84237542497E+01  0.22602797932E+02  0.77939072068E+02  0.81586426965E+02  0.00000000000E+00 0. -1.
</event>
<event>
 4    1  0.3196713E+003  0.3932947E+02  0.7546771E-02  0.1352461E+00
          2   -1    0    0  501    0  0.00000000000E+00  0.00000000000E+00  0.71394792466E+03  0.71394792466E+03  0.00000000000E+00 0. -1.
         -2   -1    0    0    0  501 -0.00000000000E+00 -0.00000000000E+00 -0.91170170887E+02  0.91170170887E+02  0.00000000000E+00 0. -1.
          2    1    1    2  502    0  0.23100239614E-01 -0.39329458613E+02  0.70913598906E+03  0.71022577947E+03  0.00000000000E+00 0. -1.
         -2    1    1    2    0  502 -0.23100239614E-01  0.39329458613E+02 -0.86358235286E+02  0.94892316075E+02  0.00000000000E+00 0. -1.
</event>
<event>
 4    1  0.3196713E+003  0.2296140E+02  0.7546771E-02  0.1492983E+00
          2   -1    0    0  501    0  0.00000000000E+00  0.00000000000E+00  0.12958252630E+04  0.12958252630E+04  0.00000000000E+00 0.  1.
         -2   -1    0    0    0  501 -0.00000000000E+00 -0.00000000000E+00 -0.20515108687E+01  0.20515108687E+01  0.00000000000E+00 0. -1.
          2    1    1    2  502    0 -0.81487299838E+01 -0.21466817666E+02  0.12279224746E+04  0.12281371380E+04  0.00000000000E+00 0.  1.
         -2    1    1    2    0  502  0.81487299838E+01  0.21466817666E+02  0.65851277511E+02  0.69739635867E+02  0.00000000000E+00 0. -1.
</event>
<event>
 4    1  0.3196713E+003  0.4340908E+02  0.7546771E-02  0.1329589E+00
          2   -1    0    0  501    0  0.00000000000E+00  0.00000000000E+00  0.12202510787E+03  0.12202510787E+03  0.00000000000E+00 0.  1.
         -2   -1    0    0    0  501 -0.00000000000E+00 -0.00000000000E+00 -0.53029686924E+02  0.53029686924E+02  0.00000000000E+00 0.  1.
          2    1    1    2  502    0 -0.20318649683E+02  0.38360150245E+02  0.10818719782E+03  0.11657108743E+03  0.00000000000E+00 0.  1.
         -2    1    1    2    0  502  0.20318649683E+02 -0.38360150245E+02 -0.39191776879E+02  0.58483707361E+02  0.00000000000E+00 0.  1.
</event>
<event>
 4    1  0.3196713E+003  0.2684764E+02  0.7546771E-02  0.1449145E+00
          2   -1    0    0  501    0  0.00000000000E+00  0.00000000000E+00  0.62589793663E+02  0.62589793663E+02  0.00000000000E+00 0. -1.
         -2   -1    0    0    0  501 -0.00000000000E+00 -0.00000000000E+00 -0.19293777248E+03  0.19293777248E+03  0.00000000000E+00 0.  1.
          2    1    1    2  502    0  0.20742151072E+02  0.17045787711E+02  0.58718110127E+02  0.64564790456E+02  0.00000000000E+00 0. -1.
         -2    1    1    2    0  502 -0.20742151072E+02 -0.17045787711E+02 -0.18906608895E+03  0.19096277569E+03  0.00000000000E+00 0.  1.
</event>
<event>
 4    1  0.3196713E+003  0.2818987E+02  0.7546771E-02  0.1436008E+00
          2   -1    0    0  501    0  0.00000000000E+00  0.00000000000E+00  0.13599211734E+04  0.13599211734E+04  0.00000000000E+00 0.  1.
         -2   -1    0    0    0  501 -0.00000000000E+00 -0.00000000000E+00 -0.10459793830E+01  0.10459793830E+01  0.00000000000E+00 0. -1.
          2    1    1    2  502    0 -0.28155756571E+02 -0.13864098276E+01  0.11315050232E+04  0.11318561244E+04  0.00000000000E+00 0.  1.
         -2    1    1    2    0  502  0.28155756571E+02  0.13864098276E+01  0.22737017078E+03  0.22911102837E+03  0.00000000000E+00 0. -1.
</event>
<event>
 4    1  0.3196713E+003  0.2938987E+02  0.7546771E-02  0.1424974E+00
          2   -1    0    0  501    0  0.00000000000E+00  0.00000000000E+00  0.18339109237E+03  0.18339109237E+03  0.00000000000E+00 0.  1.
         -2   -1    0    0    0  501 -0.00000000000E+00 -0.00000000000E+00 -0.93360839408E+02  0.93360839408E+02  0.00000000000E+00 0.  1.
          2    1    1    2  502    0  0.13451638614E+02 -0.26130778981E+02  0.17985546136E+03  0.18224091520E+03  0.00000000000E+00 0.  1.
         -2    1    1    2    0  502 -0.13451638614E+02  0.26130778981E+02 -0.89825208397E+02  0.94511016580E+02  0.00000000000E+00 0.  1.
</event>
<event>
 4    1  0.3196713E+003  0.2351602E+02  0.7546771E-02  0.1486118E+00
          2   -1    0    0  501    0  0.00000000000E+00  0.00000000000E+00  0.83560606900E+02  0.83560606900E+02  0.00000000000E+00 0. -1.
         -2   -1    0    0    0  501 -0.00000000000E+00 -0.00000000000E+00 -0.24354055096E+02  0.24354055096E+02  0.00000000000E+00 0. -1.
          2    1    1    2  502    0 -0.40883613759E+01 -0.23157907065E+02  0.75649438186E+02  0.79220204849E+02  0.00000000000E+00 0. -1.
         -2    1    1    2    0  502  0.40883613759E+01  0.23157907065E+02 -0.16442886382E+02  0.28694457147E+02  0.00000000000E+00 0. -1.
</event>
<event>
 4    1  0.3196713E+003  0.3393170E+02  0.7546771E-02  0.1388233E+00
          2   -1    0    0  501    0  0.00000000000E+00  0.00000000000E+00  0.16866812951E+03  0.16866812951E+03  0.00000000000E+00 0. -1.
         -2   -1    0    0    0  501 -0.00000000000E+00 -0.00000000000E+00 -0.71514265254E+01  0.71514265254E+01  0.00000000000E+00 0. -1.
          2    1    1    2  502    0  0.32072324984E+02 -0.11078146287E+02  0.62010745434E+02  0.70687282480E+02  0.00000000000E+00 0. -1.
         -2    1    1    2    0  502 -0.32072324984E+02  0.11078146287E+02  0.99505957555E+02  0.10513227356E+03  0.00000000000E+00 0. -1.
</event>
<event>
 4    1  0.3196713E+003  0.3520339E+02  0.7546771E-02  0.1379139E+00
          2   -1    0    0  501    0  0.00000000000E+00  0.00000000000E+00  0.22880997660E+04  0.22880997660E+04  0.00000000000E+00 0. -1.
         -2   -1    0    0    0  501 -0.00000000000E+00 -0.00000000000E+00 -0.10182885045E+03  0.10182885045E+03  0.00000000000E+00 0.  1.
          2    1    1    2  502    0 -0.35198517834E+02 -0.58569560376E+00  0.22849175711E+04  0.22851887418E+04  0.00000000000E+00 0. -1.
         -2    1    1    2    0  502  0.35198517834E+02  0.58569560376E+00 -0.98646655558E+02  0.10473987469E+03  0.00000000000E+00 0.  1.
</event>
<event>
 4    1  0.3196713E+003  0.2109903E+02  0.7546771E-02  0.1517856E+00
          2   -1    0    0  501    0  0.00000000000E+00  0.00000000000E+00  0.12974208472E+03  0.12974208472E+03  0.00000000000E+00 0.  1.
         -2   -1    0    0    0  501 -0.00000000000E+00 -0.00000000000E+00 -0.85563013338E+01  0.85563013338E+01  0.00000000000E+00 0.  1.
          2    1    1    2  502    0  0.25614912752E-01  0.21099012346E+02  0.11411041203E+03  0.11604462551E+03  0.00000000000E+00 0.  1.
         -2    1    1    2    0  502 -0.25614912752E-01 -0.21099012346E+02  0.70753713558E+01  0.22253760535E+02  0.00000000000E+00 0.  1.
</event>
<event>
 4    1  0.3196713E+003  0.2612787E+02  0.7546771E-02  0.1456571E+00
          2   -1    0    0  501    0  0.00000000000E+00  0.00000000000E+00  0.84205995408E+03  0.84205995408E+03  0.00000000000E+00 0. -1.
         -2   -1    0    0    0  501 -0.00000000000E+00 -0.00000000000E+00 -0.45100263564E+01  0.45100263564E+01  0.00000000000E+00 0. -1.
          2    1    1    2  502    0 -0.25723037521E+02  0.45815867404E+01  0.80213260382E+03  0.80255802264E+03  0.00000000000E+00 0. -1.
         -2    1    1    2    0  502  0.25723037521E+02 -0.45815867404E+01  0.35417323901E+02  0.44011957792E+02  0.00000000000E+00 0. -1.
</event>
<event>
 4    1  0.3196713E+003  0.4666115E+02  0.7546771E-02  0.1313336E+00
          2   -1    0    0  501    0  0.00000000000E+00  0.00000000000E+00  0.71243911946E+02  0.71243911946E+02  0.00000000000E+00 0. -1.
         -2   -1    0    0    0  501 -0.00000000000E+00 -0.00000000000E+00 -0.11737549129E+03  0.11737549129E+03  0.00000000000E+00 0. -1.
          2    1    1    2  502    0 -0.22487486401E+01 -0.46606935849E+02  0.58042368398E+02  0.74472678675E+02  0.00000000000E+00 0. -1.
         -2    1    1    2    0  502  0.22487486401E+01  0.46606935849E+02 -0.10417394774E+03  0.11414672456E+03  0.00000000000E+00 0. -1.
</event>
<event>
 4    1  0.3196713E+003  0.2622821E+02  0.7546771E-02  0.1455519E+00
          2   -1    0    0  501    0  0.00000000000E+00  0.00000000000E+00  0.19285981093E+04  0.19285981093E+04  0.00000000000E+00 0. -1.
         -2   -1    0    0    0  501 -0.00000000000E+00 -0.00000000000E+00 -0.14120976658E+01  0.14120976658E+01  0.00000000000E+00 0.  1.
          2    1    1    2  502    0 -0.24813598335E+02 -0.84973049793E+01  0.17978629488E+04  0.17980542544E+04  0.00000000000E+00 0. -1.
         -2    1    1    2    0  502  0.24813598335E+02  0.84973049793E+01  0.12932306276E+03  0.13195595256E+03  0.00000000000E+00 0.  1.
</event>
<event>
 4    1  0.3196713E+003  0.2860659E+02  0.7546771E-02  0.1432104E+00
          2   -1    0    0  501    0  0.00000000000E+00  0.00000000000E+00  0.21311559628E+04  0.21311559628E+04  0.00000000000E+00 0. -1.
         -2   -1    0    0    0  501 -0.00000000000E+00 -0.00000000000E+00 -0.15004300321E+01  0.15004300321E+01  0.00000000000E+00 0. -1.
          2    1    1    2  502    0 -0.58049126560E+01 -0.28011425880E+02  0.19846443372E+04  0.19848504937E+04  0.00000000000E+00 0. -1.
         -2    1    1    2    0  502  0.58049126560E+01  0.28011425880E+02  0.14501119554E+03  0.14780589915E+03  0.00000000000E+00 0. -1.
</event>
<event>
 4    1  0.3196713E+003  0.3653057E+02  0.7546771E-02  0.1370111E+00
          2   -1    0    0  501    0  0.00000000000E+00  0.00000000000E+00  0.79778573005E+03  0.79778573005E+03  0.00000000000E+00 0. -1.
         -2   -1    0    0    0  501 -0.00000000000E+00 -0.00000000000E+00 -0.18578353908E+01  0.18578353908E+01  0.00000000000E+00 0.  1.
          2    1    1    2  502    0 -0.27635448075E+02  0.23890681022E+02  0.52416665834E+03  0.52543807280E+03  0.00000000000E+00 0. -1.
         -2    1    1    2    0  502  0.27635448075E+02 -0.23890681022E+02  0.27176123631E+03  0.27420549264E+03  0.00000000000E+00 0.  1.
</event>
<event>
 4    1  0.3196713E+003  0.2502294E+02  0.7546771E-02  0.1468547E+00
          2   -1    0    0  501    0  0.00000000000E+00  0.00000000000E+00  0.15940794986E+04  0.15940794986E+04  0.00000000000E+00 0. -1.
         -2   -1    0    0    0  501 -0.00000000000E+00 -0.00000000000E+00 -0.10025345172E+01  0.10025345172E+01  0.00000000000E+00 0. -1.
          2    1    1    2  502    0 -0.13263289709E+02  0.21218681627E+02  0.14185169387E+04  0.14187376265E+04  0.00000000000E+00 0. -1.
         -2    1    1    2    0  502  0.13263289709E+02 -0.21218681627E+02  0.17456002537E+03  0.17634440666E+03  0.00000000000E+00 0. -1.
</event>
<event>
 4    1  0.3196713E+003  0.2091041E+02  0.7546771E-02  0.1520548E+00
          2   -1    0    0  501    0  0.00000000000E+00  0.00000000000E+00  0.12357313660E+02  0.12357313660E+02  0.00000000000E+00 0. -1.
         -2   -1    0    0    0  501 -0.00000000000E+00 -0.00000000000E+00 -0.39681703038E+03  0.39681703038E+03  0.00000000000E+00 0. -1.
          2    1    1    2  502    0  0.19802757390E+02 -0.67153478745E+01  0.30230283478E+01  0.21127796803E+02  0.00000000000E+00 0. -1.
         -2    1    1    2    0  502 -0.19802757390E+02  0.67153478745E+01 -0.38748274506E+03  0.38804654723E+03  0.00000000000E+00 0. -1.
</event>
<event>
 4    1  0.3196713E+003  0.3750199E+02  0.7546771E-02  0.1363780E+00
          2   -1    0    0  501    0  0.00000000000E+00  0.00000000000E+00  0.59979214257E+01  0.59979214257E+01  0.00000000000E+00 0.  1.
         -2   -1    0    0    0  501 -0.00000000000E+00 -0.00000000000E+00 -0.30701947656E+03  0.30701947656E+03  0.00000000000E+00 0.  1.
          2    1    1    2  502    0  0.49588142940E+01 -0.37172696871E+02 -0.74436221877E+02  0.83349567240E+02  0.00000000000E+00 0.  1.
         -2    1    1    2    0  502 -0.49588142940E+01  0.37172696871E+02 -0.22658533326E+03  0.22966783074E+03  0.00000000000E+00 0.  1.
</event>
<event>
 4    1  0.3196713E+003  0.3923232E+02  0.7546771E-02  0.1353044E+00
          2   -1    0    0  501    0  0.00000000000E+00  0.00000000000E+00  0.20195176506E+04  0.20195176506E+04  0.00000000000E+00 0. -1.
         -2   -1    0    0    0  501 -0.00000000000E+00 -0.00000000000E+00 -0.25991458522E+01  0.25991458522E+01  0.00000000000E+00 0.  1.
          2    1    1    2  502    0 -0.32174335875E+02 -0.22449663732E+02  0.18584515856E+04  0.18588656410E+04  0.00000000000E+00 0. -1.
         -2    1    1    2    0  502  0.32174335875E+02  0.22449663732E+02  0.15846691916E+03  0.16325115546E+03  0.00000000000E+00 0.  1.
</event>
<event>
 4    1  0.3196713E+003  0.3246487E+02  0.7546771E-02  0.1399319E+00
          2   -1    0    0  501    0  0.00000000000E+00  0.00000000000E+00  0.64491503010E+03  0.64491503010E+03  0.00000000000E+00 0. -1.
         -2   -1    0    0    0  501 -0.00000000000E+00 -0.00000000000E+00 -0.20436838274E+02  0.20436838274E+02  0.00000000000E+00 0.  1.
          2    1    1    2  502    0  0.25372487260E+02  0.20253516131E+02  0.63133635156E+03  0.63217051246E+03  0.00000000000E+00 0. -1.
         -2    1    1    2    0  502 -0.25372487260E+02 -0.20253516131E+02 -0.68581597320E+01  0.33181355915E+02  0.00000000000E+00 0.  1.
</event>
<event>
 4    1  0.3196713E+003  0.2299789E+02  0.7546771E-02  0.1492525E+00
          2   -1    0    0  501    0  0.00000000000E+00  0.00000000000E+00  0.11205102863E+02  0.11205102863E+02  0.00000000000E+00 0. -1.
         -2   -1    0    0    0  501 -0.00000000000E+00 -0.00000000000E+00 -0.14714723110E+03  0.14714723110E+03  0.00000000000E+00 0. -1.
          2    1    1    2  502    0 -0.57077651245E+01  0.22278336925E+02 -0.27182059386E+01  0.23157968874E+02  0.00000000000E+00 0. -1.
         -2    1    1    2    0  502  0.57077651245E+01 -0.22278336925E+02 -0.13322392230E+03  0.13519436509E+03  0.00000000000E+00 0. -1.
</event>
<event>
 4    1  0.3196713E+003  0.2339337E+02  0.7546771E-02  0.1487617E+00
          2   -1    0    0  501    0  0.00000000000E+00  0.00000000000E+00  0.19265367019E+03  0.19265367019E+03  0.00000000000E+00 0.  1.
         -2   -1    0    0    0  501 -0.00000000000E+00 -0.00000000000E+00 -0.92165201540E+01  0.92165201540E+01  0.00000000000E+00 0.  1.
          2    1    1    2  502    0  0.31421279400E+01  0.23181393446E+02  0.17567047023E+03  0.17722122921E+03  0.00000000000E+00 0.  1.
         -2    1    1    2    0  502 -0.31421279400E+01 -0.23181393446E+02  0.77666798079E+01  0.24648961141E+02  0.00000000000E+00 0.  1.
</event>
<event>
 4    1  0.3196713E+003  0.3259024E+02  0.7546771E-02  0.1398345E+00
          2   -1    0    0  501    0  0.00000000000E+00  0.00000000000E+00  0.12802981211E+01  0.12802981211E+01  0.00000000000E+00 0. -1.
         -2   -1    0    0    0  501 -0.00000000000E+00 -0.00000000000E+00 -0.84520165683E+03  0.84520165683E+03  0.00000000000E+00 0. -1.
          2    1    1    2  502    0 -0.19282934999E+02  0.26273387674E+02 -0.47948247448E+03  0.48058876996E+03  0.00000000000E+00 0. -1.
         -2    1    1    2    0  502  0.19282934999E+02 -0.26273387674E+02 -0.36443888423E+03  0.36589318499E+03  0.00000000000E+00 0. -1.
</event>
<event>
 4    1  0.3196713E+003  0.4132931E+02  0.7546771E-02  0.1340867E+00
          2   -1    0    0  501    0  0.00000000000E+00  0.00000000000E+00  0.23417750097E+03  0.23417750097E+03  0.00000000000E+00 0.  1.
         -2   -1    0    0    0  501 -0.00000000000E+00 -0.00000000000E+00 -0.22277219254E+02  0.22277219254E+02  0.00000000000E+00 0.  1.
          2    1    1    2  502    0  0.41231439874E+02  0.28425397038E+01  0.21111035965E+03  0.21511786448E+03  0.00000000000E+00 0.  1.
         -2    1    1    2    0  502 -0.41231439874E+02 -0.28425397038E+01  0.78992206575E+00  0.41336855745E+02  0.00000000000E+00 0.  1.
</event>
<event>
 4    1  0.3196713E+003  0.8380579E+02  0.7546771E-02  0.1195278E+00
          2   -1    0    0  501    0  0.00000000000E+00  0.00000000000E+00  0.57507254076E+03  0.57507254076E+03  0.00000000000E+00 0.  1.
         -2   -1    0    0    0  501 -0.00000000000E+00 -0.00000000000E+00 -0.12895012524E+02  0.12895012524E+02  0.00000000000E+00 0. -1.
          2    1    1    2  502    0 -0.33524457397E+02 -0.76808338431E+02  0.34869417214E+03  0.35862380816E+03  0.00000000000E+00 0.  1.
         -2    1    1    2    0  502  0.33524457397E+02  0.76808338431E+02  0.21348335610E+03  0.22934374513E+03  0.00000000000E+00 0. -1.
</event>
<event>
 4    1  0.3196713E+003  0.4324003E+02  0.7546771E-02  0.1330478E+00
          2   -1    0    0  501    0  0.00000000000E+00  0.00000000000E+00  0.46948250268E+03  0.46948250268E+03  0.00000000000E+00 0.  1.
         -2   -1    0    0    0  501 -0.00000000000E+00 -0.00000000000E+00 -0.15063420949E+03  0.15063420949E+03  0.00000000000E+00 0. -1.
          2    1    1    2  502    0  0.42615536336E+02 -0.73223258070E+01  0.46535638324E+03  0.46736095666E+03  0.00000000000E+00 0.  1.
         -2    1    1    2    0  502 -0.42615536336E+02  0.73223258070E+01 -0.14650809005E+03  0.15275575551E+03  0.00000000000E+00 0. -1.
</event>
<event>
 4    1  0.3196713E+003  0.2328206E+02  0.7546771E-02  0.1488986E+00
          2   -1    0    0  501    0  0.00000000000E+00  0.00000000000E+00  0.10570106776E+04  0.10570106776E+04  0.00000000000E+00 0. -1.
         -2   -1    0    0    0  501 -0.00000000000E+00 -0.00000000000E+00 -0.60774922288E+01  0.60774922288E+01  0.00000000000E+00 0. -1.
          2    1    1    2  502    0 -0.13191114201E+02  0.19184604256E+02  0.10340906991E+04  0.10343527582E+04  0.00000000000E+00 0. -1.
         -2    1    1    2    0  502  0.13191114201E+02 -0.19184604256E+02  0.16842486250E+02  0.28735411558E+02  0.00000000000E+00 0. -1.
</event>
<event>
 4    1  0.3196713E+003  0.5340590E+02  0.7546771E-02  0.1284045E+00
          2   -1    0    0  501    0  0.00000000000E+00  0.00000000000E+00  0.12875293201E+04  0.12875293201E+04  0.00000000000E+00 0. -1.
         -2   -1    0    0    0  501 -0.00000000000E+00 -0.00000000000E+00 -0.25646012978E+01  0.25646012978E+01  0.00000000000E+00 0. -1.
          2    1    1    2  502    0  0.35729659170E+02 -0.39693559583E+02  0.40440481696E+03  0.40791597566E+03  0.00000000000E+00 0. -1.
         -2    1    1    2    0  502 -0.35729659170E+02  0.39693559583E+02  0.88055990184E+03  0.88217794574E+03  0.00000000000E+00 0. -1.
</event>
<event>
 4    1  0.3196713E+003  0.2859174E+02  0.7546771E-02  0.1432242E+00
          2   -1    0    0  501    0  0.00000000000E+00  0.00000000000E+00  0.80213466750E+03  0.80213466750E+03  0.00000000000E+00 0. -1.
         -2   -1    0    0    0  501 -0.00000000000E+00 -0.00000000000E+00 -0.18633584047E+02  0.18633584047E+02  0.00000000000E+00 0.  1.
          2    1    1    2  502    0  0.78004557421E+01  0.27507099219E+02  0.79075415061E+03  0.79127088556E+03  0.00000000000E+00 0. -1.
         -2    1    1    2    0  502 -0.78004557421E+01 -0.27507099219E+02 -0.72530671586E+01  0.29497365992E+02  0.00000000000E+00 0.  1.
</event>
<event>
 4    1  0.3196713E+003  0.3143900E+02  0.7546771E-02  0.1407491E+00
          2   -1    0    0  501    0  0.00000000000E+00  0.00000000000E+00  0.24667658941E+04  0.24667658941E+04  0.00000000000E+00 0.  1.
         -2   -1    0    0    0  501 -0.00000000000E+00 -0.00000000000E+00 -0.46329218664E+00  0.46329218664E+00  0.00000000000E+00 0.  1.
          2    1    1    2  502    0 -0.13366701843E+02  0.28455945055E+02  0.77968479608E+03  0.78031839064E+03  0.00000000000E+00 0.  1.
         -2    1    1    2    0  502  0.13366701843E+02 -0.28455945055E+02  0.16866178059E+04  0.16869107957E+04  0.00000000000E+00 0.  1.
</event>
<event>
 4    1  0.3196713E+003  0.2354083E+02  0.7546771E-02  0.1485816E+00
          2   -1    0    0  501    0  0.00000000000E+00  0.00000000000E+00  0.45019382828E+03  0.45019382828E+03  0.00000000000E+00 0. -1.
         -2   -1    0    0    0  501 -0.00000000000E+00 -0.00000000000E+00 -0.51301469284E+03  0.51301469284E+03  0.00000000000E+00 0.  1.
          2    1    1    2  502    0 -0.17479184690E+01  0.23475850487E+02  0.44961568516E+03  0.45023153501E+03  0.00000000000E+00 0. -1.
         -2    1    1    2    0  502  0.17479184690E+01 -0.23475850487E+02 -0.51243654972E+03  0.51297698610E+03  0.00000000000E+00 0.  1.
</event>
<event>
 4    1  0.3196713E+003  0.2002573E+02  0.7546771E-02  0.1533643E+00
          2   -1    0    0  501    0  0.00000000000E+00  0.00000000000E+00  0.87056766992E+02  0.87056766992E+02  0.00000000000E+00 0. -1.
         -2   -1    0    0    0  501 -0.00000000000E+00 -0.00000000000E+00 -0.66124717995E+02  0.66124717995E+02  0.00000000000E+00 0.  1.
          2    1    1    2  502    0  0.53071821577E+01 -0.19309673590E+02  0.84340792156E+02  0.86685632593E+02  0.00000000000E+00 0. -1.
         -2    1    1    2    0  502 -0.53071821577E+01  0.19309673590E+02 -0.63408743159E+02  0.66495852394E+02  0.00000000000E+00 0.  1.
</event>
<event>
 4    1  0.3196713E+003  0.3169346E+02  0.7546771E-02  0.1405430E+00
          2   -1    0    0  501    0  0.00000000000E+00  0.00000000000E+00  0.24903495823E+02  0.24903495823E+02  0.00000000000E+00 0.  1.
         -2   -1    0    0    0  501 -0.00000000000E+00 -0.00000000000E+00 -0.40859343799E+02  0.40859343799E+02  0.00000000000E+00 0.  1.
          2    1    1    2  502    0  0.21402694278E+02 -0.23375202706E+02 -0.42520287201E+01  0.31977416596E+02  0.00000000000E+00 0.  1.
         -2    1    1    2    0  502 -0.21402694278E+02  0.23375202706E+02 -0.11703819256E+02  0.33785423027E+02  0.00000000000E+00 0.  1.
</event>
<event>
 4    1  0.3196713E+003  0.2164654E+02  0.7546771E-02  0.1510231E+00
          2   -1    0    0  501    0  0.00000000000E+00  0.00000000000E+00  0.68706415445E+03  0.68706415445E+03  0.00000000000E+00 0.  1.
         -2   -1    0    0    0  501 -0.00000000000E+00 -0.00000000000E+00 -0.27597068736E+03  0.27597068736E+03  0.00000000000E+00 0.  1.
          2    1    1    2  502    0  0.33829548521E+01  0.21380564113E+02  0.68646881112E+03  0.68681001852E+03  0.00000000000E+00 0.  1.
         -2    1    1    2    0  502 -0.33829548521E+01 -0.21380564113E+02 -0.27537534402E+03  0.27622482329E+03  0.00000000000E+00 0.  1.
</event>
<event>
 4    1  0.3196713E+003  0.2121501E+02  0.7546771E-02  0.1516217E+00
          2   -1    0    0  501    0  0.00000000000E+00  0.00000000000E+00  0.39988051136E+03  0.39988051136E+03  0.00000000000E+00 0. -1.
         -2   -1    0    0    0  501 -0.00000000000E+00 -0.00000000000E+00 -0.53770428438E+01  0.53770428438E+01  0.00000000000E+00 0.  1.
          2    1    1    2  502    0 -0.21152207710E+02  0.16312080701E+01  0.37742951045E+03  0.37802527970E+03  0.00000000000E+00 0. -1.
         -2    1    1    2    0  502  0.21152207710E+02 -0.16312080701E+01  0.17073958065E+02  0.27232274507E+02  0.00000000000E+00 0.  1.
</event>
<event>
 4    1  0.3196713E+003  0.2264550E+02  0.7546771E-02  0.1496998E+00
          2   -1    0    0  501    0  0.00000000000E+00  0.00000000000E+00  0.40089666479E+03  0.40089666479E+03  0.00000000000E+00 0. -1.
         -2   -1    0    0    0  501 -0.00000000000E+00 -0.00000000000E+00 -0.85718312419E+01  0.85718312419E+01  0.00000000000E+00 0. -1.
          2    1    1    2  502    0  0.10267628866E+02  0.20184017172E+02  0.38500347785E+03  0.38566889517E+03  0.00000000000E+00 0. -1.
         -2    1    1    2    0  502 -0.10267628866E+02 -0.20184017172E+02  0.73213557050E+01  0.23799600860E+02  0.00000000000E+00 0. -1.
</event>
<event>
 4    1  0.3196713E+003  0.2507519E+02  0.7546771E-02  0.1467964E+00
          2   -1    0    0  501    0  0.00000000000E+00  0.00000000000E+00  0.67413547116E+02  0.67413547116E+02  0.00000000000E+00 0.  1.
         -2   -1    0    0    0  501 -0.00000000000E+00 -0.00000000000E+00 -0.34874834710E+02  0.34874834710E+02  0.00000000000E+00 0.  1.
          2    1    1    2  502    0  0.16542492101E+02  0.18844385364E+02  0.60043477800E+02  0.65069072000E+02  0.00000000000E+00 0.  1.
         -2    1    1    2    0  502 -0.16542492101E+02 -0.18844385364E+02 -0.27504765393E+02  0.37219309826E+02  0.00000000000E+00 0.  1.
</event>
<event>
 4    1  0.3196713E+003  0.3330083E+02  0.7546771E-02  0.1392919E+00
          2   -1    0    0  501    0  0.00000000000E+00  0.00000000000E+00  0.22541587239E+03  0.22541587239E+03  0.00000000000E+00 0.  1.
         -2   -1    0    0    0  501 -0.00000000000E+00 -0.00000000000E+00 -0.76660855581E+02  0.76660855581E+02  0.00000000000E+00 0.  1.
          2    1    1    2  502    0  0.33018729157E+02 -0.43253653073E+01  0.22048923460E+03  0.22298979312E+03  0.00000000000E+00 0.  1.
         -2    1    1    2    0  502 -0.33018729157E+02  0.43253653073E+01 -0.71734217798E+02  0.79086934846E+02  0.00000000000E+00 0.  1.
</event>
<event>
 4    1  0.3196713E+003  0.2547564E+02  0.7546771E-02  0.1463552E+00
          2   -1    0    0  501    0  0.00000000000E+00  0.00000000000E+00  0.50199683768E+03  0.50199683768E+03  0.00000000000E+00 0. -1.
         -2   -1    0    0    0  501 -0.00000000000E+00 -0.00000000000E+00 -0.14471208285E+02  0.14471208285E+02  0.00000000000E+00 0.  1.
          2    1    1    2  502    0 -0.25095716298E+02  0.43832877291E+01  0.49019173119E+03  0.49085327901E+03  0.00000000000E+00 0. -1.
         -2    1    1    2    0  502  0.25095716298E+02 -0.43832877291E+01 -0.26661017880E+01  0.25614766963E+02  0.00000000000E+00 0.  1.
</event>
<event>
 4    1  0.3196713E+003  0.2534844E+02  0.7546771E-02  0.1464943E+00
          2   -1    0    0  501    0  0.00000000000E+00  0.00000000000E+00  0.92741278439E+01  0.92741278439E+01  0.00000000000E+00 0. -1.
         -2   -1    0    0    0  501 -0.00000000000E+00 -0.00000000000E+00 -0.32464679793E+03  0.32464679793E+03  0.00000000000E+00 0.  1.
          2    1    1    2  502    0 -0.59736235753E+01 -0.24634499162E+02 -0.30576327721E+03  0.30681219731E+03  0.00000000000E+00 0.  1.
         -2    1    1    2    0  502  0.59736235753E+01  0.24634499162E+02 -0.96093928775E+01  0.27108728466E+02  0.00000000000E+00 0. -1.
</event>
<event>
 4    1  0.3196713E+003  0.4633997E+02  0.7546771E-02  0.1314872E+00
          2   -1    0    0  501    0  0.00000000000E+00  0.00000000000E+00  0.21894291644E+03  0.21894291644E+03  0.00000000000E+00 0.  1.
         -2   -1    0    0    0  501 -0.00000000000E+00 -0.00000000000E+00 -0.28898375389E+03  0.28898375389E+03  0.00000000000E+00 0. -1.
          2    1    1    2  502    0 -0.41102595417E+02 -0.21400227771E+02  0.21459600286E+03  0.21954233656E+03  0.00000000000E+00 0.  1.
         -2    1    1    2    0  502  0.41102595417E+02  0.21400227771E+02 -0.28463684031E+03  0.28838433377E+03  0.00000000000E+00 0. -1.
</event>
<event>
 4    1  0.3196713E+003  0.5853533E+02  0.7546771E-02  0.1264892E+00
          2   -1    0    0  501    0  0.00000000000E+00  0.00000000000E+00  0.14401256257E+04  0.14401256257E+04  0.00000000000E+00 0. -1.
         -2   -1    0    0    0  501 -0.00000000000E+00 -0.00000000000E+00 -0.23930378730E+01  0.23930378730E+01  0.00000000000E+00 0. -1.
          2    1    1    2  502    0  0.47088621373E+02 -0.34771301665E+02  0.66406739006E+03  0.66664224306E+03  0.00000000000E+00 0. -1.
         -2    1    1    2    0  502 -0.47088621373E+02  0.34771301665E+02  0.77366519774E+03  0.77587642049E+03  0.00000000000E+00 0. -1.
</event>
<event>
 4    1  0.3196713E+003  0.2584662E+02  0.7546771E-02  0.1459551E+00
          2   -1    0    0  501    0  0.00000000000E+00  0.00000000000E+00  0.32482480834E+03  0.32482480834E+03  0.00000000000E+00 0.  1.
         -2   -1    0    0    0  501 -0.00000000000E+00 -0.00000000000E+00 -0.45522294882E+02  0.45522294882E+02  0.00000000000E+00 0.  1.
          2    1    1    2  502    0 -0.16284821900E+02  0.20071177729E+02  0.32059351141E+03  0.32163371583E+03  0.00000000000E+00 0.  1.
         -2    1    1    2    0  502  0.16284821900E+02 -0.20071177729E+02 -0.41290997950E+02  0.48713387394E+02  0.00000000000E+00 0.  1.
</event>
<event>
 4    1  0.3196713E+003  0.3082947E+02  0.7546771E-02  0.1412522E+00
          2   -1    0    0  501    0  0.00000000000E+00  0.00000000000E+00  0.60967239092E+02  0.60967239092E+02  0.00000000000E+00 0.  1.
         -2   -1    0    0    0  501 -0.00000000000E+00 -0.00000000000E+00 -0.19639748346E+02  0.19639748346E+02  0.00000000000E+00 0.  1.
          2    1    1    2  502    0 -0.30822940139E+02  0.63429292319E+00  0.38966195708E+02  0.49687225463E+02  0.00000000000E+00 0.  1.
         -2    1    1    2    0  502  0.30822940139E+02 -0.63429292319E+00  0.23612950386E+01  0.30919761975E+02  0.00000000000E+00 0.  1.
</event>
<event>
 4    1  0.3196713E+003  0.2026535E+02  0.7546771E-02  0.1530017E+00
          2   -1    0    0  501    0  0.00000000000E+00  0.00000000000E+00  0.48716608729E+03  0.48716608729E+03  0.00000000000E+00 0.  1.
         -2   -1    0    0    0  501 -0.00000000000E+00 -0.00000000000E+00 -0.22467958885E+02  0.22467958885E+02  0.00000000000E+00 0. -1.
          2    1    1    2  502    0  0.17898474091E+02 -0.95041535445E+01  0.48233996690E+03  0.48276549998E+03  0.00000000000E+00 0.  1.
         -2    1    1    2    0  502 -0.17898474091E+02  0.95041535445E+01 -0.17641838488E+02  0.26868546195E+02  0.00000000000E+00 0. -1.
</event>
<event>
 4    1  0.3196713E+003  0.2264005E+02  0.7546771E-02  0.1497068E+00
          2   -1    0    0  501    0  0.00000000000E+00  0.00000000000E+00  0.19560843819E+04  0.19560843819E+04  0.00000000000E+00 0. -1.
         -2   -1    0    0    0  501 -0.00000000000E+00 -0.00000000000E+00 -0.51930924788E+00  0.51930924788E+00  0.00000000000E+00 0.  1.
          2    1    1    2  502    0 -0.75994781675E+01 -0.21326509251E+02  0.16663617469E+04  0.16665155395E+04  0.00000000000E+00 0. -1.
         -2    1    1    2    0  502  0.75994781675E+01  0.21326509251E+02  0.28920332575E+03  0.29008815158E+03  0.00000000000E+00 0.  1.
</event>
<event>
 4    1  0.3196713E+003  0.2214086E+02  0.7546771E-02  0.1503578E+00
          2   -1    0    0  501    0  0.00000000000E+00  0.00000000000E+00  0.52753821594E+03  0.52753821594E+03  0.00000000000E+00 0. -1.
         -2   -1    0    0    0  501 -0.00000000000E+00 -0.00000000000E+00 -0.19978106933E+01  0.19978106933E+01  0.00000000000E+00 0. -1.
          2    1    1    2  502    0 -0.69640285063E+01 -0.21017136277E+02  0.45640654023E+03  0.45694326527E+03  0.00000000000E+00 0. -1.
         -2    1    1    2    0  502  0.69640285063E+01  0.21017136277E+02  0.69133865019E+02  0.72592761367E+02  0.00000000000E+00 0. -1.
</event>
<event>
 4    1  0.3196713E+003  0.4474303E+02  0.7546771E-02  0.1322729E+00
          2   -1    0    0  501    0  0.00000000000E+00  0.00000000000E+00  0.12082771120E+04  0.12082771120E+04  0.00000000000E+00 0.  1.
         -2   -1    0    0    0  501 -0.00000000000E+00 -0.00000000000E+00 -0.25611339319E+01  0.25611339319E+01  0.00000000000E+00 0. -1.
          2    1    1    2  502    0  0.71599783967E+00  0.44737301683E+02  0.96260022231E+03  0.96363952119E+03  0.00000000000E+00 0.  1.
         -2    1    1    2    0  502 -0.71599783967E+00 -0.44737301683E+02  0.24311575579E+03  0.24719872477E+03  0.00000000000E+00 0. -1.
</event>
<event>
 4    1  0.3196713E+003  0.2306456E+02  0.7546771E-02  0.1491689E+00
          2   -1    0    0  501    0  0.00000000000E+00  0.00000000000E+00  0.96272811992E+01  0.96272811992E+01  0.00000000000E+00 0.  1.
         -2   -1    0    0    0  501 -0.00000000000E+00 -0.00000000000E+00 -0.12020786012E+03  0.12020786012E+03  0.00000000000E+00 0.  1.
          2    1    1    2  502    0  0.16947808839E+02 -0.15644352576E+02 -0.75715989245E+01  0.24275565951E+02  0.00000000000E+00 0.  1.
         -2    1    1    2    0  502 -0.16947808839E+02  0.15644352576E+02 -0.10300898000E+03  0.10555957537E+03  0.00000000000E+00 0.  1.
</event>
<event>
 4    1  0.3196713E+003  0.2114799E+02  0.7546771E-02  0.1517162E+00
          2   -1    0    0  501    0  0.00000000000E+00  0.00000000000E+00  0.14664204832E+03  0.14664204832E+03  0.00000000000E+00 0.  1.
         -2   -1    0    0    0  501 -0.00000000000E+00 -0.00000000000E+00 -0.11234980077E+02  0.11234980077E+02  0.00000000000E+00 0.  1.
          2    1    1    2  502    0  0.86153346483E+01  0.19313554354E+02  0.13508111038E+03  0.13672652908E+03  0.00000000000E+00 0.  1.
         -2    1    1    2    0  502 -0.86153346483E+01 -0.19313554354E+02  0.32595786616E+00  0.21150499319E+02  0.00000000000E+00 0.  1.
</event>
<event>
 4    1  0.3196713E+003  0.2750724E+02  0.7546771E-02  0.1442578E+00
          2   -1    0    0  501    0  0.00000000000E+00  0.00000000000E+00  0.32681241443E+03  0.32681241443E+03  0.00000000000E+00 0.  1.
         -2   -1    0    0    0  501 -0.00000000000E+00 -0.00000000000E+00 -0.80020196373E+02  0.80020196373E+02  0.00000000000E+00 0.  1.
          2    1    1    2  502    0  0.27348198938E+02  0.29536905382E+01  0.32384807675E+03  0.32501419214E+03  0.00000000000E+00 0.  1.
         -2    1    1    2    0  502 -0.27348198938E+02 -0.29536905382E+01 -0.77055858698E+02  0.81818418664E+02  0.00000000000E+00 0.  1.
</event>
<event>
 4    1  0.3196713E+003  0.2118718E+02  0.7546771E-02  0.1516609E+00
          2   -1    0    0  501    0  0.00000000000E+00  0.00000000000E+00  0.72005219674E+03  0.72005219674E+03  0.00000000000E+00 0. -1.
         -2   -1    0    0    0  501 -0.00000000000E+00 -0.00000000000E+00 -0.10455132577E+01  0.10455132577E+01  0.00000000000E+00 0.  1.
          2    1    1    2  502    0 -0.72455143679E+01  0.19909773017E+02  0.58859137997E+03  0.58897258775E+03  0.00000000000E+00 0. -1.
         -2    1    1    2    0  502  0.72455143679E+01 -0.19909773017E+02  0.13041530351E+03  0.13212512225E+03  0.00000000000E+00 0.  1.
</event>
<event>
 4    1  0.3196713E+003  0.3605505E+02  0.7546771E-02  0.1373294E+00
          2   -1    0    0  501    0  0.00000000000E+00  0.00000000000E+00  0.59239922967E+03  0.59239922967E+03  0.00000000000E+00 0. -1.
         -2   -1    0    0    0  501 -0.00000000000E+00 -0.00000000000E+00 -0.47144931739E+01  0.47144931739E+01  0.00000000000E+00 0. -1.
          2    1    1    2  502    0 -0.34485553263E+02  0.10522025698E+02  0.51212392591E+03  0.51339154833E+03  0.00000000000E+00 0. -1.
         -2    1    1    2    0  502  0.34485553263E+02 -0.10522025698E+02  0.75560810583E+02  0.83722174509E+02  0.00000000000E+00 0. -1.
</event>
<event>
 4    1  0.3196713E+003  0.2140344E+02  0.7546771E-02  0.1513582E+00
          2   -1    0    0  501    0  0.00000000000E+00  0.00000000000E+00  0.29391755475E+03  0.29391755475E+03  0.00000000000E+00 0.  1.
         -2   -1    0    0    0  501 -0.00000000000E+00 -0.00000000000E+00 -0.48890614211E+02  0.48890614211E+02  0.00000000000E+00 0. -1.
          2    1    1    2  502    0 -0.15286649284E+00  0.21402894285E+02  0.29116325783E+03  0.29194888245E+03  0.00000000000E+00 0.  1.
         -2    1    1    2    0  502  0.15286649284E+00 -0.21402894285E+02 -0.46136317289E+02  0.50859286516E+02  0.00000000000E+00 0. -1.
</event>
<event>
 4    1  0.3196713E+003  0.2104584E+02  0.7546771E-02  0.1518611E+00
          2   -1    0    0  501    0  0.00000000000E+00  0.00000000000E+00  0.58997990085E+03  0.58997990085E+03  0.00000000000E+00 0.  1.
         -2   -1    0    0    0  501 -0.00000000000E+00 -0.00000000000E+00 -0.10050531763E+03  0.10050531763E+03  0.00000000000E+00 0. -1.
          2    1    1    2  502    0 -0.93417313909E+01  0.18858930134E+02  0.58868804583E+03  0.58906412426E+03  0.00000000000E+00 0.  1.
         -2    1    1    2    0  502  0.93417313909E+01 -0.18858930134E+02 -0.99213462608E+02  0.10142109423E+03  0.00000000000E+00 0. -1.
</event>
<event>
 4    1  0.3196713E+003  0.2283357E+02  0.7546771E-02  0.1494599E+00
          2   -1    0    0  501    0  0.00000000000E+00  0.00000000000E+00  0.16488116316E+03  0.16488116316E+03  0.00000000000E+00 0. -1.
         -2   -1    0    0    0  501 -0.00000000000E+00 -0.00000000000E+00 -0.97311684642E+02  0.97311684642E+02  0.00000000000E+00 0. -1.
          2    1    1    2  502    0 -0.21031347642E+02  0.88912546082E+01  0.16273360786E+03  0.16432771865E+03  0.00000000000E+00 0. -1.
         -2    1    1    2    0  502  0.21031347642E+02 -0.88912546082E+01 -0.95164129334E+02  0.97865129153E+02  0.00000000000E+00 0. -1.
</event>
<event>
 4    1  0.3196713E+003  0.2566140E+02  0.7546771E-02  0.1461539E+00
          2   -1    0    0  501    0  0.00000000000E+00  0.00000000000E+00  0.44445980707E+03  0.44445980707E+03  0.00000000000E+00 0.  1.
         -2   -1    0    0    0  501 -0.00000000000E+00 -0.00000000000E+00 -0.16144252328E+01  0.16144252328E+01  0.00000000000E+00 0. -1.
          2    1    1    2  502    0 -0.24692360957E+02  0.69853420220E+01  0.28539956571E+03  0.28655090263E+03  0.00000000000E+00 0.  1.
         -2    1    1    2    0  502  0.24692360957E+02 -0.69853420220E+01  0.15744581613E+03  0.15952332967E+03  0.00000000000E+00 0. -1.
</event>
<event>
 4    1  0.3196713E+003  0.2232380E+02  0.7546771E-02  0.1501168E+00
          2   -1    0    0  501    0  0.00000000000E+00  0.00000000000E+00  0.20467775230E+03  0.20467775230E+03  0.00000000000E+00 0. -1.
         -2   -1    0    0    0  501 -0.00000000000E+00 -0.00000000000E+00 -0.48957116718E+01  0.48957116718E+01  0.00000000000E+00 0. -1.
          2    1    1    2  502    0 -0.22313382433E+02 -0.68183583611E+00  0.17418357557E+03  0.17560828549E+03  0.00000000000E+00 0. -1.
         -2    1    1    2    0  502  0.22313382433E+02  0.68183583611E+00  0.25598465058E+02  0.33965178477E+02  0.00000000000E+00 0. -1.
</event>
<event>
 4    1  0.3196713E+003  0.2018189E+02  0.7546771E-02  0.1531273E+00
          2   -1    0    0  501    0  0.00000000000E+00  0.00000000000E+00  0.14451857629E+04  0.14451857629E+04  0.00000000000E+00 0. -1.
         -2   -1    0    0    0  501 -0.00000000000E+00 -0.00000000000E+00 -0.26200774646E+01  0.26200774646E+01  0.00000000000E+00 0. -1.
          2    1    1    2  502    0  0.15280390710E+02 -0.13184017486E+02  0.14051436752E+04  0.14052886026E+04  0.00000000000E+00 0. -1.
         -2    1    1    2    0  502 -0.15280390710E+02  0.13184017486E+02  0.37422010302E+02  0.42517237826E+02  0.00000000000E+00 0. -1.
</event>
<event>
 4    1  0.3196713E+003  0.2309678E+02  0.7546771E-02  0.1491286E+00
          2   -1    0    0  501    0  0.00000000000E+00  0.00000000000E+00  0.14270179436E+03  0.14270179436E+03  0.00000000000E+00 0. -1.
         -2   -1    0    0    0  501 -0.00000000000E+00 -0.00000000000E+00 -0.17115198149E+02  0.17115198149E+02  0.00000000000E+00 0. -1.
          2    1    1    2  502    0  0.82393088025E+01 -0.21577185529E+02  0.13343803519E+03  0.13542219309E+03  0.00000000000E+00 0. -1.
         -2    1    1    2    0  502 -0.82393088025E+01  0.21577185529E+02 -0.78514389772E+01  0.24394799424E+02  0.00000000000E+00 0. -1.
</event>
<event>
 4    1  0.3196713E+003  0.9660258E+02  0.7546771E-02  0.1169829E+00
          2   -1    0    0  501    0  0.00000000000E+00  0.00000000000E+00  0.23486743693E+04  0.23486743693E+04  0.00000000000E+00 0.  1.
         -2   -1    0    0    0  501 -0.00000000000E+00 -0.00000000000E+00 -0.16929032266E+02  0.16929032266E+02  0.00000000000E+00 0. -1.
          2    1    1    2  502    0 -0.41917797999E+02  0.87034228999E+02  0.22006010228E+04  0.22027203455E+04  0.00000000000E+00 0.  1.
         -2    1    1    2    0  502  0.41917797999E+02 -0.87034228999E+02  0.13114431423E+03  0.16288305609E+03  0.00000000000E+00 0. -1.
</event>
<event>
 4    1  0.3196713E+003  0.2092534E+02  0.7546771E-02  0.1520333E+00
          2   -1    0    0  501    0  0.00000000000E+00  0.00000000000E+00  0.19383316233E+04  0.19383316233E+04  0.00000000000E+00 0.  1.
         -2   -1    0    0    0  501 -0.00000000000E+00 -0.00000000000E+00 -0.23316204891E+00  0.23316204891E+00  0.00000000000E+00 0.  1.
          2    1    1    2  502    0  0.18398371642E+02  0.99684233706E+01  0.79799085419E+03  0.79826516454E+03  0.00000000000E+00 0.  1.
         -2    1    1    2    0  502 -0.18398371642E+02 -0.99684233706E+01  0.11401076070E+04  0.11402996208E+04  0.00000000000E+00 0.  1.
</event>
<event>
 4    1  0.3196713E+003  0.2439308E+02  0.7546771E-02  0.1475709E+00
          2   -1    0    0  501    0  0.00000000000E+00  0.00000000000E+00  0.66251518641E+03  0.66251518641E+03  0.00000000000E+00 0.  1.
         -2   -1    0    0    0  501 -0.00000000000E+00 -0.00000000000E+00 -0.91986136990E+00  0.91986136990E+00  0.00000000000E+00 0.  1.
          2    1    1    2  502    0  0.18696603751E+02 -0.15667136892E+02  0.38178823633E+03  0.38256669951E+03  0.00000000000E+00 0.  1.
         -2    1    1    2    0  502 -0.18696603751E+02  0.15667136892E+02  0.27980708871E+03  0.28086834828E+03  0.00000000000E+00 0.  1.
</event>
<event>
 4    1  0.3196713E+003  0.3366400E+02  0.7546771E-02  0.1390207E+00
          2   -1    0    0  501    0  0.00000000000E+00  0.00000000000E+00  0.21374297692E+03  0.21374297692E+03  0.00000000000E+00 0. -1.
         -2   -1    0    0    0  501 -0.00000000000E+00 -0.00000000000E+00 -0.72553786679E+02  0.72553786679E+02  0.00000000000E+00 0. -1.
          2    1    1    2  502    0 -0.30150566347E+02  0.14973592762E+02  0.20841334825E+03  0.21111463441E+03  0.00000000000E+00 0. -1.
         -2    1    1    2    0  502  0.30150566347E+02 -0.14973592762E+02 -0.67224158005E+02  0.75182129198E+02  0.00000000000E+00 0. -1.
</event>
<event>
 4    1  0.3196713E+003  0.2293142E+02  0.7546771E-02  0.1493361E+00
          2   -1    0    0  501    0  0.00000000000E+00  0.00000000000E+00  0.17648637756E+02  0.17648637756E+02  0.00000000000E+00 0.  1.
         -2   -1    0    0    0  501 -0.00000000000E+00 -0.00000000000E+00 -0.65132126773E+02  0.65132126773E+02  0.00000000000E+00 0. -1.
          2    1    1    2  502    0 -0.16620472749E+02 -0.15799047266E+02  0.67452311825E+01  0.23902890047E+02  0.00000000000E+00 0.  1.
         -2    1    1    2    0  502  0.16620472749E+02  0.15799047266E+02 -0.54228720200E+02  0.58877874482E+02  0.00000000000E+00 0. -1.
</event>
<event>
 4    1  0.3196713E+003  0.2499945E+02  0.7546771E-02  0.1468810E+00
          2   -1    0    0  501    0  0.00000000000E+00  0.00000000000E+00  0.17055915695E+03  0.17055915695E+03  0.00000000000E+00 0.  1.
         -2   -1    0    0    0  501 -0.00000000000E+00 -0.00000000000E+00 -0.11384108494E+02  0.11384108494E+02  0.00000000000E+00 0. -1.
          2    1    1    2  502    0 -0.20756046872E+02  0.13934098256E+02  0.15450117304E+03  0.15651065474E+03  0.00000000000E+00 0.  1.
         -2    1    1    2    0  502  0.20756046872E+02 -0.13934098256E+02  0.46738754180E+01  0.25432610708E+02  0.00000000000E+00 0. -1.
</event>
<event>
 4    1  0.3196713E+003  0.2185972E+02  0.7546771E-02  0.1507335E+00
          2   -1    0    0  501    0  0.00000000000E+00  0.00000000000E+00  0.58374649085E+03  0.58374649085E+03  0.00000000000E+00 0.  1.
         -2   -1    0    0    0  501 -0.00000000000E+00 -0.00000000000E+00 -0.11555423112E+01  0.11555423112E+01  0.00000000000E+00 0.  1.
          2    1    1    2  502    0  0.16470538012E+02  0.14372501365E+02  0.44921877762E+03  0.44975032806E+03  0.00000000000E+00 0.  1.
         -2    1    1    2    0  502 -0.16470538012E+02 -0.14372501365E+02  0.13337217091E+03  0.13515170510E+03  0.00000000000E+00 0.  1.
</event>
<event>
 4    1  0.3196713E+003  0.3253749E+02  0.7546771E-02  0.1398754E+00
          2   -1    0    0  501    0  0.00000000000E+00  0.00000000000E+00  0.42996686279E+03  0.42996686279E+03  0.00000000000E+00 0.  1.
         -2   -1    0    0    0  501 -0.00000000000E+00 -0.00000000000E+00 -0.16233027333E+03  0.16233027333E+03  0.00000000000E+00 0.  1.
          2    1    1    2  502    0  0.18735565130E+02 -0.26602004330E+02  0.42771226306E+03  0.42894809477E+03  0.00000000000E+00 0.  1.
         -2    1    1    2    0  502 -0.18735565130E+02  0.26602004330E+02 -0.16007567359E+03  0.16334904135E+03  0.00000000000E+00 0.  1.
</event>
<event>
 4    1  0.3196713E+003  0.2796876E+02  0.7546771E-02  0.1438112E+00
          2   -1    0    0  501    0  0.00000000000E+00  0.00000000000E+00  0.11482261997E+04  0.11482261997E+04  0.00000000000E+00 0.  1.
         -2   -1    0    0    0  501 -0.00000000000E+00 -0.00000000000E+00 -0.91616769884E+01  0.91616769884E+01  0.00000000000E+00 0.  1.
          2    1    1    2  502    0 -0.13779095456E+02  0.24339022541E+02  0.11262945427E+04  0.11266417569E+04  0.00000000000E+00 0.  1.
         -2    1    1    2    0  502  0.13779095456E+02 -0.24339022541E+02  0.12769979947E+02  0.30746119717E+02  0.00000000000E+00 0.  1.
</event>
<event>
 4    1  0.3196713E+003  0.2156544E+02  0.7546771E-02  0.1511343E+00
          2   -1    0    0  501    0  0.00000000000E+00  0.00000000000E+00  0.14888657538E+02  0.14888657538E+02  0.00000000000E+00 0.  1.
         -2   -1    0    0    0  501 -0.00000000000E+00 -0.00000000000E+00 -0.31368053414E+02  0.31368053414E+02  0.00000000000E+00 0. -1.
          2    1    1    2  502    0  0.11329419377E+02  0.18349713454E+02 -0.97381889536E+01  0.23662207238E+02  0.00000000000E+00 0.  1.
         -2    1    1    2    0  502 -0.11329419377E+02 -0.18349713454E+02 -0.67412069225E+01  0.22594503713E+02  0.00000000000E+00 0. -1.
</event>
<event>
 4    1  0.3196713E+003  0.2536058E+02  0.7546771E-02  0.1464810E+00
          2   -1    0    0  501    0  0.00000000000E+00  0.00000000000E+00  0.14283279963E+04  0.14283279963E+04  0.00000000000E+00 0. -1.
         -2   -1    0    0    0  501 -0.00000000000E+00 -0.00000000000E+00 -0.22940430877E+01  0.22940430877E+01  0.00000000000E+00 0.  1.
          2    1    1    2  502    0 -0.71346021936E+00  0.25350541382E+02  0.13542940960E+04  0.13545315269E+04  0.00000000000E+00 0. -1.
         -2    1    1    2    0  502  0.71346021936E+00 -0.25350541382E+02  0.71739857197E+02  0.76090512448E+02  0.00000000000E+00 0.  1.
</event>
<event>
 4    1  0.3196713E+003  0.3514259E+02  0.7546771E-02  0.1379563E+00
          2   -1    0    0  501    0  0.00000000000E+00  0.00000000000E+00  0.27744307721E+02  0.27744307721E+02  0.00000000000E+00 0.  1.
         -2   -1    0    0    0  501 -0.00000000000E+00 -0.00000000000E+00 -0.79729625116E+03  0.79729625116E+03  0.00000000000E+00 0. -1.
          2    1    1    2  502    0  0.16779058621E+02 -0.30878229863E+02  0.16063252756E+02  0.38639746075E+02  0.00000000000E+00 0.  1.
         -2    1    1    2    0  502 -0.16779058621E+02  0.30878229863E+02 -0.78561519620E+03  0.78640081281E+03  0.00000000000E+00 0. -1.
</event>
<event>
 4    1  0.3196713E+003  0.2231256E+02  0.7546771E-02  0.1501316E+00
          2   -1    0    0  501    0  0.00000000000E+00  0.00000000000E+00  0.38500825221E+03  0.38500825221E+03  0.00000000000E+00 0. -1.
         -2   -1    0    0    0  501 -0.00000000000E+00 -0.00000000000E+00 -0.15039834075E+02  0.15039834075E+02  0.00000000000E+00 0. -1.
          2    1    1    2  502    0  0.19844857095E+02 -0.10199603615E+02  0.37621622574E+03  0.37687729936E+03  0.00000000000E+00 0. -1.
         -2    1    1    2    0  502 -0.19844857095E+02  0.10199603615E+02 -0.62478075978E+01  0.23170786927E+02  0.00000000000E+00 0. -1.
</event>
<event>
 4    1  0.3196713E+003  0.2483842E+02  0.7546771E-02  0.1470619E+00
          2   -1    0    0  501    0  0.00000000000E+00  0.00000000000E+00  0.79112684739E+02  0.79112684739E+02  0.00000000000E+00 0. -1.
         -2   -1    0    0    0  501 -0.00000000000E+00 -0.00000000000E+00 -0.14189669931E+03  0.14189669931E+03  0.00000000000E+00 0. -1.
          2    1    1    2  502    0 -0.21985416783E+02  0.11558040883E+02  0.76033229454E+02  0.79987491781E+02  0.00000000000E+00 0. -1.
         -2    1    1    2    0  502  0.21985416783E+02 -0.11558040883E+02 -0.13881724403E+03  0.14102189227E+03  0.00000000000E+00 0. -1.
</event>
<event>
 4    1  0.3196713E+003  0.2346898E+02  0.7546771E-02  0.1486692E+00
          2   -1    0    0  501    0  0.00000000000E+00  0.00000000000E+00  0.43113644456E+03  0.43113644456E+03  0.00000000000E+00 0. -1.
         -2   -1    0    0    0  501 -0.00000000000E+00 -0.00000000000E+00 -0.75751364583E+02  0.75751364583E+02  0.00000000000E+00 0. -1.
          2    1    1    2  502    0 -0.61220373316E+01  0.22656430538E+02  0.42899020602E+03  0.42963169116E+03  0.00000000000E+00 0. -1.
         -2    1    1    2    0  502  0.61220373316E+01 -0.22656430538E+02 -0.73605126045E+02  0.77256117984E+02  0.00000000000E+00 0. -1.
</event>
<event>
 4    1  0.3196713E+003  0.5582257E+02  0.7546771E-02  0.1274727E+00
          2   -1    0    0  501    0  0.00000000000E+00  0.00000000000E+00  0.20691561799E+04  0.20691561799E+04  0.00000000000E+00 0. -1.
         -2   -1    0    0    0  501 -0.00000000000E+00 -0.00000000000E+00 -0.23366317695E+03  0.23366317695E+03  0.00000000000E+00 0. -1.
          2    1    1    2  502    0  0.55280733623E+02 -0.77588179266E+01  0.20654396521E+04  0.20661938717E+04  0.00000000000E+00 0. -1.
         -2    1    1    2    0  502 -0.55280733623E+02  0.77588179266E+01 -0.22994664918E+03  0.23662548517E+03  0.00000000000E+00 0. -1.
</event>
<event>
 4    1  0.3196713E+003  0.2732834E+02  0.7546771E-02  0.1444337E+00
          2   -1    0    0  501    0  0.00000000000E+00  0.00000000000E+00  0.62579451999E+03  0.62579451999E+03  0.00000000000E+00 0. -1.
         -2   -1    0    0    0  501 -0.00000000000E+00 -0.00000000000E+00 -0.30350764663E+02  0.30350764663E+02  0.00000000000E+00 0.  1.
          2    1    1    2  502    0  0.17336115322E+02 -0.21125751332E+02  0.61927975459E+03  0.61988245072E+03  0.00000000000E+00 0. -1.
         -2    1    1    2    0  502 -0.17336115322E+02  0.21125751332E+02 -0.23835999265E+02  0.36262833932E+02  0.00000000000E+00 0.  1.
</event>
<event>
 4    1  0.3196713E+003  0.2597821E+02  0.7546771E-02  0.1458151E+00
          2   -1    0    0  501    0  0.00000000000E+00  0.00000000000E+00  0.11853885731E+04  0.11853885731E+04  0.00000000000E+00 0.  1.
         -2   -1    0    0    0  501 -0.00000000000E+00 -0.00000000000E+00 -0.22718055735E+01  0.22718055735E+01  0.00000000000E+00 0. -1.
          2    1    1    2  502    0  0.21678291067E+02  0.14314987388E+02  0.11056236071E+04  0.11059287625E+04  0.00000000000E+00 0.  1.
         -2    1    1    2    0  502 -0.21678291067E+02 -0.14314987388E+02  0.77493160371E+02  0.81731616109E+02  0.00000000000E+00 0. -1.
</event>
<event>
 4    1  0.3196713E+003  0.2184897E+02  0.7546771E-02  0.1507480E+00
          2   -1    0    0  501    0  0.00000000000E+00  0.00000000000E+00  0.52814261564E+03  0.52814261564E+03  0.00000000000E+00 0. -1.
         -2   -1    0    0    0  501 -0.00000000000E+00 -0.00000000000E+00 -0.25661309270E+01  0.25661309270E+01  0.00000000000E+00 0. -1.
          2    1    1    2  502    0  0.10909031395E+02  0.18930680198E+02  0.47635572003E+03  0.47685652939E+03  0.00000000000E+00 0. -1.
         -2    1    1    2    0  502 -0.10909031395E+02 -0.18930680198E+02  0.49220764689E+02  0.53852217181E+02  0.00000000000E+00 0. -1.
</event>
<event>
 4    1  0.3196713E+003  0.2606485E+02  0.7546771E-02  0.1457235E+00
          2   -1    0    0  501    0  0.00000000000E+00  0.00000000000E+00  0.29075394101E+03  0.29075394101E+03  0.00000000000E+00 0.  1.
         -2   -1    0    0    0  501 -0.00000000000E+00 -0.00000000000E+00 -0.23876487385E+01  0.23876487385E+01  0.00000000000E+00 0.  1.
          2    1    1    2  502    0  0.25884457291E+02 -0.30611797299E+01  0.12275175018E+03  0.12548851790E+03  0.00000000000E+00 0.  1.
         -2    1    1    2    0  502 -0.25884457291E+02  0.30611797299E+01  0.16561454209E+03  0.16765307185E+03  0.00000000000E+00 0.  1.
</event>
<event>
 4    1  0.3196713E+003  0.3717010E+02  0.7546771E-02  0.1365917E+00
          2   -1    0    0  501    0  0.00000000000E+00  0.00000000000E+00  0.84721705901E+03  0.84721705901E+03  0.00000000000E+00 0. -1.
         -2   -1    0    0    0  501 -0.00000000000E+00 -0.00000000000E+00 -0.19655409562E+03  0.19655409562E+03  0.00000000000E+00 0.  1.
          2    1    1    2  502    0 -0.22723722728E+02 -0.29415109588E+02  0.84504755942E+03  0.84586464280E+03  0.00000000000E+00 0. -1.
         -2    1    1    2    0  502  0.22723722728E+02  0.29415109588E+02 -0.19438459604E+03  0.19790651182E+03  0.00000000000E+00 0.  1.
</event>
<event>
 4    1  0.3196713E+003  0.3202766E+02  0.7546771E-02  0.1402757E+00
          2   -1    0    0  501    0  0.00000000000E+00  0.00000000000E+00  0.58919308540E+03  0.58919308540E+03  0.00000000000E+00 0.  1.
         -2   -1    0    0    0  501 -0.00000000000E+00 -0.00000000000E+00 -0.58486211149E+02  0.58486211149E+02  0.00000000000E+00 0.  1.
          2    1    1    2  502    0  0.37964223198E+01  0.31801861953E+02  0.58433675703E+03  0.58521382149E+03  0.00000000000E+00 0.  1.
         -2    1    1    2    0  502 -0.37964223198E+01 -0.31801861953E+02 -0.53629882785E+02  0.62465475053E+02  0.00000000000E+00 0.  1.
</event>
<event>
 4    1  0.3196713E+003  0.2255018E+02  0.7546771E-02  0.1498225E+00
          2   -1    0    0  501    0  0.00000000000E+00  0.00000000000E+00  0.18489032899E+03  0.18489032899E+03  0.00000000000E+00 0.  1.
         -2   -1    0    0    0  501 -0.00000000000E+00 -0.00000000000E+00 -0.12788415764E+02  0.12788415764E+02  0.00000000000E+00 0.  1.
          2    1    1    2  502    0 -0.15781220296E+01 -0.22494889284E+02  0.17361925856E+03  0.17507757554E+03  0.00000000000E+00 0.  1.
         -2    1    1    2    0  502  0.15781220296E+01  0.22494889284E+02 -0.15173453356E+01  0.22601169216E+02  0.00000000000E+00 0.  1.
</event>
<event>
 4    1  0.3196713E+003  0.2155862E+02  0.7546771E-02  0.1511437E+00
          2   -1    0    0  501    0  0.00000000000E+00  0.00000000000E+00  0.22080871898E+01  0.22080871898E+01  0.00000000000E+00 0. -1.
         -2   -1    0    0    0  501 -0.00000000000E+00 -0.00000000000E+00 -0.59458575911E+03  0.59458575911E+03  0.00000000000E+00 0. -1.
          2    1    1    2  502    0 -0.14068598795E+02  0.16335496650E+02 -0.56356095011E+02  0.60338904264E+02  0.00000000000E+00 0. -1.
         -2    1    1    2    0  502  0.14068598795E+02 -0.16335496650E+02 -0.53602157691E+03  0.53645494203E+03  0.00000000000E+00 0. -1.
</event>
<event>
 4    1  0.3196713E+003  0.2364995E+02  0.7546771E-02  0.1484494E+00
          2   -1    0    0  501    0  0.00000000000E+00  0.00000000000E+00  0.17830511276E+04  0.17830511276E+04  0.00000000000E+00 0. -1.
         -2   -1    0    0    0  501 -0.00000000000E+00 -0.00000000000E+00 -0.13584342450E+01  0.13584342450E+01  0.00000000000E+00 0.  1.
          2    1    1    2  502    0  0.18306296483E+02  0.14973293587E+02  0.16732859903E+04  0.16734531142E+04  0.00000000000E+00 0. -1.
         -2    1    1    2    0  502 -0.18306296483E+02 -0.14973293587E+02  0.10840670300E+03  0.11095644761E+03  0.00000000000E+00 0.  1.
</event>
<event>
 4    1  0.3196713E+003  0.2844895E+02  0.7546771E-02  0.1433572E+00
          2   -1    0    0  501    0  0.00000000000E+00  0.00000000000E+00  0.17679183979E+04  0.17679183979E+04  0.00000000000E+00 0.  1.
         -2   -1    0    0    0  501 -0.00000000000E+00 -0.00000000000E+00 -0.16757992037E+01  0.16757992037E+01  0.00000000000E+00 0.  1.
          2    1    1    2  502    0 -0.22977175360E+02 -0.16774749693E+02  0.16374440972E+04  0.16376912145E+04  0.00000000000E+00 0.  1.
         -2    1    1    2    0  502  0.22977175360E+02  0.16774749693E+02  0.12879850156E+03  0.13190298260E+03  0.00000000000E+00 0.  1.
</event>
<event>
 4    1  0.3196713E+003  0.2616653E+02  0.7546771E-02  0.1456165E+00
          2   -1    0    0  501    0  0.00000000000E+00  0.00000000000E+00  0.46052962139E+02  0.46052962139E+02  0.00000000000E+00 0. -1.
         -2   -1    0    0    0  501 -0.00000000000E+00 -0.00000000000E+00 -0.18275704425E+03  0.18275704425E+03  0.00000000000E+00 0.  1.
          2    1    1    2  502    0  0.26031761444E+02  0.26522711959E+01  0.41300809926E+02  0.48892167542E+02  0.00000000000E+00 0. -1.
         -2    1    1    2    0  502 -0.26031761444E+02 -0.26522711959E+01 -0.17800489204E+03  0.17991783885E+03  0.00000000000E+00 0.  1.
</event>
<event>
 4    1  0.3196713E+003  0.2858121E+02  0.7546771E-02  0.1432340E+00
          2   -1    0    0  501    0  0.00000000000E+00  0.00000000000E+00  0.60534118010E+03  0.60534118010E+03  0.00000000000E+00 0. -1.
         -2   -1    0    0    0  501 -0.00000000000E+00 -0.00000000000E+00 -0.41396705598E+01  0.41396705598E+01  0.00000000000E+00 0.  1.
          2    1    1    2  502    0  0.16418280573E+02  0.23394986423E+02  0.55078816982E+03  0.55152923162E+03  0.00000000000E+00 0. -1.
         -2    1    1    2    0  502 -0.16418280573E+02 -0.23394986423E+02  0.50413339725E+02  0.57951619036E+02  0.00000000000E+00 0.  1.
</event>
<event>
 4    1  0.3196713E+003  0.3009786E+02  0.7546771E-02  0.1418748E+00
          2   -1    0    0  501    0  0.00000000000E+00  0.00000000000E+00  0.23544895239E+03  0.23544895239E+03  0.00000000000E+00 0. -1.
         -2   -1    0    0    0  501 -0.00000000000E+00 -0.00000000000E+00 -0.39248895772E+02  0.39248895772E+02  0.00000000000E+00 0. -1.
          2    1    1    2  502    0  0.23471550881E+02  0.18840586132E+02  0.22854338120E+03  0.23051672061E+03  0.00000000000E+00 0. -1.
         -2    1    1    2    0  502 -0.23471550881E+02 -0.18840586132E+02 -0.32343324588E+02  0.44181127554E+02  0.00000000000E+00 0. -1.
</event>
<event>
 4    1  0.3196713E+003  0.2594102E+02  0.7546771E-02  0.1458546E+00
          2   -1    0    0  501    0  0.00000000000E+00  0.00000000000E+00  0.11428087133E+03  0.11428087133E+03  0.00000000000E+00 0.  1.
         -2   -1    0    0    0  501 -0.00000000000E+00 -0.00000000000E+00 -0.94593320364E+01  0.94593320364E+01  0.00000000000E+00 0. -1.
          2    1    1    2  502    0  0.25782715308E+02  0.28614943849E+01  0.90424342113E+02  0.94071771565E+02  0.00000000000E+00 0.  1.
         -2    1    1    2    0  502 -0.25782715308E+02 -0.28614943849E+01  0.14397197177E+02  0.29668431798E+02  0.00000000000E+00 0. -1.
</event>
<event>
 4    1  0.3196713E+003  0.2102898E+02  0.7546771E-02  0.1518851E+00
          2   -1    0    0  501    0  0.00000000000E+00  0.00000000000E+00  0.10991783330E+03  0.10991783330E+03  0.00000000000E+00 0.  1.
         -2   -1    0    0    0  501 -0.00000000000E+00 -0.00000000000E+00 -0.11883800769E+03  0.11883800769E+03  0.00000000000E+00 0. -1.
          2    1    1    2  502    0 -0.88522777726E+01 -0.19074985912E+02  0.10796507612E+03  0.10999397970E+03  0.00000000000E+00 0.  1.
         -2    1    1    2    0  502  0.88522777726E+01  0.19074985912E+02 -0.11688525051E+03  0.11876186128E+03  0.00000000000E+00 0. -1.
</event>
<event>
 4    1  0.3196713E+003  0.3187254E+02  0.7546771E-02  0.1403993E+00
          2   -1    0    0  501    0  0.00000000000E+00  0.00000000000E+00  0.35661151412E+03  0.35661151412E+03  0.00000000000E+00 0.  1.
         -2   -1    0    0    0  501 -0.00000000000E+00 -0.00000000000E+00 -0.31713145277E+01  0.31713145277E+01  0.00000000000E+00 0.  1.
          2    1    1    2  502    0  0.16435866723E+02  0.27307889580E+02  0.23410158062E+03  0.23626131422E+03  0.00000000000E+00 0.  1.
         -2    1    1    2    0  502 -0.16435866723E+02 -0.27307889580E+02  0.11933861898E+03  0.12352151443E+03  0.00000000000E+00 0.  1.
</event>
<event>
 4    1  0.3196713E+003  0.4333722E+02  0.7546771E-02  0.1329966E+00
          2   -1    0    0  501    0  0.00000000000E+00  0.00000000000E+00  0.39722524153E+03  0.39722524153E+03  0.00000000000E+00 0.  1.
         -2   -1    0    0    0  501 -0.00000000000E+00 -0.00000000000E+00 -0.13546376864E+03  0.13546376864E+03  0.00000000000E+00 0. -1.
          2    1    1    2  502    0  0.11650650549E+02  0.41741785679E+02  0.39253585639E+03  0.39492089446E+03  0.00000000000E+00 0.  1.
         -2    1    1    2    0  502 -0.11650650549E+02 -0.41741785679E+02 -0.13077438350E+03  0.13776811572E+03  0.00000000000E+00 0. -1.
</event>
<event>
 4    1  0.3196713E+003  0.2198255E+02  0.7546771E-02  0.1505685E+00
          2   -1    0    0  501    0  0.00000000000E+00  0.00000000000E+00  0.19089751965E+04  0.19089751965E+04  0.00000000000E+00 0.  1.
         -2   -1    0    0    0  501 -0.00000000000E+00 -0.00000000000E+00 -0.27124385121E+00  0.27124385121E+00  0.00000000000E+00 0.  1.
          2    1    1    2  502    0  0.41044427922E+01 -0.21595977120E+02  0.12009961411E+04  0.12011973042E+04  0.00000000000E+00 0.  1.
         -2    1    1    2    0  502 -0.41044427922E+01  0.21595977120E+02  0.70770781150E+03  0.70804913611E+03  0.00000000000E+00 0.  1.
</event>
<event>
 4    1  0.3196713E+003  0.2292873E+02  0.7546771E-02  0.1493395E+00
          2   -1    0    0  501    0  0.00000000000E+00  0.00000000000E+00  0.93337480080E+01  0.93337480080E+01  0.00000000000E+00 0. -1.
         -2   -1    0    0    0  501 -0.00000000000E+00 -0.00000000000E+00 -0.18650604008E+03  0.18650604008E+03  0.00000000000E+00 0. -1.
          2    1    1    2  502    0 -0.16096633676E+02  0.16328655588E+02 -0.67777700221E+01  0.23909512239E+02  0.00000000000E+00 0. -1.
         -2    1    1    2    0  502  0.16096633676E+02 -0.16328655588E+02 -0.17039452205E+03  0.17193027585E+03  0.00000000000E+00 0. -1.
</event>
<event>
 4    1  0.3196713E+003  0.2016998E+02  0.7546771E-02  0.1531453E+00
          2   -1    0    0  501    0  0.00000000000E+00  0.00000000000E+00  0.28038176201E+02  0.28038176201E+02  0.00000000000E+00 0.  1.
         -2   -1    0    0    0  501 -0.00000000000E+00 -0.00000000000E+00 -0.66144422848E+03  0.66144422848E+03  0.00000000000E+00 0.  1.
          2    1    1    2  502    0  0.17302196552E+02 -0.10366382634E+02  0.24235997808E+02  0.31531119298E+02  0.00000000000E+00 0.  1.
         -2    1    1    2    0  502 -0.17302196552E+02  0.10366382634E+02 -0.65764205008E+03  0.65795128538E+03  0.00000000000E+00 0.  1.
</event>
<event>
 4    1  0.3196713E+003  0.2310643E+02  0.7546771E-02  0.1491166E+00
          2   -1    0    0  501    0  0.00000000000E+00  0.00000000000E+00  0.23973392292E+04  0.23973392292E+04  0.00000000000E+00 0.  1.
         -2   -1    0    0    0  501 -0.00000000000E+00 -0.00000000000E+00 -0.26010662252E+00  0.26010662252E+00  0.00000000000E+00 0.  1.
          2    1    1    2  502    0 -0.14164406367E+02 -0.18255871234E+02  0.16531058424E+04  0.16532673207E+04  0.00000000000E+00 0.  1.
         -2    1    1    2    0  502  0.14164406367E+02  0.18255871234E+02  0.74397328010E+03  0.74433201513E+03  0.00000000000E+00 0.  1.
</event>
<event>
 4    1  0.3196713E+003  0.3685805E+02  0.7546771E-02  0.1367951E+00
          2   -1    0    0  501    0  0.00000000000E+00  0.00000000000E+00  0.49382514482E+01  0.49382514482E+01  0.00000000000E+00 0.  1.
         -2   -1    0    0    0  501 -0.00000000000E+00 -0.00000000000E+00 -0.48359923019E+03  0.48359923019E+03  0.00000000000E+00 0. -1.
          2    1    1    2  502    0  0.18294100276E+02 -0.31997531591E+02 -0.78940722980E+02  0.87121489183E+02  0.00000000000E+00 0.  1.
         -2    1    1    2    0  502 -0.18294100276E+02  0.31997531591E+02 -0.39972025576E+03  0.40141599246E+03  0.00000000000E+00 0. -1.
</event>
<event>
 4    1  0.3196713E+003  0.2282741E+02  0.7546771E-02  0.1494677E+00
          2   -1    0    0  501    0  0.00000000000E+00  0.00000000000E+00  0.80800256769E+03  0.80800256769E+03  0.00000000000E+00 0.  1.
         -2   -1    0    0    0  501 -0.00000000000E+00 -0.00000000000E+00 -0.36694767597E+02  0.36694767597E+02  0.00000000000E+00 0.  1.
          2    1    1    2  502    0 -0.98763565289E+01  0.20580288137E+02  0.80427471759E+03  0.80459860305E+03  0.00000000000E+00 0.  1.
         -2    1    1    2    0  502  0.98763565289E+01 -0.20580288137E+02 -0.32966917494E+02  0.40098732239E+02  0.00000000000E+00 0.  1.
</event>
<event>
 4    1  0.3196713E+003  0.2693766E+02  0.7546771E-02  0.1448235E+00
          2   -1    0    0  501    0  0.00000000000E+00  0.00000000000E+00  0.22648794747E+02  0.22648794747E+02  0.00000000000E+00 0. -1.
         -2   -1    0    0    0  501 -0.00000000000E+00 -0.00000000000E+00 -0.34021460336E+02  0.34021460336E+02  0.00000000000E+00 0. -1.
          2    1    1    2  502    0  0.61454737841E+01  0.26227276192E+02 -0.12526851096E+02  0.29707892266E+02  0.00000000000E+00 0. -1.
         -2    1    1    2    0  502 -0.61454737841E+01 -0.26227276192E+02  0.11541855069E+01  0.26962362817E+02  0.00000000000E+00 0. -1.
</event>
<event>
 4    1  0.3196713E+003  0.2990153E+02  0.7546771E-02  0.1420454E+00
          2   -1    0    0  501    0  0.00000000000E+00  0.00000000000E+00  0.28998847244E+02  0.28998847244E+02  0.00000000000E+00 0.  1.
         -2   -1    0    0    0  501 -0.00000000000E+00 -0.00000000000E+00 -0.36510759413E+02  0.36510759413E+02  0.00000000000E+00 0.  1.
          2    1    1    2  502    0  0.12165244915E+02  0.27314962971E+02 -0.16673526688E+02  0.34236046474E+02  0.00000000000E+00 0.  1.
         -2    1    1    2    0  502 -0.12165244915E+02 -0.27314962971E+02  0.91616145184E+01  0.31273560183E+02  0.00000000000E+00 0.  1.
</event>
<event>
 4    1  0.3196713E+003  0.2380375E+02  0.7546771E-02  0.1482645E+00
          2   -1    0    0  501    0  0.00000000000E+00  0.00000000000E+00  0.57813168347E+03  0.57813168347E+03  0.00000000000E+00 0.  1.
         -2   -1    0    0    0  501 -0.00000000000E+00 -0.00000000000E+00 -0.20962596180E+02  0.20962596180E+02  0.00000000000E+00 0.  1.
          2    1    1    2  502    0 -0.44626791358E+01 -0.23381677386E+02  0.57104534962E+03  0.57154125806E+03  0.00000000000E+00 0.  1.
         -2    1    1    2    0  502  0.44626791358E+01  0.23381677386E+02 -0.13876262331E+02  0.27553021590E+02  0.00000000000E+00 0.  1.
</event>
<event>
 4    1  0.3196713E+003  0.2400247E+02  0.7546771E-02  0.1480280E+00
          2   -1    0    0  501    0  0.00000000000E+00  0.00000000000E+00  0.33201204367E+03  0.33201204367E+03  0.00000000000E+00 0. -1.
         -2   -1    0    0    0  501 -0.00000000000E+00 -0.00000000000E+00 -0.18528694388E+01  0.18528694388E+01  0.00000000000E+00 0. -1.
          2    1    1    2  502    0  0.87586951449E+01  0.22347340783E+02  0.20714146017E+03  0.20852746318E+03  0.00000000000E+00 0. -1.
         -2    1    1    2    0  502 -0.87586951449E+01 -0.22347340783E+02  0.12301771407E+03  0.12533744993E+03  0.00000000000E+00 0. -1.
</event>
<event>
 4    1  0.3196713E+003  0.2019555E+02  0.7546771E-02  0.1531067E+00
          2   -1    0    0  501    0  0.00000000000E+00  0.00000000000E+00  0.15008522467E+04  0.15008522467E+04  0.00000000000E+00 0.  1.
         -2   -1    0    0    0  501 -0.00000000000E+00 -0.00000000000E+00 -0.17923537790E+02  0.17923537790E+02  0.00000000000E+00 0. -1.
          2    1    1    2  502    0  0.19166990144E+01 -0.20104389851E+02  0.14950734294E+04  0.14952098246E+04  0.00000000000E+00 0.  1.
         -2    1    1    2    0  502 -0.19166990144E+01  0.20104389851E+02 -0.12144720549E+02  0.23565959849E+02  0.00000000000E+00 0. -1.
</event>
<event>
 4    1  0.3196713E+003  0.2457508E+02  0.7546771E-02  0.1473613E+00
          2   -1    0    0  501    0  0.00000000000E+00  0.00000000000E+00  0.85718643883E+03  0.85718643883E+03  0.00000000000E+00 0.  1.
         -2   -1    0    0    0  501 -0.00000000000E+00 -0.00000000000E+00 -0.88774444320E+00  0.88774444320E+00  0.00000000000E+00 0. -1.
          2    1    1    2  502    0 -0.21592740404E+02  0.11734054675E+02  0.62304483791E+03  0.62352931328E+03  0.00000000000E+00 0.  1.
         -2    1    1    2    0  502  0.21592740404E+02 -0.11734054675E+02  0.23325385648E+03  0.23454486999E+03  0.00000000000E+00 0. -1.
</event>
<event>
 4    1  0.3196713E+003  0.2139040E+02  0.7546771E-02  0.1513763E+00
          2   -1    0    0  501    0  0.00000000000E+00  0.00000000000E+00  0.57441448813E+03  0.57441448813E+03  0.00000000000E+00 0.  1.
         -2   -1    0    0    0  501 -0.00000000000E+00 -0.00000000000E+00 -0.98430539934E+00  0.98430539934E+00  0.00000000000E+00 0.  1.
          2    1    1    2  502    0  0.10735271726E+01  0.21363432364E+02  0.16106217706E+03  0.16247637854E+03  0.00000000000E+00 0.  1.
         -2    1    1    2    0  502 -0.10735271726E+01 -0.21363432364E+02  0.41236800567E+03  0.41292241499E+03  0.00000000000E+00 0.  1.
</event>
<event>
 4    1  0.3196713E+003  0.2646444E+02  0.7546771E-02  0.1453063E+00
          2   -1    0    0  501    0  0.00000000000E+00  0.00000000000E+00  0.47189749221E+01  0.47189749221E+01  0.00000000000E+00 0. -1.
         -2   -1    0    0    0  501 -0.00000000000E+00 -0.00000000000E+00 -0.14947689606E+03  0.14947689606E+03  0.00000000000E+00 0. -1.
          2    1    1    2  502    0  0.13031467897E+02 -0.23033605182E+02 -0.78877565110E+02  0.83198776438E+02  0.00000000000E+00 0. -1.
         -2    1    1    2    0  502 -0.13031467897E+02  0.23033605182E+02 -0.65880356029E+02  0.70997094544E+02  0.00000000000E+00 0. -1.
</event>
<event>
 4    1  0.3196713E+003  0.2403676E+02  0.7546771E-02  0.1479874E+00
          2   -1    0    0  501    0  0.00000000000E+00  0.00000000000E+00  0.16813988716E+04  0.16813988716E+04  0.00000000000E+00 0. -1.
         -2   -1    0    0    0  501 -0.00000000000E+00 -0.00000000000E+00 -0.53006446832E+02  0.53006446832E+02  0.00000000000E+00 0.  1.
          2    1    1    2  502    0 -0.13599502630E+02 -0.19819666111E+02  0.16785834177E+04  0.16787555080E+04  0.00000000000E+00 0. -1.
         -2    1    1    2    0  502  0.13599502630E+02  0.19819666111E+02 -0.50190992872E+02  0.55649810440E+02  0.00000000000E+00 0.  1.
</event>
<event>
 4    1  0.3196713E+003  0.3705930E+02  0.7546771E-02  0.1366637E+00
          2   -1    0    0  501    0  0.00000000000E+00  0.00000000000E+00  0.13415624419E+04  0.13415624419E+04  0.00000000000E+00 0. -1.
         -2   -1    0    0    0  501 -0.00000000000E+00 -0.00000000000E+00 -0.43200881164E+01  0.43200881164E+01  0.00000000000E+00 0. -1.
          2    1    1    2  502    0  0.33431577632E+02 -0.15991281356E+02  0.12564465911E+04  0.12569930102E+04  0.00000000000E+00 0. -1.
         -2    1    1    2    0  502 -0.33431577632E+02  0.15991281356E+02  0.80795762740E+02  0.88889519850E+02  0.00000000000E+00 0. -1.
</event>
<event>
 4    1  0.3196713E+003  0.2382939E+02  0.7546771E-02  0.1482338E+00
          2   -1    0    0  501    0  0.00000000000E+00  0.00000000000E+00  0.17041891977E+02  0.17041891977E+02  0.00000000000E+00 0.  1.
         -2   -1    0    0    0  501 -0.00000000000E+00 -0.00000000000E+00 -0.82946724160E+03  0.82946724160E+03  0.00000000000E+00 0. -1.
          2    1    1    2  502    0 -0.18548237865E+02 -0.14960037229E+02  0.84535535310E+01  0.25284430171E+02  0.00000000000E+00 0.  1.
         -2    1    1    2    0  502  0.18548237865E+02  0.14960037229E+02 -0.82087890315E+03  0.82122470341E+03  0.00000000000E+00 0. -1.
</event>
<event>
 4    1  0.3196713E+003  0.2104005E+02  0.7546771E-02  0.1518694E+00
          2   -1    0    0  501    0  0.00000000000E+00  0.00000000000E+00  0.64168527902E+02  0.64168527902E+02  0.00000000000E+00 0. -1.
         -2   -1    0    0    0  501 -0.00000000000E+00 -0.00000000000E+00 -0.75999937336E+01  0.75999937336E+01  0.00000000000E+00 0.  1.
          2    1    1    2  502    0  0.19344407039E+02  0.82751210898E+01  0.39184271357E+02  0.44475733097E+02  0.00000000000E+00 0. -1.
         -2    1    1    2    0  502 -0.19344407039E+02 -0.82751210898E+01  0.17384262811E+02  0.27292788539E+02  0.00000000000E+00 0.  1.
</event>
<event>
 4    1  0.3196713E+003  0.2073909E+02  0.7546771E-02  0.1523023E+00
          2   -1    0    0  501    0  0.00000000000E+00  0.00000000000E+00  0.56983485519E+03  0.56983485519E+03  0.00000000000E+00 0.  1.
         -2   -1    0    0    0  501 -0.00000000000E+00 -0.00000000000E+00 -0.17939975305E+03  0.17939975305E+03  0.00000000000E+00 0. -1.
          2    1    1    2  502    0  0.16757844965E+02  0.12218210897E+02  0.56904595129E+03  0.56942374795E+03  0.00000000000E+00 0.  1.
         -2    1    1    2    0  502 -0.16757844965E+02 -0.12218210897E+02 -0.17861084915E+03  0.17981086030E+03  0.00000000000E+00 0. -1.
</event>
<event>
 4    1  0.3196713E+003  0.3556995E+02  0.7546771E-02  0.1376600E+00
          2   -1    0    0  501    0  0.00000000000E+00  0.00000000000E+00  0.64339176663E+03  0.64339176663E+03  0.00000000000E+00 0.  1.
         -2   -1    0    0    0  501 -0.00000000000E+00 -0.00000000000E+00 -0.50818273662E+01  0.50818273662E+01  0.00000000000E+00 0.  1.
          2    1    1    2  502    0  0.22669168052E+02  0.27410407519E+02  0.57302129088E+03  0.57412422125E+03  0.00000000000E+00 0.  1.
         -2    1    1    2    0  502 -0.22669168052E+02 -0.27410407519E+02  0.65288648388E+02  0.74349372754E+02  0.00000000000E+00 0.  1.
</event>
<event>
 4    1  0.3196713E+003  0.2159119E+02  0.7546771E-02  0.1510989E+00
          2   -1    0    0  501    0  0.00000000000E+00  0.00000000000E+00  0.83425413709E+02  0.83425413709E+02  0.00000000000E+00 0. -1.
         -2   -1    0    0    0  501 -0.00000000000E+00 -0.00000000000E+00 -0.11205466000E+02  0.11205466000E+02  0.00000000000E+00 0. -1.
          2    1    1    2  502    0 -0.56244769249E+01 -0.20845739406E+02  0.69611060757E+02  0.72882641087E+02  0.00000000000E+00 0. -1.
         -2    1    1    2    0  502  0.56244769249E+01  0.20845739406E+02  0.26088869517E+01  0.21748238623E+02  0.00000000000E+00 0. -1.
</event>
<event>
 4    1  0.3196713E+003  0.3207730E+02  0.7546771E-02  0.1402364E+00
          2   -1    0    0  501    0  0.00000000000E+00  0.00000000000E+00  0.61131194578E+02  0.61131194578E+02  0.00000000000E+00 0.  1.
         -2   -1    0    0    0  501 -0.00000000000E+00 -0.00000000000E+00 -0.18522986015E+03  0.18522986015E+03  0.00000000000E+00 0.  1.
          2    1    1    2  502    0  0.25387922797E+02  0.19606280456E+02  0.55401202449E+02  0.64017545174E+02  0.00000000000E+00 0.  1.
         -2    1    1    2    0  502 -0.25387922797E+02 -0.19606280456E+02 -0.17949986802E+03  0.18234350956E+03  0.00000000000E+00 0.  1.
</event>
<event>
 4    1  0.3196713E+003  0.2045973E+02  0.7546771E-02  0.1527120E+00
          2   -1    0    0  501    0  0.00000000000E+00  0.00000000000E+00  0.14390329881E+02  0.14390329881E+02  0.00000000000E+00 0. -1.
         -2   -1    0    0    0  501 -0.00000000000E+00 -0.00000000000E+00 -0.39643714586E+02  0.39643714586E+02  0.00000000000E+00 0. -1.
          2    1    1    2  502    0  0.41082589252E+01 -0.20043022229E+02  0.13136434111E+01  0.20501858221E+02  0.00000000000E+00 0. -1.
         -2    1    1    2    0  502 -0.41082589252E+01  0.20043022229E+02 -0.26567028116E+02  0.33532186246E+02  0.00000000000E+00 0. -1.
</event>
<event>
 4    1  0.3196713E+003  0.2094962E+02  0.7546771E-02  0.1519985E+00
          2   -1    0    0  501    0  0.00000000000E+00  0.00000000000E+00  0.68721425413E+01  0.68721425413E+01  0.00000000000E+00 0.  1.
         -2   -1    0    0    0  501 -0.00000000000E+00 -0.00000000000E+00 -0.76127009178E+02  0.76127009178E+02  0.00000000000E+00 0.  1.
          2    1    1    2  502    0  0.71580478934E+01  0.19688793848E+02 -0.51283143668E+02  0.55397175716E+02  0.00000000000E+00 0.  1.
         -2    1    1    2    0  502 -0.71580478934E+01 -0.19688793848E+02 -0.17971722969E+02  0.27601976004E+02  0.00000000000E+00 0.  1.
</event>
<event>
 4    1  0.3196713E+003  0.4450986E+02  0.7546771E-02  0.1323909E+00
          2   -1    0    0  501    0  0.00000000000E+00  0.00000000000E+00  0.30485996822E+03  0.30485996822E+03  0.00000000000E+00 0.  1.
         -2   -1    0    0    0  501 -0.00000000000E+00 -0.00000000000E+00 -0.68124901852E+01  0.68124901852E+01  0.00000000000E+00 0.  1.
          2    1    1    2  502    0  0.65504050860E+01  0.44025215660E+02  0.18248058928E+03  0.18783048976E+03  0.00000000000E+00 0.  1.
         -2    1    1    2    0  502 -0.65504050860E+01 -0.44025215660E+02  0.11556688876E+03  0.12384196865E+03  0.00000000000E+00 0.  1.
</event>
<event>
 4    1  0.3196713E+003  0.3091561E+02  0.7546771E-02  0.1411803E+00
          2   -1    0    0  501    0  0.00000000000E+00  0.00000000000E+00  0.13663689878E+04  0.13663689878E+04  0.00000000000E+00 0.  1.
         -2   -1    0    0    0  501 -0.00000000000E+00 -0.00000000000E+00 -0.18497842952E+02  0.18497842952E+02  0.00000000000E+00 0. -1.
          2    1    1    2  502    0 -0.25821802561E+02 -0.17000271743E+02  0.13531505634E+04  0.13535036838E+04  0.00000000000E+00 0.  1.
         -2    1    1    2    0  502  0.25821802561E+02  0.17000271743E+02 -0.52794185795E+01  0.31363146962E+02  0.00000000000E+00 0. -1.
</event>
<event>
 4    1  0.3196713E+003  0.3236512E+02  0.7546771E-02  0.1400098E+00
          2   -1    0    0  501    0  0.00000000000E+00  0.00000000000E+00  0.32641819980E+03  0.32641819980E+03  0.00000000000E+00 0. -1.
         -2   -1    0    0    0  501 -0.00000000000E+00 -0.00000000000E+00 -0.17385052020E+02  0.17385052020E+02  0.00000000000E+00 0.  1.
          2    1    1    2  502    0 -0.17248915890E+02  0.27385685190E+02  0.30974400494E+03  0.31143032840E+03  0.00000000000E+00 0. -1.
         -2    1    1    2    0  502  0.17248915890E+02 -0.27385685190E+02 -0.71085715935E+00  0.32372923418E+02  0.00000000000E+00 0.  1.
</event>
<event>
 4    1  0.3196713E+003  0.2258602E+02  0.7546771E-02  0.1497763E+00
          2   -1    0    0  501    0  0.00000000000E+00  0.00000000000E+00  0.14805880224E+03  0.14805880224E+03  0.00000000000E+00 0.  1.
         -2   -1    0    0    0  501 -0.00000000000E+00 -0.00000000000E+00 -0.15215000616E+02  0.15215000616E+02  0.00000000000E+00 0.  1.
          2    1    1    2  502    0 -0.10412534643E+02 -0.20042635695E+02  0.13822291853E+03  0.14005607209E+03  0.00000000000E+00 0.  1.
         -2    1    1    2    0  502  0.10412534643E+02  0.20042635695E+02 -0.53791169027E+01  0.23217730767E+02  0.00000000000E+00 0.  1.
</event>
<event>
 4    1  0.3196713E+003  0.2420820E+02  0.7546771E-02  0.1477860E+00
          2   -1    0    0  501    0  0.00000000000E+00  0.00000000000E+00  0.64938566727E+03  0.64938566727E+03  0.00000000000E+00 0. -1.
         -2   -1    0    0    0  501 -0.00000000000E+00 -0.00000000000E+00 -0.11017499532E+01  0.11017499532E+01  0.00000000000E+00 0.  1.
          2    1    1    2  502    0  0.24187891091E+02  0.99139181251E+00  0.46247404673E+03  0.46310720231E+03  0.00000000000E+00 0.  1.
         -2    1    1    2    0  502 -0.24187891091E+02 -0.99139181251E+00  0.18580987059E+03  0.18738021491E+03  0.00000000000E+00 0. -1.
</event>
<event>
 4    1  0.3196713E+003  0.6352014E+02  0.7546771E-02  0.1248320E+00
          2   -1    0    0  501    0  0.00000000000E+00  0.00000000000E+00  0.59925991109E+03  0.59925991109E+03  0.00000000000E+00 0.  1.
         -2   -1    0    0    0  501 -0.00000000000E+00 -0.00000000000E+00 -0.67925809162E+01  0.67925809162E+01  0.00000000000E+00 0.  1.
          2    1    1    2  502    0 -0.57077593063E+02  0.27873949507E+02  0.32461722326E+03  0.33077356353E+03  0.00000000000E+00 0.  1.
         -2    1    1    2    0  502  0.57077593063E+02 -0.27873949507E+02  0.26785010691E+03  0.27527892847E+03  0.00000000000E+00 0.  1.
</event>
<event>
 4    1  0.3196713E+003  0.2104017E+02  0.7546771E-02  0.1518692E+00
          2   -1    0    0  501    0  0.00000000000E+00  0.00000000000E+00  0.14200849575E+03  0.14200849575E+03  0.00000000000E+00 0. -1.
         -2   -1    0    0    0  501 -0.00000000000E+00 -0.00000000000E+00 -0.12729981784E+02  0.12729981784E+02  0.00000000000E+00 0. -1.
          2    1    1    2  502    0 -0.20639197307E+02 -0.40880417222E+01  0.13187122839E+03  0.13353916815E+03  0.00000000000E+00 0. -1.
         -2    1    1    2    0  502  0.20639197307E+02  0.40880417222E+01 -0.25927144263E+01  0.21199309391E+02  0.00000000000E+00 0. -1.
</event>
<event>
 4    1  0.3196713E+003  0.2032851E+02  0.7546771E-02  0.1529072E+00
          2   -1    0    0  501    0  0.00000000000E+00  0.00000000000E+00  0.77367591595E+03  0.77367591595E+03  0.00000000000E+00 0.  1.
         -2   -1    0    0    0  501 -0.00000000000E+00 -0.00000000000E+00 -0.54393379341E+00  0.54393379341E+00  0.00000000000E+00 0.  1.
          2    1    1    2  502    0  0.36641983148E+01  0.19995538568E+02  0.33461037448E+03  0.33522731186E+03  0.00000000000E+00 0.  1.
         -2    1    1    2    0  502 -0.36641983148E+01 -0.19995538568E+02  0.43852160768E+03  0.43899253788E+03  0.00000000000E+00 0.  1.
</event>
<event>
 4    1  0.3196713E+003  0.8861279E+02  0.7546771E-02  0.1185152E+00
          2   -1    0    0  501    0  0.00000000000E+00  0.00000000000E+00  0.12907810201E+04  0.12907810201E+04  0.00000000000E+00 0.  1.
         -2   -1    0    0    0  501 -0.00000000000E+00 -0.00000000000E+00 -0.12815915744E+02  0.12815915744E+02  0.00000000000E+00 0.  1.
          2    1    1    2  502    0  0.88549525676E+02 -0.33477957049E+01  0.11114044028E+04  0.11149313758E+04  0.00000000000E+00 0.  1.
         -2    1    1    2    0  502 -0.88549525676E+02  0.33477957049E+01  0.16656070152E+03  0.18866555999E+03  0.00000000000E+00 0.  1.
</event>
<event>
 4    1  0.3196713E+003  0.2168071E+02  0.7546771E-02  0.1509764E+00
          2   -1    0    0  501    0  0.00000000000E+00  0.00000000000E+00  0.75018757255E+03  0.75018757255E+03  0.00000000000E+00 0. -1.
         -2   -1    0    0    0  501 -0.00000000000E+00 -0.00000000000E+00 -0.12000811524E+03  0.12000811524E+03  0.00000000000E+00 0. -1.
          2    1    1    2  502    0  0.18809159028E+02 -0.10782803532E+02  0.74905022926E+03  0.74936392979E+03  0.00000000000E+00 0. -1.
         -2    1    1    2    0  502 -0.18809159028E+02  0.10782803532E+02 -0.11887077195E+03  0.12083175799E+03  0.00000000000E+00 0. -1.
</event>
<event>
 4    1  0.3196713E+003  0.3410386E+02  0.7546771E-02  0.1386975E+00
          2   -1    0    0  501    0  0.00000000000E+00  0.00000000000E+00  0.11640912903E+04  0.11640912903E+04  0.00000000000E+00 0.  1.
         -2   -1    0    0    0  501 -0.00000000000E+00 -0.00000000000E+00 -0.15373108113E+02  0.15373108113E+02  0.00000000000E+00 0. -1.
          2    1    1    2  502    0 -0.19483720961E+02  0.27990315765E+02  0.11446055005E+04  0.11451134551E+04  0.00000000000E+00 0.  1.
         -2    1    1    2    0  502  0.19483720961E+02 -0.27990315765E+02  0.41126816834E+01  0.34350943360E+02  0.00000000000E+00 0. -1.
</event>
<event>
 4    1  0.3196713E+003  0.2454970E+02  0.7546771E-02  0.1473904E+00
          2   -1    0    0  501    0  0.00000000000E+00  0.00000000000E+00  0.27740350881E+03  0.27740350881E+03  0.00000000000E+00 0. -1.
         -2   -1    0    0    0  501 -0.00000000000E+00 -0.00000000000E+00 -0.38450829997E+01  0.38450829997E+01  0.00000000000E+00 0. -1.
          2    1    1    2  502    0 -0.17483305110E+02 -0.17234313970E+02  0.22952368698E+03  0.23083286253E+03  0.00000000000E+00 0. -1.
         -2    1    1    2    0  502  0.17483305110E+02  0.17234313970E+02  0.44034738825E+02  0.50415729281E+02  0.00000000000E+00 0. -1.
</event>
<event>
 4    1  0.3196713E+003  0.2312285E+02  0.7546771E-02  0.1490961E+00
          2   -1    0    0  501    0  0.00000000000E+00  0.00000000000E+00  0.39851139170E+03  0.39851139170E+03  0.00000000000E+00 0. -1.
         -2   -1    0    0    0  501 -0.00000000000E+00 -0.00000000000E+00 -0.12399107837E+03  0.12399107837E+03  0.00000000000E+00 0.  1.
          2    1    1    2  502    0 -0.16846329886E+02  0.15838789222E+02  0.39709409938E+03  0.39776675305E+03  0.00000000000E+00 0. -1.
         -2    1    1    2    0  502  0.16846329886E+02 -0.15838789222E+02 -0.12257378604E+03  0.12473571702E+03  0.00000000000E+00 0.  1.
</event>
<event>
 4    1  0.3196713E+003  0.3944727E+02  0.7546771E-02  0.1351756E+00
          2   -1    0    0  501    0  0.00000000000E+00  0.00000000000E+00  0.11932557080E+03  0.11932557080E+03  0.00000000000E+00 0.  1.
         -2   -1    0    0    0  501 -0.00000000000E+00 -0.00000000000E+00 -0.36991187636E+02  0.36991187636E+02  0.00000000000E+00 0.  1.
          2    1    1    2  502    0 -0.39274421293E+02 -0.36887765909E+01  0.10405749918E+03  0.11128364829E+03  0.00000000000E+00 0.  1.
         -2    1    1    2    0  502  0.39274421293E+02  0.36887765909E+01 -0.21723116013E+02  0.45033110152E+02  0.00000000000E+00 0.  1.
</event>
<event>
 4    1  0.3196713E+003  0.2163724E+02  0.7546771E-02  0.1510358E+00
          2   -1    0    0  501    0  0.00000000000E+00  0.00000000000E+00  0.53113153707E+03  0.53113153707E+03  0.00000000000E+00 0.  1.
         -2   -1    0    0    0  501 -0.00000000000E+00 -0.00000000000E+00 -0.16785846830E+01  0.16785846830E+01  0.00000000000E+00 0. -1.
          2    1    1    2  502    0  0.21619138462E+02 -0.88486699397E+00  0.44831034545E+03  0.44883219133E+03  0.00000000000E+00 0.  1.
         -2    1    1    2    0  502 -0.21619138462E+02  0.88486699397E+00  0.81142606935E+02  0.83977930420E+02  0.00000000000E+00 0. -1.
</event>
<event>
 4    1  0.3196713E+003  0.2547894E+02  0.7546771E-02  0.1463516E+00
          2   -1    0    0  501    0  0.00000000000E+00  0.00000000000E+00  0.45636565397E+03  0.45636565397E+03  0.00000000000E+00 0. -1.
         -2   -1    0    0    0  501 -0.00000000000E+00 -0.00000000000E+00 -0.25964748808E+03  0.25964748808E+03  0.00000000000E+00 0. -1.
          2    1    1    2  502    0  0.18809315996E+02  0.17186801237E+02  0.45538362846E+03  0.45609585130E+03  0.00000000000E+00 0. -1.
         -2    1    1    2    0  502 -0.18809315996E+02 -0.17186801237E+02 -0.25866546256E+03  0.25991729075E+03  0.00000000000E+00 0. -1.
</event>
<event>
 4    1  0.3196713E+003  0.2223611E+02  0.7546771E-02  0.1502320E+00
          2   -1    0    0  501    0  0.00000000000E+00  0.00000000000E+00  0.65371085655E+01  0.65371085655E+01  0.00000000000E+00 0. -1.
         -2   -1    0    0    0  501 -0.00000000000E+00 -0.00000000000E+00 -0.34268616420E+03  0.34268616420E+03  0.00000000000E+00 0. -1.
          2    1    1    2  502    0  0.22054907618E+02 -0.28329566418E+01 -0.13932579881E+02  0.26240453036E+02  0.00000000000E+00 0. -1.
         -2    1    1    2    0  502 -0.22054907618E+02  0.28329566418E+01 -0.32221647575E+03  0.32298281973E+03  0.00000000000E+00 0. -1.
</event>
<event>
 4    1  0.3196713E+003  0.2074805E+02  0.7546771E-02  0.1522893E+00
          2   -1    0    0  501    0  0.00000000000E+00  0.00000000000E+00  0.49940001859E+01  0.49940001859E+01  0.00000000000E+00 0.  1.
         -2   -1    0    0    0  501 -0.00000000000E+00 -0.00000000000E+00 -0.19774465676E+03  0.19774465676E+03  0.00000000000E+00 0.  1.
          2    1    1    2  502    0  0.12826733454E+02  0.16308172324E+02 -0.20241256006E+02  0.28986031469E+02  0.00000000000E+00 0.  1.
         -2    1    1    2    0  502 -0.12826733454E+02 -0.16308172324E+02 -0.17250940057E+03  0.17375262548E+03  0.00000000000E+00 0.  1.
</event>
<event>
 4    1  0.3196713E+003  0.3521013E+02  0.7546771E-02  0.1379092E+00
          2   -1    0    0  501    0  0.00000000000E+00  0.00000000000E+00  0.31420644346E+02  0.31420644346E+02  0.00000000000E+00 0. -1.
         -2   -1    0    0    0  501 -0.00000000000E+00 -0.00000000000E+00 -0.82398213163E+02  0.82398213163E+02  0.00000000000E+00 0.  1.
          2    1    1    2  502    0 -0.14173918583E+02  0.32231242030E+02  0.15594421316E+02  0.38508945805E+02  0.00000000000E+00 0. -1.
         -2    1    1    2    0  502  0.14173918583E+02 -0.32231242030E+02 -0.66571990132E+02  0.75309911705E+02  0.00000000000E+00 0.  1.
</event>
<event>
 4    1  0.3196713E+003  0.2251937E+02  0.7546771E-02  0.1498623E+00
          2   -1    0    0  501    0  0.00000000000E+00  0.00000000000E+00  0.80082579996E+02  0.80082579996E+02  0.00000000000E+00 0. -1.
         -2   -1    0    0    0  501 -0.00000000000E+00 -0.00000000000E+00 -0.10329533069E+02  0.10329533069E+02  0.00000000000E+00 0. -1.
          2    1    1    2  502    0 -0.21253206209E+02  0.74446786598E+01  0.62997200700E+02  0.66901190651E+02  0.00000000000E+00 0. -1.
         -2    1    1    2    0  502  0.21253206209E+02 -0.74446786598E+01  0.67558462271E+01  0.23510922414E+02  0.00000000000E+00 0. -1.
</event>
<event>
 4    1  0.3196713E+003  0.2013649E+02  0.7546771E-02  0.1531959E+00
          2   -1    0    0  501    0  0.00000000000E+00  0.00000000000E+00  0.81018881711E+03  0.81018881711E+03  0.00000000000E+00 0.  1.
         -2   -1    0    0    0  501 -0.00000000000E+00 -0.00000000000E+00 -0.78018231236E+00  0.78018231236E+00  0.00000000000E+00 0.  1.
          2    1    1    2  502    0  0.17872063298E+02  0.92772689922E+01  0.64749329275E+03  0.64780633103E+03  0.00000000000E+00 0.  1.
         -2    1    1    2    0  502 -0.17872063298E+02 -0.92772689922E+01  0.16191534206E+03  0.16316266840E+03  0.00000000000E+00 0.  1.
</event>
<event>
 4    1  0.3196713E+003  0.2736403E+02  0.7546771E-02  0.1443985E+00
          2   -1    0    0  501    0  0.00000000000E+00  0.00000000000E+00  0.12929404843E+03  0.12929404843E+03  0.00000000000E+00 0.  1.
         -2   -1    0    0    0  501 -0.00000000000E+00 -0.00000000000E+00 -0.64053922951E+01  0.64053922951E+01  0.00000000000E+00 0.  1.
          2    1    1    2  502    0 -0.77117107127E+01  0.26254884771E+02  0.40437143129E+02  0.48825730931E+02  0.00000000000E+00 0.  1.
         -2    1    1    2    0  502  0.77117107127E+01 -0.26254884771E+02  0.82451513001E+02  0.86873709789E+02  0.00000000000E+00 0.  1.
</event>
<event>
 4    1  0.3196713E+003  0.2159152E+02  0.7546771E-02  0.1510985E+00
          2   -1    0    0  501    0  0.00000000000E+00  0.00000000000E+00  0.84372344554E+01  0.84372344554E+01  0.00000000000E+00 0. -1.
         -2   -1    0    0    0  501 -0.00000000000E+00 -0.00000000000E+00 -0.96128195867E+02  0.96128195867E+02  0.00000000000E+00 0. -1.
          2    1    1    2  502    0  0.21076699201E+02 -0.46868419544E+01 -0.97532361262E+01  0.23692179124E+02  0.00000000000E+00 0. -1.
         -2    1    1    2    0  502 -0.21076699201E+02  0.46868419544E+01 -0.77937725286E+02  0.80873251198E+02  0.00000000000E+00 0. -1.
</event>
<event>
 4    1  0.3196713E+003  0.2154430E+02  0.7546771E-02  0.1511634E+00
          2   -1    0    0  501    0  0.00000000000E+00  0.00000000000E+00  0.37475802068E+03  0.37475802068E+03  0.00000000000E+00 0.  1.
         -2   -1    0    0    0  501 -0.00000000000E+00 -0.00000000000E+00 -0.40468459322E+01  0.40468459322E+01  0.00000000000E+00 0. -1.
          2    1    1    2  502    0 -0.20505006502E+02  0.66107192609E+01  0.34313436288E+03  0.34381004623E+03  0.00000000000E+00 0.  1.
         -2    1    1    2    0  502  0.20505006502E+02 -0.66107192609E+01  0.27576811876E+02  0.34994820389E+02  0.00000000000E+00 0. -1.
</event>
<event>
 4    1  0.3196713E+003  0.2109519E+02  0.7546771E-02  0.1517910E+00
          2   -1    0    0  501    0  0.00000000000E+00  0.00000000000E+00  0.37624932519E+02  0.37624932519E+02  0.00000000000E+00 0.  1.
         -2   -1    0    0    0  501 -0.00000000000E+00 -0.00000000000E+00 -0.71809777249E+02  0.71809777249E+02  0.00000000000E+00 0.  1.
          2    1    1    2  502    0  0.13408258777E+02  0.16285744563E+02  0.32916209507E+02  0.39095827497E+02  0.00000000000E+00 0.  1.
         -2    1    1    2    0  502 -0.13408258777E+02 -0.16285744563E+02 -0.67101054237E+02  0.70338882271E+02  0.00000000000E+00 0.  1.
</event>
<event>
 4    1  0.3196713E+003  0.6723431E+02  0.7546771E-02  0.1237054E+00
          2   -1    0    0  501    0  0.00000000000E+00  0.00000000000E+00  0.26369882468E+04  0.26369882468E+04  0.00000000000E+00 0.  1.
         -2   -1    0    0    0  501 -0.00000000000E+00 -0.00000000000E+00 -0.51384833613E+01  0.51384833613E+01  0.00000000000E+00 0. -1.
          2    1    1    2  502    0  0.26895253314E+02 -0.61620593800E+02  0.23943449625E+04  0.23952887617E+04  0.00000000000E+00 0.  1.
         -2    1    1    2    0  502 -0.26895253314E+02  0.61620593800E+02  0.23750480097E+03  0.24683796854E+03  0.00000000000E+00 0. -1.
</event>
<event>
 4    1  0.3196713E+003  0.3584019E+02  0.7546771E-02  0.1374751E+00
          2   -1    0    0  501    0  0.00000000000E+00  0.00000000000E+00  0.23375121804E+04  0.23375121804E+04  0.00000000000E+00 0. -1.
         -2   -1    0    0    0  501 -0.00000000000E+00 -0.00000000000E+00 -0.29263217628E+01  0.29263217628E+01  0.00000000000E+00 0. -1.
          2    1    1    2  502    0 -0.34413896679E+02  0.10010134567E+02  0.22219282530E+04  0.22222172892E+04  0.00000000000E+00 0. -1.
         -2    1    1    2    0  502  0.34413896679E+02 -0.10010134567E+02  0.11265760560E+03  0.11822121289E+03  0.00000000000E+00 0. -1.
</event>
<event>
 4    1  0.3196713E+003  0.2151735E+02  0.7546771E-02  0.1512005E+00
          2   -1    0    0  501    0  0.00000000000E+00  0.00000000000E+00  0.37302274570E+01  0.37302274570E+01  0.00000000000E+00 0. -1.
         -2   -1    0    0    0  501 -0.00000000000E+00 -0.00000000000E+00 -0.67032119177E+03  0.67032119177E+03  0.00000000000E+00 0.  1.
          2    1    1    2  502    0  0.16760691381E+02 -0.13493537539E+02 -0.29068432645E+02  0.36165869371E+02  0.00000000000E+00 0. -1.
         -2    1    1    2    0  502 -0.16760691381E+02  0.13493537539E+02 -0.63752253166E+03  0.63788554985E+03  0.00000000000E+00 0.  1.
</event>
<event>
 4    1  0.3196713E+003  0.2300312E+02  0.7546771E-02  0.1492459E+00
          2   -1    0    0  501    0  0.00000000000E+00  0.00000000000E+00  0.97039458892E+03  0.97039458892E+03  0.00000000000E+00 0. -1.
         -2   -1    0    0    0  501 -0.00000000000E+00 -0.00000000000E+00 -0.56025902785E+00  0.56025902785E+00  0.00000000000E+00 0.  1.
          2    1    1    2  502    0  0.12587443029E+02  0.19253562377E+02  0.56428004706E+03  0.56474871837E+03  0.00000000000E+00 0. -1.
         -2    1    1    2    0  502 -0.12587443029E+02 -0.19253562377E+02  0.40555428283E+03  0.40620612958E+03  0.00000000000E+00 0.  1.
</event>
<event>
 4    1  0.3196713E+003  0.2742198E+02  0.7546771E-02  0.1443415E+00
          2   -1    0    0  501    0  0.00000000000E+00  0.00000000000E+00  0.65749338792E+02  0.65749338792E+02  0.00000000000E+00 0. -1.
         -2   -1    0    0    0  501 -0.00000000000E+00 -0.00000000000E+00 -0.46972237409E+02  0.46972237409E+02  0.00000000000E+00 0.  1.
          2    1    1    2  502    0 -0.59241975130E+01  0.26774411188E+02  0.58410093083E+02  0.64526771069E+02  0.00000000000E+00 0. -1.
         -2    1    1    2    0  502  0.59241975130E+01 -0.26774411188E+02 -0.39632991700E+02  0.48194805132E+02  0.00000000000E+00 0.  1.
</event>
<event>
 4    1  0.3196713E+003  0.2310993E+02  0.7546771E-02  0.1491122E+00
          2   -1    0    0  501    0  0.00000000000E+00  0.00000000000E+00  0.65158316676E+02  0.65158316676E+02  0.00000000000E+00 0. -1.
         -2   -1    0    0    0  501 -0.00000000000E+00 -0.00000000000E+00 -0.90341781131E+01  0.90341781131E+01  0.00000000000E+00 0.  1.
          2    1    1    2  502    0 -0.14604896213E+02  0.17909937014E+02  0.39358192793E+02  0.45641386671E+02  0.00000000000E+00 0. -1.
         -2    1    1    2    0  502  0.14604896213E+02 -0.17909937014E+02  0.16765945769E+02  0.28551108118E+02  0.00000000000E+00 0.  1.
</event>
<event>
 4    1  0.3196713E+003  0.2149367E+02  0.7546771E-02  0.1512332E+00
          2   -1    0    0  501    0  0.00000000000E+00  0.00000000000E+00  0.23833520905E+03  0.23833520905E+03  0.00000000000E+00 0.  1.
         -2   -1    0    0    0  501 -0.00000000000E+00 -0.00000000000E+00 -0.13726599587E+02  0.13726599587E+02  0.00000000000E+00 0. -1.
          2    1    1    2  502    0  0.17711294982E+02  0.12177351345E+02  0.22909820696E+03  0.23010425091E+03  0.00000000000E+00 0.  1.
         -2    1    1    2    0  502 -0.17711294982E+02 -0.12177351345E+02 -0.44895974938E+01  0.21957557727E+02  0.00000000000E+00 0. -1.
</event>
<event>
 4    1  0.3196713E+003  0.2234013E+02  0.7546771E-02  0.1500955E+00
          2   -1    0    0  501    0  0.00000000000E+00  0.00000000000E+00  0.22222453920E+02  0.22222453920E+02  0.00000000000E+00 0.  1.
         -2   -1    0    0    0  501 -0.00000000000E+00 -0.00000000000E+00 -0.18416988194E+03  0.18416988194E+03  0.00000000000E+00 0.  1.
          2    1    1    2  502    0 -0.18934214890E+02  0.11856517260E+02  0.15725879791E+02  0.27320043745E+02  0.00000000000E+00 0.  1.
         -2    1    1    2    0  502  0.18934214890E+02 -0.11856517260E+02 -0.17767330781E+03  0.17907229212E+03  0.00000000000E+00 0.  1.
</event>
<event>
 4    1  0.3196713E+003  0.3382485E+02  0.7546771E-02  0.1389018E+00
          2   -1    0    0  501    0  0.00000000000E+00  0.00000000000E+00  0.79716034402E+03  0.79716034402E+03  0.00000000000E+00 0. -1.
         -2   -1    0    0    0  501 -0.00000000000E+00 -0.00000000000E+00 -0.11347934398E+02  0.11347934398E+02  0.00000000000E+00 0.  1.
          2    1    1    2  502    0  0.32660301010E+02 -0.87991443182E+01  0.77073218844E+03  0.77147406081E+03  0.00000000000E+00 0. -1.
         -2    1    1    2    0  502 -0.32660301010E+02  0.87991443182E+01  0.15080221176E+02  0.37034217604E+02  0.00000000000E+00 0.  1.
</event>
<event>
 4    1  0.3196713E+003  0.4190302E+02  0.7546771E-02  0.1337681E+00
          2   -1    0    0  501    0  0.00000000000E+00  0.00000000000E+00  0.36343585034E+02  0.36343585034E+02  0.00000000000E+00 0. -1.
         -2   -1    0    0    0  501 -0.00000000000E+00 -0.00000000000E+00 -0.16542031035E+03  0.16542031035E+03  0.00000000000E+00 0. -1.
          2    1    1    2  502    0  0.36293888331E+02  0.20943173060E+02  0.20342794335E+02  0.46579953943E+02  0.00000000000E+00 0. -1.
         -2    1    1    2    0  502 -0.36293888331E+02 -0.20943173060E+02 -0.14941951965E+03  0.15518394144E+03  0.00000000000E+00 0. -1.
</event>
<event>
 4    1  0.3196713E+003  0.5174292E+02  0.7546771E-02  0.1290788E+00
          2   -1    0    0  501    0  0.00000000000E+00  0.00000000000E+00  0.40596432689E+03  0.40596432689E+03  0.00000000000E+00 0.  1.
         -2   -1    0    0    0  501 -0.00000000000E+00 -0.00000000000E+00 -0.11838794284E+02  0.11838794284E+02  0.00000000000E+00 0.  1.
          2    1    1    2  502    0  0.24556524023E+02  0.45544559273E+02  0.33609364854E+03  0.34005333455E+03  0.00000000000E+00 0.  1.
         -2    1    1    2    0  502 -0.24556524023E+02 -0.45544559273E+02  0.58031884066E+02  0.77749786621E+02  0.00000000000E+00 0.  1.
</event>
<event>
 4    1  0.3196713E+003  0.3022968E+02  0.7546771E-02  0.1417611E+00
          2   -1    0    0  501    0  0.00000000000E+00  0.00000000000E+00  0.39405546654E+03  0.39405546654E+03  0.00000000000E+00 0. -1.
         -2   -1    0    0    0  501 -0.00000000000E+00 -0.00000000000E+00 -0.25571055694E+01  0.25571055694E+01  0.00000000000E+00 0. -1.
          2    1    1    2  502    0 -0.24035337673E+02 -0.18334019944E+02  0.25625577080E+03  0.25803266036E+03  0.00000000000E+00 0. -1.
         -2    1    1    2    0  502  0.24035337673E+02  0.18334019944E+02  0.13524259018E+03  0.13857991176E+03  0.00000000000E+00 0. -1.
</event>
<event>
 4    1  0.3196713E+003  0.3125769E+02  0.7546771E-02  0.1408973E+00
          2   -1    0    0  501    0  0.00000000000E+00  0.00000000000E+00  0.20913027753E+04  0.20913027753E+04  0.00000000000E+00 0.  1.
         -2   -1    0    0    0  501 -0.00000000000E+00 -0.00000000000E+00 -0.94190449685E+01  0.94190449685E+01  0.00000000000E+00 0. -1.
          2    1    1    2  502    0 -0.33048212253E+01 -0.31082487489E+02  0.20649220479E+04  0.20651586154E+04  0.00000000000E+00 0.  1.
         -2    1    1    2    0  502  0.33048212253E+01  0.31082487489E+02  0.16961682498E+02  0.35563204931E+02  0.00000000000E+00 0. -1.
</event>
<event>
 4    1  0.3196713E+003  0.2773160E+02  0.7546771E-02  0.1440394E+00
          2   -1    0    0  501    0  0.00000000000E+00  0.00000000000E+00  0.79992783702E+03  0.79992783702E+03  0.00000000000E+00 0.  1.
         -2   -1    0    0    0  501 -0.00000000000E+00 -0.00000000000E+00 -0.96404829951E+00  0.96404829951E+00  0.00000000000E+00 0. -1.
          2    1    1    2  502    0 -0.11192252448E+02 -0.25372706242E+02  0.37844464290E+03  0.37945933705E+03  0.00000000000E+00 0.  1.
         -2    1    1    2    0  502  0.11192252448E+02  0.25372706242E+02  0.42051914582E+03  0.42143254826E+03  0.00000000000E+00 0. -1.
</event>
<event>
 4    1  0.3196713E+003  0.2132887E+02  0.7546771E-02  0.1514621E+00
          2   -1    0    0  501    0  0.00000000000E+00  0.00000000000E+00  0.33776136953E+03  0.33776136953E+03  0.00000000000E+00 0. -1.
         -2   -1    0    0    0  501 -0.00000000000E+00 -0.00000000000E+00 -0.56469689566E+02  0.56469689566E+02  0.00000000000E+00 0.  1.
          2    1    1    2  502    0 -0.26435072689E+01 -0.21164417609E+02  0.33539646150E+03  0.33607396074E+03  0.00000000000E+00 0. -1.
         -2    1    1    2    0  502  0.26435072689E+01  0.21164417609E+02 -0.54104781537E+02  0.58157098351E+02  0.00000000000E+00 0.  1.
</event>
<event>
 4    1  0.3196713E+003  0.2308141E+02  0.7546771E-02  0.1491478E+00
          2   -1    0    0  501    0  0.00000000000E+00  0.00000000000E+00  0.21745343091E+03  0.21745343091E+03  0.00000000000E+00 0. -1.
         -2   -1    0    0    0  501 -0.00000000000E+00 -0.00000000000E+00 -0.23858707416E+02  0.23858707416E+02  0.00000000000E+00 0. -1.
          2    1    1    2  502    0  0.12139481549E+02  0.19631211057E+02  0.21109082186E+03  0.21234897347E+03  0.00000000000E+00 0. -1.
         -2    1    1    2    0  502 -0.12139481549E+02 -0.19631211057E+02 -0.17496098373E+02  0.28963164850E+02  0.00000000000E+00 0. -1.
</event>
<event>
 4    1  0.3196713E+003  0.1057890E+03  0.7546771E-02  0.1154138E+00
          2   -1    0    0  501    0  0.00000000000E+00  0.00000000000E+00  0.75844945326E+03  0.75844945326E+03  0.00000000000E+00 0. -1.
         -2   -1    0    0    0  501 -0.00000000000E+00 -0.00000000000E+00 -0.32904875648E+02  0.32904875648E+02  0.00000000000E+00 0. -1.
          2    1    1    2  502    0 -0.65336740227E+02  0.83201153385E+02  0.65663290098E+03  0.66510005878E+03  0.00000000000E+00 0. -1.
         -2    1    1    2    0  502  0.65336740227E+02 -0.83201153385E+02  0.68911676636E+02  0.12625427013E+03  0.00000000000E+00 0. -1.
</event>
<event>
 4    1  0.3196713E+003  0.2016640E+02  0.7546771E-02  0.1531507E+00
          2   -1    0    0  501    0  0.00000000000E+00  0.00000000000E+00  0.28653122675E+03  0.28653122675E+03  0.00000000000E+00 0.  1.
         -2   -1    0    0    0  501 -0.00000000000E+00 -0.00000000000E+00 -0.19298218381E+02  0.19298218381E+02  0.00000000000E+00 0. -1.
          2    1    1    2  502    0  0.18893703340E+02 -0.70506468730E+01  0.28080060366E+03  0.28152382255E+03  0.00000000000E+00 0.  1.
         -2    1    1    2    0  502 -0.18893703340E+02  0.70506468730E+01 -0.13567595289E+02  0.24305622583E+02  0.00000000000E+00 0. -1.
</event>
<event>
 4    1  0.3196713E+003  0.5000086E+02  0.7546771E-02  0.1298169E+00
          2   -1    0    0  501    0  0.00000000000E+00  0.00000000000E+00  0.57674892563E+03  0.57674892563E+03  0.00000000000E+00 0. -1.
         -2   -1    0    0    0  501 -0.00000000000E+00 -0.00000000000E+00 -0.47932946448E+02  0.47932946448E+02  0.00000000000E+00 0. -1.
          2    1    1    2  502    0 -0.10071581853E+01 -0.49990717158E+02  0.56229111459E+03  0.56450986148E+03  0.00000000000E+00 0. -1.
         -2    1    1    2    0  502  0.10071581853E+01  0.49990717158E+02 -0.33475135399E+02  0.60172010599E+02  0.00000000000E+00 0. -1.
</event>
<event>
 4    1  0.3196713E+003  0.2433587E+02  0.7546771E-02  0.1476372E+00
          2   -1    0    0  501    0  0.00000000000E+00  0.00000000000E+00  0.26827001586E+02  0.26827001586E+02  0.00000000000E+00 0. -1.
         -2   -1    0    0    0  501 -0.00000000000E+00 -0.00000000000E+00 -0.25615810214E+02  0.25615810214E+02  0.00000000000E+00 0.  1.
          2    1    1    2  502    0 -0.22440773340E+02  0.94152199405E+01  0.10352974090E+02  0.26446526182E+02  0.00000000000E+00 0. -1.
         -2    1    1    2    0  502  0.22440773340E+02 -0.94152199405E+01 -0.91417827180E+01  0.25996285617E+02  0.00000000000E+00 0.  1.
</event>
<event>
 4    1  0.3196713E+003  0.3213240E+02  0.7546771E-02  0.1401928E+00
          2   -1    0    0  501    0  0.00000000000E+00  0.00000000000E+00  0.22292525635E+03  0.22292525635E+03  0.00000000000E+00 0. -1.
         -2   -1    0    0    0  501 -0.00000000000E+00 -0.00000000000E+00 -0.46701976034E+01  0.46701976034E+01  0.00000000000E+00 0. -1.
          2    1    1    2  502    0 -0.21563384584E+02  0.23822477280E+02  0.98775763211E+02  0.10387079174E+03  0.00000000000E+00 0. -1.
         -2    1    1    2    0  502  0.21563384584E+02 -0.23822477280E+02  0.11947929553E+03  0.12372466221E+03  0.00000000000E+00 0. -1.
</event>
<event>
 4    1  0.3196713E+003  0.3239825E+02  0.7546771E-02  0.1399839E+00
          2   -1    0    0  501    0  0.00000000000E+00  0.00000000000E+00  0.26743721431E+03  0.26743721431E+03  0.00000000000E+00 0.  1.
         -2   -1    0    0    0  501 -0.00000000000E+00 -0.00000000000E+00 -0.23107494234E+02  0.23107494234E+02  0.00000000000E+00 0.  1.
          2    1    1    2  502    0 -0.26460613220E+02 -0.18694449899E+02  0.25452614427E+03  0.25657982116E+03  0.00000000000E+00 0.  1.
         -2    1    1    2    0  502  0.26460613220E+02  0.18694449899E+02 -0.10196424191E+02  0.33964887388E+02  0.00000000000E+00 0.  1.
</event>
<event>
 4    1  0.3196713E+003  0.2282109E+02  0.7546771E-02  0.1494757E+00
          2   -1    0    0  501    0  0.00000000000E+00  0.00000000000E+00  0.39896182696E+02  0.39896182696E+02  0.00000000000E+00 0. -1.
         -2   -1    0    0    0  501 -0.00000000000E+00 -0.00000000000E+00 -0.13423432828E+02  0.13423432828E+02  0.00000000000E+00 0. -1.
          2    1    1    2  502    0  0.15337688510E+02  0.16898424471E+02  0.88131194894E+01  0.24463697872E+02  0.00000000000E+00 0. -1.
         -2    1    1    2    0  502 -0.15337688510E+02 -0.16898424471E+02  0.17659630379E+02  0.28855917652E+02  0.00000000000E+00 0. -1.
</event>
<event>
 4    1  0.3196713E+003  0.2895790E+02  0.7546771E-02  0.1428874E+00
          2   -1    0    0  501    0  0.00000000000E+00  0.00000000000E+00  0.87978258885E+03  0.87978258885E+03  0.00000000000E+00 0. -1.
         -2   -1    0    0    0  501 -0.00000000000E+00 -0.00000000000E+00 -0.31339725664E+03  0.31339725664E+03  0.00000000000E+00 0. -1.
          2    1    1    2  502    0  0.16062877744E+02 -0.24094475130E+02  0.87887468475E+03  0.87935161982E+03  0.00000000000E+00 0. -1.
         -2    1    1    2    0  502 -0.16062877744E+02  0.24094475130E+02 -0.31248935255E+03  0.31382822567E+03  0.00000000000E+00 0. -1.
</event>
<event>
 4    1  0.3196713E+003  0.4683357E+02  0.7546771E-02  0.1312517E+00
          2   -1    0    0  501    0  0.00000000000E+00  0.00000000000E+00  0.17787755571E+02  0.17787755571E+02  0.00000000000E+00 0. -1.
         -2   -1    0    0    0  501 -0.00000000000E+00 -0.00000000000E+00 -0.21780433191E+03  0.21780433191E+03  0.00000000000E+00 0. -1.
          2    1    1    2  502    0 -0.45587665291E+02  0.10730715475E+02 -0.22418688158E+02  0.51922837557E+02  0.00000000000E+00 0. -1.
         -2    1    1    2    0  502  0.45587665291E+02 -0.10730715475E+02 -0.17759788818E+03  0.18366924992E+03  0.00000000000E+00 0. -1.
</event>
<event>
 4    1  0.3196713E+003  0.2060983E+02  0.7546771E-02  0.1524909E+00
          2   -1    0    0  501    0  0.00000000000E+00  0.00000000000E+00  0.14507822994E+02  0.14507822994E+02  0.00000000000E+00 0. -1.
         -2   -1    0    0    0  501 -0.00000000000E+00 -0.00000000000E+00 -0.67479992515E+02  0.67479992515E+02  0.00000000000E+00 0.  1.
          2    1    1    2  502    0 -0.14558262554E+02  0.14588416927E+02  0.43580721652E+01  0.21065557435E+02  0.00000000000E+00 0. -1.
         -2    1    1    2    0  502  0.14558262554E+02 -0.14588416927E+02 -0.57330241687E+02  0.60922258075E+02  0.00000000000E+00 0.  1.
</event>
<event>
 4    1  0.3196713E+003  0.2340410E+02  0.7546771E-02  0.1487485E+00
          2   -1    0    0  501    0  0.00000000000E+00  0.00000000000E+00  0.46306665399E+03  0.46306665399E+03  0.00000000000E+00 0.  1.
         -2   -1    0    0    0  501 -0.00000000000E+00 -0.00000000000E+00 -0.29079526320E+02  0.29079526320E+02  0.00000000000E+00 0.  1.
          2    1    1    2  502    0  0.23192591927E+02 -0.31393403832E+01  0.45800989201E+03  0.45860747155E+03  0.00000000000E+00 0.  1.
         -2    1    1    2    0  502 -0.23192591927E+02  0.31393403832E+01 -0.24022764347E+02  0.33538708758E+02  0.00000000000E+00 0.  1.
</event>
<event>
 4    1  0.3196713E+003  0.3719930E+02  0.7546771E-02  0.1365728E+00
          2   -1    0    0  501    0  0.00000000000E+00  0.00000000000E+00  0.18731968496E+04  0.18731968496E+04  0.00000000000E+00 0.  1.
         -2   -1    0    0    0  501 -0.00000000000E+00 -0.00000000000E+00 -0.13357018073E+02  0.13357018073E+02  0.00000000000E+00 0.  1.
          2    1    1    2  502    0  0.23226234827E+02 -0.29057359552E+02  0.18467411511E+04  0.18471157699E+04  0.00000000000E+00 0.  1.
         -2    1    1    2    0  502 -0.23226234827E+02  0.29057359552E+02  0.13098680404E+02  0.39438097782E+02  0.00000000000E+00 0.  1.
</event>
<event>
 4    1  0.3196713E+003  0.2741524E+02  0.7546771E-02  0.1443481E+00
          2   -1    0    0  501    0  0.00000000000E+00  0.00000000000E+00  0.26957979710E+02  0.26957979710E+02  0.00000000000E+00 0. -1.
         -2   -1    0    0    0  501 -0.00000000000E+00 -0.00000000000E+00 -0.80827807982E+02  0.80827807982E+02  0.00000000000E+00 0. -1.
          2    1    1    2  502    0  0.15669977654E+02 -0.22495486865E+02  0.16683923064E+02  0.32092809440E+02  0.00000000000E+00 0. -1.
         -2    1    1    2    0  502 -0.15669977654E+02  0.22495486865E+02 -0.70553751336E+02  0.75692978251E+02  0.00000000000E+00 0. -1.
</event>
<event>
 4    1  0.3196713E+003  0.4060571E+02  0.7546771E-02  0.1344972E+00
          2   -1    0    0  501    0  0.00000000000E+00  0.00000000000E+00  0.46025391550E+02  0.46025391550E+02  0.00000000000E+00 0. -1.
         -2   -1    0    0    0  501 -0.00000000000E+00 -0.00000000000E+00 -0.36000848832E+03  0.36000848832E+03  0.00000000000E+00 0. -1.
          2    1    1    2  502    0 -0.25377277392E+02  0.31698856301E+02  0.35659721391E+02  0.54041090185E+02  0.00000000000E+00 0. -1.
         -2    1    1    2    0  502  0.25377277392E+02 -0.31698856301E+02 -0.34964281816E+03  0.35199278968E+03  0.00000000000E+00 0. -1.
</event>
<event>
 4    1  0.3196713E+003  0.2944495E+02  0.7546771E-02  0.1424482E+00
          2   -1    0    0  501    0  0.00000000000E+00  0.00000000000E+00  0.21428609716E+04  0.21428609716E+04  0.00000000000E+00 0.  1.
         -2   -1    0    0    0  501 -0.00000000000E+00 -0.00000000000E+00 -0.65679266364E+01  0.65679266364E+01  0.00000000000E+00 0.  1.
          2    1    1    2  502    0  0.93909560962E+01 -0.27907257034E+02  0.21092322100E+04  0.21094377262E+04  0.00000000000E+00 0.  1.
         -2    1    1    2    0  502 -0.93909560962E+01  0.27907257034E+02  0.27060834977E+02  0.39991172041E+02  0.00000000000E+00 0.  1.
</event>
<event>
 4    1  0.3196713E+003  0.3011413E+02  0.7546771E-02  0.1418607E+00
          2   -1    0    0  501    0  0.00000000000E+00  0.00000000000E+00  0.17636625438E+02  0.17636625438E+02  0.00000000000E+00 0.  1.
         -2   -1    0    0    0  501 -0.00000000000E+00 -0.00000000000E+00 -0.11032110617E+03  0.11032110617E+03  0.00000000000E+00 0. -1.
          2    1    1    2  502    0  0.29872898654E+02 -0.38040197672E+01  0.40672660176E+00  0.30116873458E+02  0.00000000000E+00 0.  1.
         -2    1    1    2    0  502 -0.29872898654E+02  0.38040197672E+01 -0.93091207334E+02  0.97840858149E+02  0.00000000000E+00 0. -1.
</event>
<event>
 4    1  0.3196713E+003  0.2052465E+02  0.7546771E-02  0.1526161E+00
          2   -1    0    0  501    0  0.00000000000E+00  0.00000000000E+00  0.23159403794E+03  0.23159403794E+03  0.00000000000E+00 0. -1.
         -2   -1    0    0    0  501 -0.00000000000E+00 -0.00000000000E+00 -0.66878639315E+02  0.66878639315E+02  0.00000000000E+00 0. -1.
          2    1    1    2  502    0 -0.18096434369E+02 -0.96840245985E+01  0.22955058386E+03  0.23046633554E+03  0.00000000000E+00 0. -1.
         -2    1    1    2    0  502  0.18096434369E+02  0.96840245985E+01 -0.64835185231E+02  0.68006341713E+02  0.00000000000E+00 0. -1.
</event>
<event>
 4    1  0.3196713E+003  0.2198687E+02  0.7546771E-02  0.1505628E+00
          2   -1    0    0  501    0  0.00000000000E+00  0.00000000000E+00  0.89519883962E+03  0.89519883962E+03  0.00000000000E+00 0. -1.
         -2   -1    0    0    0  501 -0.00000000000E+00 -0.00000000000E+00 -0.20638939394E+02  0.20638939394E+02  0.00000000000E+00 0. -1.
          2    1    1    2  502    0 -0.13733345311E+02  0.17170255839E+02  0.88916841894E+03  0.88944021704E+03  0.00000000000E+00 0. -1.
         -2    1    1    2    0  502  0.13733345311E+02 -0.17170255839E+02 -0.14608518712E+02  0.26397561970E+02  0.00000000000E+00 0. -1.
</event>
<event>
 4    1  0.3196713E+003  0.2129432E+02  0.7546771E-02  0.1515104E+00
          2   -1    0    0  501    0  0.00000000000E+00  0.00000000000E+00  0.38895499904E+03  0.38895499904E+03  0.00000000000E+00 0. -1.
         -2   -1    0    0    0  501 -0.00000000000E+00 -0.00000000000E+00 -0.26192020119E+03  0.26192020119E+03  0.00000000000E+00 0. -1.
          2    1    1    2  502    0  0.21097960129E+02 -0.28851714017E+01  0.38822992714E+03  0.38881348287E+03  0.00000000000E+00 0. -1.
         -2    1    1    2    0  502 -0.21097960129E+02  0.28851714017E+01 -0.26119512929E+03  0.26206171735E+03  0.00000000000E+00 0. -1.
</event>
<event>
 4    1  0.3196713E+003  0.2388052E+02  0.7546771E-02  0.1481728E+00
          2   -1    0    0  501    0  0.00000000000E+00  0.00000000000E+00  0.17026059005E+03  0.17026059005E+03  0.00000000000E+00 0.  1.
         -2   -1    0    0    0  501 -0.00000000000E+00 -0.00000000000E+00 -0.10054994935E+02  0.10054994935E+02  0.00000000000E+00 0.  1.
          2    1    1    2  502    0 -0.21558489584E+02 -0.10271834800E+02  0.15372849662E+03  0.15557226532E+03  0.00000000000E+00 0.  1.
         -2    1    1    2    0  502  0.21558489584E+02  0.10271834800E+02  0.64770984979E+01  0.24743319669E+02  0.00000000000E+00 0.  1.
</event>
<event>
 4    1  0.3196713E+003  0.2043530E+02  0.7546771E-02  0.1527482E+00
          2   -1    0    0  501    0  0.00000000000E+00  0.00000000000E+00  0.97462518094E+02  0.97462518094E+02  0.00000000000E+00 0.  1.
         -2   -1    0    0    0  501 -0.00000000000E+00 -0.00000000000E+00 -0.24080245250E+02  0.24080245250E+02  0.00000000000E+00 0. -1.
          2    1    1    2  502    0 -0.20299097337E+02 -0.23554624139E+01  0.91791181264E+02  0.94038409779E+02  0.00000000000E+00 0.  1.
         -2    1    1    2    0  502  0.20299097337E+02  0.23554624139E+01 -0.18408908420E+02  0.27504353566E+02  0.00000000000E+00 0. -1.
</event>
<event>
 4    1  0.3196713E+003  0.5081259E+02  0.7546771E-02  0.1294687E+00
          2   -1    0    0  501    0  0.00000000000E+00  0.00000000000E+00  0.17707989503E+03  0.17707989503E+03  0.00000000000E+00 0.  1.
         -2   -1    0    0    0  501 -0.00000000000E+00 -0.00000000000E+00 -0.69736948457E+02  0.69736948457E+02  0.00000000000E+00 0.  1.
          2    1    1    2  502    0 -0.25546487272E+01  0.50748330360E+02  0.16342319585E+03  0.17114046922E+03  0.00000000000E+00 0.  1.
         -2    1    1    2    0  502  0.25546487272E+01 -0.50748330360E+02 -0.56080249269E+02  0.75676374269E+02  0.00000000000E+00 0.  1.
</event>
<event>
 4    1  0.3196713E+003  0.9202667E+02  0.7546771E-02  0.1178391E+00
          2   -1    0    0  501    0  0.00000000000E+00  0.00000000000E+00  0.10259225772E+03  0.10259225772E+03  0.00000000000E+00 0. -1.
         -2   -1    0    0    0  501 -0.00000000000E+00 -0.00000000000E+00 -0.22960730756E+03  0.22960730756E+03  0.00000000000E+00 0. -1.
          2    1    1    2  502    0 -0.31307620043E+02  0.86537508798E+02  0.69421774624E+02  0.11527484675E+03  0.00000000000E+00 0. -1.
         -2    1    1    2    0  502  0.31307620043E+02 -0.86537508798E+02 -0.19643682446E+03  0.21692471852E+03  0.00000000000E+00 0. -1.
</event>
<event>
 4    1  0.3196713E+003  0.2149350E+02  0.7546771E-02  0.1512334E+00
          2   -1    0    0  501    0  0.00000000000E+00  0.00000000000E+00  0.57283656935E+02  0.57283656935E+02  0.00000000000E+00 0. -1.
         -2   -1    0    0    0  501 -0.00000000000E+00 -0.00000000000E+00 -0.58016461123E+02  0.58016461123E+02  0.00000000000E+00 0.  1.
          2    1    1    2  502    0  0.14919790552E+02  0.15471601722E+02  0.53126962304E+02  0.57310075323E+02  0.00000000000E+00 0. -1.
         -2    1    1    2    0  502 -0.14919790552E+02 -0.15471601722E+02 -0.53859766491E+02  0.57990042735E+02  0.00000000000E+00 0.  1.
</event>
<event>
 4    1  0.3196713E+003  0.2138237E+02  0.7546771E-02  0.1513875E+00
          2   -1    0    0  501    0  0.00000000000E+00  0.00000000000E+00  0.16518779802E+03  0.16518779802E+03  0.00000000000E+00 0.  1.
         -2   -1    0    0    0  501 -0.00000000000E+00 -0.00000000000E+00 -0.87848352474E+01  0.87848352474E+01  0.00000000000E+00 0.  1.
          2    1    1    2  502    0 -0.21255324876E+02 -0.23274478100E+01  0.15019205163E+03  0.15170648708E+03  0.00000000000E+00 0.  1.
         -2    1    1    2    0  502  0.21255324876E+02  0.23274478100E+01  0.62109111432E+01  0.22266146190E+02  0.00000000000E+00 0.  1.
</event>
<event>
 4    1  0.3196713E+003  0.2044091E+02  0.7546771E-02  0.1527399E+00
          2   -1    0    0  501    0  0.00000000000E+00  0.00000000000E+00  0.29121840671E+03  0.29121840671E+03  0.00000000000E+00 0.  1.
         -2   -1    0    0    0  501 -0.00000000000E+00 -0.00000000000E+00 -0.26526524391E+02  0.26526524391E+02  0.00000000000E+00 0.  1.
          2    1    1    2  502    0  0.75093744841E+01  0.19011579058E+02  0.28686213136E+03  0.28758948738E+03  0.00000000000E+00 0.  1.
         -2    1    1    2    0  502 -0.75093744841E+01 -0.19011579058E+02 -0.22170249041E+02  0.30155443720E+02  0.00000000000E+00 0.  1.
</event>
<event>
 4    1  0.3196713E+003  0.3209655E+02  0.7546771E-02  0.1402211E+00
          2   -1    0    0  501    0  0.00000000000E+00  0.00000000000E+00  0.74251095532E+02  0.74251095532E+02  0.00000000000E+00 0.  1.
         -2   -1    0    0    0  501 -0.00000000000E+00 -0.00000000000E+00 -0.51887859296E+02  0.51887859296E+02  0.00000000000E+00 0. -1.
          2    1    1    2  502    0  0.31157053936E+02  0.77088459375E+01  0.65164384387E+02  0.72640108124E+02  0.00000000000E+00 0.  1.
         -2    1    1    2    0  502 -0.31157053936E+02 -0.77088459375E+01 -0.42801148151E+02  0.53498846704E+02  0.00000000000E+00 0. -1.
</event>
<event>
 4    1  0.3196713E+003  0.2179727E+02  0.7546771E-02  0.1508179E+00
          2   -1    0    0  501    0  0.00000000000E+00  0.00000000000E+00  0.10331703039E+04  0.10331703039E+04  0.00000000000E+00 0. -1.
         -2   -1    0    0    0  501 -0.00000000000E+00 -0.00000000000E+00 -0.33889176201E+02  0.33889176201E+02  0.00000000000E+00 0.  1.
          2    1    1    2  502    0 -0.11671701135E+02  0.18409033379E+02  0.10295380106E+04  0.10297687295E+04  0.00000000000E+00 0. -1.
         -2    1    1    2    0  502  0.11671701135E+02 -0.18409033379E+02 -0.30256882867E+02  0.37290750571E+02  0.00000000000E+00 0.  1.
</event>
<event>
 4    1  0.3196713E+003  0.2890113E+02  0.7546771E-02  0.1429392E+00
          2   -1    0    0  501    0  0.00000000000E+00  0.00000000000E+00  0.55499388818E+03  0.55499388818E+03  0.00000000000E+00 0. -1.
         -2   -1    0    0    0  501 -0.00000000000E+00 -0.00000000000E+00 -0.11744368453E+02  0.11744368453E+02  0.00000000000E+00 0.  1.
          2    1    1    2  502    0  0.24518002953E+02  0.15301725518E+02  0.53621506301E+03  0.53699336036E+03  0.00000000000E+00 0. -1.
         -2    1    1    2    0  502 -0.24518002953E+02 -0.15301725518E+02  0.70344567109E+01  0.29744896265E+02  0.00000000000E+00 0.  1.
</event>
<event>
 4    1  0.3196713E+003  0.4100172E+02  0.7546771E-02  0.1342714E+00
          2   -1    0    0  501    0  0.00000000000E+00  0.00000000000E+00  0.19458243800E+04  0.19458243800E+04  0.00000000000E+00 0. -1.
         -2   -1    0    0    0  501 -0.00000000000E+00 -0.00000000000E+00 -0.57978463270E+02  0.57978463270E+02  0.00000000000E+00 0.  1.
          2    1    1    2  502    0 -0.26558529186E+01 -0.40915613234E+02  0.19383313784E+04  0.19387649866E+04  0.00000000000E+00 0. -1.
         -2    1    1    2    0  502  0.26558529186E+01  0.40915613234E+02 -0.50485461640E+02  0.65037856653E+02  0.00000000000E+00 0.  1.
</event>
<event>
 4    1  0.3196713E+003  0.2077414E+02  0.7546771E-02  0.1522514E+00
          2   -1    0    0  501    0  0.00000000000E+00  0.00000000000E+00  0.70417571816E+01  0.70417571816E+01  0.00000000000E+00 0.  1.
         -2   -1    0    0    0  501 -0.00000000000E+00 -0.00000000000E+00 -0.34172515888E+03  0.34172515888E+03  0.00000000000E+00 0. -1.
          2    1    1    2  502    0 -0.14828678423E+02 -0.14549058326E+02 -0.93676580075E+01  0.22788545774E+02  0.00000000000E+00 0.  1.
         -2    1    1    2    0  502  0.14828678423E+02  0.14549058326E+02 -0.32531574369E+03  0.32597837029E+03  0.00000000000E+00 0. -1.
</event>
<event>
 4    1  0.3196713E+003  0.2890067E+02  0.7546771E-02  0.1429396E+00
          2   -1    0    0  501    0  0.00000000000E+00  0.00000000000E+00  0.60630956179E+03  0.60630956179E+03  0.00000000000E+00 0. -1.
         -2   -1    0    0    0  501 -0.00000000000E+00 -0.00000000000E+00 -0.36348870821E+02  0.36348870821E+02  0.00000000000E+00 0. -1.
          2    1    1    2  502    0 -0.26649689550E+02 -0.11182246605E+02  0.60016168392E+03  0.60085713397E+03  0.00000000000E+00 0. -1.
         -2    1    1    2    0  502  0.26649689550E+02  0.11182246605E+02 -0.30200992957E+02  0.41801298638E+02  0.00000000000E+00 0. -1.
</event>
<event>
 4    1  0.3196713E+003  0.2636302E+02  0.7546771E-02  0.1454114E+00
          2   -1    0    0  501    0  0.00000000000E+00  0.00000000000E+00  0.39705871116E+03  0.39705871116E+03  0.00000000000E+00 0. -1.
         -2   -1    0    0    0  501 -0.00000000000E+00 -0.00000000000E+00 -0.22675350366E+01  0.22675350366E+01  0.00000000000E+00 0.  1.
          2    1    1    2  502    0  0.17580431795E+02  0.19645288826E+02  0.29274666476E+03  0.29393131627E+03  0.00000000000E+00 0. -1.
         -2    1    1    2    0  502 -0.17580431795E+02 -0.19645288826E+02  0.10204451136E+03  0.10539492992E+03  0.00000000000E+00 0.  1.
</event>
<event>
 4    1  0.3196713E+003  0.4255552E+02  0.7546771E-02  0.1334128E+00
          2   -1    0    0  501    0  0.00000000000E+00  0.00000000000E+00  0.20658237092E+03  0.20658237092E+03  0.00000000000E+00 0.  1.
         -2   -1    0    0    0  501 -0.00000000000E+00 -0.00000000000E+00 -0.12494515069E+02  0.12494515069E+02  0.00000000000E+00 0. -1.
          2    1    1    2  502    0  0.33015998469E+02 -0.26849883596E+02  0.15687884576E+03  0.16254828406E+03  0.00000000000E+00 0.  1.
         -2    1    1    2    0  502 -0.33015998469E+02  0.26849883596E+02  0.37209010090E+02  0.56528601927E+02  0.00000000000E+00 0. -1.
</event>
<event>
 4    1  0.3196713E+003  0.2005870E+02  0.7546771E-02  0.1533140E+00
          2   -1    0    0  501    0  0.00000000000E+00  0.00000000000E+00  0.11250254024E+04  0.11250254024E+04  0.00000000000E+00 0.  1.
         -2   -1    0    0    0  501 -0.00000000000E+00 -0.00000000000E+00 -0.10311275956E+02  0.10311275956E+02  0.00000000000E+00 0.  1.
          2    1    1    2  502    0  0.17837789410E+02 -0.91741268651E+01  0.11150939878E+04  0.11152743846E+04  0.00000000000E+00 0.  1.
         -2    1    1    2    0  502 -0.17837789410E+02  0.91741268651E+01 -0.37986138095E+00  0.20062293723E+02  0.00000000000E+00 0.  1.
</event>
<event>
 4    1  0.3196713E+003  0.2919058E+02  0.7546771E-02  0.1426763E+00
          2   -1    0    0  501    0  0.00000000000E+00  0.00000000000E+00  0.17936425126E+02  0.17936425126E+02  0.00000000000E+00 0.  1.
         -2   -1    0    0    0  501 -0.00000000000E+00 -0.00000000000E+00 -0.99757595785E+02  0.99757595785E+02  0.00000000000E+00 0. -1.
          2    1    1    2  502    0  0.17233044757E+02 -0.23560820973E+02  0.16787304654E+01  0.29238814143E+02  0.00000000000E+00 0.  1.
         -2    1    1    2    0  502 -0.17233044757E+02  0.23560820973E+02 -0.83499901125E+02  0.88455206768E+02  0.00000000000E+00 0. -1.
</event>
<event>
 4    1  0.3196713E+003  0.2098191E+02  0.7546771E-02  0.1519523E+00
          2   -1    0    0  501    0  0.00000000000E+00  0.00000000000E+00  0.39043072513E+03  0.39043072513E+03  0.00000000000E+00 0.  1.
         -2   -1    0    0    0  501 -0.00000000000E+00 -0.00000000000E+00 -0.24533587914E+01  0.24533587914E+01  0.00000000000E+00 0. -1.
          2    1    1    2  502    0  0.19715183184E+02 -0.71799703854E+01  0.33839628325E+03  0.33904613984E+03  0.00000000000E+00 0.  1.
         -2    1    1    2    0  502 -0.19715183184E+02  0.71799703854E+01  0.49581083089E+02  0.53837944082E+02  0.00000000000E+00 0. -1.
</event>
<event>
 4    1  0.3196713E+003  0.2863912E+02  0.7546771E-02  0.1431803E+00
          2   -1    0    0  501    0  0.00000000000E+00  0.00000000000E+00  0.15898452561E+04  0.15898452561E+04  0.00000000000E+00 0.  1.
         -2   -1    0    0    0  501 -0.00000000000E+00 -0.00000000000E+00 -0.73192984926E+00  0.73192984926E+00  0.00000000000E+00 0. -1.
          2    1    1    2  502    0 -0.14184904577E+02  0.24879465493E+02  0.12266206539E+04  0.12269549413E+04  0.00000000000E+00 0.  1.
         -2    1    1    2    0  502  0.14184904577E+02 -0.24879465493E+02  0.36249267236E+03  0.36362224469E+03  0.00000000000E+00 0. -1.
</event>
<event>
 4    1  0.3196713E+003  0.2524462E+02  0.7546771E-02  0.1466085E+00
          2   -1    0    0  501    0  0.00000000000E+00  0.00000000000E+00  0.33222769174E+03  0.33222769174E+03  0.00000000000E+00 0.  1.
         -2   -1    0    0    0  501 -0.00000000000E+00 -0.00000000000E+00 -0.37790885458E+01  0.37790885458E+01  0.00000000000E+00 0. -1.
          2    1    1    2  502    0  0.12822553366E+02 -0.21745645486E+02  0.28211527222E+03  0.28324250704E+03  0.00000000000E+00 0.  1.
         -2    1    1    2    0  502 -0.12822553366E+02  0.21745645486E+02  0.46333330977E+02  0.52764273252E+02  0.00000000000E+00 0. -1.
</event>
<event>
 4    1  0.3196713E+003  0.2112045E+02  0.7546771E-02  0.1517552E+00
          2   -1    0    0  501    0  0.00000000000E+00  0.00000000000E+00  0.49578181517E+03  0.49578181517E+03  0.00000000000E+00 0. -1.
         -2   -1    0    0    0  501 -0.00000000000E+00 -0.00000000000E+00 -0.28848634493E+01  0.28848634493E+01  0.00000000000E+00 0. -1.
          2    1    1    2  502    0 -0.12724080851E+02  0.16857363337E+02  0.39619262876E+02  0.44897203956E+02  0.00000000000E+00 0. -1.
         -2    1    1    2    0  502  0.12724080851E+02 -0.16857363337E+02  0.45327768884E+03  0.45376947466E+03  0.00000000000E+00 0. -1.
</event>
<event>
 4    1  0.3196713E+003  0.2389431E+02  0.7546771E-02  0.1481564E+00
          2   -1    0    0  501    0  0.00000000000E+00  0.00000000000E+00  0.82629936879E+02  0.82629936879E+02  0.00000000000E+00 0. -1.
         -2   -1    0    0    0  501 -0.00000000000E+00 -0.00000000000E+00 -0.15541135323E+02  0.15541135323E+02  0.00000000000E+00 0. -1.
          2    1    1    2  502    0  0.57215460113E+01  0.23199180449E+02  0.70125497890E+02  0.74084570030E+02  0.00000000000E+00 0. -1.
         -2    1    1    2    0  502 -0.57215460113E+01 -0.23199180449E+02 -0.30366963326E+01  0.24086502172E+02  0.00000000000E+00 0. -1.
</event>
<event>
 4    1  0.3196713E+003  0.3502243E+02  0.7546771E-02  0.1380406E+00
          2   -1    0    0  501    0  0.00000000000E+00  0.00000000000E+00  0.61450640872E+02  0.61450640872E+02  0.00000000000E+00 0.  1.
         -2   -1    0    0    0  501 -0.00000000000E+00 -0.00000000000E+00 -0.79454116923E+02  0.79454116923E+02  0.00000000000E+00 0. -1.
          2    1    1    2  502    0  0.32998195944E+02  0.11734137938E+02  0.51962270112E+02  0.62662975064E+02  0.00000000000E+00 0.  1.
         -2    1    1    2    0  502 -0.32998195944E+02 -0.11734137938E+02 -0.69965746163E+02  0.78241782731E+02  0.00000000000E+00 0. -1.
</event>
<event>
 4    1  0.3196713E+003  0.4140429E+02  0.7546771E-02  0.1340448E+00
          2   -1    0    0  501    0  0.00000000000E+00  0.00000000000E+00  0.62093444936E+03  0.62093444936E+03  0.00000000000E+00 0. -1.
         -2   -1    0    0    0  501 -0.00000000000E+00 -0.00000000000E+00 -0.25902095659E+02  0.25902095659E+02  0.00000000000E+00 0.  1.
          2    1    1    2  502    0  0.32956117018E+02  0.25064112896E+02  0.60321258720E+03  0.60463190518E+03  0.00000000000E+00 0. -1.
         -2    1    1    2    0  502 -0.32956117018E+02 -0.25064112896E+02 -0.81802334965E+01  0.42204639843E+02  0.00000000000E+00 0.  1.
</event>
<event>
 4    1  0.3196713E+003  0.2123878E+02  0.7546771E-02  0.1515883E+00
          2   -1    0    0  501    0  0.00000000000E+00  0.00000000000E+00  0.90753355647E+03  0.90753355647E+03  0.00000000000E+00 0. -1.
         -2   -1    0    0    0  501 -0.00000000000E+00 -0.00000000000E+00 -0.56733017105E+01  0.56733017105E+01  0.00000000000E+00 0.  1.
          2    1    1    2  502    0  0.10490736338E+02 -0.18467004261E+02  0.88707331749E+03  0.88732753615E+03  0.00000000000E+00 0. -1.
         -2    1    1    2    0  502 -0.10490736338E+02  0.18467004261E+02  0.14786937270E+02  0.25879322038E+02  0.00000000000E+00 0.  1.
</event>
<event>
 4    1  0.3196713E+003  0.2732399E+02  0.7546771E-02  0.1444380E+00
          2   -1    0    0  501    0  0.00000000000E+00  0.00000000000E+00  0.39775841594E+02  0.39775841594E+02  0.00000000000E+00 0. -1.
         -2   -1    0    0    0  501 -0.00000000000E+00 -0.00000000000E+00 -0.71280747063E+02  0.71280747063E+02  0.00000000000E+00 0.  1.
          2    1    1    2  502    0  0.58555771025E+01 -0.26689189140E+02  0.31907265806E+02  0.42008025559E+02  0.00000000000E+00 0. -1.
         -2    1    1    2    0  502 -0.58555771025E+01  0.26689189140E+02 -0.63412171274E+02  0.69048563098E+02  0.00000000000E+00 0.  1.
</event>
<event>
 4    1  0.3196713E+003  0.2005165E+02  0.7546771E-02  0.1533248E+00
          2   -1    0    0  501    0  0.00000000000E+00  0.00000000000E+00  0.35205534452E+03  0.35205534452E+03  0.00000000000E+00 0. -1.
         -2   -1    0    0    0  501 -0.00000000000E+00 -0.00000000000E+00 -0.17558222495E+01  0.17558222495E+01  0.00000000000E+00 0.  1.
          2    1    1    2  502    0 -0.53309780447E+01  0.19330010825E+02  0.27974237879E+03  0.28046009901E+03  0.00000000000E+00 0. -1.
         -2    1    1    2    0  502  0.53309780447E+01 -0.19330010825E+02  0.70557143482E+02  0.73351067762E+02  0.00000000000E+00 0.  1.
</event>
<event>
 4    1  0.3196713E+003  0.2006774E+02  0.7546771E-02  0.1533003E+00
          2   -1    0    0  501    0  0.00000000000E+00  0.00000000000E+00  0.82513796853E+01  0.82513796853E+01  0.00000000000E+00 0.  1.
         -2   -1    0    0    0  501 -0.00000000000E+00 -0.00000000000E+00 -0.55349459978E+02  0.55349459978E+02  0.00000000000E+00 0.  1.
          2    1    1    2  502    0  0.25297426478E+01 -0.19907654523E+02 -0.12614763403E+02  0.23703302769E+02  0.00000000000E+00 0.  1.
         -2    1    1    2    0  502 -0.25297426478E+01  0.19907654523E+02 -0.34483316890E+02  0.39897536894E+02  0.00000000000E+00 0.  1.
</event>
<event>
 4    1  0.3196713E+003  0.2025894E+02  0.7546771E-02  0.1530114E+00
          2   -1    0    0  501    0  0.00000000000E+00  0.00000000000E+00  0.41872685518E+02  0.41872685518E+02  0.00000000000E+00 0. -1.
         -2   -1    0    0    0  501 -0.00000000000E+00 -0.00000000000E+00 -0.30183739048E+02  0.30183739048E+02  0.00000000000E+00 0.  1.
          2    1    1    2  502    0 -0.19434817374E+01 -0.20165500749E+02  0.35450473878E+02  0.40830878510E+02  0.00000000000E+00 0. -1.
         -2    1    1    2    0  502  0.19434817374E+01  0.20165500749E+02 -0.23761527408E+02  0.31225546056E+02  0.00000000000E+00 0.  1.
</event>
<event>
 4    1  0.3196713E+003  0.2124704E+02  0.7546771E-02  0.1515767E+00
          2   -1    0    0  501    0  0.00000000000E+00  0.00000000000E+00  0.98454723717E+02  0.98454723717E+02  0.00000000000E+00 0. -1.
         -2   -1    0    0    0  501 -0.00000000000E+00 -0.00000000000E+00 -0.10222954180E+02  0.10222954180E+02  0.00000000000E+00 0.  1.
          2    1    1    2  502    0 -0.12285654764E+02  0.17334919082E+02  0.84468750351E+02  0.87099980014E+02  0.00000000000E+00 0. -1.
         -2    1    1    2    0  502  0.12285654764E+02 -0.17334919082E+02  0.37630191868E+01  0.21577697884E+02  0.00000000000E+00 0.  1.
</event>
<event>
 4    1  0.3196713E+003  0.2040036E+02  0.7546771E-02  0.1528001E+00
          2   -1    0    0  501    0  0.00000000000E+00  0.00000000000E+00  0.18663252221E+03  0.18663252221E+03  0.00000000000E+00 0.  1.
         -2   -1    0    0    0  501 -0.00000000000E+00 -0.00000000000E+00 -0.99816743450E+01  0.99816743450E+01  0.00000000000E+00 0.  1.
          2    1    1    2  502    0 -0.19290500515E+02 -0.66371040563E+01  0.17495842012E+03  0.17614375757E+03  0.00000000000E+00 0.  1.
         -2    1    1    2    0  502  0.19290500515E+02  0.66371040563E+01  0.16924277416E+01  0.20470438980E+02  0.00000000000E+00 0.  1.
</event>
<event>
 4    1  0.3196713E+003  0.5241245E+02  0.7546771E-02  0.1288039E+00
          2   -1    0    0  501    0  0.00000000000E+00  0.00000000000E+00  0.18082669557E+03  0.18082669557E+03  0.00000000000E+00 0. -1.
         -2   -1    0    0    0  501 -0.00000000000E+00 -0.00000000000E+00 -0.18605177879E+02  0.18605177879E+02  0.00000000000E+00 0. -1.
          2    1    1    2  502    0  0.70446341059E+01 -0.51936864156E+02  0.12382240115E+03  0.13445836439E+03  0.00000000000E+00 0. -1.
         -2    1    1    2    0  502 -0.70446341059E+01  0.51936864156E+02  0.38399116536E+02  0.64973509055E+02  0.00000000000E+00 0. -1.
</event>
<event>
 4    1  0.3196713E+003  0.2983646E+02  0.7546771E-02  0.1421023E+00
          2   -1    0    0  501    0  0.00000000000E+00  0.00000000000E+00  0.24572180987E+03  0.24572180987E+03  0.00000000000E+00 0.  1.
         -2   -1    0    0    0  501 -0.00000000000E+00 -0.00000000000E+00 -0.97641434879E+01  0.97641434879E+01  0.00000000000E+00 0.  1.
          2    1    1    2  502    0  0.27675904118E+02 -0.11147150971E+02  0.21928821900E+03  0.22130869309E+03  0.00000000000E+00 0.  1.
         -2    1    1    2    0  502 -0.27675904118E+02  0.11147150971E+02  0.16669447380E+02  0.34177260269E+02  0.00000000000E+00 0.  1.
</event>
<event>
 4    1  0.3196713E+003  0.2977283E+02  0.7546771E-02  0.1421581E+00
          2   -1    0    0  501    0  0.00000000000E+00  0.00000000000E+00  0.14995301409E+03  0.14995301409E+03  0.00000000000E+00 0.  1.
         -2   -1    0    0    0  501 -0.00000000000E+00 -0.00000000000E+00 -0.80770216590E+01  0.80770216590E+01  0.00000000000E+00 0.  1.
          2    1    1    2  502    0  0.29698087307E+02 -0.21082991164E+01  0.11185300251E+03  0.11574763706E+03  0.00000000000E+00 0.  1.
         -2    1    1    2    0  502 -0.29698087307E+02  0.21082991164E+01  0.30022989917E+02  0.42282398683E+02  0.00000000000E+00 0.  1.
</event>
<event>
 4    1  0.3196713E+003  0.3309163E+02  0.7546771E-02  0.1394500E+00
          2   -1    0    0  501    0  0.00000000000E+00  0.00000000000E+00  0.14006347794E+04  0.14006347794E+04  0.00000000000E+00 0. -1.
         -2   -1    0    0    0  501 -0.00000000000E+00 -0.00000000000E+00 -0.16769164779E+03  0.16769164779E+03  0.00000000000E+00 0. -1.
          2    1    1    2  502    0  0.31545519066E+02 -0.99968202084E+01  0.13988046423E+04  0.13991960133E+04  0.00000000000E+00 0. -1.
         -2    1    1    2    0  502 -0.31545519066E+02  0.99968202084E+01 -0.16586151069E+03  0.16913041393E+03  0.00000000000E+00 0. -1.
</event>
<event>
 4    1  0.3196713E+003  0.2445972E+02  0.7546771E-02  0.1474939E+00
          2   -1    0    0  501    0  0.00000000000E+00  0.00000000000E+00  0.31974522493E+02  0.31974522493E+02  0.00000000000E+00 0.  1.
         -2   -1    0    0    0  501 -0.00000000000E+00 -0.00000000000E+00 -0.68508682494E+02  0.68508682494E+02  0.00000000000E+00 0. -1.
          2    1    1    2  502    0  0.22518207537E+02  0.95502960483E+01  0.24567537735E+02  0.34667589124E+02  0.00000000000E+00 0.  1.
         -2    1    1    2    0  502 -0.22518207537E+02 -0.95502960483E+01 -0.61101697736E+02  0.65815615864E+02  0.00000000000E+00 0. -1.
</event>
<event>
 4    1  0.3196713E+003  0.2002408E+02  0.7546771E-02  0.1533668E+00
          2   -1    0    0  501    0  0.00000000000E+00  0.00000000000E+00  0.11837123703E+04  0.11837123703E+04  0.00000000000E+00 0.  1.
         -2   -1    0    0    0  501 -0.00000000000E+00 -0.00000000000E+00 -0.60484876565E+00  0.60484876565E+00  0.00000000000E+00 0.  1.
          2    1    1    2  502    0 -0.29192842419E+01  0.19810142290E+02  0.98433334494E+03  0.98453699673E+03  0.00000000000E+00 0.  1.
         -2    1    1    2    0  502  0.29192842419E+01 -0.19810142290E+02  0.19877417660E+03  0.19978022235E+03  0.00000000000E+00 0.  1.
</event>
<event>
 4    1  0.3196713E+003  0.5601606E+02  0.7546771E-02  0.1274004E+00
          2   -1    0    0  501    0  0.00000000000E+00  0.00000000000E+00  0.12594654590E+03  0.12594654590E+03  0.00000000000E+00 0.  1.
         -2   -1    0    0    0  501 -0.00000000000E+00 -0.00000000000E+00 -0.68801290587E+02  0.68801290587E+02  0.00000000000E+00 0. -1.
          2    1    1    2  502    0 -0.38460335118E+02 -0.40725931678E+02  0.10634315593E+03  0.12019428315E+03  0.00000000000E+00 0.  1.
         -2    1    1    2    0  502  0.38460335118E+02  0.40725931678E+02 -0.49197900625E+02  0.74553553331E+02  0.00000000000E+00 0. -1.
</event>
<event>
 4    1  0.3196713E+003  0.2755836E+02  0.7546771E-02  0.1442079E+00
          2   -1    0    0  501    0  0.00000000000E+00  0.00000000000E+00  0.12335219652E+03  0.12335219652E+03  0.00000000000E+00 0.  1.
         -2   -1    0    0    0  501 -0.00000000000E+00 -0.00000000000E+00 -0.18034420287E+03  0.18034420287E+03  0.00000000000E+00 0.  1.
          2    1    1    2  502    0 -0.27529594082E+02  0.12587855055E+01  0.12073767466E+03  0.12384284062E+03  0.00000000000E+00 0.  1.
         -2    1    1    2    0  502  0.27529594082E+02 -0.12587855055E+01 -0.17772968101E+03  0.17985355877E+03  0.00000000000E+00 0.  1.
</event>
<event>
 4    1  0.3196713E+003  0.4786142E+02  0.7546771E-02  0.1307721E+00
          2   -1    0    0  501    0  0.00000000000E+00  0.00000000000E+00  0.54784938281E+03  0.54784938281E+03  0.00000000000E+00 0.  1.
         -2   -1    0    0    0  501 -0.00000000000E+00 -0.00000000000E+00 -0.36590092303E+03  0.36590092303E+03  0.00000000000E+00 0.  1.
          2    1    1    2  502    0 -0.17292328669E+02  0.44628362966E+02  0.54523144056E+03  0.54732809099E+03  0.00000000000E+00 0.  1.
         -2    1    1    2    0  502  0.17292328669E+02 -0.44628362966E+02 -0.36328298078E+03  0.36642221485E+03  0.00000000000E+00 0.  1.
</event>
<event>
 4    1  0.3196713E+003  0.2258849E+02  0.7546771E-02  0.1497731E+00
          2   -1    0    0  501    0  0.00000000000E+00  0.00000000000E+00  0.56354160596E+03  0.56354160596E+03  0.00000000000E+00 0.  1.
         -2   -1    0    0    0  501 -0.00000000000E+00 -0.00000000000E+00 -0.48092496730E+01  0.48092496730E+01  0.00000000000E+00 0. -1.
          2    1    1    2  502    0 -0.22568206504E+02 -0.95708842749E+00  0.53539772270E+03  0.53587401638E+03  0.00000000000E+00 0.  1.
         -2    1    1    2    0  502  0.22568206504E+02  0.95708842749E+00  0.23334633593E+02  0.32476839255E+02  0.00000000000E+00 0. -1.
</event>
<event>
 4    1  0.3196713E+003  0.3260946E+02  0.7546771E-02  0.1398196E+00
          2   -1    0    0  501    0  0.00000000000E+00  0.00000000000E+00  0.14875905983E+02  0.14875905983E+02  0.00000000000E+00 0.  1.
         -2   -1    0    0    0  501 -0.00000000000E+00 -0.00000000000E+00 -0.18345487335E+03  0.18345487335E+03  0.00000000000E+00 0. -1.
          2    1    1    2  502    0 -0.66893859525E+01 -0.31915966425E+02 -0.68166120021E+01  0.33314306183E+02  0.00000000000E+00 0.  1.
         -2    1    1    2    0  502  0.66893859525E+01  0.31915966425E+02 -0.16176235536E+03  0.16501647314E+03  0.00000000000E+00 0. -1.
</event>
<event>
 4    1  0.3196713E+003  0.2121113E+02  0.7546771E-02  0.1516272E+00
          2   -1    0    0  501    0  0.00000000000E+00  0.00000000000E+00  0.62959147245E+02  0.62959147245E+02  0.00000000000E+00 0. -1.
         -2   -1    0    0    0  501 -0.00000000000E+00 -0.00000000000E+00 -0.14712874310E+02  0.14712874310E+02  0.00000000000E+00 0.  1.
          2    1    1    2  502    0  0.20695684666E+02 -0.46476749256E+01  0.51974168564E+02  0.56135785769E+02  0.00000000000E+00 0. -1.
         -2    1    1    2    0  502 -0.20695684666E+02  0.46476749256E+01 -0.37278956292E+01  0.21536235786E+02  0.00000000000E+00 0.  1.
</event>
<event>
 4    1  0.3196713E+003  0.3928088E+02  0.7546771E-02  0.1352752E+00
          2   -1    0    0  501    0  0.00000000000E+00  0.00000000000E+00  0.39382886809E+03  0.39382886809E+03  0.00000000000E+00 0.  1.
         -2   -1    0    0    0  501 -0.00000000000E+00 -0.00000000000E+00 -0.26278493608E+02  0.26278493608E+02  0.00000000000E+00 0.  1.
          2    1    1    2  502    0 -0.38711314948E+02 -0.66649494473E+01  0.37753852009E+03  0.37957650297E+03  0.00000000000E+00 0.  1.
         -2    1    1    2    0  502  0.38711314948E+02  0.66649494473E+01 -0.99881456115E+01  0.40530858724E+02  0.00000000000E+00 0.  1.
</event>
<event>
 4    1  0.3196713E+003  0.3760915E+02  0.7546771E-02  0.1363096E+00
          2   -1    0    0  501    0  0.00000000000E+00  0.00000000000E+00  0.27373836356E+02  0.27373836356E+02  0.00000000000E+00 0. -1.
         -2   -1    0    0    0  501 -0.00000000000E+00 -0.00000000000E+00 -0.53643125418E+02  0.53643125418E+02  0.00000000000E+00 0.  1.
          2    1    1    2  502    0  0.37491229626E+02 -0.29756557182E+01 -0.20900737239E+02  0.43026592277E+02  0.00000000000E+00 0. -1.
         -2    1    1    2    0  502 -0.37491229626E+02  0.29756557182E+01 -0.53685518231E+01  0.37990369497E+02  0.00000000000E+00 0.  1.
</event>
<event>
 4    1  0.3196713E+003  0.2465865E+02  0.7546771E-02  0.1472658E+00
          2   -1    0    0  501    0  0.00000000000E+00  0.00000000000E+00  0.11338352398E+04  0.11338352398E+04  0.00000000000E+00 0. -1.
         -2   -1    0    0    0  501 -0.00000000000E+00 -0.00000000000E+00 -0.55711544775E+00  0.55711544775E+00  0.00000000000E+00 0.  1.
          2    1    1    2  502    0 -0.10292639157E+02 -0.22407827563E+02  0.67633711762E+03  0.67678648467E+03  0.00000000000E+00 0. -1.
         -2    1    1    2    0  502  0.10292639157E+02  0.22407827563E+02  0.45694100678E+03  0.45760587063E+03  0.00000000000E+00 0.  1.
</event>
<event>
 4    1  0.3196713E+003  0.2752545E+02  0.7546771E-02  0.1442400E+00
          2   -1    0    0  501    0  0.00000000000E+00  0.00000000000E+00  0.30157340309E+03  0.30157340309E+03  0.00000000000E+00 0.  1.
         -2   -1    0    0    0  501 -0.00000000000E+00 -0.00000000000E+00 -0.67221853877E+01  0.67221853877E+01  0.00000000000E+00 0.  1.
          2    1    1    2  502    0 -0.26218510870E+02 -0.83809357601E+01  0.26941327407E+03  0.27081573559E+03  0.00000000000E+00 0.  1.
         -2    1    1    2    0  502  0.26218510870E+02  0.83809357601E+01  0.25437943631E+02  0.37479852889E+02  0.00000000000E+00 0.  1.
</event>
<event>
 4    1  0.3196713E+003  0.2645396E+02  0.7546771E-02  0.1453172E+00
          2   -1    0    0  501    0  0.00000000000E+00  0.00000000000E+00  0.24570844403E+03  0.24570844403E+03  0.00000000000E+00 0.  1.
         -2   -1    0    0    0  501 -0.00000000000E+00 -0.00000000000E+00 -0.16573801456E+02  0.16573801456E+02  0.00000000000E+00 0.  1.
          2    1    1    2  502    0 -0.24529235541E+02  0.99059901858E+01  0.23390964055E+03  0.23540079010E+03  0.00000000000E+00 0.  1.
         -2    1    1    2    0  502  0.24529235541E+02 -0.99059901858E+01 -0.47749979790E+01  0.26881455382E+02  0.00000000000E+00 0.  1.
</event>
<event>
 4    1  0.3196713E+003  0.2901617E+02  0.7546771E-02  0.1428343E+00
          2   -1    0    0  501    0  0.00000000000E+00  0.00000000000E+00  0.10123015534E+02  0.10123015534E+02  0.00000000000E+00 0. -1.
         -2   -1    0    0    0  501 -0.00000000000E+00 -0.00000000000E+00 -0.20146017677E+03  0.20146017677E+03  0.00000000000E+00 0.  1.
          2    1    1    2  502    0 -0.12076616921E+02  0.26383585701E+02 -0.14604283230E+02  0.32484201689E+02  0.00000000000E+00 0. -1.
         -2    1    1    2    0  502  0.12076616921E+02 -0.26383585701E+02 -0.17673287801E+03  0.17909899062E+03  0.00000000000E+00 0.  1.
</event>
<event>
 4    1  0.3196713E+003  0.2875231E+02  0.7546771E-02  0.1430758E+00
          2   -1    0    0  501    0  0.00000000000E+00  0.00000000000E+00  0.63218824834E+03  0.63218824834E+03  0.00000000000E+00 0.  1.
         -2   -1    0    0    0  501 -0.00000000000E+00 -0.00000000000E+00 -0.35998362947E+01  0.35998362947E+01  0.00000000000E+00 0.  1.
          2    1    1    2  502    0  0.18670992785E+02  0.21865256507E+02  0.56796110715E+03  0.56868841614E+03  0.00000000000E+00 0.  1.
         -2    1    1    2    0  502 -0.18670992785E+02 -0.21865256507E+02  0.60627304900E+02  0.67099668502E+02  0.00000000000E+00 0.  1.
</event>
<event>
 4    1  0.3196713E+003  0.2491046E+02  0.7546771E-02  0.1469808E+00
          2   -1    0    0  501    0  0.00000000000E+00  0.00000000000E+00  0.60180184045E+03  0.60180184045E+03  0.00000000000E+00 0. -1.
         -2   -1    0    0    0  501 -0.00000000000E+00 -0.00000000000E+00 -0.28085644107E+02  0.28085644107E+02  0.00000000000E+00 0. -1.
          2    1    1    2  502    0  0.19044893625E+02 -0.16056869933E+02  0.59596643893E+03  0.59648682079E+03  0.00000000000E+00 0. -1.
         -2    1    1    2    0  502 -0.19044893625E+02  0.16056869933E+02 -0.22250242584E+02  0.33400663770E+02  0.00000000000E+00 0. -1.
</event>
<event>
 4    1  0.3196713E+003  0.2402046E+02  0.7546771E-02  0.1480067E+00
          2   -1    0    0  501    0  0.00000000000E+00  0.00000000000E+00  0.90200774190E+03  0.90200774190E+03  0.00000000000E+00 0. -1.
         -2   -1    0    0    0  501 -0.00000000000E+00 -0.00000000000E+00 -0.64220901170E+00  0.64220901170E+00  0.00000000000E+00 0. -1.
          2    1    1    2  502    0  0.21054684835E+02  0.11562101012E+02  0.42227147098E+03  0.42295410760E+03  0.00000000000E+00 0. -1.
         -2    1    1    2    0  502 -0.21054684835E+02 -0.11562101012E+02  0.47909406190E+03  0.47969584331E+03  0.00000000000E+00 0. -1.
</event>
<event>
 4    1  0.3196713E+003  0.2073001E+02  0.7546771E-02  0.1523155E+00
          2   -1    0    0  501    0  0.00000000000E+00  0.00000000000E+00  0.99142730551E+03  0.99142730551E+03  0.00000000000E+00 0. -1.
         -2   -1    0    0    0  501 -0.00000000000E+00 -0.00000000000E+00 -0.30057113430E+01  0.30057113430E+01  0.00000000000E+00 0.  1.
          2    1    1    2  502    0  0.12744549137E+02 -0.16349616419E+02  0.95418079733E+03  0.95440595529E+03  0.00000000000E+00 0. -1.
         -2    1    1    2    0  502 -0.12744549137E+02  0.16349616419E+02  0.34240796835E+02  0.40027061566E+02  0.00000000000E+00 0.  1.
</event>
<event>
 4    1  0.3196713E+003  0.2208032E+02  0.7546771E-02  0.1504381E+00
          2   -1    0    0  501    0  0.00000000000E+00  0.00000000000E+00  0.12186598220E+04  0.12186598220E+04  0.00000000000E+00 0.  1.
         -2   -1    0    0    0  501 -0.00000000000E+00 -0.00000000000E+00 -0.45836825733E+01  0.45836825733E+01  0.00000000000E+00 0.  1.
          2    1    1    2  502    0  0.16636282466E+02  0.14518080408E+02  0.11913594198E+04  0.11915640175E+04  0.00000000000E+00 0.  1.
         -2    1    1    2    0  502 -0.16636282466E+02 -0.14518080408E+02  0.22716719610E+02  0.31679487099E+02  0.00000000000E+00 0.  1.
</event>
<event>
 4    1  0.3196713E+003  0.3669881E+02  0.7546771E-02  0.1368998E+00
          2   -1    0    0  501    0  0.00000000000E+00  0.00000000000E+00  0.32728326631E+03  0.32728326631E+03  0.00000000000E+00 0.  1.
         -2   -1    0    0    0  501 -0.00000000000E+00 -0.00000000000E+00 -0.47857732681E+01  0.47857732681E+01  0.00000000000E+00 0.  1.
          2    1    1    2  502    0  0.13029920669E+02 -0.34307783125E+02  0.22340407652E+03  0.22639828670E+03  0.00000000000E+00 0.  1.
         -2    1    1    2    0  502 -0.13029920669E+02  0.34307783125E+02  0.99093416525E+02  0.10567075288E+03  0.00000000000E+00 0.  1.
</event>
<event>
 4    1  0.3196713E+003  0.2755617E+02  0.7546771E-02  0.1442100E+00
          2   -1    0    0  501    0  0.00000000000E+00  0.00000000000E+00  0.18180316986E+02  0.18180316986E+02  0.00000000000E+00 0.  1.
         -2   -1    0    0    0  501 -0.00000000000E+00 -0.00000000000E+00 -0.44526678897E+02  0.44526678897E+02  0.00000000000E+00 0.  1.
          2    1    1    2  502    0  0.11370196239E+02 -0.25101022978E+02 -0.53680233723E+01  0.28074158794E+02  0.00000000000E+00 0.  1.
         -2    1    1    2    0  502 -0.11370196239E+02  0.25101022978E+02 -0.20978338539E+02  0.34632837090E+02  0.00000000000E+00 0.  1.
</event>
<event>
 4    1  0.3196713E+003  0.2371069E+02  0.7546771E-02  0.1483762E+00
          2   -1    0    0  501    0  0.00000000000E+00  0.00000000000E+00  0.19839883689E+04  0.19839883689E+04  0.00000000000E+00 0. -1.
         -2   -1    0    0    0  501 -0.00000000000E+00 -0.00000000000E+00 -0.54237771457E+00  0.54237771457E+00  0.00000000000E+00 0. -1.
          2    1    1    2  502    0  0.23625412756E+02 -0.20091387236E+01  0.16774256185E+04  0.16775931874E+04  0.00000000000E+00 0. -1.
         -2    1    1    2    0  502 -0.23625412756E+02  0.20091387236E+01  0.30602037275E+03  0.30693755930E+03  0.00000000000E+00 0. -1.
</event>
<event>
 4    1  0.3196713E+003  0.2886768E+02  0.7546771E-02  0.1429698E+00
          2   -1    0    0  501    0  0.00000000000E+00  0.00000000000E+00  0.19221511067E+03  0.19221511067E+03  0.00000000000E+00 0. -1.
         -2   -1    0    0    0  501 -0.00000000000E+00 -0.00000000000E+00 -0.11751732788E+02  0.11751732788E+02  0.00000000000E+00 0.  1.
          2    1    1    2  502    0  0.41458668471E+01  0.28568405099E+02  0.92155928577E+01  0.30302955855E+02  0.00000000000E+00 0.  1.
         -2    1    1    2    0  502 -0.41458668471E+01 -0.28568405099E+02  0.17124778502E+03  0.17366388760E+03  0.00000000000E+00 0. -1.
</event>
<event>
 4    1  0.3196713E+003  0.2986504E+02  0.7546771E-02  0.1420773E+00
          2   -1    0    0  501    0  0.00000000000E+00  0.00000000000E+00  0.13831470789E+03  0.13831470789E+03  0.00000000000E+00 0. -1.
         -2   -1    0    0    0  501 -0.00000000000E+00 -0.00000000000E+00 -0.14947077911E+02  0.14947077911E+02  0.00000000000E+00 0. -1.
          2    1    1    2  502    0  0.26581608852E+02  0.13613916020E+02  0.11946669593E+03  0.12314305533E+03  0.00000000000E+00 0. -1.
         -2    1    1    2    0  502 -0.26581608852E+02 -0.13613916020E+02  0.39009340421E+01  0.30118730468E+02  0.00000000000E+00 0. -1.
</event>
<event>
 4    1  0.3196713E+003  0.2932113E+02  0.7546771E-02  0.1425589E+00
          2   -1    0    0  501    0  0.00000000000E+00  0.00000000000E+00  0.11835802083E+04  0.11835802083E+04  0.00000000000E+00 0.  1.
         -2   -1    0    0    0  501 -0.00000000000E+00 -0.00000000000E+00 -0.20958882635E+01  0.20958882635E+01  0.00000000000E+00 0. -1.
          2    1    1    2  502    0  0.10099750885E+02 -0.27526784393E+02  0.10699615220E+04  0.10703632035E+04  0.00000000000E+00 0.  1.
         -2    1    1    2    0  502 -0.10099750885E+02  0.27526784393E+02  0.11152279805E+03  0.11531289309E+03  0.00000000000E+00 0. -1.
</event>
<event>
 4    1  0.3196713E+003  0.2385990E+02  0.7546771E-02  0.1481974E+00
          2   -1    0    0  501    0  0.00000000000E+00  0.00000000000E+00  0.56091817692E+03  0.56091817692E+03  0.00000000000E+00 0. -1.
         -2   -1    0    0    0  501 -0.00000000000E+00 -0.00000000000E+00 -0.37106653343E+01  0.37106653343E+01  0.00000000000E+00 0. -1.
          2    1    1    2  502    0  0.18281512632E+02 -0.15332354363E+02  0.51923138515E+03  0.51977930521E+03  0.00000000000E+00 0. -1.
         -2    1    1    2    0  502 -0.18281512632E+02  0.15332354363E+02  0.37976126430E+02  0.44849537044E+02  0.00000000000E+00 0. -1.
</event>
<event>
 4    1  0.3196713E+003  0.2671401E+02  0.7546771E-02  0.1450502E+00
          2   -1    0    0  501    0  0.00000000000E+00  0.00000000000E+00  0.29945007702E+03  0.29945007702E+03  0.00000000000E+00 0.  1.
         -2   -1    0    0    0  501 -0.00000000000E+00 -0.00000000000E+00 -0.24431285270E+01  0.24431285270E+01  0.00000000000E+00 0. -1.
          2    1    1    2  502    0 -0.21511979739E+01 -0.26627245833E+02  0.12485480522E+03  0.12768069650E+03  0.00000000000E+00 0.  1.
         -2    1    1    2    0  502  0.21511979739E+01  0.26627245833E+02  0.17215214328E+03  0.17421250905E+03  0.00000000000E+00 0. -1.
</event>
<event>
 4    1  0.3196713E+003  0.2711742E+02  0.7546771E-02  0.1446432E+00
          2   -1    0    0  501    0  0.00000000000E+00  0.00000000000E+00  0.57766905859E+03  0.57766905859E+03  0.00000000000E+00 0.  1.
         -2   -1    0    0    0  501 -0.00000000000E+00 -0.00000000000E+00 -0.90781505425E+02  0.90781505425E+02  0.00000000000E+00 0. -1.
          2    1    1    2  502    0 -0.15379225290E+02  0.22334584806E+02  0.57531747758E+03  0.57595620863E+03  0.00000000000E+00 0.  1.
         -2    1    1    2    0  502  0.15379225290E+02 -0.22334584806E+02 -0.88429924407E+02  0.92494355393E+02  0.00000000000E+00 0. -1.
</event>
<event>
 4    1  0.3196713E+003  0.2324842E+02  0.7546771E-02  0.1489402E+00
          2   -1    0    0  501    0  0.00000000000E+00  0.00000000000E+00  0.50113042180E+02  0.50113042180E+02  0.00000000000E+00 0. -1.
         -2   -1    0    0    0  501 -0.00000000000E+00 -0.00000000000E+00 -0.18134820523E+02  0.18134820523E+02  0.00000000000E+00 0.  1.
          2    1    1    2  502    0 -0.18512043413E+02  0.14063902406E+02  0.37712572813E+02  0.44302677689E+02  0.00000000000E+00 0. -1.
         -2    1    1    2    0  502  0.18512043413E+02 -0.14063902406E+02 -0.57343511569E+01  0.23945185015E+02  0.00000000000E+00 0.  1.
</event>
<event>
 4    1  0.3196713E+003  0.2403385E+02  0.7546771E-02  0.1479909E+00
          2   -1    0    0  501    0  0.00000000000E+00  0.00000000000E+00  0.10703684944E+03  0.10703684944E+03  0.00000000000E+00 0. -1.
         -2   -1    0    0    0  501 -0.00000000000E+00 -0.00000000000E+00 -0.65746197092E+01  0.65746197092E+01  0.00000000000E+00 0.  1.
          2    1    1    2  502    0  0.19770249064E+02  0.13666135965E+02  0.74277439722E+02  0.78068969969E+02  0.00000000000E+00 0. -1.
         -2    1    1    2    0  502 -0.19770249064E+02 -0.13666135965E+02  0.26184790011E+02  0.35542499184E+02  0.00000000000E+00 0.  1.
</event>
<event>
 4    1  0.3196713E+003  0.2058426E+02  0.7546771E-02  0.1525284E+00
          2   -1    0    0  501    0  0.00000000000E+00  0.00000000000E+00  0.12373193908E+04  0.12373193908E+04  0.00000000000E+00 0.  1.
         -2   -1    0    0    0  501 -0.00000000000E+00 -0.00000000000E+00 -0.87811680850E+00  0.87811680850E+00  0.00000000000E+00 0.  1.
          2    1    1    2  502    0 -0.20482485466E+02  0.20443637427E+01  0.11017623030E+04  0.11019545743E+04  0.00000000000E+00 0.  1.
         -2    1    1    2    0  502  0.20482485466E+02 -0.20443637427E+01  0.13467897108E+03  0.13624293334E+03  0.00000000000E+00 0.  1.
</event>
<event>
 4    1  0.3196713E+003  0.2279999E+02  0.7546771E-02  0.1495025E+00
          2   -1    0    0  501    0  0.00000000000E+00  0.00000000000E+00  0.44754892875E+03  0.44754892875E+03  0.00000000000E+00 0.  1.
         -2   -1    0    0    0  501 -0.00000000000E+00 -0.00000000000E+00 -0.42820899041E+01  0.42820899041E+01  0.00000000000E+00 0. -1.
          2    1    1    2  502    0 -0.74780232438E+00  0.22787720221E+02  0.41449012577E+03  0.41511673511E+03  0.00000000000E+00 0.  1.
         -2    1    1    2    0  502  0.74780232438E+00 -0.22787720221E+02  0.28776713072E+02  0.36714283548E+02  0.00000000000E+00 0. -1.
</event>
<event>
 4    1  0.3196713E+003  0.3642737E+02  0.7546771E-02  0.1370797E+00
          2   -1    0    0  501    0  0.00000000000E+00  0.00000000000E+00  0.94643484114E+02  0.94643484114E+02  0.00000000000E+00 0. -1.
         -2   -1    0    0    0  501 -0.00000000000E+00 -0.00000000000E+00 -0.14104627644E+02  0.14104627644E+02  0.00000000000E+00 0.  1.
          2    1    1    2  502    0  0.43380663995E+01 -0.36168144007E+02  0.44467576173E+02  0.57483204431E+02  0.00000000000E+00 0. -1.
         -2    1    1    2    0  502 -0.43380663995E+01  0.36168144007E+02  0.36071280297E+02  0.51264907327E+02  0.00000000000E+00 0.  1.
</event>
<event>
 4    1  0.3196713E+003  0.2469791E+02  0.7546771E-02  0.1472211E+00
          2   -1    0    0  501    0  0.00000000000E+00  0.00000000000E+00  0.96413829515E+02  0.96413829515E+02  0.00000000000E+00 0. -1.
         -2   -1    0    0    0  501 -0.00000000000E+00 -0.00000000000E+00 -0.59251283028E+02  0.59251283028E+02  0.00000000000E+00 0. -1.
          2    1    1    2  502    0  0.52487271439E+01  0.24133742872E+02  0.92141136210E+02  0.95393792585E+02  0.00000000000E+00 0. -1.
         -2    1    1    2    0  502 -0.52487271439E+01 -0.24133742872E+02 -0.54978589723E+02  0.60271319958E+02  0.00000000000E+00 0. -1.
</event>
<event>
 4    1  0.3196713E+003  0.2709914E+02  0.7546771E-02  0.1446615E+00
          2   -1    0    0  501    0  0.00000000000E+00  0.00000000000E+00  0.12533345494E+03  0.12533345494E+03  0.00000000000E+00 0. -1.
         -2   -1    0    0    0  501 -0.00000000000E+00 -0.00000000000E+00 -0.36045222307E+02  0.36045222307E+02  0.00000000000E+00 0.  1.
          2    1    1    2  502    0 -0.26715387332E+02  0.45444034564E+01  0.11848462615E+03  0.12154410787E+03  0.00000000000E+00 0. -1.
         -2    1    1    2    0  502  0.26715387332E+02 -0.45444034564E+01 -0.29196393519E+02  0.39834569379E+02  0.00000000000E+00 0.  1.
</event>
<event>
 4    1  0.3196713E+003  0.2896231E+02  0.7546771E-02  0.1428833E+00
          2   -1    0    0  501    0  0.00000000000E+00  0.00000000000E+00  0.98772195489E+03  0.98772195489E+03  0.00000000000E+00 0.  1.
         -2   -1    0    0    0  501 -0.00000000000E+00 -0.00000000000E+00 -0.89193742604E+01  0.89193742604E+01  0.00000000000E+00 0. -1.
          2    1    1    2  502    0  0.17174712413E+02 -0.23320471206E+02  0.96340531071E+03  0.96384055104E+03  0.00000000000E+00 0.  1.
         -2    1    1    2    0  502 -0.17174712413E+02  0.23320471206E+02  0.15397269921E+02  0.32800778112E+02  0.00000000000E+00 0. -1.
</event>
<event>
 4    1  0.3196713E+003  0.4420630E+02  0.7546771E-02  0.1325456E+00
          2   -1    0    0  501    0  0.00000000000E+00  0.00000000000E+00  0.17116885682E+03  0.17116885682E+03  0.00000000000E+00 0. -1.
         -2   -1    0    0    0  501 -0.00000000000E+00 -0.00000000000E+00 -0.12383741597E+02  0.12383741597E+02  0.00000000000E+00 0. -1.
          2    1    1    2  502    0 -0.43335371048E+02  0.87316796273E+01  0.10503798606E+03  0.11396128785E+03  0.00000000000E+00 0. -1.
         -2    1    1    2    0  502  0.43335371048E+02 -0.87316796273E+01  0.53747129164E+02  0.69591310566E+02  0.00000000000E+00 0. -1.
</event>
<event>
 4    1  0.3196713E+003  0.2514636E+02  0.7546771E-02  0.1467173E+00
          2   -1    0    0  501    0  0.00000000000E+00  0.00000000000E+00  0.23230656038E+03  0.23230656038E+03  0.00000000000E+00 0. -1.
         -2   -1    0    0    0  501 -0.00000000000E+00 -0.00000000000E+00 -0.27777663890E+02  0.27777663890E+02  0.00000000000E+00 0.  1.
          2    1    1    2  502    0 -0.21848182061E+02 -0.12449750914E+02  0.22577073907E+03  0.22716682411E+03  0.00000000000E+00 0. -1.
         -2    1    1    2    0  502  0.21848182061E+02  0.12449750914E+02 -0.21241842577E+02  0.32917400160E+02  0.00000000000E+00 0.  1.
</event>
<event>
 4    1  0.3196713E+003  0.5586204E+02  0.7546771E-02  0.1274579E+00
          2   -1    0    0  501    0  0.00000000000E+00  0.00000000000E+00  0.67693941017E+03  0.67693941017E+03  0.00000000000E+00 0. -1.
         -2   -1    0    0    0  501 -0.00000000000E+00 -0.00000000000E+00 -0.14118280058E+02  0.14118280058E+02  0.00000000000E+00 0. -1.
          2    1    1    2  502    0 -0.22671014932E+02 -0.51054803915E+02  0.61497289509E+03  0.61750484177E+03  0.00000000000E+00 0. -1.
         -2    1    1    2    0  502  0.22671014932E+02  0.51054803915E+02  0.47848235026E+02  0.73552848456E+02  0.00000000000E+00 0. -1.
</event>
<event>
 4    1  0.3196713E+003  0.3968959E+02  0.7546771E-02  0.1350314E+00
          2   -1    0    0  501    0  0.00000000000E+00  0.00000000000E+00  0.10761090593E+04  0.10761090593E+04  0.00000000000E+00 0.  1.
         -2   -1    0    0    0  501 -0.00000000000E+00 -0.00000000000E+00 -0.58864460450E+01  0.58864460450E+01  0.00000000000E+00 0. -1.
          2    1    1    2  502    0 -0.34590597387E+02  0.19461613814E+02  0.10040406839E+04  0.10048248399E+04  0.00000000000E+00 0.  1.
         -2    1    1    2    0  502  0.34590597387E+02 -0.19461613814E+02  0.66181929309E+02  0.77170665456E+02  0.00000000000E+00 0. -1.
</event>
<event>
 4    1  0.3196713E+003  0.2229788E+02  0.7546771E-02  0.1501508E+00
          2   -1    0    0  501    0  0.00000000000E+00  0.00000000000E+00  0.15427103892E+04  0.15427103892E+04  0.00000000000E+00 0. -1.
         -2   -1    0    0    0  501 -0.00000000000E+00 -0.00000000000E+00 -0.10575755570E+01  0.10575755570E+01  0.00000000000E+00 0. -1.
          2    1    1    2  502    0 -0.13315569020E+02 -0.17885498364E+02  0.14144400537E+04  0.14146157998E+04  0.00000000000E+00 0. -1.
         -2    1    1    2    0  502  0.13315569020E+02  0.17885498364E+02  0.12721275992E+03  0.12915216497E+03  0.00000000000E+00 0. -1.
</event>
<event>
 4    1  0.3196713E+003  0.2820661E+02  0.7546771E-02  0.1435850E+00
          2   -1    0    0  501    0  0.00000000000E+00  0.00000000000E+00  0.57623296928E+02  0.57623296928E+02  0.00000000000E+00 0.  1.
         -2   -1    0    0    0  501 -0.00000000000E+00 -0.00000000000E+00 -0.15384361416E+02  0.15384361416E+02  0.00000000000E+00 0. -1.
          2    1    1    2  502    0  0.26984639070E+02  0.82123231835E+01  0.32807592881E+02  0.43266050761E+02  0.00000000000E+00 0.  1.
         -2    1    1    2    0  502 -0.26984639070E+02 -0.82123231835E+01  0.94313426306E+01  0.29741607583E+02  0.00000000000E+00 0. -1.
</event>
<event>
 4    1  0.3196713E+003  0.2346484E+02  0.7546771E-02  0.1486742E+00
          2   -1    0    0  501    0  0.00000000000E+00  0.00000000000E+00  0.13624896758E+03  0.13624896758E+03  0.00000000000E+00 0.  1.
         -2   -1    0    0    0  501 -0.00000000000E+00 -0.00000000000E+00 -0.58680628066E+02  0.58680628066E+02  0.00000000000E+00 0.  1.
          2    1    1    2  502    0 -0.18471356977E+01  0.23392025585E+02  0.13283308478E+03  0.13488968524E+03  0.00000000000E+00 0.  1.
         -2    1    1    2    0  502  0.18471356977E+01 -0.23392025585E+02 -0.55264745272E+02  0.60039910403E+02  0.00000000000E+00 0.  1.
</event>
<event>
 4    1  0.3196713E+003  0.5801758E+02  0.7546771E-02  0.1266721E+00
          2   -1    0    0  501    0  0.00000000000E+00  0.00000000000E+00  0.37900105171E+03  0.37900105171E+03  0.00000000000E+00 0. -1.
         -2   -1    0    0    0  501 -0.00000000000E+00 -0.00000000000E+00 -0.20869656843E+03  0.20869656843E+03  0.00000000000E+00 0.  1.
          2    1    1    2  502    0  0.55729932824E+02  0.16131151450E+02  0.37268052257E+03  0.37716947300E+03  0.00000000000E+00 0. -1.
         -2    1    1    2    0  502 -0.55729932824E+02 -0.16131151450E+02 -0.20237603929E+03  0.21052814714E+03  0.00000000000E+00 0.  1.
</event>
<event>
 4    1  0.3196713E+003  0.2628416E+02  0.7546771E-02  0.1454934E+00
          2   -1    0    0  501    0  0.00000000000E+00  0.00000000000E+00  0.12788429100E+04  0.12788429100E+04  0.00000000000E+00 0.  1.
         -2   -1    0    0    0  501 -0.00000000000E+00 -0.00000000000E+00 -0.48040431052E+01  0.48040431052E+01  0.00000000000E+00 0.  1.
          2    1    1    2  502    0 -0.18009629975E+02  0.19144462339E+02  0.12416800918E+04  0.12419582552E+04  0.00000000000E+00 0.  1.
         -2    1    1    2    0  502  0.18009629975E+02 -0.19144462339E+02  0.32358775102E+02  0.41688697943E+02  0.00000000000E+00 0.  1.
</event>
<event>
 4    1  0.3196713E+003  0.2235061E+02  0.7546771E-02  0.1500818E+00
          2   -1    0    0  501    0  0.00000000000E+00  0.00000000000E+00  0.19023315364E+03  0.19023315364E+03  0.00000000000E+00 0. -1.
         -2   -1    0    0    0  501 -0.00000000000E+00 -0.00000000000E+00 -0.28666497130E+01  0.28666497130E+01  0.00000000000E+00 0. -1.
          2    1    1    2  502    0 -0.21572401440E+02 -0.58464865849E+01  0.12165813972E+03  0.12369419093E+03  0.00000000000E+00 0. -1.
         -2    1    1    2    0  502  0.21572401440E+02  0.58464865849E+01  0.65708364208E+02  0.69405612426E+02  0.00000000000E+00 0. -1.
</event>
<event>
 4    1  0.3196713E+003  0.2077907E+02  0.7546771E-02  0.1522443E+00
          2   -1    0    0  501    0  0.00000000000E+00  0.00000000000E+00  0.17249704977E+02  0.17249704977E+02  0.00000000000E+00 0. -1.
         -2   -1    0    0    0  501 -0.00000000000E+00 -0.00000000000E+00 -0.14727144772E+04  0.14727144772E+04  0.00000000000E+00 0. -1.
          2    1    1    2  502    0  0.30888446775E+01  0.20548210259E+02  0.10891636622E+02  0.23460555292E+02  0.00000000000E+00 0. -1.
         -2    1    1    2    0  502 -0.30888446775E+01 -0.20548210259E+02 -0.14663564088E+04  0.14665036269E+04  0.00000000000E+00 0. -1.
</event>
<event>
 4    1  0.3196713E+003  0.2283381E+02  0.7546771E-02  0.1494596E+00
          2   -1    0    0  501    0  0.00000000000E+00  0.00000000000E+00  0.55090187489E+03  0.55090187489E+03  0.00000000000E+00 0. -1.
         -2   -1    0    0    0  501 -0.00000000000E+00 -0.00000000000E+00 -0.19006249379E+01  0.19006249379E+01  0.00000000000E+00 0. -1.
          2    1    1    2  502    0 -0.93114659834E+01  0.20848971857E+02  0.47034596902E+03  0.47089989764E+03  0.00000000000E+00 0. -1.
         -2    1    1    2    0  502  0.93114659834E+01 -0.20848971857E+02  0.78655280930E+02  0.81902602184E+02  0.00000000000E+00 0. -1.
</event>
<event>
 4    1  0.3196713E+003  0.3579334E+02  0.7546771E-02  0.1375070E+00
          2   -1    0    0  501    0  0.00000000000E+00  0.00000000000E+00  0.13591705912E+04  0.13591705912E+04  0.00000000000E+00 0. -1.
         -2   -1    0    0    0  501 -0.00000000000E+00 -0.00000000000E+00 -0.48735506021E+03  0.48735506021E+03  0.00000000000E+00 0. -1.
          2    1    1    2  502    0  0.41287198798E+01  0.35554419570E+02  0.13582773053E+04  0.13587488367E+04  0.00000000000E+00 0. -1.
         -2    1    1    2    0  502 -0.41287198798E+01 -0.35554419570E+02 -0.48646177433E+03  0.48777681471E+03  0.00000000000E+00 0. -1.
</event>
<event>
 4    1  0.3196713E+003  0.5328048E+02  0.7546771E-02  0.1284543E+00
          2   -1    0    0  501    0  0.00000000000E+00  0.00000000000E+00  0.45570465773E+03  0.45570465773E+03  0.00000000000E+00 0.  1.
         -2   -1    0    0    0  501 -0.00000000000E+00 -0.00000000000E+00 -0.84161384848E+02  0.84161384848E+02  0.00000000000E+00 0. -1.
          2    1    1    2  502    0  0.10550635670E+02  0.52225410783E+02  0.44552261111E+03  0.44869723250E+03  0.00000000000E+00 0.  1.
         -2    1    1    2    0  502 -0.10550635670E+02 -0.52225410783E+02 -0.73979338232E+02  0.91168810071E+02  0.00000000000E+00 0. -1.
</event>
<event>
 4    1  0.3196713E+003  0.3827977E+02  0.7546771E-02  0.1358872E+00
          2   -1    0    0  501    0  0.00000000000E+00  0.00000000000E+00  0.28667334431E+03  0.28667334431E+03  0.00000000000E+00 0. -1.
         -2   -1    0    0    0  501 -0.00000000000E+00 -0.00000000000E+00 -0.98418998469E+01  0.98418998469E+01  0.00000000000E+00 0.  1.
          2    1    1    2  502    0  0.31497245658E+02  0.21754641636E+02  0.24119956851E+03  0.24421828917E+03  0.00000000000E+00 0. -1.
         -2    1    1    2    0  502 -0.31497245658E+02 -0.21754641636E+02  0.35631875954E+02  0.52296954985E+02  0.00000000000E+00 0.  1.
</event>
<event>
 4    1  0.3196713E+003  0.2791784E+02  0.7546771E-02  0.1438600E+00
          2   -1    0    0  501    0  0.00000000000E+00  0.00000000000E+00  0.79413686558E+02  0.79413686558E+02  0.00000000000E+00 0.  1.
         -2   -1    0    0    0  501 -0.00000000000E+00 -0.00000000000E+00 -0.10156436895E+03  0.10156436895E+03  0.00000000000E+00 0.  1.
          2    1    1    2  502    0  0.27834459992E+02 -0.21560894396E+01  0.74930501090E+02  0.79962402905E+02  0.00000000000E+00 0.  1.
         -2    1    1    2    0  502 -0.27834459992E+02  0.21560894396E+01 -0.97081183484E+02  0.10101565261E+03  0.00000000000E+00 0.  1.
</event>
<event>
 4    1  0.3196713E+003  0.2726255E+02  0.7546771E-02  0.1444988E+00
          2   -1    0    0  501    0  0.00000000000E+00  0.00000000000E+00  0.18877575461E+02  0.18877575461E+02  0.00000000000E+00 0.  1.
         -2   -1    0    0    0  501 -0.00000000000E+00 -0.00000000000E+00 -0.39545648489E+02  0.39545648489E+02  0.00000000000E+00 0.  1.
          2    1    1    2  502    0 -0.22511937754E+02  0.15377228821E+02 -0.83979089881E+01  0.28526678444E+02  0.00000000000E+00 0.  1.
         -2    1    1    2    0  502  0.22511937754E+02 -0.15377228821E+02 -0.12270164040E+02  0.29896545507E+02  0.00000000000E+00 0.  1.
</event>
<event>
 4    1  0.3196713E+003  0.4495808E+02  0.7546771E-02  0.1321649E+00
          2   -1    0    0  501    0  0.00000000000E+00  0.00000000000E+00  0.29506641242E+04  0.29506641242E+04  0.00000000000E+00 0.  1.
         -2   -1    0    0    0  501 -0.00000000000E+00 -0.00000000000E+00 -0.23187598998E+02  0.23187598998E+02  0.00000000000E+00 0. -1.
          2    1    1    2  502    0  0.44297500271E+02 -0.76785439191E+01  0.29285360917E+04  0.29288811634E+04  0.00000000000E+00 0.  1.
         -2    1    1    2    0  502 -0.44297500271E+02  0.76785439191E+01 -0.10595665632E+01  0.44970559795E+02  0.00000000000E+00 0. -1.
</event>
<event>
 4    1  0.3196713E+003  0.2789325E+02  0.7546771E-02  0.1438836E+00
          2   -1    0    0  501    0  0.00000000000E+00  0.00000000000E+00  0.27403327176E+03  0.27403327176E+03  0.00000000000E+00 0.  1.
         -2   -1    0    0    0  501 -0.00000000000E+00 -0.00000000000E+00 -0.19054436677E+04  0.19054436677E+04  0.00000000000E+00 0. -1.
          2    1    1    2  502    0  0.19983586111E+02 -0.19459950294E+02  0.27322109048E+03  0.27464121625E+03  0.00000000000E+00 0.  1.
         -2    1    1    2    0  502 -0.19983586111E+02  0.19459950294E+02 -0.19046314864E+04  0.19048357232E+04  0.00000000000E+00 0. -1.
</event>
<event>
 4    1  0.3196713E+003  0.3397860E+02  0.7546771E-02  0.1387890E+00
          2   -1    0    0  501    0  0.00000000000E+00  0.00000000000E+00  0.21279744618E+03  0.21279744618E+03  0.00000000000E+00 0. -1.
         -2   -1    0    0    0  501 -0.00000000000E+00 -0.00000000000E+00 -0.77755493046E+01  0.77755493046E+01  0.00000000000E+00 0.  1.
          2    1    1    2  502    0 -0.21321332524E+02 -0.26456497891E+02  0.16314124135E+03  0.16664216192E+03  0.00000000000E+00 0. -1.
         -2    1    1    2    0  502  0.21321332524E+02  0.26456497891E+02  0.41880655522E+02  0.53930833557E+02  0.00000000000E+00 0.  1.
</event>
<event>
 4    1  0.3196713E+003  0.2175410E+02  0.7546771E-02  0.1508765E+00
          2   -1    0    0  501    0  0.00000000000E+00  0.00000000000E+00  0.12082185982E+03  0.12082185982E+03  0.00000000000E+00 0.  1.
         -2   -1    0    0    0  501 -0.00000000000E+00 -0.00000000000E+00 -0.71558382188E+01  0.71558382188E+01  0.00000000000E+00 0. -1.
          2    1    1    2  502    0 -0.62540227059E+01 -0.20835737190E+02  0.99883582612E+02  0.10222509878E+03  0.00000000000E+00 0.  1.
         -2    1    1    2    0  502  0.62540227059E+01  0.20835737190E+02  0.13782438986E+02  0.25752599260E+02  0.00000000000E+00 0. -1.
</event>
<event>
 4    1  0.3196713E+003  0.2446153E+02  0.7546771E-02  0.1474918E+00
          2   -1    0    0  501    0  0.00000000000E+00  0.00000000000E+00  0.28228803504E+03  0.28228803504E+03  0.00000000000E+00 0.  1.
         -2   -1    0    0    0  501 -0.00000000000E+00 -0.00000000000E+00 -0.33825879906E+02  0.33825879906E+02  0.00000000000E+00 0.  1.
          2    1    1    2  502    0 -0.15796692168E+02  0.18677019653E+02  0.27725559254E+03  0.27833258908E+03  0.00000000000E+00 0.  1.
         -2    1    1    2    0  502  0.15796692168E+02 -0.18677019653E+02 -0.28793437409E+02  0.37781325868E+02  0.00000000000E+00 0.  1.
</event>
<event>
 4    1  0.3196713E+003  0.2135517E+02  0.7546771E-02  0.1514254E+00
          2   -1    0    0  501    0  0.00000000000E+00  0.00000000000E+00  0.38760442859E+03  0.38760442859E+03  0.00000000000E+00 0. -1.
         -2   -1    0    0    0  501 -0.00000000000E+00 -0.00000000000E+00 -0.43520881585E+01  0.43520881585E+01  0.00000000000E+00 0. -1.
          2    1    1    2  502    0 -0.14253067542E+02  0.15902614701E+02  0.35903041555E+03  0.35966495851E+03  0.00000000000E+00 0. -1.
         -2    1    1    2    0  502  0.14253067542E+02 -0.15902614701E+02  0.24221924884E+02  0.32291558243E+02  0.00000000000E+00 0. -1.
</event>
<event>
 4    1  0.3196713E+003  0.2739309E+02  0.7546771E-02  0.1443699E+00
          2   -1    0    0  501    0  0.00000000000E+00  0.00000000000E+00  0.14088075303E+04  0.14088075303E+04  0.00000000000E+00 0.  1.
         -2   -1    0    0    0  501 -0.00000000000E+00 -0.00000000000E+00 -0.89308304970E+02  0.89308304970E+02  0.00000000000E+00 0.  1.
          2    1    1    2  502    0 -0.22807843942E+02 -0.15171804616E+02  0.14065704944E+04  0.14068372106E+04  0.00000000000E+00 0.  1.
         -2    1    1    2    0  502  0.22807843942E+02  0.15171804616E+02 -0.87071269139E+02  0.91278624606E+02  0.00000000000E+00 0.  1.
</event>
<event>
 4    1  0.3196713E+003  0.2076164E+02  0.7546771E-02  0.1522695E+00
          2   -1    0    0  501    0  0.00000000000E+00  0.00000000000E+00  0.84991480220E+03  0.84991480220E+03  0.00000000000E+00 0.  1.
         -2   -1    0    0    0  501 -0.00000000000E+00 -0.00000000000E+00 -0.55204425200E+00  0.55204425200E+00  0.00000000000E+00 0.  1.
          2    1    1    2  502    0  0.95023932533E+01  0.18459413089E+02  0.30343394970E+03  0.30414339914E+03  0.00000000000E+00 0.  1.
         -2    1    1    2    0  502 -0.95023932533E+01 -0.18459413089E+02  0.54592880825E+03  0.54632344731E+03  0.00000000000E+00 0.  1.
</event>
<event>
 4    1  0.3196713E+003  0.2773667E+02  0.7546771E-02  0.1440345E+00
          2   -1    0    0  501    0  0.00000000000E+00  0.00000000000E+00  0.10086264885E+04  0.10086264885E+04  0.00000000000E+00 0. -1.
         -2   -1    0    0    0  501 -0.00000000000E+00 -0.00000000000E+00 -0.44672795653E+01  0.44672795653E+01  0.00000000000E+00 0. -1.
          2    1    1    2  502    0  0.23217082398E+02  0.15175314971E+02  0.96336001063E+03  0.96375921951E+03  0.00000000000E+00 0. -1.
         -2    1    1    2    0  502 -0.23217082398E+02 -0.15175314971E+02  0.40799198316E+02  0.49334548571E+02  0.00000000000E+00 0. -1.
</event>
<event>
 4    1  0.3196713E+003  0.2853728E+02  0.7546771E-02  0.1432748E+00
          2   -1    0    0  501    0  0.00000000000E+00  0.00000000000E+00  0.87976160219E+02  0.87976160219E+02  0.00000000000E+00 0.  1.
         -2   -1    0    0    0  501 -0.00000000000E+00 -0.00000000000E+00 -0.92743227989E+01  0.92743227989E+01  0.00000000000E+00 0.  1.
          2    1    1    2  502    0  0.17590147091E+02  0.22471362183E+02  0.37235726112E+02  0.46913480921E+02  0.00000000000E+00 0.  1.
         -2    1    1    2    0  502 -0.17590147091E+02 -0.22471362183E+02  0.41466111309E+02  0.50337002097E+02  0.00000000000E+00 0.  1.
</event>
<event>
 4    1  0.3196713E+003  0.3062732E+02  0.7546771E-02  0.1414222E+00
          2   -1    0    0  501    0  0.00000000000E+00  0.00000000000E+00  0.22595493326E+01  0.22595493326E+01  0.00000000000E+00 0.  1.
         -2   -1    0    0    0  501 -0.00000000000E+00 -0.00000000000E+00 -0.55751496263E+03  0.55751496263E+03  0.00000000000E+00 0.  1.
          2    1    1    2  502    0  0.28801360196E+02  0.10417026068E+02 -0.13618865719E+03  0.13959005383E+03  0.00000000000E+00 0.  1.
         -2    1    1    2    0  502 -0.28801360196E+02 -0.10417026068E+02 -0.41906675611E+03  0.42018445814E+03  0.00000000000E+00 0.  1.
</event>
<event>
 4    1  0.3196713E+003  0.3633531E+02  0.7546771E-02  0.1371411E+00
          2   -1    0    0  501    0  0.00000000000E+00  0.00000000000E+00  0.54454974451E+03  0.54454974451E+03  0.00000000000E+00 0.  1.
         -2   -1    0    0    0  501 -0.00000000000E+00 -0.00000000000E+00 -0.69393211081E+01  0.69393211081E+01  0.00000000000E+00 0.  1.
          2    1    1    2  502    0  0.33149703703E+02 -0.14877899121E+02  0.49122285361E+03  0.49256486542E+03  0.00000000000E+00 0.  1.
         -2    1    1    2    0  502 -0.33149703703E+02  0.14877899121E+02  0.46387569797E+02  0.58924200202E+02  0.00000000000E+00 0.  1.
</event>
<event>
 4    1  0.3196713E+003  0.3062459E+02  0.7546771E-02  0.1414245E+00
          2   -1    0    0  501    0  0.00000000000E+00  0.00000000000E+00  0.98740372235E+03  0.98740372235E+03  0.00000000000E+00 0. -1.
         -2   -1    0    0    0  501 -0.00000000000E+00 -0.00000000000E+00 -0.80928551701E+01  0.80928551701E+01  0.00000000000E+00 0.  1.
          2    1    1    2  502    0  0.12437848226E+02  0.27985089020E+02  0.95728288088E+03  0.95777261356E+03  0.00000000000E+00 0. -1.
         -2    1    1    2    0  502 -0.12437848226E+02 -0.27985089020E+02  0.22027986305E+02  0.37723963957E+02  0.00000000000E+00 0.  1.
</event>
<event>
 4    1  0.3196713E+003  0.2303114E+02  0.7546771E-02  0.1492108E+00
          2   -1    0    0  501    0  0.00000000000E+00  0.00000000000E+00  0.24193656327E+03  0.24193656327E+03  0.00000000000E+00 0. -1.
         -2   -1    0    0    0  501 -0.00000000000E+00 -0.00000000000E+00 -0.28242120660E+01  0.28242120660E+01  0.00000000000E+00 0. -1.
          2    1    1    2  502    0 -0.11310218305E+02  0.20062707943E+02  0.17743779832E+03  0.17892625733E+03  0.00000000000E+00 0. -1.
         -2    1    1    2    0  502  0.11310218305E+02 -0.20062707943E+02  0.61674552879E+02  0.65834518005E+02  0.00000000000E+00 0. -1.
</event>
<event>
 4    1  0.3196713E+003  0.2054547E+02  0.7546771E-02  0.1525854E+00
          2   -1    0    0  501    0  0.00000000000E+00  0.00000000000E+00  0.27128950498E+03  0.27128950498E+03  0.00000000000E+00 0. -1.
         -2   -1    0    0    0  501 -0.00000000000E+00 -0.00000000000E+00 -0.44577018103E+03  0.44577018103E+03  0.00000000000E+00 0. -1.
          2    1    1    2  502    0 -0.20475533122E+02  0.16937536837E+01  0.27066323317E+03  0.27144189443E+03  0.00000000000E+00 0. -1.
         -2    1    1    2    0  502  0.20475533122E+02 -0.16937536837E+01 -0.44514390922E+03  0.44561779159E+03  0.00000000000E+00 0. -1.
</event>
<event>
 4    1  0.3196713E+003  0.3727290E+02  0.7546771E-02  0.1365253E+00
          2   -1    0    0  501    0  0.00000000000E+00  0.00000000000E+00  0.64817937285E+03  0.64817937285E+03  0.00000000000E+00 0.  1.
         -2   -1    0    0    0  501 -0.00000000000E+00 -0.00000000000E+00 -0.93153574167E+02  0.93153574167E+02  0.00000000000E+00 0. -1.
          2    1    1    2  502    0 -0.37143017409E+02  0.31089169378E+01  0.64389028512E+03  0.64496819176E+03  0.00000000000E+00 0.  1.
         -2    1    1    2    0  502  0.37143017409E+02 -0.31089169378E+01 -0.88864486436E+02  0.96364755260E+02  0.00000000000E+00 0. -1.
</event>
<event>
 4    1  0.3196713E+003  0.3170052E+02  0.7546771E-02  0.1405373E+00
          2   -1    0    0  501    0  0.00000000000E+00  0.00000000000E+00  0.80140872105E+02  0.80140872105E+02  0.00000000000E+00 0. -1.
         -2   -1    0    0    0  501 -0.00000000000E+00 -0.00000000000E+00 -0.33294792231E+02  0.33294792231E+02  0.00000000000E+00 0. -1.
          2    1    1    2  502    0  0.26464680679E+02 -0.17451172382E+02  0.68204307371E+02  0.75211370716E+02  0.00000000000E+00 0. -1.
         -2    1    1    2    0  502 -0.26464680679E+02  0.17451172382E+02 -0.21358227497E+02  0.38224293620E+02  0.00000000000E+00 0. -1.
</event>
<event>
 4    1  0.3196713E+003  0.3423385E+02  0.7546771E-02  0.1386031E+00
          2   -1    0    0  501    0  0.00000000000E+00  0.00000000000E+00  0.23424993520E+02  0.23424993520E+02  0.00000000000E+00 0. -1.
         -2   -1    0    0    0  501 -0.00000000000E+00 -0.00000000000E+00 -0.10294364812E+03  0.10294364812E+03  0.00000000000E+00 0. -1.
          2    1    1    2  502    0 -0.23743960427E+02  0.24661324304E+02  0.55400956790E+01  0.34679233460E+02  0.00000000000E+00 0. -1.
         -2    1    1    2    0  502  0.23743960427E+02 -0.24661324304E+02 -0.85058750276E+02  0.91689408176E+02  0.00000000000E+00 0. -1.
</event>
<event>
 4    1  0.3196713E+003  0.2287181E+02  0.7546771E-02  0.1494114E+00
          2   -1    0    0  501    0  0.00000000000E+00  0.00000000000E+00  0.10395513969E+04  0.10395513969E+04  0.00000000000E+00 0. -1.
         -2   -1    0    0    0  501 -0.00000000000E+00 -0.00000000000E+00 -0.52631393506E+00  0.52631393506E+00  0.00000000000E+00 0.  1.
          2    1    1    2  502    0  0.16025497367E+02  0.16318802425E+02  0.62845346433E+03  0.62886952280E+03  0.00000000000E+00 0. -1.
         -2    1    1    2    0  502 -0.16025497367E+02 -0.16318802425E+02  0.41057161862E+03  0.41120818802E+03  0.00000000000E+00 0.  1.
</event>
<event>
 4    1  0.3196713E+003  0.2546040E+02  0.7546771E-02  0.1463718E+00
          2   -1    0    0  501    0  0.00000000000E+00  0.00000000000E+00  0.28588025534E+03  0.28588025534E+03  0.00000000000E+00 0.  1.
         -2   -1    0    0    0  501 -0.00000000000E+00 -0.00000000000E+00 -0.30717722696E+01  0.30717722696E+01  0.00000000000E+00 0.  1.
          2    1    1    2  502    0 -0.22864011409E+02 -0.11201295784E+02  0.21533142232E+03  0.21683139414E+03  0.00000000000E+00 0.  1.
         -2    1    1    2    0  502  0.22864011409E+02  0.11201295784E+02  0.67477060746E+02  0.72120633469E+02  0.00000000000E+00 0.  1.
</event>
<event>
 4    1  0.3196713E+003  0.2022871E+02  0.7546771E-02  0.1530568E+00
          2   -1    0    0  501    0  0.00000000000E+00  0.00000000000E+00  0.60584214402E+03  0.60584214402E+03  0.00000000000E+00 0.  1.
         -2   -1    0    0    0  501 -0.00000000000E+00 -0.00000000000E+00 -0.15044981654E+03  0.15044981654E+03  0.00000000000E+00 0. -1.
          2    1    1    2  502    0 -0.98471319275E+01 -0.17670159641E+02  0.60499237126E+03  0.60533046333E+03  0.00000000000E+00 0.  1.
         -2    1    1    2    0  502  0.98471319275E+01  0.17670159641E+02 -0.14960004378E+03  0.15096149723E+03  0.00000000000E+00 0. -1.
</event>
<event>
 4    1  0.3196713E+003  0.2717819E+02  0.7546771E-02  0.1445826E+00
          2   -1    0    0  501    0  0.00000000000E+00  0.00000000000E+00  0.25397709467E+03  0.25397709467E+03  0.00000000000E+00 0. -1.
         -2   -1    0    0    0  501 -0.00000000000E+00 -0.00000000000E+00 -0.41919684743E+02  0.41919684743E+02  0.00000000000E+00 0. -1.
          2    1    1    2  502    0  0.65408521581E+01  0.26379375377E+02  0.24875258556E+03  0.25023289755E+03  0.00000000000E+00 0. -1.
         -2    1    1    2    0  502 -0.65408521581E+01 -0.26379375377E+02 -0.36695175634E+02  0.45663881866E+02  0.00000000000E+00 0. -1.
</event>
<event>
 4    1  0.3196713E+003  0.2564358E+02  0.7546771E-02  0.1461731E+00
          2   -1    0    0  501    0  0.00000000000E+00  0.00000000000E+00  0.76847263917E+02  0.76847263917E+02  0.00000000000E+00 0. -1.
         -2   -1    0    0    0  501 -0.00000000000E+00 -0.00000000000E+00 -0.16191903475E+02  0.16191903475E+02  0.00000000000E+00 0.  1.
          2    1    1    2  502    0 -0.25422835563E+02 -0.33575113306E+01  0.62271321329E+02  0.67344717019E+02  0.00000000000E+00 0. -1.
         -2    1    1    2    0  502  0.25422835563E+02  0.33575113306E+01 -0.16159608871E+01  0.25694450373E+02  0.00000000000E+00 0.  1.
</event>
<event>
 4    1  0.3196713E+003  0.2746165E+02  0.7546771E-02  0.1443025E+00
          2   -1    0    0  501    0  0.00000000000E+00  0.00000000000E+00  0.18710175042E+04  0.18710175042E+04  0.00000000000E+00 0.  1.
         -2   -1    0    0    0  501 -0.00000000000E+00 -0.00000000000E+00 -0.80588738782E+00  0.80588738782E+00  0.00000000000E+00 0. -1.
          2    1    1    2  502    0  0.27243470382E+02 -0.34548110345E+01  0.15967953725E+04  0.15970314975E+04  0.00000000000E+00 0.  1.
         -2    1    1    2    0  502 -0.27243470382E+02  0.34548110345E+01  0.27341624429E+03  0.27479189406E+03  0.00000000000E+00 0. -1.
</event>
<event>
 4    1  0.3196713E+003  0.3222362E+02  0.7546771E-02  0.1401208E+00
          2   -1    0    0  501    0  0.00000000000E+00  0.00000000000E+00  0.10199315936E+04  0.10199315936E+04  0.00000000000E+00 0. -1.
         -2   -1    0    0    0  501 -0.00000000000E+00 -0.00000000000E+00 -0.26163913508E+01  0.26163913508E+01  0.00000000000E+00 0.  1.
          2    1    1    2  502    0  0.23383722265E+02 -0.22171228281E+02  0.90826579970E+03  0.90883723776E+03  0.00000000000E+00 0. -1.
         -2    1    1    2    0  502 -0.23383722265E+02  0.22171228281E+02  0.10904940250E+03  0.11371074714E+03  0.00000000000E+00 0.  1.
</event>
<event>
 4    1  0.3196713E+003  0.4048611E+02  0.7546771E-02  0.1345661E+00
          2   -1    0    0  501    0  0.00000000000E+00  0.00000000000E+00  0.16955390245E+03  0.16955390245E+03  0.00000000000E+00 0. -1.
         -2   -1    0    0    0  501 -0.00000000000E+00 -0.00000000000E+00 -0.15674985741E+02  0.15674985741E+02  0.00000000000E+00 0. -1.
          2    1    1    2  502    0 -0.32375363791E+01  0.40356457805E+02  0.13427572539E+03  0.14024655346E+03  0.00000000000E+00 0. -1.
         -2    1    1    2    0  502  0.32375363791E+01 -0.40356457805E+02  0.19603191327E+02  0.44982334740E+02  0.00000000000E+00 0. -1.
</event>
<event>
 4    1  0.3196713E+003  0.2633723E+02  0.7546771E-02  0.1454382E+00
          2   -1    0    0  501    0  0.00000000000E+00  0.00000000000E+00  0.60361679541E+02  0.60361679541E+02  0.00000000000E+00 0.  1.
         -2   -1    0    0    0  501 -0.00000000000E+00 -0.00000000000E+00 -0.23096772393E+02  0.23096772393E+02  0.00000000000E+00 0. -1.
          2    1    1    2  502    0  0.18600513902E+02  0.18645920564E+02  0.48211989057E+02  0.54936739619E+02  0.00000000000E+00 0.  1.
         -2    1    1    2    0  502 -0.18600513902E+02 -0.18645920564E+02 -0.10947081909E+02  0.28521712316E+02  0.00000000000E+00 0. -1.
</event>
<event>
 4    1  0.3196713E+003  0.2103116E+02  0.7546771E-02  0.1518820E+00
          2   -1    0    0  501    0  0.00000000000E+00  0.00000000000E+00  0.15201458141E+04  0.15201458141E+04  0.00000000000E+00 0. -1.
         -2   -1    0    0    0  501 -0.00000000000E+00 -0.00000000000E+00 -0.10194554990E+02  0.10194554990E+02  0.00000000000E+00 0. -1.
          2    1    1    2  502    0 -0.20828561282E+02  0.29121388605E+01  0.15091473172E+04  0.15092938530E+04  0.00000000000E+00 0. -1.
         -2    1    1    2    0  502  0.20828561282E+02 -0.29121388605E+01  0.80394187156E+00  0.21046516110E+02  0.00000000000E+00 0. -1.
</event>
<event>
 4    1  0.3196713E+003  0.2966489E+02  0.7546771E-02  0.1422531E+00
          2   -1    0    0  501    0  0.00000000000E+00  0.00000000000E+00  0.17343049408E+04  0.17343049408E+04  0.00000000000E+00 0. -1.
         -2   -1    0    0    0  501 -0.00000000000E+00 -0.00000000000E+00 -0.35947219980E+02  0.35947219980E+02  0.00000000000E+00 0.  1.
          2    1    1    2  502    0  0.29614242801E+02 -0.17327635274E+01  0.17280357618E+04  0.17282903691E+04  0.00000000000E+00 0. -1.
         -2    1    1    2    0  502 -0.29614242801E+02  0.17327635274E+01 -0.29678040973E+02  0.41961791693E+02  0.00000000000E+00 0.  1.
</event>
<event>
 4    1  0.3196713E+003  0.1237643E+03  0.7546771E-02  0.1128016E+00
          2   -1    0    0  501    0  0.00000000000E+00  0.00000000000E+00  0.28551180974E+03  0.28551180974E+03  0.00000000000E+00 0. -1.
         -2   -1    0    0    0  501 -0.00000000000E+00 -0.00000000000E+00 -0.79598090934E+02  0.79598090934E+02  0.00000000000E+00 0. -1.
          2    1    1    2  502    0  0.12029719674E+03  0.29089412811E+02  0.20718809807E+03  0.24133900941E+03  0.00000000000E+00 0. -1.
         -2    1    1    2    0  502 -0.12029719674E+03 -0.29089412811E+02 -0.12743792633E+01  0.12377089126E+03  0.00000000000E+00 0. -1.
</event>
<event>
 4    1  0.3196713E+003  0.2073931E+02  0.7546771E-02  0.1523020E+00
          2   -1    0    0  501    0  0.00000000000E+00  0.00000000000E+00  0.30368158135E+02  0.30368158135E+02  0.00000000000E+00 0. -1.
         -2   -1    0    0    0  501 -0.00000000000E+00 -0.00000000000E+00 -0.17110493432E+02  0.17110493432E+02  0.00000000000E+00 0. -1.
          2    1    1    2  502    0 -0.19834288792E+02 -0.60597061700E+01  0.16480904049E+02  0.26490361436E+02  0.00000000000E+00 0. -1.
         -2    1    1    2    0  502  0.19834288792E+02  0.60597061700E+01 -0.32232393458E+01  0.20988290131E+02  0.00000000000E+00 0. -1.
</event>
<event>
 4    1  0.3196713E+003  0.2441841E+02  0.7546771E-02  0.1475416E+00
          2   -1    0    0  501    0  0.00000000000E+00  0.00000000000E+00  0.17980286745E+04  0.17980286745E+04  0.00000000000E+00 0.  1.
         -2   -1    0    0    0  501 -0.00000000000E+00 -0.00000000000E+00 -0.33187555760E+00  0.33187555760E+00  0.00000000000E+00 0.  1.
          2    1    1    2  502    0 -0.19898100393E+02 -0.14153572797E+02  0.87378146256E+03  0.87412258999E+03  0.00000000000E+00 0.  1.
         -2    1    1    2    0  502  0.19898100393E+02  0.14153572797E+02  0.92391533643E+03  0.92423796011E+03  0.00000000000E+00 0.  1.
</event>
<event>
 4    1  0.3196713E+003  0.2203381E+02  0.7546771E-02  0.1505001E+00
          2   -1    0    0  501    0  0.00000000000E+00  0.00000000000E+00  0.14312069842E+03  0.14312069842E+03  0.00000000000E+00 0. -1.
         -2   -1    0    0    0  501 -0.00000000000E+00 -0.00000000000E+00 -0.37057058563E+02  0.37057058563E+02  0.00000000000E+00 0. -1.
          2    1    1    2  502    0 -0.16054361734E+02  0.15091260374E+02  0.13889843585E+03  0.14063521662E+03  0.00000000000E+00 0. -1.
         -2    1    1    2    0  502  0.16054361734E+02 -0.15091260374E+02 -0.32834795997E+02  0.39542540366E+02  0.00000000000E+00 0. -1.
</event>
<event>
 4    1  0.3196713E+003  0.2353921E+02  0.7546771E-02  0.1485836E+00
          2   -1    0    0  501    0  0.00000000000E+00  0.00000000000E+00  0.61320886081E+01  0.61320886081E+01  0.00000000000E+00 0.  1.
         -2   -1    0    0    0  501 -0.00000000000E+00 -0.00000000000E+00 -0.32105466188E+03  0.32105466188E+03  0.00000000000E+00 0. -1.
          2    1    1    2  502    0 -0.19998707214E+02  0.12415566419E+02 -0.18787255403E+02  0.30117362854E+02  0.00000000000E+00 0.  1.
         -2    1    1    2    0  502  0.19998707214E+02 -0.12415566419E+02 -0.29613531787E+03  0.29706938763E+03  0.00000000000E+00 0. -1.
</event>
<event>
 4    1  0.3196713E+003  0.3974678E+02  0.7546771E-02  0.1349976E+00
          2   -1    0    0  501    0  0.00000000000E+00  0.00000000000E+00  0.11552345115E+04  0.11552345115E+04  0.00000000000E+00 0.  1.
         -2   -1    0    0    0  501 -0.00000000000E+00 -0.00000000000E+00 -0.42627574314E+02  0.42627574314E+02  0.00000000000E+00 0. -1.
          2    1    1    2  502    0 -0.39034004026E+02 -0.74935371437E+01  0.11455491520E+04  0.11462384858E+04  0.00000000000E+00 0.  1.
         -2    1    1    2    0  502  0.39034004026E+02  0.74935371437E+01 -0.32942214799E+02  0.51623600079E+02  0.00000000000E+00 0. -1.
</event>
<event>
 4    1  0.3196713E+003  0.2033293E+02  0.7546771E-02  0.1529006E+00
          2   -1    0    0  501    0  0.00000000000E+00  0.00000000000E+00  0.19184338024E+02  0.19184338024E+02  0.00000000000E+00 0. -1.
         -2   -1    0    0    0  501 -0.00000000000E+00 -0.00000000000E+00 -0.97911023320E+02  0.97911023320E+02  0.00000000000E+00 0. -1.
          2    1    1    2  502    0 -0.18488477963E+02 -0.84619342100E+01  0.12341227393E+02  0.23785164316E+02  0.00000000000E+00 0. -1.
         -2    1    1    2    0  502  0.18488477963E+02  0.84619342100E+01 -0.91067912688E+02  0.93310197028E+02  0.00000000000E+00 0. -1.
</event>
<event>
 4    1  0.3196713E+003  0.6703335E+02  0.7546771E-02  0.1237642E+00
          2   -1    0    0  501    0  0.00000000000E+00  0.00000000000E+00  0.33855694391E+03  0.33855694391E+03  0.00000000000E+00 0.  1.
         -2   -1    0    0    0  501 -0.00000000000E+00 -0.00000000000E+00 -0.45213470541E+02  0.45213470541E+02  0.00000000000E+00 0.  1.
          2    1    1    2  502    0  0.67027030233E+02  0.92045323084E+00  0.30795235140E+03  0.31516364122E+03  0.00000000000E+00 0.  1.
         -2    1    1    2    0  502 -0.67027030233E+02 -0.92045323084E+00 -0.14608878027E+02  0.68606773232E+02  0.00000000000E+00 0.  1.
</event>
<event>
 4    1  0.3196713E+003  0.2252722E+02  0.7546771E-02  0.1498522E+00
          2   -1    0    0  501    0  0.00000000000E+00  0.00000000000E+00  0.38756194788E+03  0.38756194788E+03  0.00000000000E+00 0. -1.
         -2   -1    0    0    0  501 -0.00000000000E+00 -0.00000000000E+00 -0.13903763416E+01  0.13903763416E+01  0.00000000000E+00 0. -1.
          2    1    1    2  502    0  0.17043597512E+02  0.14730635135E+02  0.24001723372E+03  0.24107208115E+03  0.00000000000E+00 0. -1.
         -2    1    1    2    0  502 -0.17043597512E+02 -0.14730635135E+02  0.14615433782E+03  0.14788024308E+03  0.00000000000E+00 0. -1.
</event>
<event>
 4    1  0.3196713E+003  0.3461131E+02  0.7546771E-02  0.1383317E+00
          2   -1    0    0  501    0  0.00000000000E+00  0.00000000000E+00  0.11216313760E+04  0.11216313760E+04  0.00000000000E+00 0. -1.
         -2   -1    0    0    0  501 -0.00000000000E+00 -0.00000000000E+00 -0.33606099754E+02  0.33606099754E+02  0.00000000000E+00 0. -1.
          2    1    1    2  502    0  0.14286804702E+02  0.31525070690E+02  0.11123786102E+04  0.11129169400E+04  0.00000000000E+00 0. -1.
         -2    1    1    2    0  502 -0.14286804702E+02 -0.31525070690E+02 -0.24353333974E+02  0.42320535751E+02  0.00000000000E+00 0. -1.
</event>
<event>
 4    1  0.3196713E+003  0.2814932E+02  0.7546771E-02  0.1436392E+00
          2   -1    0    0  501    0  0.00000000000E+00  0.00000000000E+00  0.16443951586E+04  0.16443951586E+04  0.00000000000E+00 0.  1.
         -2   -1    0    0    0  501 -0.00000000000E+00 -0.00000000000E+00 -0.13260892297E+01  0.13260892297E+01  0.00000000000E+00 0. -1.
          2    1    1    2  502    0 -0.12696970783E+02  0.25123116333E+02  0.14780842679E+04  0.14783522879E+04  0.00000000000E+00 0.  1.
         -2    1    1    2    0  502  0.12696970783E+02 -0.25123116333E+02  0.16498480148E+03  0.16736895997E+03  0.00000000000E+00 0. -1.
</event>
<event>
 4    1  0.3196713E+003  0.2907954E+02  0.7546771E-02  0.1427767E+00
          2   -1    0    0  501    0  0.00000000000E+00  0.00000000000E+00  0.17125667624E+04  0.17125667624E+04  0.00000000000E+00 0. -1.
         -2   -1    0    0    0  501 -0.00000000000E+00 -0.00000000000E+00 -0.14204337906E+01  0.14204337906E+01  0.00000000000E+00 0. -1.
          2    1    1    2  502    0 -0.25055021479E+02 -0.14760277853E+02  0.15477664484E+04  0.15480395985E+04  0.00000000000E+00 0. -1.
         -2    1    1    2    0  502  0.25055021479E+02  0.14760277853E+02  0.16337988022E+03  0.16594759764E+03  0.00000000000E+00 0. -1.
</event>
<event>
 4    1  0.3196713E+003  0.2257247E+02  0.7546771E-02  0.1497938E+00
          2   -1    0    0  501    0  0.00000000000E+00  0.00000000000E+00  0.49256227392E+03  0.49256227392E+03  0.00000000000E+00 0. -1.
         -2   -1    0    0    0  501 -0.00000000000E+00 -0.00000000000E+00 -0.10750801753E+01  0.10750801753E+01  0.00000000000E+00 0. -1.
          2    1    1    2  502    0 -0.21306908057E+02 -0.74519878728E+01  0.29374348125E+03  0.29460948598E+03  0.00000000000E+00 0. -1.
         -2    1    1    2    0  502  0.21306908057E+02  0.74519878728E+01  0.19774371250E+03  0.19902786812E+03  0.00000000000E+00 0. -1.
</event>
<event>
 4    1  0.3196713E+003  0.2254587E+02  0.7546771E-02  0.1498281E+00
          2   -1    0    0  501    0  0.00000000000E+00  0.00000000000E+00  0.46170542513E+03  0.46170542513E+03  0.00000000000E+00 0.  1.
         -2   -1    0    0    0  501 -0.00000000000E+00 -0.00000000000E+00 -0.17116652421E+02  0.17116652421E+02  0.00000000000E+00 0.  1.
          2    1    1    2  502    0  0.22541503487E+02 -0.44358612004E+00  0.45387793510E+03  0.45443756020E+03  0.00000000000E+00 0.  1.
         -2    1    1    2    0  502 -0.22541503487E+02  0.44358612004E+00 -0.92891623989E+01  0.24384517346E+02  0.00000000000E+00 0.  1.
</event>
<event>
 4    1  0.3196713E+003  0.2628557E+02  0.7546771E-02  0.1454920E+00
          2   -1    0    0  501    0  0.00000000000E+00  0.00000000000E+00  0.29526839019E+03  0.29526839019E+03  0.00000000000E+00 0. -1.
         -2   -1    0    0    0  501 -0.00000000000E+00 -0.00000000000E+00 -0.79261967736E+01  0.79261967736E+01  0.00000000000E+00 0. -1.
          2    1    1    2  502    0  0.48611467801E+01 -0.25832158963E+02  0.27093836512E+03  0.27221044961E+03  0.00000000000E+00 0. -1.
         -2    1    1    2    0  502 -0.48611467801E+01  0.25832158963E+02  0.16403828300E+02  0.30984137354E+02  0.00000000000E+00 0. -1.
</event>
<event>
 4    1  0.3196713E+003  0.2155147E+02  0.7546771E-02  0.1511535E+00
          2   -1    0    0  501    0  0.00000000000E+00  0.00000000000E+00  0.62675220596E+03  0.62675220596E+03  0.00000000000E+00 0.  1.
         -2   -1    0    0    0  501 -0.00000000000E+00 -0.00000000000E+00 -0.84060618196E+01  0.84060618196E+01  0.00000000000E+00 0.  1.
          2    1    1    2  502    0  0.21474403373E+02 -0.18209191816E+01  0.61243059713E+03  0.61280967849E+03  0.00000000000E+00 0.  1.
         -2    1    1    2    0  502 -0.21474403373E+02  0.18209191816E+01  0.59155470091E+01  0.22348589291E+02  0.00000000000E+00 0.  1.
</event>
<event>
 4    1  0.3196713E+003  0.2281117E+02  0.7546771E-02  0.1494883E+00
          2   -1    0    0  501    0  0.00000000000E+00  0.00000000000E+00  0.16920270878E+03  0.16920270878E+03  0.00000000000E+00 0. -1.
         -2   -1    0    0    0  501 -0.00000000000E+00 -0.00000000000E+00 -0.92594278579E+01  0.92594278579E+01  0.00000000000E+00 0. -1.
          2    1    1    2  502    0  0.96785356412E+01  0.20656125993E+02  0.15289440793E+03  0.15458670567E+03  0.00000000000E+00 0. -1.
         -2    1    1    2    0  502 -0.96785356412E+01 -0.20656125993E+02  0.70488729831E+01  0.23875430960E+02  0.00000000000E+00 0. -1.
</event>
<event>
 4    1  0.3196713E+003  0.3039361E+02  0.7546771E-02  0.1416206E+00
          2   -1    0    0  501    0  0.00000000000E+00  0.00000000000E+00  0.68811229104E+03  0.68811229104E+03  0.00000000000E+00 0.  1.
         -2   -1    0    0    0  501 -0.00000000000E+00 -0.00000000000E+00 -0.10919610293E+02  0.10919610293E+02  0.00000000000E+00 0.  1.
          2    1    1    2  502    0  0.21827030351E+02 -0.21150701223E+02  0.66592294994E+03  0.66661619143E+03  0.00000000000E+00 0.  1.
         -2    1    1    2    0  502 -0.21827030351E+02  0.21150701223E+02  0.11269730807E+02  0.32415709905E+02  0.00000000000E+00 0.  1.
</event>
<event>
 4    1  0.3196713E+003  0.3024226E+02  0.7546771E-02  0.1417503E+00
          2   -1    0    0  501    0  0.00000000000E+00  0.00000000000E+00  0.69038940622E+03  0.69038940622E+03  0.00000000000E+00 0.  1.
         -2   -1    0    0    0  501 -0.00000000000E+00 -0.00000000000E+00 -0.16021129724E+01  0.16021129724E+01  0.00000000000E+00 0.  1.
          2    1    1    2  502    0 -0.18704950464E+02  0.23763794561E+02  0.20043135659E+03  0.20270007846E+03  0.00000000000E+00 0.  1.
         -2    1    1    2    0  502  0.18704950464E+02 -0.23763794561E+02  0.48835593666E+03  0.48929144074E+03  0.00000000000E+00 0.  1.
</event>
<event>
 4    1  0.3196713E+003  0.2462103E+02  0.7546771E-02  0.1473088E+00
          2   -1    0    0  501    0  0.00000000000E+00  0.00000000000E+00  0.21148014667E+02  0.21148014667E+02  0.00000000000E+00 0.  1.
         -2   -1    0    0    0  501 -0.00000000000E+00 -0.00000000000E+00 -0.32097311297E+02  0.32097311297E+02  0.00000000000E+00 0. -1.
          2    1    1    2  502    0  0.77612918938E+01 -0.23365729187E+02  0.32319609437E+01  0.24832247660E+02  0.00000000000E+00 0.  1.
         -2    1    1    2    0  502 -0.77612918938E+01  0.23365729187E+02 -0.14181257574E+02  0.28413078303E+02  0.00000000000E+00 0. -1.
</event>
<event>
 4    1  0.3196713E+003  0.2671018E+02  0.7546771E-02  0.1450541E+00
          2   -1    0    0  501    0  0.00000000000E+00  0.00000000000E+00  0.89486101281E+03  0.89486101281E+03  0.00000000000E+00 0.  1.
         -2   -1    0    0    0  501 -0.00000000000E+00 -0.00000000000E+00 -0.18398360481E+01  0.18398360481E+01  0.00000000000E+00 0. -1.
          2    1    1    2  502    0 -0.23384575640E+02  0.12907182193E+02  0.78401746875E+03  0.78447232267E+03  0.00000000000E+00 0.  1.
         -2    1    1    2    0  502  0.23384575640E+02 -0.12907182193E+02  0.10900370801E+03  0.11222852619E+03  0.00000000000E+00 0. -1.
</event>
<event>
 4    1  0.3196713E+003  0.2803252E+02  0.7546771E-02  0.1437503E+00
          2   -1    0    0  501    0  0.00000000000E+00  0.00000000000E+00  0.13951386254E+04  0.13951386254E+04  0.00000000000E+00 0.  1.
         -2   -1    0    0    0  501 -0.00000000000E+00 -0.00000000000E+00 -0.12115674795E+01  0.12115674795E+01  0.00000000000E+00 0. -1.
          2    1    1    2  502    0 -0.27212680864E+02  0.67299332823E+01  0.12076824802E+04  0.12080077794E+04  0.00000000000E+00 0.  1.
         -2    1    1    2    0  502  0.27212680864E+02 -0.67299332823E+01  0.18624457773E+03  0.18834241354E+03  0.00000000000E+00 0. -1.
</event>
<event>
 4    1  0.3196713E+003  0.2457966E+02  0.7546771E-02  0.1473561E+00
          2   -1    0    0  501    0  0.00000000000E+00  0.00000000000E+00  0.22796902699E+03  0.22796902699E+03  0.00000000000E+00 0.  1.
         -2   -1    0    0    0  501 -0.00000000000E+00 -0.00000000000E+00 -0.25917226439E+02  0.25917226439E+02  0.00000000000E+00 0.  1.
          2    1    1    2  502    0 -0.24082512502E+02 -0.49185451728E+01  0.22130371689E+03  0.22266453378E+03  0.00000000000E+00 0.  1.
         -2    1    1    2    0  502  0.24082512502E+02  0.49185451728E+01 -0.19251916338E+02  0.31221719647E+02  0.00000000000E+00 0.  1.
</event>
<event>
 4    1  0.3196713E+003  0.2762052E+02  0.7546771E-02  0.1441473E+00
          2   -1    0    0  501    0  0.00000000000E+00  0.00000000000E+00  0.14221302778E+04  0.14221302778E+04  0.00000000000E+00 0. -1.
         -2   -1    0    0    0  501 -0.00000000000E+00 -0.00000000000E+00 -0.53665760908E+00  0.53665760908E+00  0.00000000000E+00 0.  1.
          2    1    1    2  502    0  0.44980010273E+01  0.27251807952E+02  0.72499329519E+03  0.72551924242E+03  0.00000000000E+00 0. -1.
         -2    1    1    2    0  502 -0.44980010273E+01 -0.27251807952E+02  0.69660032498E+03  0.69714769297E+03  0.00000000000E+00 0.  1.
</event>
<event>
 4    1  0.3196713E+003  0.2341987E+02  0.7546771E-02  0.1487292E+00
          2   -1    0    0  501    0  0.00000000000E+00  0.00000000000E+00  0.29699463285E+02  0.29699463285E+02  0.00000000000E+00 0. -1.
         -2   -1    0    0    0  501 -0.00000000000E+00 -0.00000000000E+00 -0.25052015430E+02  0.25052015430E+02  0.00000000000E+00 0.  1.
          2    1    1    2  502    0 -0.59084106136E+01 -0.22662330286E+02  0.16357967413E+02  0.28567002430E+02  0.00000000000E+00 0. -1.
         -2    1    1    2    0  502  0.59084106136E+01  0.22662330286E+02 -0.11710519557E+02  0.26184476284E+02  0.00000000000E+00 0.  1.
</event>
<event>
 4    1  0.3196713E+003  0.2318016E+02  0.7546771E-02  0.1490248E+00
          2   -1    0    0  501    0  0.00000000000E+00  0.00000000000E+00  0.74546100729E+02  0.74546100729E+02  0.00000000000E+00 0. -1.
         -2   -1    0    0    0  501 -0.00000000000E+00 -0.00000000000E+00 -0.26611008780E+03  0.26611008780E+03  0.00000000000E+00 0. -1.
          2    1    1    2  502    0  0.22068099187E+02 -0.70935857483E+01  0.72223502119E+02  0.75852186645E+02  0.00000000000E+00 0. -1.
         -2    1    1    2    0  502 -0.22068099187E+02  0.70935857483E+01 -0.26378748919E+03  0.26480400189E+03  0.00000000000E+00 0. -1.
</event>
<event>
 4    1  0.3196713E+003  0.3811025E+02  0.7546771E-02  0.1359930E+00
          2   -1    0    0  501    0  0.00000000000E+00  0.00000000000E+00  0.62320719886E+02  0.62320719886E+02  0.00000000000E+00 0.  1.
         -2   -1    0    0    0  501 -0.00000000000E+00 -0.00000000000E+00 -0.10424614967E+03  0.10424614967E+03  0.00000000000E+00 0.  1.
          2    1    1    2  502    0  0.35616084561E+02 -0.13560440747E+02  0.52423250925E+02  0.64811945429E+02  0.00000000000E+00 0.  1.
         -2    1    1    2    0  502 -0.35616084561E+02  0.13560440747E+02 -0.94348680711E+02  0.10175492413E+03  0.00000000000E+00 0.  1.
</event>
<event>
 4    1  0.3196713E+003  0.2210744E+02  0.7546771E-02  0.1504021E+00
          2   -1    0    0  501    0  0.00000000000E+00  0.00000000000E+00  0.18973668417E+03  0.18973668417E+03  0.00000000000E+00 0.  1.
         -2   -1    0    0    0  501 -0.00000000000E+00 -0.00000000000E+00 -0.32600780502E+01  0.32600780502E+01  0.00000000000E+00 0.  1.
          2    1    1    2  502    0 -0.13182746511E+02  0.17746952065E+02  0.13744587256E+03  0.13921245274E+03  0.00000000000E+00 0.  1.
         -2    1    1    2    0  502  0.13182746511E+02 -0.17746952065E+02  0.49030733553E+02  0.53784309477E+02  0.00000000000E+00 0.  1.
</event>
<event>
 4    1  0.3196713E+003  0.2476231E+02  0.7546771E-02  0.1471480E+00
          2   -1    0    0  501    0  0.00000000000E+00  0.00000000000E+00  0.46778081053E+03  0.46778081053E+03  0.00000000000E+00 0.  1.
         -2   -1    0    0    0  501 -0.00000000000E+00 -0.00000000000E+00 -0.88004047592E+01  0.88004047592E+01  0.00000000000E+00 0. -1.
          2    1    1    2  502    0 -0.18852322781E+02  0.16054969500E+02  0.44931907873E+03  0.45000089625E+03  0.00000000000E+00 0.  1.
         -2    1    1    2    0  502  0.18852322781E+02 -0.16054969500E+02  0.96613270448E+01  0.26580319038E+02  0.00000000000E+00 0. -1.
</event>
<event>
 4    1  0.3196713E+003  0.2454235E+02  0.7546771E-02  0.1473989E+00
          2   -1    0    0  501    0  0.00000000000E+00  0.00000000000E+00  0.69148725432E+03  0.69148725432E+03  0.00000000000E+00 0. -1.
         -2   -1    0    0    0  501 -0.00000000000E+00 -0.00000000000E+00 -0.33209295515E+01  0.33209295515E+01  0.00000000000E+00 0.  1.
          2    1    1    2  502    0 -0.14522605791E+02 -0.19784359632E+02  0.64246787461E+03  0.64293646410E+03  0.00000000000E+00 0. -1.
         -2    1    1    2    0  502  0.14522605791E+02  0.19784359632E+02  0.45698450158E+02  0.51871719769E+02  0.00000000000E+00 0.  1.
</event>
<event>
 4    1  0.3196713E+003  0.2044790E+02  0.7546771E-02  0.1527295E+00
          2   -1    0    0  501    0  0.00000000000E+00  0.00000000000E+00  0.22603092385E+04  0.22603092385E+04  0.00000000000E+00 0. -1.
         -2   -1    0    0    0  501 -0.00000000000E+00 -0.00000000000E+00 -0.18610344451E+00  0.18610344451E+00  0.00000000000E+00 0.  1.
          2    1    1    2  502    0  0.19427095631E+02  0.63799672756E+01  0.10423154646E+04  0.10425160161E+04  0.00000000000E+00 0. -1.
         -2    1    1    2    0  502 -0.19427095631E+02 -0.63799672756E+01  0.12178076705E+04  0.12179793259E+04  0.00000000000E+00 0.  1.
</event>
<event>
 4    1  0.3196713E+003  0.2233292E+02  0.7546771E-02  0.1501049E+00
          2   -1    0    0  501    0  0.00000000000E+00  0.00000000000E+00  0.19597720214E+02  0.19597720214E+02  0.00000000000E+00 0.  1.
         -2   -1    0    0    0  501 -0.00000000000E+00 -0.00000000000E+00 -0.10300798347E+03  0.10300798347E+03  0.00000000000E+00 0. -1.
          2    1    1    2  502    0 -0.21037740784E+02 -0.74948531119E+01  0.11488404839E+02  0.25114593491E+02  0.00000000000E+00 0.  1.
         -2    1    1    2    0  502  0.21037740784E+02  0.74948531119E+01 -0.94898668094E+02  0.97491110193E+02  0.00000000000E+00 0. -1.
</event>
<event>
 4    1  0.3196713E+003  0.2628955E+02  0.7546771E-02  0.1454878E+00
          2   -1    0    0  501    0  0.00000000000E+00  0.00000000000E+00  0.87769320238E+03  0.87769320238E+03  0.00000000000E+00 0. -1.
         -2   -1    0    0    0  501 -0.00000000000E+00 -0.00000000000E+00 -0.11226376516E+02  0.11226376516E+02  0.00000000000E+00 0. -1.
          2    1    1    2  502    0 -0.81519783287E+01 -0.24993709905E+02  0.86182197457E+03  0.86222285758E+03  0.00000000000E+00 0. -1.
         -2    1    1    2    0  502  0.81519783287E+01  0.24993709905E+02  0.46448512966E+01  0.26696721316E+02  0.00000000000E+00 0. -1.
</event>
<event>
 4    1  0.3196713E+003  0.2287095E+02  0.7546771E-02  0.1494125E+00
          2   -1    0    0  501    0  0.00000000000E+00  0.00000000000E+00  0.72645866181E+02  0.72645866181E+02  0.00000000000E+00 0. -1.
         -2   -1    0    0    0  501 -0.00000000000E+00 -0.00000000000E+00 -0.17556442069E+02  0.17556442069E+02  0.00000000000E+00 0. -1.
          2    1    1    2  502    0 -0.75612597887E+01  0.21584893132E+02  0.62183766284E+02  0.66256328379E+02  0.00000000000E+00 0. -1.
         -2    1    1    2    0  502  0.75612597887E+01 -0.21584893132E+02 -0.70943421718E+01  0.23945979870E+02  0.00000000000E+00 0. -1.
</event>
<event>
 4    1  0.3196713E+003  0.3322839E+02  0.7546771E-02  0.1393465E+00
          2   -1    0    0  501    0  0.00000000000E+00  0.00000000000E+00  0.16892114281E+02  0.16892114281E+02  0.00000000000E+00 0.  1.
         -2   -1    0    0    0  501 -0.00000000000E+00 -0.00000000000E+00 -0.43791401487E+03  0.43791401487E+03  0.00000000000E+00 0.  1.
          2    1    1    2  502    0 -0.31777722430E+02 -0.97109242093E+01 -0.76453626558E+00  0.33237181101E+02  0.00000000000E+00 0.  1.
         -2    1    1    2    0  502  0.31777722430E+02  0.97109242093E+01 -0.42025736432E+03  0.42156894805E+03  0.00000000000E+00 0.  1.
</event>
<event>
 4    1  0.3196713E+003  0.3341403E+02  0.7546771E-02  0.1392069E+00
          2   -1    0    0  501    0  0.00000000000E+00  0.00000000000E+00  0.51832874454E+03  0.51832874454E+03  0.00000000000E+00 0. -1.
         -2   -1    0    0    0  501 -0.00000000000E+00 -0.00000000000E+00 -0.36812815598E+01  0.36812815598E+01  0.00000000000E+00 0.  1.
          2    1    1    2  502    0  0.30365077740E+02  0.13944869454E+02  0.42543784048E+03  0.42674799758E+03  0.00000000000E+00 0. -1.
         -2    1    1    2    0  502 -0.30365077740E+02 -0.13944869454E+02  0.89209622507E+02  0.95262028522E+02  0.00000000000E+00 0.  1.
</event>
<event>
 4    1  0.3196713E+003  0.2328658E+02  0.7546771E-02  0.1488931E+00
          2   -1    0    0  501    0  0.00000000000E+00  0.00000000000E+00  0.33522985526E+03  0.33522985526E+03  0.00000000000E+00 0.  1.
         -2   -1    0    0    0  501 -0.00000000000E+00 -0.00000000000E+00 -0.57869039104E+03  0.57869039104E+03  0.00000000000E+00 0.  1.
          2    1    1    2  502    0 -0.64847807016E+01  0.22365433455E+02  0.33459074656E+03  0.33540010835E+03  0.00000000000E+00 0.  1.
         -2    1    1    2    0  502  0.64847807016E+01 -0.22365433455E+02 -0.57805128235E+03  0.57852013795E+03  0.00000000000E+00 0.  1.
</event>
<event>
 4    1  0.3196713E+003  0.2066357E+02  0.7546771E-02  0.1524123E+00
          2   -1    0    0  501    0  0.00000000000E+00  0.00000000000E+00  0.13219546385E+04  0.13219546385E+04  0.00000000000E+00 0. -1.
         -2   -1    0    0    0  501 -0.00000000000E+00 -0.00000000000E+00 -0.49171916641E+00  0.49171916641E+00  0.00000000000E+00 0. -1.
          2    1    1    2  502    0  0.78144031322E+01 -0.19128993856E+02  0.10480600405E+04  0.10482637224E+04  0.00000000000E+00 0. -1.
         -2    1    1    2    0  502 -0.78144031322E+01  0.19128993856E+02  0.27340287885E+03  0.27418263524E+03  0.00000000000E+00 0. -1.
</event>
<event>
 4    1  0.3196713E+003  0.2290939E+02  0.7546771E-02  0.1493639E+00
          2   -1    0    0  501    0  0.00000000000E+00  0.00000000000E+00  0.31608285185E+01  0.31608285185E+01  0.00000000000E+00 0.  1.
         -2   -1    0    0    0  501 -0.00000000000E+00 -0.00000000000E+00 -0.25417322415E+03  0.25417322415E+03  0.00000000000E+00 0.  1.
          2    1    1    2  502    0 -0.21631006738E+02 -0.75458422619E+01 -0.49742781486E+02  0.54764810763E+02  0.00000000000E+00 0.  1.
         -2    1    1    2    0  502  0.21631006738E+02  0.75458422619E+01 -0.20126961415E+03  0.20256924191E+03  0.00000000000E+00 0.  1.
</event>
<event>
 4    1  0.3196713E+003  0.2033070E+02  0.7546771E-02  0.1529039E+00
          2   -1    0    0  501    0  0.00000000000E+00  0.00000000000E+00  0.21294746608E+03  0.21294746608E+03  0.00000000000E+00 0. -1.
         -2   -1    0    0    0  501 -0.00000000000E+00 -0.00000000000E+00 -0.30897899312E+01  0.30897899312E+01  0.00000000000E+00 0. -1.
          2    1    1    2  502    0  0.20277233094E+02  0.14735108447E+01  0.17079294736E+03  0.17199874501E+03  0.00000000000E+00 0. -1.
         -2    1    1    2    0  502 -0.20277233094E+02 -0.14735108447E+01  0.39064728794E+02  0.44038511009E+02  0.00000000000E+00 0. -1.
</event>
<event>
 4    1  0.3196713E+003  0.2003679E+02  0.7546771E-02  0.1533474E+00
          2   -1    0    0  501    0  0.00000000000E+00  0.00000000000E+00  0.12859753520E+04  0.12859753520E+04  0.00000000000E+00 0.  1.
         -2   -1    0    0    0  501 -0.00000000000E+00 -0.00000000000E+00 -0.36465749773E+00  0.36465749773E+00  0.00000000000E+00 0.  1.
          2    1    1    2  502    0  0.14802154361E+02 -0.13504392093E+02  0.39884661614E+03  0.39934959069E+03  0.00000000000E+00 0.  1.
         -2    1    1    2    0  502 -0.14802154361E+02  0.13504392093E+02  0.88676407838E+03  0.88699041882E+03  0.00000000000E+00 0.  1.
</event>
<event>
 4    1  0.3196713E+003  0.2061020E+02  0.7546771E-02  0.1524904E+00
          2   -1    0    0  501    0  0.00000000000E+00  0.00000000000E+00  0.17595499003E+01  0.17595499003E+01  0.00000000000E+00 0. -1.
         -2   -1    0    0    0  501 -0.00000000000E+00 -0.00000000000E+00 -0.36852989954E+03  0.36852989954E+03  0.00000000000E+00 0. -1.
          2    1    1    2  502    0 -0.15116100008E+02 -0.14010127522E+02 -0.74648825623E+02  0.77441767281E+02  0.00000000000E+00 0. -1.
         -2    1    1    2    0  502  0.15116100008E+02  0.14010127522E+02 -0.29212152402E+03  0.29284768216E+03  0.00000000000E+00 0. -1.
</event>
<event>
 4    1  0.3196713E+003  0.2942457E+02  0.7546771E-02  0.1424664E+00
          2   -1    0    0  501    0  0.00000000000E+00  0.00000000000E+00  0.28416680977E+02  0.28416680977E+02  0.00000000000E+00 0.  1.
         -2   -1    0    0    0  501 -0.00000000000E+00 -0.00000000000E+00 -0.61479181792E+02  0.61479181792E+02  0.00000000000E+00 0.  1.
          2    1    1    2  502    0 -0.38723952067E-01  0.29424542245E+02  0.15391728528E+02  0.33207084981E+02  0.00000000000E+00 0.  1.
         -2    1    1    2    0  502  0.38723952067E-01 -0.29424542245E+02 -0.48454229343E+02  0.56688777788E+02  0.00000000000E+00 0.  1.
</event>
<event>
 4    1  0.3196713E+003  0.3458679E+02  0.7546771E-02  0.1383492E+00
          2   -1    0    0  501    0  0.00000000000E+00  0.00000000000E+00  0.19532820178E+03  0.19532820178E+03  0.00000000000E+00 0.  1.
         -2   -1    0    0    0  501 -0.00000000000E+00 -0.00000000000E+00 -0.52151403369E+02  0.52151403369E+02  0.00000000000E+00 0. -1.
          2    1    1    2  502    0  0.28729252769E+02  0.19258141375E+02  0.18783581368E+03  0.19099355715E+03  0.00000000000E+00 0.  1.
         -2    1    1    2    0  502 -0.28729252769E+02 -0.19258141375E+02 -0.44659015265E+02  0.56486047997E+02  0.00000000000E+00 0. -1.
</event>
<event>
 4    1  0.3196713E+003  0.2218304E+02  0.7546771E-02  0.1503020E+00
          2   -1    0    0  501    0  0.00000000000E+00  0.00000000000E+00  0.11173223567E+04  0.11173223567E+04  0.00000000000E+00 0. -1.
         -2   -1    0    0    0  501 -0.00000000000E+00 -0.00000000000E+00 -0.84674623342E+01  0.84674623342E+01  0.00000000000E+00 0.  1.
          2    1    1    2  502    0  0.11459970313E+02  0.18993584147E+02  0.11024880157E+04  0.11027111643E+04  0.00000000000E+00 0. -1.
         -2    1    1    2    0  502 -0.11459970313E+02 -0.18993584147E+02  0.63668786343E+01  0.23078654681E+02  0.00000000000E+00 0.  1.
</event>
<event>
 4    1  0.3196713E+003  0.5508118E+02  0.7546771E-02  0.1277528E+00
          2   -1    0    0  501    0  0.00000000000E+00  0.00000000000E+00  0.82387673513E+03  0.82387673513E+03  0.00000000000E+00 0. -1.
         -2   -1    0    0    0  501 -0.00000000000E+00 -0.00000000000E+00 -0.74742693652E+02  0.74742693652E+02  0.00000000000E+00 0. -1.
          2    1    1    2  502    0  0.15919008562E+02 -0.52730654266E+02  0.81266836888E+03  0.81453288117E+03  0.00000000000E+00 0. -1.
         -2    1    1    2    0  502 -0.15919008562E+02  0.52730654266E+02 -0.63534327394E+02  0.84086547618E+02  0.00000000000E+00 0. -1.
</event>
<event>
 4    1  0.3196713E+003  0.3223965E+02  0.7546771E-02  0.1401082E+00
          2   -1    0    0  501    0  0.00000000000E+00  0.00000000000E+00  0.11168438185E+04  0.11168438185E+04  0.00000000000E+00 0. -1.
         -2   -1    0    0    0  501 -0.00000000000E+00 -0.00000000000E+00 -0.20906194167E+01  0.20906194167E+01  0.00000000000E+00 0.  1.
          2    1    1    2  502    0  0.31396216083E+02  0.73260716523E+01  0.14064165408E+03  0.14428953036E+03  0.00000000000E+00 0. -1.
         -2    1    1    2    0  502 -0.31396216083E+02 -0.73260716523E+01  0.97411154498E+03  0.97464490753E+03  0.00000000000E+00 0.  1.
</event>
<event>
 4    1  0.3196713E+003  0.2593532E+02  0.7546771E-02  0.1458606E+00
          2   -1    0    0  501    0  0.00000000000E+00  0.00000000000E+00  0.10153167876E+04  0.10153167876E+04  0.00000000000E+00 0.  1.
         -2   -1    0    0    0  501 -0.00000000000E+00 -0.00000000000E+00 -0.70378979449E+01  0.70378979449E+01  0.00000000000E+00 0.  1.
          2    1    1    2  502    0 -0.13269543597E+01 -0.25901348888E+02  0.99066312936E+03  0.99100256132E+03  0.00000000000E+00 0.  1.
         -2    1    1    2    0  502  0.13269543597E+01  0.25901348888E+02  0.17615760289E+02  0.31352124213E+02  0.00000000000E+00 0.  1.
</event>
<event>
 4    1  0.3196713E+003  0.2103610E+02  0.7546771E-02  0.1518750E+00
          2   -1    0    0  501    0  0.00000000000E+00  0.00000000000E+00  0.10253706414E+04  0.10253706414E+04  0.00000000000E+00 0. -1.
         -2   -1    0    0    0  501 -0.00000000000E+00 -0.00000000000E+00 -0.43319909792E+00  0.43319909792E+00  0.00000000000E+00 0. -1.
          2    1    1    2  502    0 -0.19045959241E+01  0.20949695082E+02  0.48099676560E+03  0.48145654604E+03  0.00000000000E+00 0. -1.
         -2    1    1    2    0  502  0.19045959241E+01 -0.20949695082E+02  0.54394067667E+03  0.54434729442E+03  0.00000000000E+00 0. -1.
</event>
<event>
 4    1  0.3196713E+003  0.8560176E+02  0.7546771E-02  0.1191407E+00
          2   -1    0    0  501    0  0.00000000000E+00  0.00000000000E+00  0.27248985551E+04  0.27248985551E+04  0.00000000000E+00 0. -1.
         -2   -1    0    0    0  501 -0.00000000000E+00 -0.00000000000E+00 -0.79477684860E+01  0.79477684860E+01  0.00000000000E+00 0. -1.
          2    1    1    2  502    0 -0.85438873355E+02  0.52782878352E+01  0.24699471619E+04  0.24714300807E+04  0.00000000000E+00 0. -1.
         -2    1    1    2    0  502  0.85438873355E+02 -0.52782878352E+01  0.24700362472E+03  0.26141624285E+03  0.00000000000E+00 0. -1.
</event>
<event>
 4    1  0.3196713E+003  0.2471754E+02  0.7546771E-02  0.1471988E+00
          2   -1    0    0  501    0  0.00000000000E+00  0.00000000000E+00  0.70493891817E+03  0.70493891817E+03  0.00000000000E+00 0.  1.
         -2   -1    0    0    0  501 -0.00000000000E+00 -0.00000000000E+00 -0.14128283165E+02  0.14128283165E+02  0.00000000000E+00 0.  1.
          2    1    1    2  502    0 -0.70426469656E+01 -0.23692991733E+02  0.69373685489E+03  0.69417705275E+03  0.00000000000E+00 0.  1.
         -2    1    1    2    0  502  0.70426469656E+01  0.23692991733E+02 -0.29262198876E+01  0.24890148581E+02  0.00000000000E+00 0.  1.
</event>
<event>
 4    1  0.3196713E+003  0.4361207E+02  0.7546771E-02  0.1328527E+00
          2   -1    0    0  501    0  0.00000000000E+00  0.00000000000E+00  0.65072994254E+03  0.65072994254E+03  0.00000000000E+00 0. -1.
         -2   -1    0    0    0  501 -0.00000000000E+00 -0.00000000000E+00 -0.33029277914E+01  0.33029277914E+01  0.00000000000E+00 0.  1.
          2    1    1    2  502    0 -0.36880126171E+02  0.23278081566E+02  0.43463936062E+03  0.43682191633E+03  0.00000000000E+00 0. -1.
         -2    1    1    2    0  502  0.36880126171E+02 -0.23278081566E+02  0.21278765413E+03  0.21721095400E+03  0.00000000000E+00 0.  1.
</event>
<event>
 4    1  0.3196713E+003  0.2443526E+02  0.7546771E-02  0.1475221E+00
          2   -1    0    0  501    0  0.00000000000E+00  0.00000000000E+00  0.33321741694E+03  0.33321741694E+03  0.00000000000E+00 0.  1.
         -2   -1    0    0    0  501 -0.00000000000E+00 -0.00000000000E+00 -0.83538468222E+01  0.83538468222E+01  0.00000000000E+00 0.  1.
          2    1    1    2  502    0 -0.18267580250E+02 -0.16228912231E+02  0.31379677772E+03  0.31474672324E+03  0.00000000000E+00 0.  1.
         -2    1    1    2    0  502  0.18267580250E+02  0.16228912231E+02  0.11066792395E+02  0.26824540524E+02  0.00000000000E+00 0.  1.
</event>
<event>
 4    1  0.3196713E+003  0.4365171E+02  0.7546771E-02  0.1328320E+00
          2   -1    0    0  501    0  0.00000000000E+00  0.00000000000E+00  0.10115583560E+04  0.10115583560E+04  0.00000000000E+00 0.  1.
         -2   -1    0    0    0  501 -0.00000000000E+00 -0.00000000000E+00 -0.30416306577E+03  0.30416306577E+03  0.00000000000E+00 0. -1.
          2    1    1    2  502    0 -0.10098363085E+02  0.42467578001E+02  0.10095181073E+04  0.10104614199E+04  0.00000000000E+00 0.  1.
         -2    1    1    2    0  502  0.10098363085E+02 -0.42467578001E+02 -0.30212281710E+03  0.30526000185E+03  0.00000000000E+00 0. -1.
</event>
<event>
 4    1  0.3196713E+003  0.2129714E+02  0.7546771E-02  0.1515064E+00
          2   -1    0    0  501    0  0.00000000000E+00  0.00000000000E+00  0.65202856989E+03  0.65202856989E+03  0.00000000000E+00 0. -1.
         -2   -1    0    0    0  501 -0.00000000000E+00 -0.00000000000E+00 -0.13193639767E+02  0.13193639767E+02  0.00000000000E+00 0.  1.
          2    1    1    2  502    0  0.21250062242E+02 -0.14153329493E+01  0.64314148557E+03  0.64349400834E+03  0.00000000000E+00 0. -1.
         -2    1    1    2    0  502 -0.21250062242E+02  0.14153329493E+01 -0.43065554448E+01  0.21728201316E+02  0.00000000000E+00 0.  1.
</event>
<event>
 4    1  0.3196713E+003  0.3693560E+02  0.7546771E-02  0.1367443E+00
          2   -1    0    0  501    0  0.00000000000E+00  0.00000000000E+00  0.10504336732E+03  0.10504336732E+03  0.00000000000E+00 0.  1.
         -2   -1    0    0    0  501 -0.00000000000E+00 -0.00000000000E+00 -0.22700047326E+02  0.22700047326E+02  0.00000000000E+00 0. -1.
          2    1    1    2  502    0  0.30422907064E+02 -0.20944788444E+02 -0.60796598451E+00  0.36940588244E+02  0.00000000000E+00 0.  1.
         -2    1    1    2    0  502 -0.30422907064E+02  0.20944788444E+02  0.82951285981E+02  0.90802826405E+02  0.00000000000E+00 0. -1.
</event>
<event>
 4    1  0.3196713E+003  0.2135022E+02  0.7546771E-02  0.1514323E+00
          2   -1    0    0  501    0  0.00000000000E+00  0.00000000000E+00  0.17165676146E+03  0.17165676146E+03  0.00000000000E+00 0.  1.
         -2   -1    0    0    0  501 -0.00000000000E+00 -0.00000000000E+00 -0.65071867893E+03  0.65071867893E+03  0.00000000000E+00 0. -1.
          2    1    1    2  502    0 -0.20014510844E+02 -0.74331181545E+01  0.17081690628E+03  0.17214600594E+03  0.00000000000E+00 0.  1.
         -2    1    1    2    0  502  0.20014510844E+02  0.74331181545E+01 -0.64987882374E+03  0.65022943446E+03  0.00000000000E+00 0. -1.
</event>
<event>
 4    1  0.3196713E+003  0.3353453E+02  0.7546771E-02  0.1391169E+00
          2   -1    0    0  501    0  0.00000000000E+00  0.00000000000E+00  0.19110434086E+04  0.19110434086E+04  0.00000000000E+00 0. -1.
         -2   -1    0    0    0  501 -0.00000000000E+00 -0.00000000000E+00 -0.24865621066E+01  0.24865621066E+01  0.00000000000E+00 0. -1.
          2    1    1    2  502    0 -0.14325596644E+02 -0.30320657361E+02  0.17902006239E+04  0.17905146854E+04  0.00000000000E+00 0. -1.
         -2    1    1    2    0  502  0.14325596644E+02  0.30320657361E+02  0.11835622266E+03  0.12301528533E+03  0.00000000000E+00 0. -1.
</event>
<event>
 4    1  0.3196713E+003  0.2138660E+02  0.7546771E-02  0.1513816E+00
          2   -1    0    0  501    0  0.00000000000E+00  0.00000000000E+00  0.32218876024E+03  0.32218876024E+03  0.00000000000E+00 0.  1.
         -2   -1    0    0    0  501 -0.00000000000E+00 -0.00000000000E+00 -0.21680459842E+01  0.21680459842E+01  0.00000000000E+00 0. -1.
          2    1    1    2  502    0 -0.18760481278E+02 -0.10267969334E+02  0.25529701252E+03  0.25619124001E+03  0.00000000000E+00 0.  1.
         -2    1    1    2    0  502  0.18760481278E+02  0.10267969334E+02  0.64723701734E+02  0.68165566221E+02  0.00000000000E+00 0. -1.
</event>
<event>
 4    1  0.3196713E+003  0.3626683E+02  0.7546771E-02  0.1371869E+00
          2   -1    0    0  501    0  0.00000000000E+00  0.00000000000E+00  0.19385326816E+04  0.19385326816E+04  0.00000000000E+00 0. -1.
         -2   -1    0    0    0  501 -0.00000000000E+00 -0.00000000000E+00 -0.20203816828E+01  0.20203816828E+01  0.00000000000E+00 0. -1.
          2    1    1    2  502    0  0.32049110018E+02 -0.16974609084E+02  0.17590019576E+04  0.17593757897E+04  0.00000000000E+00 0. -1.
         -2    1    1    2    0  502 -0.32049110018E+02  0.16974609084E+02  0.17751034238E+03  0.18117727357E+03  0.00000000000E+00 0. -1.
</event>
<event>
 4    1  0.3196713E+003  0.3732065E+02  0.7546771E-02  0.1364945E+00
          2   -1    0    0  501    0  0.00000000000E+00  0.00000000000E+00  0.27511739520E+04  0.27511739520E+04  0.00000000000E+00 0. -1.
         -2   -1    0    0    0  501 -0.00000000000E+00 -0.00000000000E+00 -0.84788889913E+02  0.84788889913E+02  0.00000000000E+00 0.  1.
          2    1    1    2  502    0 -0.33236391953E+02 -0.16975653550E+02  0.27469342867E+04  0.27471877995E+04  0.00000000000E+00 0. -1.
         -2    1    1    2    0  502  0.33236391953E+02  0.16975653550E+02 -0.80549224604E+02  0.88775042370E+02  0.00000000000E+00 0.  1.
</event>
<event>
 4    1  0.3196713E+003  0.2280413E+02  0.7546771E-02  0.1494972E+00
          2   -1    0    0  501    0  0.00000000000E+00  0.00000000000E+00  0.66820063787E+02  0.66820063787E+02  0.00000000000E+00 0.  1.
         -2   -1    0    0    0  501 -0.00000000000E+00 -0.00000000000E+00 -0.13270284145E+02  0.13270284145E+02  0.00000000000E+00 0. -1.
          2    1    1    2  502    0  0.16304993573E+02 -0.15942885425E+02  0.52526704304E+02  0.57263278601E+02  0.00000000000E+00 0.  1.
         -2    1    1    2    0  502 -0.16304993573E+02  0.15942885425E+02  0.10230753378E+01  0.22827069331E+02  0.00000000000E+00 0. -1.
</event>
<event>
 4    1  0.3196713E+003  0.5814735E+02  0.7546771E-02  0.1266261E+00
          2   -1    0    0  501    0  0.00000000000E+00  0.00000000000E+00  0.20127115261E+04  0.20127115261E+04  0.00000000000E+00 0.  1.
         -2   -1    0    0    0  501 -0.00000000000E+00 -0.00000000000E+00 -0.17351654223E+03  0.17351654223E+03  0.00000000000E+00 0.  1.
          2    1    1    2  502    0 -0.24359508211E+02  0.52798940794E+02  0.20074072292E+04  0.20082492120E+04  0.00000000000E+00 0.  1.
         -2    1    1    2    0  502  0.24359508211E+02 -0.52798940794E+02 -0.16821224535E+03  0.17797885626E+03  0.00000000000E+00 0.  1.
</event>
<event>
 4    1  0.3196713E+003  0.2047631E+02  0.7546771E-02  0.1526875E+00
          2   -1    0    0  501    0  0.00000000000E+00  0.00000000000E+00  0.14427751252E+04  0.14427751252E+04  0.00000000000E+00 0. -1.
         -2   -1    0    0    0  501 -0.00000000000E+00 -0.00000000000E+00 -0.42124255680E+03  0.42124255680E+03  0.00000000000E+00 0. -1.
          2    1    1    2  502    0 -0.19944257937E+02  0.46374373615E+01  0.14424535834E+04  0.14425989116E+04  0.00000000000E+00 0. -1.
         -2    1    1    2    0  502  0.19944257937E+02 -0.46374373615E+01 -0.42092101500E+03  0.42141877048E+03  0.00000000000E+00 0. -1.
</event>
<event>
 4    1  0.3196713E+003  0.2805271E+02  0.7546771E-02  0.1437311E+00
          2   -1    0    0  501    0  0.00000000000E+00  0.00000000000E+00  0.27443356677E+02  0.27443356677E+02  0.00000000000E+00 0. -1.
         -2   -1    0    0    0  501 -0.00000000000E+00 -0.00000000000E+00 -0.37523127953E+03  0.37523127953E+03  0.00000000000E+00 0. -1.
          2    1    1    2  502    0  0.23293232634E+02  0.15632658717E+02  0.19597262984E+02  0.34219985704E+02  0.00000000000E+00 0. -1.
         -2    1    1    2    0  502 -0.23293232634E+02 -0.15632658717E+02 -0.36738518583E+03  0.36845465050E+03  0.00000000000E+00 0. -1.
</event>
<event>
 4    1  0.3196713E+003  0.2687489E+02  0.7546771E-02  0.1448869E+00
          2   -1    0    0  501    0  0.00000000000E+00  0.00000000000E+00  0.18489268491E+03  0.18489268491E+03  0.00000000000E+00 0. -1.
         -2   -1    0    0    0  501 -0.00000000000E+00 -0.00000000000E+00 -0.11743536088E+02  0.11743536088E+02  0.00000000000E+00 0. -1.
          2    1    1    2  502    0  0.23430870966E+02  0.13162594918E+02  0.16689269698E+03  0.16904269261E+03  0.00000000000E+00 0. -1.
         -2    1    1    2    0  502 -0.23430870966E+02 -0.13162594918E+02  0.62564518383E+01  0.27593528386E+02  0.00000000000E+00 0. -1.
</event>
<event>
 4    1  0.3196713E+003  0.5422801E+02  0.7546771E-02  0.1280813E+00
          2   -1    0    0  501    0  0.00000000000E+00  0.00000000000E+00  0.40894016700E+03  0.40894016700E+03  0.00000000000E+00 0. -1.
         -2   -1    0    0    0  501 -0.00000000000E+00 -0.00000000000E+00 -0.66838457538E+02  0.66838457538E+02  0.00000000000E+00 0.  1.
          2    1    1    2  502    0 -0.41885776543E+02 -0.34442110933E+02  0.39577916775E+03  0.39947694165E+03  0.00000000000E+00 0. -1.
         -2    1    1    2    0  502  0.41885776543E+02  0.34442110933E+02 -0.53677458295E+02  0.76301682885E+02  0.00000000000E+00 0.  1.
</event>
<event>
 4    1  0.3196713E+003  0.8115358E+02  0.7546771E-02  0.1201195E+00
          2   -1    0    0  501    0  0.00000000000E+00  0.00000000000E+00  0.12896749390E+04  0.12896749390E+04  0.00000000000E+00 0.  1.
         -2   -1    0    0    0  501 -0.00000000000E+00 -0.00000000000E+00 -0.15792869406E+02  0.15792869406E+02  0.00000000000E+00 0.  1.
          2    1    1    2  502    0 -0.49462001178E+02 -0.64338281133E+02  0.11738713461E+04  0.11766732092E+04  0.00000000000E+00 0.  1.
         -2    1    1    2    0  502  0.49462001178E+02  0.64338281133E+02  0.10001072351E+03  0.12879459925E+03  0.00000000000E+00 0.  1.
</event>
<event>
 4    1  0.3196713E+003  0.2020264E+02  0.7546771E-02  0.1530960E+00
          2   -1    0    0  501    0  0.00000000000E+00  0.00000000000E+00  0.68275658407E+03  0.68275658407E+03  0.00000000000E+00 0.  1.
         -2   -1    0    0    0  501 -0.00000000000E+00 -0.00000000000E+00 -0.35991811736E+03  0.35991811736E+03  0.00000000000E+00 0.  1.
          2    1    1    2  502    0 -0.20202411976E+02  0.95321148176E-01  0.68232345653E+03  0.68262247683E+03  0.00000000000E+00 0.  1.
         -2    1    1    2    0  502  0.20202411976E+02 -0.95321148176E-01 -0.35948498982E+03  0.36005222460E+03  0.00000000000E+00 0.  1.
</event>
<event>
 4    1  0.3196713E+003  0.2239193E+02  0.7546771E-02  0.1500278E+00
          2   -1    0    0  501    0  0.00000000000E+00  0.00000000000E+00  0.11820106287E+04  0.11820106287E+04  0.00000000000E+00 0. -1.
         -2   -1    0    0    0  501 -0.00000000000E+00 -0.00000000000E+00 -0.18400472797E+02  0.18400472797E+02  0.00000000000E+00 0.  1.
          2    1    1    2  502    0  0.13457381216E+02 -0.17896855114E+02  0.11750519369E+04  0.11752652692E+04  0.00000000000E+00 0. -1.
         -2    1    1    2    0  502 -0.13457381216E+02  0.17896855114E+02 -0.11441780974E+02  0.25145832339E+02  0.00000000000E+00 0.  1.
</event>
<event>
 4    1  0.3196713E+003  0.2469067E+02  0.7546771E-02  0.1472294E+00
          2   -1    0    0  501    0  0.00000000000E+00  0.00000000000E+00  0.13252394728E+04  0.13252394728E+04  0.00000000000E+00 0.  1.
         -2   -1    0    0    0  501 -0.00000000000E+00 -0.00000000000E+00 -0.60271876330E+00  0.60271876330E+00  0.00000000000E+00 0. -1.
          2    1    1    2  502    0  0.11296969183E+02  0.21954667614E+02  0.98488798926E+03  0.98519743216E+03  0.00000000000E+00 0.  1.
         -2    1    1    2    0  502 -0.11296969183E+02 -0.21954667614E+02  0.33974876476E+03  0.34064475939E+03  0.00000000000E+00 0. -1.
</event>
<event>
 4    1  0.3196713E+003  0.2374033E+02  0.7546771E-02  0.1483405E+00
          2   -1    0    0  501    0  0.00000000000E+00  0.00000000000E+00  0.12144570333E+04  0.12144570333E+04  0.00000000000E+00 0.  1.
         -2   -1    0    0    0  501 -0.00000000000E+00 -0.00000000000E+00 -0.82376141489E+02  0.82376141489E+02  0.00000000000E+00 0.  1.
          2    1    1    2  502    0  0.99595979063E+01 -0.21550167930E+02  0.12126279772E+04  0.12128603441E+04  0.00000000000E+00 0.  1.
         -2    1    1    2    0  502 -0.99595979063E+01  0.21550167930E+02 -0.80547085365E+02  0.83972830660E+02  0.00000000000E+00 0.  1.
</event>
<event>
 4    1  0.3196713E+003  0.2075217E+02  0.7546771E-02  0.1522833E+00
          2   -1    0    0  501    0  0.00000000000E+00  0.00000000000E+00  0.19436211450E+03  0.19436211450E+03  0.00000000000E+00 0.  1.
         -2   -1    0    0    0  501 -0.00000000000E+00 -0.00000000000E+00 -0.22165466761E+01  0.22165466761E+01  0.00000000000E+00 0. -1.
          2    1    1    2  502    0  0.20590101208E+02 -0.25884478913E+01  0.94176419546E+02  0.96435731597E+02  0.00000000000E+00 0.  1.
         -2    1    1    2    0  502 -0.20590101208E+02  0.25884478913E+01  0.97969148278E+02  0.10014292958E+03  0.00000000000E+00 0. -1.
</event>
<event>
 4    1  0.3196713E+003  0.2367225E+02  0.7546771E-02  0.1484225E+00
          2   -1    0    0  501    0  0.00000000000E+00  0.00000000000E+00  0.62323463696E+03  0.62323463696E+03  0.00000000000E+00 0.  1.
         -2   -1    0    0    0  501 -0.00000000000E+00 -0.00000000000E+00 -0.23164387373E+01  0.23164387373E+01  0.00000000000E+00 0.  1.
          2    1    1    2  502    0  0.12024034162E+02 -0.20391122184E+02  0.55511351165E+03  0.55561802173E+03  0.00000000000E+00 0.  1.
         -2    1    1    2    0  502 -0.12024034162E+02  0.20391122184E+02  0.65804686576E+02  0.69933053965E+02  0.00000000000E+00 0.  1.
</event>
<event>
 4    1  0.3196713E+003  0.2279124E+02  0.7546771E-02  0.1495136E+00
          2   -1    0    0  501    0  0.00000000000E+00  0.00000000000E+00  0.57854120950E+02  0.57854120950E+02  0.00000000000E+00 0. -1.
         -2   -1    0    0    0  501 -0.00000000000E+00 -0.00000000000E+00 -0.38209783326E+03  0.38209783326E+03  0.00000000000E+00 0. -1.
          2    1    1    2  502    0  0.14925769547E+01 -0.22742311368E+02  0.55254283339E+02  0.59770196082E+02  0.00000000000E+00 0. -1.
         -2    1    1    2    0  502 -0.14925769547E+01  0.22742311368E+02 -0.37949799565E+03  0.38018175813E+03  0.00000000000E+00 0. -1.
</event>
<event>
 4    1  0.3196713E+003  0.2932948E+02  0.7546771E-02  0.1425514E+00
          2   -1    0    0  501    0  0.00000000000E+00  0.00000000000E+00  0.40389148313E+02  0.40389148313E+02  0.00000000000E+00 0. -1.
         -2   -1    0    0    0  501 -0.00000000000E+00 -0.00000000000E+00 -0.41210801584E+02  0.41210801584E+02  0.00000000000E+00 0. -1.
          2    1    1    2  502    0  0.27118605382E+02 -0.11171370312E+02  0.27949928933E+02  0.40514402376E+02  0.00000000000E+00 0. -1.
         -2    1    1    2    0  502 -0.27118605382E+02  0.11171370312E+02 -0.28771582205E+02  0.41085547521E+02  0.00000000000E+00 0. -1.
</event>
<event>
 4    1  0.3196713E+003  0.2345130E+02  0.7546771E-02  0.1486908E+00
          2   -1    0    0  501    0  0.00000000000E+00  0.00000000000E+00  0.73767875832E+03  0.73767875832E+03  0.00000000000E+00 0. -1.
         -2   -1    0    0    0  501 -0.00000000000E+00 -0.00000000000E+00 -0.18867493485E+02  0.18867493485E+02  0.00000000000E+00 0.  1.
          2    1    1    2  502    0 -0.22947060298E+02 -0.48369476173E+01  0.73012986689E+03  0.73050639023E+03  0.00000000000E+00 0. -1.
         -2    1    1    2    0  502  0.22947060298E+02  0.48369476173E+01 -0.11318602054E+02  0.26039861578E+02  0.00000000000E+00 0.  1.
</event>
<event>
 4    1  0.3196713E+003  0.3092495E+02  0.7546771E-02  0.1411725E+00
          2   -1    0    0  501    0  0.00000000000E+00  0.00000000000E+00  0.50359866837E+03  0.50359866837E+03  0.00000000000E+00 0.  1.
         -2   -1    0    0    0  501 -0.00000000000E+00 -0.00000000000E+00 -0.13634969190E+03  0.13634969190E+03  0.00000000000E+00 0. -1.
          2    1    1    2  502    0 -0.26650123226E+02 -0.15688316072E+02  0.50136260419E+03  0.50231545190E+03  0.00000000000E+00 0.  1.
         -2    1    1    2    0  502  0.26650123226E+02  0.15688316072E+02 -0.13411362772E+03  0.13763290838E+03  0.00000000000E+00 0. -1.
</event>
<event>
 4    1  0.3196713E+003  0.6499381E+02  0.7546771E-02  0.1243748E+00
          2   -1    0    0  501    0  0.00000000000E+00  0.00000000000E+00  0.52185035287E+03  0.52185035287E+03  0.00000000000E+00 0. -1.
         -2   -1    0    0    0  501 -0.00000000000E+00 -0.00000000000E+00 -0.18340749539E+02  0.18340749539E+02  0.00000000000E+00 0.  1.
          2    1    1    2  502    0  0.14728800584E+02  0.63302903908E+02  0.45363243584E+03  0.45826475105E+03  0.00000000000E+00 0. -1.
         -2    1    1    2    0  502 -0.14728800584E+02 -0.63302903908E+02  0.49877167491E+02  0.81926351357E+02  0.00000000000E+00 0.  1.
</event>
<event>
 4    1  0.3196713E+003  0.3172134E+02  0.7546771E-02  0.1405205E+00
          2   -1    0    0  501    0  0.00000000000E+00  0.00000000000E+00  0.16921054044E+04  0.16921054044E+04  0.00000000000E+00 0. -1.
         -2   -1    0    0    0  501 -0.00000000000E+00 -0.00000000000E+00 -0.18559633470E+02  0.18559633470E+02  0.00000000000E+00 0. -1.
          2    1    1    2  502    0 -0.26891355855E+02 -0.16825535945E+02  0.16782909825E+04  0.16785907380E+04  0.00000000000E+00 0. -1.
         -2    1    1    2    0  502  0.26891355855E+02  0.16825535945E+02 -0.47452115874E+01  0.32074299876E+02  0.00000000000E+00 0. -1.
</event>
<event>
 4    1  0.3196713E+003  0.2364414E+02  0.7546771E-02  0.1484564E+00
          2   -1    0    0  501    0  0.00000000000E+00  0.00000000000E+00  0.49060083501E+03  0.49060083501E+03  0.00000000000E+00 0. -1.
         -2   -1    0    0    0  501 -0.00000000000E+00 -0.00000000000E+00 -0.12586196938E+01  0.12586196938E+01  0.00000000000E+00 0. -1.
          2    1    1    2  502    0 -0.45758181309E+01 -0.23197143016E+02  0.32032540670E+03  0.32119684266E+03  0.00000000000E+00 0. -1.
         -2    1    1    2    0  502  0.45758181309E+01  0.23197143016E+02  0.16901680861E+03  0.17066261204E+03  0.00000000000E+00 0. -1.
</event>
<event>
 4    1  0.3196713E+003  0.3001261E+02  0.7546771E-02  0.1419487E+00
          2   -1    0    0  501    0  0.00000000000E+00  0.00000000000E+00  0.13141105408E+03  0.13141105408E+03  0.00000000000E+00 0.  1.
         -2   -1    0    0    0  501 -0.00000000000E+00 -0.00000000000E+00 -0.16850302663E+02  0.16850302663E+02  0.00000000000E+00 0.  1.
          2    1    1    2  502    0 -0.27511014434E+02 -0.11995875479E+02  0.11437602013E+03  0.11824817515E+03  0.00000000000E+00 0.  1.
         -2    1    1    2    0  502  0.27511014434E+02  0.11995875479E+02  0.18473128013E+00  0.30013181593E+02  0.00000000000E+00 0.  1.
</event>
<event>
 4    1  0.3196713E+003  0.2007676E+02  0.7546771E-02  0.1532866E+00
          2   -1    0    0  501    0  0.00000000000E+00  0.00000000000E+00  0.53682556558E+03  0.53682556558E+03  0.00000000000E+00 0.  1.
         -2   -1    0    0    0  501 -0.00000000000E+00 -0.00000000000E+00 -0.19382702522E+01  0.19382702522E+01  0.00000000000E+00 0.  1.
          2    1    1    2  502    0  0.17149570979E+02  0.10438790932E+02  0.47828863224E+03  0.47870982011E+03  0.00000000000E+00 0.  1.
         -2    1    1    2    0  502 -0.17149570979E+02 -0.10438790932E+02  0.56598663087E+02  0.60054015720E+02  0.00000000000E+00 0.  1.
</event>
<event>
 4    1  0.3196713E+003  0.2021775E+02  0.7546771E-02  0.1530733E+00
          2   -1    0    0  501    0  0.00000000000E+00  0.00000000000E+00  0.37770378458E+01  0.37770378458E+01  0.00000000000E+00 0.  1.
         -2   -1    0    0    0  501 -0.00000000000E+00 -0.00000000000E+00 -0.14844511413E+03  0.14844511413E+03  0.00000000000E+00 0.  1.
          2    1    1    2  502    0 -0.19803132191E+02  0.40735160262E+01 -0.32714975133E+02  0.38458122359E+02  0.00000000000E+00 0.  1.
         -2    1    1    2    0  502  0.19803132191E+02 -0.40735160262E+01 -0.11195310115E+03  0.11376402962E+03  0.00000000000E+00 0.  1.
</event>
<event>
 4    1  0.3196713E+003  0.2248079E+02  0.7546771E-02  0.1499123E+00
          2   -1    0    0  501    0  0.00000000000E+00  0.00000000000E+00  0.68187822923E+03  0.68187822923E+03  0.00000000000E+00 0.  1.
         -2   -1    0    0    0  501 -0.00000000000E+00 -0.00000000000E+00 -0.29158813123E+01  0.29158813123E+01  0.00000000000E+00 0.  1.
          2    1    1    2  502    0  0.19548437779E+02 -0.11101553103E+02  0.63517766305E+03  0.63557536889E+03  0.00000000000E+00 0.  1.
         -2    1    1    2    0  502 -0.19548437779E+02  0.11101553103E+02  0.43784684865E+02  0.49218741651E+02  0.00000000000E+00 0.  1.
</event>
<event>
 4    1  0.3196713E+003  0.2273464E+02  0.7546771E-02  0.1495857E+00
          2   -1    0    0  501    0  0.00000000000E+00  0.00000000000E+00  0.77426681213E+01  0.77426681213E+01  0.00000000000E+00 0. -1.
         -2   -1    0    0    0  501 -0.00000000000E+00 -0.00000000000E+00 -0.78897461478E+02  0.78897461478E+02  0.00000000000E+00 0. -1.
          2    1    1    2  502    0 -0.21884909523E+02  0.61574875056E+01 -0.18582986993E+02  0.29363094571E+02  0.00000000000E+00 0. -1.
         -2    1    1    2    0  502  0.21884909523E+02 -0.61574875056E+01 -0.52571806364E+02  0.57277035028E+02  0.00000000000E+00 0. -1.
</event>
<event>
 4    1  0.3196713E+003  0.2005232E+02  0.7546771E-02  0.1533237E+00
          2   -1    0    0  501    0  0.00000000000E+00  0.00000000000E+00  0.47064353052E+03  0.47064353052E+03  0.00000000000E+00 0.  1.
         -2   -1    0    0    0  501 -0.00000000000E+00 -0.00000000000E+00 -0.96121106837E+01  0.96121106837E+01  0.00000000000E+00 0.  1.
          2    1    1    2  502    0 -0.16972668523E+02  0.10678213223E+02  0.45972359816E+03  0.46016071369E+03  0.00000000000E+00 0.  1.
         -2    1    1    2    0  502  0.16972668523E+02 -0.10678213223E+02  0.13078216765E+01  0.20094927518E+02  0.00000000000E+00 0.  1.
</event>
<event>
 4    1  0.3196713E+003  0.2368859E+02  0.7546771E-02  0.1484028E+00
          2   -1    0    0  501    0  0.00000000000E+00  0.00000000000E+00  0.13091115330E+03  0.13091115330E+03  0.00000000000E+00 0.  1.
         -2   -1    0    0    0  501 -0.00000000000E+00 -0.00000000000E+00 -0.43066368572E+01  0.43066368572E+01  0.00000000000E+00 0.  1.
          2    1    1    2  502    0  0.15580006895E+02 -0.17844102592E+02  0.58677393147E+02  0.63278630506E+02  0.00000000000E+00 0.  1.
         -2    1    1    2    0  502 -0.15580006895E+02  0.17844102592E+02  0.67927123300E+02  0.71939159656E+02  0.00000000000E+00 0.  1.
</event>
<event>
 4    1  0.3196713E+003  0.2043738E+02  0.7546771E-02  0.1527451E+00
          2   -1    0    0  501    0  0.00000000000E+00  0.00000000000E+00  0.45090704903E+03  0.45090704903E+03  0.00000000000E+00 0.  1.
         -2   -1    0    0    0  501 -0.00000000000E+00 -0.00000000000E+00 -0.92637370275E+00  0.92637370275E+00  0.00000000000E+00 0.  1.
          2    1    1    2  502    0 -0.20341972272E+02  0.19725164818E+01  0.22662149230E+03  0.22754117744E+03  0.00000000000E+00 0.  1.
         -2    1    1    2    0  502  0.20341972272E+02 -0.19725164818E+01  0.22335918302E+03  0.22429224529E+03  0.00000000000E+00 0.  1.
</event>
<event>
 4    1  0.3196713E+003  0.2418301E+02  0.7546771E-02  0.1478154E+00
          2   -1    0    0  501    0  0.00000000000E+00  0.00000000000E+00  0.22838976602E+03  0.22838976602E+03  0.00000000000E+00 0.  1.
         -2   -1    0    0    0  501 -0.00000000000E+00 -0.00000000000E+00 -0.94452550504E+01  0.94452550504E+01  0.00000000000E+00 0. -1.
          2    1    1    2  502    0  0.12233783609E+02  0.20860314255E+02  0.21099879783E+03  0.21238010937E+03  0.00000000000E+00 0.  1.
         -2    1    1    2    0  502 -0.12233783609E+02 -0.20860314255E+02  0.79457131407E+01  0.25454911697E+02  0.00000000000E+00 0. -1.
</event>
<event>
 4    1  0.3196713E+003  0.2398780E+02  0.7546771E-02  0.1480453E+00
          2   -1    0    0  501    0  0.00000000000E+00  0.00000000000E+00  0.14109143643E+04  0.14109143643E+04  0.00000000000E+00 0.  1.
         -2   -1    0    0    0  501 -0.00000000000E+00 -0.00000000000E+00 -0.46902511368E+01  0.46902511368E+01  0.00000000000E+00 0. -1.
          2    1    1    2  502    0  0.23824610684E+02 -0.27933053690E+01  0.13794419157E+04  0.13796504678E+04  0.00000000000E+00 0.  1.
         -2    1    1    2    0  502 -0.23824610684E+02  0.27933053690E+01  0.26782197511E+02  0.35954147642E+02  0.00000000000E+00 0. -1.
</event>
<event>
 4    1  0.3196713E+003  0.2483227E+02  0.7546771E-02  0.1470689E+00
          2   -1    0    0  501    0  0.00000000000E+00  0.00000000000E+00  0.29634198816E+03  0.29634198816E+03  0.00000000000E+00 0. -1.
         -2   -1    0    0    0  501 -0.00000000000E+00 -0.00000000000E+00 -0.48695421447E+02  0.48695421447E+02  0.00000000000E+00 0. -1.
          2    1    1    2  502    0 -0.24638242342E+02  0.30981299361E+01  0.29261572726E+03  0.29366750796E+03  0.00000000000E+00 0. -1.
         -2    1    1    2    0  502  0.24638242342E+02 -0.30981299361E+01 -0.44969160545E+02  0.51369901644E+02  0.00000000000E+00 0. -1.
</event>
<event>
 4    1  0.3196713E+003  0.2225370E+02  0.7546771E-02  0.1502088E+00
          2   -1    0    0  501    0  0.00000000000E+00  0.00000000000E+00  0.16393370383E+01  0.16393370383E+01  0.00000000000E+00 0. -1.
         -2   -1    0    0    0  501 -0.00000000000E+00 -0.00000000000E+00 -0.58162773521E+03  0.58162773521E+03  0.00000000000E+00 0. -1.
          2    1    1    2  502    0 -0.37232753677E+01  0.21940021073E+02 -0.87815619400E+02  0.90591447250E+02  0.00000000000E+00 0. -1.
         -2    1    1    2    0  502  0.37232753677E+01 -0.21940021073E+02 -0.49217277877E+03  0.49267562500E+03  0.00000000000E+00 0. -1.
</event>
<event>
 4    1  0.3196713E+003  0.2028216E+02  0.7546771E-02  0.1529765E+00
          2   -1    0    0  501    0  0.00000000000E+00  0.00000000000E+00  0.42246901806E+02  0.42246901806E+02  0.00000000000E+00 0.  1.
         -2   -1    0    0    0  501 -0.00000000000E+00 -0.00000000000E+00 -0.15201310626E+02  0.15201310626E+02  0.00000000000E+00 0.  1.
          2    1    1    2  502    0  0.12111757288E+01  0.20245967201E+02  0.30744103153E+02  0.36831589882E+02  0.00000000000E+00 0.  1.
         -2    1    1    2    0  502 -0.12111757288E+01 -0.20245967201E+02 -0.36985119721E+01  0.20616622550E+02  0.00000000000E+00 0.  1.
</event>
<event>
 4    1  0.3196713E+003  0.3288311E+02  0.7546771E-02  0.1396089E+00
          2   -1    0    0  501    0  0.00000000000E+00  0.00000000000E+00  0.15391602510E+03  0.15391602510E+03  0.00000000000E+00 0.  1.
         -2   -1    0    0    0  501 -0.00000000000E+00 -0.00000000000E+00 -0.26861859853E+03  0.26861859853E+03  0.00000000000E+00 0. -1.
          2    1    1    2  502    0  0.32804760676E+02  0.22685993111E+01  0.15113505734E+03  0.15467095533E+03  0.00000000000E+00 0.  1.
         -2    1    1    2    0  502 -0.32804760676E+02 -0.22685993111E+01 -0.26583763077E+03  0.26786366831E+03  0.00000000000E+00 0. -1.
</event>
<event>
 4    1  0.3196713E+003  0.2661320E+02  0.7546771E-02  0.1451533E+00
          2   -1    0    0  501    0  0.00000000000E+00  0.00000000000E+00  0.15087072128E+04  0.15087072128E+04  0.00000000000E+00 0. -1.
         -2   -1    0    0    0  501 -0.00000000000E+00 -0.00000000000E+00 -0.42489063324E+03  0.42489063324E+03  0.00000000000E+00 0.  1.
          2    1    1    2  502    0  0.22965047622E+02 -0.13448760622E+02  0.15081729704E+04  0.15084077603E+04  0.00000000000E+00 0. -1.
         -2    1    1    2    0  502 -0.22965047622E+02  0.13448760622E+02 -0.42435639085E+03  0.42519008577E+03  0.00000000000E+00 0.  1.
</event>
<event>
 4    1  0.3196713E+003  0.3764640E+02  0.7546771E-02  0.1362858E+00
          2   -1    0    0  501    0  0.00000000000E+00  0.00000000000E+00  0.13991324346E+04  0.13991324346E+04  0.00000000000E+00 0.  1.
         -2   -1    0    0    0  501 -0.00000000000E+00 -0.00000000000E+00 -0.29565475058E+03  0.29565475058E+03  0.00000000000E+00 0. -1.
          2    1    1    2  502    0  0.32737791402E+02  0.18587328892E+02  0.13976795504E+04  0.13981864602E+04  0.00000000000E+00 0.  1.
         -2    1    1    2    0  502 -0.32737791402E+02 -0.18587328892E+02 -0.29420186648E+03  0.29660072492E+03  0.00000000000E+00 0. -1.
</event>
<event>
 4    1  0.3196713E+003  0.2930110E+02  0.7546771E-02  0.1425769E+00
          2   -1    0    0  501    0  0.00000000000E+00  0.00000000000E+00  0.79116721473E+03  0.79116721473E+03  0.00000000000E+00 0.  1.
         -2   -1    0    0    0  501 -0.00000000000E+00 -0.00000000000E+00 -0.23148077986E+02  0.23148077986E+02  0.00000000000E+00 0. -1.
          2    1    1    2  502    0  0.18741334126E+02 -0.22523695810E+02  0.78150895192E+03  0.78205805181E+03  0.00000000000E+00 0.  1.
         -2    1    1    2    0  502 -0.18741334126E+02  0.22523695810E+02 -0.13489815169E+02  0.32257240909E+02  0.00000000000E+00 0. -1.
</event>
<event>
 4    1  0.3196713E+003  0.2306324E+02  0.7546771E-02  0.1491706E+00
          2   -1    0    0  501    0  0.00000000000E+00  0.00000000000E+00  0.26963777806E+03  0.26963777806E+03  0.00000000000E+00 0.  1.
         -2   -1    0    0    0  501 -0.00000000000E+00 -0.00000000000E+00 -0.22099377838E+01  0.22099377838E+01  0.00000000000E+00 0.  1.
          2    1    1    2  502    0 -0.19049819314E+02  0.13000671533E+02  0.17824900087E+03  0.17973485858E+03  0.00000000000E+00 0.  1.
         -2    1    1    2    0  502  0.19049819314E+02 -0.13000671533E+02  0.89178839405E+02  0.92112857267E+02  0.00000000000E+00 0.  1.
</event>
<event>
 4    1  0.3196713E+003  0.7091851E+02  0.7546771E-02  0.1226662E+00
          2   -1    0    0  501    0  0.00000000000E+00  0.00000000000E+00  0.11365791208E+04  0.11365791208E+04  0.00000000000E+00 0. -1.
         -2   -1    0    0    0  501 -0.00000000000E+00 -0.00000000000E+00 -0.22211001106E+03  0.22211001106E+03  0.00000000000E+00 0. -1.
          2    1    1    2  502    0  0.59175349553E+02 -0.39085969430E+02  0.11297778364E+04  0.11320014994E+04  0.00000000000E+00 0. -1.
         -2    1    1    2    0  502 -0.59175349553E+02  0.39085969430E+02 -0.21530872659E+03  0.22668763254E+03  0.00000000000E+00 0. -1.
</event>
<event>
 4    1  0.3196713E+003  0.4469052E+02  0.7546771E-02  0.1322994E+00
          2   -1    0    0  501    0  0.00000000000E+00  0.00000000000E+00  0.11732939491E+03  0.11732939491E+03  0.00000000000E+00 0. -1.
         -2   -1    0    0    0  501 -0.00000000000E+00 -0.00000000000E+00 -0.19893038095E+02  0.19893038095E+02  0.00000000000E+00 0.  1.
          2    1    1    2  502    0  0.94378021477E+01 -0.43682612525E+02  0.74781166596E+02  0.87117539129E+02  0.00000000000E+00 0. -1.
         -2    1    1    2    0  502 -0.94378021477E+01  0.43682612525E+02  0.22655190216E+02  0.50104893874E+02  0.00000000000E+00 0.  1.
</event>
<event>
 4    1  0.3196713E+003  0.3043617E+02  0.7546771E-02  0.1415843E+00
          2   -1    0    0  501    0  0.00000000000E+00  0.00000000000E+00  0.61168942221E+03  0.61168942221E+03  0.00000000000E+00 0. -1.
         -2   -1    0    0    0  501 -0.00000000000E+00 -0.00000000000E+00 -0.31277659594E+02  0.31277659594E+02  0.00000000000E+00 0. -1.
          2    1    1    2  502    0 -0.97152135198E+01  0.28843973505E+02  0.60380992468E+03  0.60457653389E+03  0.00000000000E+00 0. -1.
         -2    1    1    2    0  502  0.97152135198E+01 -0.28843973505E+02 -0.23398162067E+02  0.38390547917E+02  0.00000000000E+00 0. -1.
</event>
<event>
 4    1  0.3196713E+003  0.2086390E+02  0.7546771E-02  0.1521217E+00
          2   -1    0    0  501    0  0.00000000000E+00  0.00000000000E+00  0.80857805558E+03  0.80857805558E+03  0.00000000000E+00 0. -1.
         -2   -1    0    0    0  501 -0.00000000000E+00 -0.00000000000E+00 -0.34555926899E+01  0.34555926899E+01  0.00000000000E+00 0. -1.
          2    1    1    2  502    0 -0.20482627209E+02  0.39704399790E+01  0.77561259371E+03  0.77589316142E+03  0.00000000000E+00 0. -1.
         -2    1    1    2    0  502  0.20482627209E+02 -0.39704399790E+01  0.29509869180E+02  0.36140486854E+02  0.00000000000E+00 0. -1.
</event>
<event>
 4    1  0.3196713E+003  0.2533674E+02  0.7546771E-02  0.1465071E+00
          2   -1    0    0  501    0  0.00000000000E+00  0.00000000000E+00  0.70897074408E+03  0.70897074408E+03  0.00000000000E+00 0. -1.
         -2   -1    0    0    0  501 -0.00000000000E+00 -0.00000000000E+00 -0.40592303877E+02  0.40592303877E+02  0.00000000000E+00 0.  1.
          2    1    1    2  502    0 -0.39947405294E+01 -0.25019845634E+02  0.70476715562E+03  0.70522244311E+03  0.00000000000E+00 0. -1.
         -2    1    1    2    0  502  0.39947405294E+01  0.25019845634E+02 -0.36388715422E+02  0.44340604839E+02  0.00000000000E+00 0.  1.
</event>
<event>
 4    1  0.3196713E+003  0.2310158E+02  0.7546771E-02  0.1491227E+00
          2   -1    0    0  501    0  0.00000000000E+00  0.00000000000E+00  0.13111595168E+02  0.13111595168E+02  0.00000000000E+00 0.  1.
         -2   -1    0    0    0  501 -0.00000000000E+00 -0.00000000000E+00 -0.66071838089E+02  0.66071838089E+02  0.00000000000E+00 0. -1.
          2    1    1    2  502    0  0.20413297054E+02 -0.10815733851E+02 -0.19474172401E+01  0.23183512013E+02  0.00000000000E+00 0.  1.
         -2    1    1    2    0  502 -0.20413297054E+02  0.10815733851E+02 -0.51012825681E+02  0.55999921244E+02  0.00000000000E+00 0. -1.
</event>
<event>
 4    1  0.3196713E+003  0.2219765E+02  0.7546771E-02  0.1502827E+00
          2   -1    0    0  501    0  0.00000000000E+00  0.00000000000E+00  0.16018135448E+04  0.16018135448E+04  0.00000000000E+00 0.  1.
         -2   -1    0    0    0  501 -0.00000000000E+00 -0.00000000000E+00 -0.51419107819E+00  0.51419107819E+00  0.00000000000E+00 0. -1.
          2    1    1    2  502    0 -0.11753966875E+02  0.18830296636E+02  0.13084618182E+04  0.13086500928E+04  0.00000000000E+00 0.  1.
         -2    1    1    2    0  502  0.11753966875E+02 -0.18830296636E+02  0.29283753554E+03  0.29367764305E+03  0.00000000000E+00 0. -1.
</event>
<event>
 4    1  0.3196713E+003  0.2592320E+02  0.7546771E-02  0.1458735E+00
          2   -1    0    0  501    0  0.00000000000E+00  0.00000000000E+00  0.28498093137E+03  0.28498093137E+03  0.00000000000E+00 0. -1.
         -2   -1    0    0    0  501 -0.00000000000E+00 -0.00000000000E+00 -0.28108690673E+01  0.28108690673E+01  0.00000000000E+00 0. -1.
          2    1    1    2  502    0 -0.24792431003E+02  0.75728136847E+01  0.19883727060E+03  0.20052000479E+03  0.00000000000E+00 0. -1.
         -2    1    1    2    0  502  0.24792431003E+02 -0.75728136847E+01  0.83332791697E+02  0.87271795639E+02  0.00000000000E+00 0. -1.
</event>
<event>
 4    1  0.3196713E+003  0.2628856E+02  0.7546771E-02  0.1454889E+00
          2   -1    0    0  501    0  0.00000000000E+00  0.00000000000E+00  0.31447020213E+02  0.31447020213E+02  0.00000000000E+00 0. -1.
         -2   -1    0    0    0  501 -0.00000000000E+00 -0.00000000000E+00 -0.31829461120E+02  0.31829461120E+02  0.00000000000E+00 0.  1.
          2    1    1    2  502    0 -0.26283949636E+02 -0.49228667062E+00  0.17411752925E+02  0.31531848892E+02  0.00000000000E+00 0. -1.
         -2    1    1    2    0  502  0.26283949636E+02  0.49228667062E+00 -0.17794193833E+02  0.31744632441E+02  0.00000000000E+00 0.  1.
</event>
<event>
 4    1  0.3196713E+003  0.2354137E+02  0.7546771E-02  0.1485810E+00
          2   -1    0    0  501    0  0.00000000000E+00  0.00000000000E+00  0.13772859035E+04  0.13772859035E+04  0.00000000000E+00 0. -1.
         -2   -1    0    0    0  501 -0.00000000000E+00 -0.00000000000E+00 -0.77830395896E+01  0.77830395896E+01  0.00000000000E+00 0.  1.
          2    1    1    2  502    0  0.50774170653E+01 -0.22987297519E+02  0.13591463428E+04  0.13593502040E+04  0.00000000000E+00 0. -1.
         -2    1    1    2    0  502 -0.50774170653E+01  0.22987297519E+02  0.10356521151E+02  0.25718739114E+02  0.00000000000E+00 0.  1.
</event>
<event>
 4    1  0.3196713E+003  0.2198099E+02  0.7546771E-02  0.1505706E+00
          2   -1    0    0  501    0  0.00000000000E+00  0.00000000000E+00  0.36724898046E+02  0.36724898046E+02  0.00000000000E+00 0.  1.
         -2   -1    0    0    0  501 -0.00000000000E+00 -0.00000000000E+00 -0.14482732164E+03  0.14482732164E+03  0.00000000000E+00 0. -1.
          2    1    1    2  502    0 -0.16842937316E+02  0.14123711650E+02  0.32503640738E+02  0.39238379546E+02  0.00000000000E+00 0.  1.
         -2    1    1    2    0  502  0.16842937316E+02 -0.14123711650E+02 -0.14060606433E+03  0.14231384013E+03  0.00000000000E+00 0. -1.
</event>
<event>
 4    1  0.3196713E+003  0.6514514E+02  0.7546771E-02  0.1243287E+00
          2   -1    0    0  501    0  0.00000000000E+00  0.00000000000E+00  0.46717145879E+03  0.46717145879E+03  0.00000000000E+00 0.  1.
         -2   -1    0    0    0  501 -0.00000000000E+00 -0.00000000000E+00 -0.21603316424E+02  0.21603316424E+02  0.00000000000E+00 0.  1.
          2    1    1    2  502    0 -0.11975205747E+02 -0.64035014459E+02  0.40882352505E+03  0.41398135618E+03  0.00000000000E+00 0.  1.
         -2    1    1    2    0  502  0.11975205747E+02  0.64035014459E+02  0.36744617318E+02  0.74793419037E+02  0.00000000000E+00 0.  1.
</event>
<event>
 4    1  0.3196713E+003  0.2285956E+02  0.7546771E-02  0.1494269E+00
          2   -1    0    0  501    0  0.00000000000E+00  0.00000000000E+00  0.87877117937E+03  0.87877117937E+03  0.00000000000E+00 0.  1.
         -2   -1    0    0    0  501 -0.00000000000E+00 -0.00000000000E+00 -0.14478168101E+02  0.14478168101E+02  0.00000000000E+00 0.  1.
          2    1    1    2  502    0  0.12567594624E+02  0.19094898782E+02  0.86950312106E+03  0.86980356238E+03  0.00000000000E+00 0.  1.
         -2    1    1    2    0  502 -0.12567594624E+02 -0.19094898782E+02 -0.52101097992E+01  0.23445785084E+02  0.00000000000E+00 0.  1.
</event>
<event>
 4    1  0.3196713E+003  0.4737446E+02  0.7546771E-02  0.1309976E+00
          2   -1    0    0  501    0  0.00000000000E+00  0.00000000000E+00  0.20429134132E+04  0.20429134132E+04  0.00000000000E+00 0.  1.
         -2   -1    0    0    0  501 -0.00000000000E+00 -0.00000000000E+00 -0.12275226771E+01  0.12275226771E+01  0.00000000000E+00 0.  1.
          2    1    1    2  502    0  0.29947625471E+02  0.36708022077E+02  0.13520772328E+04  0.13529069379E+04  0.00000000000E+00 0.  1.
         -2    1    1    2    0  502 -0.29947625471E+02 -0.36708022077E+02  0.68960865779E+03  0.69123399805E+03  0.00000000000E+00 0.  1.
</event>
<event>
 4    1  0.3196713E+003  0.2253283E+02  0.7546771E-02  0.1498449E+00
          2   -1    0    0  501    0  0.00000000000E+00  0.00000000000E+00  0.80035830699E+03  0.80035830699E+03  0.00000000000E+00 0. -1.
         -2   -1    0    0    0  501 -0.00000000000E+00 -0.00000000000E+00 -0.15758425883E+02  0.15758425883E+02  0.00000000000E+00 0.  1.
          2    1    1    2  502    0 -0.19671908494E+02 -0.10988377800E+02  0.79206047272E+03  0.79238091905E+03  0.00000000000E+00 0. -1.
         -2    1    1    2    0  502  0.19671908494E+02  0.10988377800E+02 -0.74605916149E+01  0.23735813821E+02  0.00000000000E+00 0.  1.
</event>
<event>
 4    1  0.3196713E+003  0.3130850E+02  0.7546771E-02  0.1408556E+00
          2   -1    0    0  501    0  0.00000000000E+00  0.00000000000E+00  0.61598124574E+03  0.61598124574E+03  0.00000000000E+00 0. -1.
         -2   -1    0    0    0  501 -0.00000000000E+00 -0.00000000000E+00 -0.20361336338E+01  0.20361336338E+01  0.00000000000E+00 0. -1.
          2    1    1    2  502    0  0.31185086253E+02  0.27771479143E+01  0.45140258120E+03  0.45248703017E+03  0.00000000000E+00 0. -1.
         -2    1    1    2    0  502 -0.31185086253E+02 -0.27771479143E+01  0.16254253090E+03  0.16553034920E+03  0.00000000000E+00 0. -1.
</event>
<event>
 4    1  0.3196713E+003  0.2417788E+02  0.7546771E-02  0.1478214E+00
          2   -1    0    0  501    0  0.00000000000E+00  0.00000000000E+00  0.31135223609E+01  0.31135223609E+01  0.00000000000E+00 0.  1.
         -2   -1    0    0    0  501 -0.00000000000E+00 -0.00000000000E+00 -0.43799756003E+03  0.43799756003E+03  0.00000000000E+00 0. -1.
          2    1    1    2  502    0 -0.22910547117E+02  0.77250672125E+01 -0.50730588036E+02  0.56197530151E+02  0.00000000000E+00 0.  1.
         -2    1    1    2    0  502  0.22910547117E+02 -0.77250672125E+01 -0.38415344963E+03  0.38491355224E+03  0.00000000000E+00 0. -1.
</event>
<event>
 4    1  0.3196713E+003  0.3829727E+02  0.7546771E-02  0.1358763E+00
          2   -1    0    0  501    0  0.00000000000E+00  0.00000000000E+00  0.15373646658E+04  0.15373646658E+04  0.00000000000E+00 0. -1.
         -2   -1    0    0    0  501 -0.00000000000E+00 -0.00000000000E+00 -0.46349822738E+01  0.46349822738E+01  0.00000000000E+00 0. -1.
          2    1    1    2  502    0 -0.51206907782E+01 -0.37953384944E+02  0.14534503043E+04  0.14539547682E+04  0.00000000000E+00 0. -1.
         -2    1    1    2    0  502  0.51206907782E+01  0.37953384944E+02  0.79279379302E+02  0.88044879949E+02  0.00000000000E+00 0. -1.
</event>
<event>
 4    1  0.3196713E+003  0.2111534E+02  0.7546771E-02  0.1517624E+00
          2   -1    0    0  501    0  0.00000000000E+00  0.00000000000E+00  0.14707598063E+04  0.14707598063E+04  0.00000000000E+00 0. -1.
         -2   -1    0    0    0  501 -0.00000000000E+00 -0.00000000000E+00 -0.77432504665E+00  0.77432504665E+00  0.00000000000E+00 0. -1.
          2    1    1    2  502    0 -0.21074843943E+02 -0.13071412754E+01  0.13089384647E+04  0.13091087664E+04  0.00000000000E+00 0. -1.
         -2    1    1    2    0  502  0.21074843943E+02  0.13071412754E+01  0.16104701651E+03  0.16242536499E+03  0.00000000000E+00 0. -1.
</event>
<event>
 4    1  0.3196713E+003  0.2472752E+02  0.7546771E-02  0.1471875E+00
          2   -1    0    0  501    0  0.00000000000E+00  0.00000000000E+00  0.13920063999E+04  0.13920063999E+04  0.00000000000E+00 0. -1.
         -2   -1    0    0    0  501 -0.00000000000E+00 -0.00000000000E+00 -0.31833228086E+02  0.31833228086E+02  0.00000000000E+00 0.  1.
          2    1    1    2  502    0  0.59459058713E+00  0.24720369468E+02  0.13870775425E+04  0.13872979345E+04  0.00000000000E+00 0. -1.
         -2    1    1    2    0  502 -0.59459058713E+00 -0.24720369468E+02 -0.26904370647E+02  0.36541693509E+02  0.00000000000E+00 0.  1.
</event>
<event>
 4    1  0.3196713E+003  0.2081911E+02  0.7546771E-02  0.1521863E+00
          2   -1    0    0  501    0  0.00000000000E+00  0.00000000000E+00  0.45906503838E+01  0.45906503838E+01  0.00000000000E+00 0.  1.
         -2   -1    0    0    0  501 -0.00000000000E+00 -0.00000000000E+00 -0.10336294425E+03  0.10336294425E+03  0.00000000000E+00 0. -1.
          2    1    1    2  502    0 -0.94480282044E+01 -0.18551824269E+02 -0.33506609105E+02  0.39447791755E+02  0.00000000000E+00 0.  1.
         -2    1    1    2    0  502  0.94480282044E+01  0.18551824269E+02 -0.65265684765E+02  0.68505802882E+02  0.00000000000E+00 0. -1.
</event>
<event>
 4    1  0.3196713E+003  0.2338901E+02  0.7546771E-02  0.1487670E+00
          2   -1    0    0  501    0  0.00000000000E+00  0.00000000000E+00  0.57200149693E+01  0.57200149693E+01  0.00000000000E+00 0. -1.
         -2   -1    0    0    0  501 -0.00000000000E+00 -0.00000000000E+00 -0.15908440448E+03  0.15908440448E+03  0.00000000000E+00 0.  1.
          2    1    1    2  502    0  0.19400692839E+02  0.13063646876E+02 -0.24642878977E+02  0.33975244468E+02  0.00000000000E+00 0. -1.
         -2    1    1    2    0  502 -0.19400692839E+02 -0.13063646876E+02 -0.12872151053E+03  0.13082917498E+03  0.00000000000E+00 0.  1.
</event>
<event>
 4    1  0.3196713E+003  0.2446831E+02  0.7546771E-02  0.1474840E+00
          2   -1    0    0  501    0  0.00000000000E+00  0.00000000000E+00  0.67516018005E+02  0.67516018005E+02  0.00000000000E+00 0.  1.
         -2   -1    0    0    0  501 -0.00000000000E+00 -0.00000000000E+00 -0.94531311107E+01  0.94531311107E+01  0.00000000000E+00 0.  1.
          2    1    1    2  502    0  0.19073658829E+00 -0.24467567926E+02  0.38610242849E+02  0.45710492379E+02  0.00000000000E+00 0.  1.
         -2    1    1    2    0  502 -0.19073658829E+00  0.24467567926E+02  0.19452644046E+02  0.31258656737E+02  0.00000000000E+00 0.  1.
</event>
<event>
 4    1  0.3196713E+003  0.2513982E+02  0.7546771E-02  0.1467245E+00
          2   -1    0    0  501    0  0.00000000000E+00  0.00000000000E+00  0.93023770160E+03  0.93023770160E+03  0.00000000000E+00 0.  1.
         -2   -1    0    0    0  501 -0.00000000000E+00 -0.00000000000E+00 -0.16024917795E+01  0.16024917795E+01  0.00000000000E+00 0. -1.
          2    1    1    2  502    0  0.16586442212E+02 -0.18891813012E+02  0.81793544479E+03  0.81832169867E+03  0.00000000000E+00 0.  1.
         -2    1    1    2    0  502 -0.16586442212E+02  0.18891813012E+02  0.11069976503E+03  0.11351849471E+03  0.00000000000E+00 0. -1.
</event>
<event>
 4    1  0.3196713E+003  0.2346667E+02  0.7546771E-02  0.1486720E+00
          2   -1    0    0  501    0  0.00000000000E+00  0.00000000000E+00  0.77811882851E+03  0.77811882851E+03  0.00000000000E+00 0. -1.
         -2   -1    0    0    0  501 -0.00000000000E+00 -0.00000000000E+00 -0.49049651546E+01  0.49049651546E+01  0.00000000000E+00 0.  1.
          2    1    1    2  502    0  0.99847515590E+01 -0.21236512316E+02  0.74877448291E+03  0.74914211668E+03  0.00000000000E+00 0. -1.
         -2    1    1    2    0  502 -0.99847515590E+01  0.21236512316E+02  0.24439380443E+02  0.33881676987E+02  0.00000000000E+00 0.  1.
</event>
<event>
 4    1  0.3196713E+003  0.2359817E+02  0.7546771E-02  0.1485120E+00
          2   -1    0    0  501    0  0.00000000000E+00  0.00000000000E+00  0.19110970862E+04  0.19110970862E+04  0.00000000000E+00 0.  1.
         -2   -1    0    0    0  501 -0.00000000000E+00 -0.00000000000E+00 -0.58957227636E+00  0.58957227636E+00  0.00000000000E+00 0.  1.
          2    1    1    2  502    0 -0.59987267361E+01  0.22822991799E+02  0.16350197653E+04  0.16351900521E+04  0.00000000000E+00 0.  1.
         -2    1    1    2    0  502  0.59987267361E+01 -0.22822991799E+02  0.27548774870E+03  0.27649660642E+03  0.00000000000E+00 0.  1.
</event>
<event>
 4    1  0.3196713E+003  0.1050224E+03  0.7546771E-02  0.1155379E+00
          2   -1    0    0  501    0  0.00000000000E+00  0.00000000000E+00  0.93821927799E+03  0.93821927799E+03  0.00000000000E+00 0. -1.
         -2   -1    0    0    0  501 -0.00000000000E+00 -0.00000000000E+00 -0.14016531152E+02  0.14016531152E+02  0.00000000000E+00 0. -1.
          2    1    1    2  502    0 -0.80908643670E+02  0.66958838523E+02  0.65330698351E+03  0.66169457409E+03  0.00000000000E+00 0. -1.
         -2    1    1    2    0  502  0.80908643670E+02 -0.66958838523E+02  0.27089576333E+03  0.29054123505E+03  0.00000000000E+00 0. -1.
</event>
<event>
 4    1  0.3196713E+003  0.2614675E+02  0.7546771E-02  0.1456373E+00
          2   -1    0    0  501    0  0.00000000000E+00  0.00000000000E+00  0.13810824582E+04  0.13810824582E+04  0.00000000000E+00 0. -1.
         -2   -1    0    0    0  501 -0.00000000000E+00 -0.00000000000E+00 -0.45066482247E+02  0.45066482247E+02  0.00000000000E+00 0. -1.
          2    1    1    2  502    0 -0.24471963265E+02  0.92073630782E+01  0.13771554251E+04  0.13774036146E+04  0.00000000000E+00 0. -1.
         -2    1    1    2    0  502  0.24471963265E+02 -0.92073630782E+01 -0.41139449141E+02  0.48745325894E+02  0.00000000000E+00 0. -1.
</event>
<event>
 4    1  0.3196713E+003  0.3901772E+02  0.7546771E-02  0.1354340E+00
          2   -1    0    0  501    0  0.00000000000E+00  0.00000000000E+00  0.30026942093E+01  0.30026942093E+01  0.00000000000E+00 0. -1.
         -2   -1    0    0    0  501 -0.00000000000E+00 -0.00000000000E+00 -0.57757124729E+03  0.57757124729E+03  0.00000000000E+00 0. -1.
          2    1    1    2  502    0  0.16096135048E+02  0.35542890743E+02 -0.18581803767E+03  0.18987028669E+03  0.00000000000E+00 0. -1.
         -2    1    1    2    0  502 -0.16096135048E+02 -0.35542890743E+02 -0.38875051541E+03  0.39070365481E+03  0.00000000000E+00 0. -1.
</event>
<event>
 4    1  0.3196713E+003  0.2479298E+02  0.7546771E-02  0.1471133E+00
          2   -1    0    0  501    0  0.00000000000E+00  0.00000000000E+00  0.14945061438E+02  0.14945061438E+02  0.00000000000E+00 0.  1.
         -2   -1    0    0    0  501 -0.00000000000E+00 -0.00000000000E+00 -0.22125431873E+03  0.22125431873E+03  0.00000000000E+00 0.  1.
          2    1    1    2  502    0  0.12677497816E+02  0.21306645397E+02  0.34040722477E+01  0.25025582846E+02  0.00000000000E+00 0.  1.
         -2    1    1    2    0  502 -0.12677497816E+02 -0.21306645397E+02 -0.20971332953E+03  0.21117379732E+03  0.00000000000E+00 0.  1.
</event>
<event>
 4    1  0.3196713E+003  0.3097945E+02  0.7546771E-02  0.1411272E+00
          2   -1    0    0  501    0  0.00000000000E+00  0.00000000000E+00  0.30230434716E+03  0.30230434716E+03  0.00000000000E+00 0. -1.
         -2   -1    0    0    0  501 -0.00000000000E+00 -0.00000000000E+00 -0.11387771079E+03  0.11387771079E+03  0.00000000000E+00 0.  1.
          2    1    1    2  502    0 -0.26639549404E+02 -0.15813310700E+02  0.29938324562E+03  0.30098181696E+03  0.00000000000E+00 0. -1.
         -2    1    1    2    0  502  0.26639549404E+02  0.15813310700E+02 -0.11095660925E+03  0.11520024099E+03  0.00000000000E+00 0.  1.
</event>
<event>
 4    1  0.3196713E+003  0.2156659E+02  0.7546771E-02  0.1511327E+00
          2   -1    0    0  501    0  0.00000000000E+00  0.00000000000E+00  0.59142629238E+02  0.59142629238E+02  0.00000000000E+00 0.  1.
         -2   -1    0    0    0  501 -0.00000000000E+00 -0.00000000000E+00 -0.14635762530E+03  0.14635762530E+03  0.00000000000E+00 0. -1.
          2    1    1    2  502    0  0.14909219602E+02  0.15583098084E+02  0.56343940576E+02  0.60330402076E+02  0.00000000000E+00 0.  1.
         -2    1    1    2    0  502 -0.14909219602E+02 -0.15583098084E+02 -0.14355893664E+03  0.14516985246E+03  0.00000000000E+00 0. -1.
</event>
<event>
 4    1  0.3196713E+003  0.2078377E+02  0.7546771E-02  0.1522375E+00
          2   -1    0    0  501    0  0.00000000000E+00  0.00000000000E+00  0.96447912939E+03  0.96447912939E+03  0.00000000000E+00 0.  1.
         -2   -1    0    0    0  501 -0.00000000000E+00 -0.00000000000E+00 -0.23980631149E+01  0.23980631149E+01  0.00000000000E+00 0.  1.
          2    1    1    2  502    0  0.16779220340E+02  0.12264706980E+02  0.91700326235E+03  0.91723876305E+03  0.00000000000E+00 0.  1.
         -2    1    1    2    0  502 -0.16779220340E+02 -0.12264706980E+02  0.45077803927E+02  0.49638429462E+02  0.00000000000E+00 0.  1.
</event>
<event>
 4    1  0.3196713E+003  0.3097579E+02  0.7546771E-02  0.1411302E+00
          2   -1    0    0  501    0  0.00000000000E+00  0.00000000000E+00  0.19547189994E+04  0.19547189994E+04  0.00000000000E+00 0. -1.
         -2   -1    0    0    0  501 -0.00000000000E+00 -0.00000000000E+00 -0.17018116076E+01  0.17018116076E+01  0.00000000000E+00 0. -1.
          2    1    1    2  502    0  0.21446252221E+02  0.22350789036E+02  0.18016708764E+04  0.18019371372E+04  0.00000000000E+00 0. -1.
         -2    1    1    2    0  502 -0.21446252221E+02 -0.22350789036E+02  0.15134631135E+03  0.15448367378E+03  0.00000000000E+00 0. -1.
</event>
<event>
 4    1  0.3196713E+003  0.2427670E+02  0.7546771E-02  0.1477060E+00
          2   -1    0    0  501    0  0.00000000000E+00  0.00000000000E+00  0.10629613412E+04  0.10629613412E+04  0.00000000000E+00 0. -1.
         -2   -1    0    0    0  501 -0.00000000000E+00 -0.00000000000E+00 -0.93502805791E+00  0.93502805791E+00  0.00000000000E+00 0. -1.
          2    1    1    2  502    0 -0.22311238407E+02 -0.95690447494E+01  0.87038779666E+03  0.87072629141E+03  0.00000000000E+00 0. -1.
         -2    1    1    2    0  502  0.22311238407E+02  0.95690447494E+01  0.19163851650E+03  0.19317007787E+03  0.00000000000E+00 0. -1.
</event>
<event>
 4    1  0.3196713E+003  0.2974396E+02  0.7546771E-02  0.1421835E+00
          2   -1    0    0  501    0  0.00000000000E+00  0.00000000000E+00  0.15744768389E+03  0.15744768389E+03  0.00000000000E+00 0. -1.
         -2   -1    0    0    0  501 -0.00000000000E+00 -0.00000000000E+00 -0.45480900052E+02  0.45480900052E+02  0.00000000000E+00 0. -1.
          2    1    1    2  502    0  0.14126380841E+02 -0.26175337539E+02  0.15097331800E+03  0.15387542259E+03  0.00000000000E+00 0. -1.
         -2    1    1    2    0  502 -0.14126380841E+02  0.26175337539E+02 -0.39006534161E+02  0.49053161348E+02  0.00000000000E+00 0. -1.
</event>
<event>
 4    1  0.3196713E+003  0.5842434E+02  0.7546771E-02  0.1265282E+00
          2   -1    0    0  501    0  0.00000000000E+00  0.00000000000E+00  0.10767957823E+04  0.10767957823E+04  0.00000000000E+00 0.  1.
         -2   -1    0    0    0  501 -0.00000000000E+00 -0.00000000000E+00 -0.10356605834E+03  0.10356605834E+03  0.00000000000E+00 0. -1.
          2    1    1    2  502    0 -0.36370128019E+02  0.45723269896E+02  0.10676934211E+04  0.10692907206E+04  0.00000000000E+00 0.  1.
         -2    1    1    2    0  502  0.36370128019E+02 -0.45723269896E+02 -0.94463697182E+02  0.11107112004E+03  0.00000000000E+00 0. -1.
</event>
<event>
 4    1  0.3196713E+003  0.2039064E+02  0.7546771E-02  0.1528145E+00
          2   -1    0    0  501    0  0.00000000000E+00  0.00000000000E+00  0.13327854550E+02  0.13327854550E+02  0.00000000000E+00 0.  1.
         -2   -1    0    0    0  501 -0.00000000000E+00 -0.00000000000E+00 -0.33814966656E+02  0.33814966656E+02  0.00000000000E+00 0.  1.
          2    1    1    2  502    0 -0.19912241984E+02  0.43909963438E+01 -0.36839062834E+01  0.20720747941E+02  0.00000000000E+00 0.  1.
         -2    1    1    2    0  502  0.19912241984E+02 -0.43909963438E+01 -0.16803205822E+02  0.26422073265E+02  0.00000000000E+00 0.  1.
</event>
<event>
 4    1  0.3196713E+003  0.2248032E+02  0.7546771E-02  0.1499129E+00
          2   -1    0    0  501    0  0.00000000000E+00  0.00000000000E+00  0.12571676878E+04  0.12571676878E+04  0.00000000000E+00 0.  1.
         -2   -1    0    0    0  501 -0.00000000000E+00 -0.00000000000E+00 -0.86766522399E+00  0.86766522399E+00  0.00000000000E+00 0.  1.
          2    1    1    2  502    0 -0.10971645303E+02 -0.19621103215E+02  0.10889684610E+04  0.10892004746E+04  0.00000000000E+00 0.  1.
         -2    1    1    2    0  502  0.10971645303E+02  0.19621103215E+02  0.16733156152E+03  0.16883487842E+03  0.00000000000E+00 0.  1.
</event>
<event>
 4    1  0.3196713E+003  0.2600811E+02  0.7546771E-02  0.1457834E+00
          2   -1    0    0  501    0  0.00000000000E+00  0.00000000000E+00  0.46977540913E+03  0.46977540913E+03  0.00000000000E+00 0. -1.
         -2   -1    0    0    0  501 -0.00000000000E+00 -0.00000000000E+00 -0.21731552664E+01  0.21731552664E+01  0.00000000000E+00 0.  1.
          2    1    1    2  502    0  0.31480532825E+01 -0.25816889659E+02  0.37087404849E+03  0.37178485966E+03  0.00000000000E+00 0. -1.
         -2    1    1    2    0  502 -0.31480532825E+01  0.25816889659E+02  0.96728205373E+02  0.10016370473E+03  0.00000000000E+00 0.  1.
</event>
<event>
 4    1  0.3196713E+003  0.2196640E+02  0.7546771E-02  0.1505902E+00
          2   -1    0    0  501    0  0.00000000000E+00  0.00000000000E+00  0.86441478529E+03  0.86441478529E+03  0.00000000000E+00 0.  1.
         -2   -1    0    0    0  501 -0.00000000000E+00 -0.00000000000E+00 -0.72422056198E+00  0.72422056198E+00  0.00000000000E+00 0.  1.
          2    1    1    2  502    0 -0.20522077379E+02  0.78337163602E+01  0.63895079976E+03  0.63932827819E+03  0.00000000000E+00 0.  1.
         -2    1    1    2    0  502  0.20522077379E+02 -0.78337163602E+01  0.22473976496E+03  0.22581072766E+03  0.00000000000E+00 0.  1.
</event>
<event>
 4    1  0.3196713E+003  0.2310454E+02  0.7546771E-02  0.1491190E+00
          2   -1    0    0  501    0  0.00000000000E+00  0.00000000000E+00  0.12821090704E+04  0.12821090704E+04  0.00000000000E+00 0.  1.
         -2   -1    0    0    0  501 -0.00000000000E+00 -0.00000000000E+00 -0.59056983704E+00  0.59056983704E+00  0.00000000000E+00 0.  1.
          2    1    1    2  502    0 -0.21524798933E+02 -0.83965927320E+01  0.98909247471E+03  0.98936229121E+03  0.00000000000E+00 0.  1.
         -2    1    1    2    0  502  0.21524798933E+02  0.83965927320E+01  0.29242602589E+03  0.29333734906E+03  0.00000000000E+00 0.  1.
</event>
<event>
 4    1  0.3196713E+003  0.2437046E+02  0.7546771E-02  0.1475971E+00
          2   -1    0    0  501    0  0.00000000000E+00  0.00000000000E+00  0.26682877519E+02  0.26682877519E+02  0.00000000000E+00 0.  1.
         -2   -1    0    0    0  501 -0.00000000000E+00 -0.00000000000E+00 -0.24037782075E+02  0.24037782075E+02  0.00000000000E+00 0.  1.
          2    1    1    2  502    0 -0.24368334069E+02  0.32074302865E+00 -0.55773139335E+01  0.25000500237E+02  0.00000000000E+00 0.  1.
         -2    1    1    2    0  502  0.24368334069E+02 -0.32074302865E+00  0.82224093774E+01  0.25720159357E+02  0.00000000000E+00 0.  1.
</event>
<event>
 4    1  0.3196713E+003  0.2205857E+02  0.7546771E-02  0.1504671E+00
          2   -1    0    0  501    0  0.00000000000E+00  0.00000000000E+00  0.44090076996E+03  0.44090076996E+03  0.00000000000E+00 0.  1.
         -2   -1    0    0    0  501 -0.00000000000E+00 -0.00000000000E+00 -0.12688913835E+01  0.12688913835E+01  0.00000000000E+00 0.  1.
          2    1    1    2  502    0 -0.99750049481E+01  0.19674348757E+02  0.29960879034E+03  0.30041971968E+03  0.00000000000E+00 0.  1.
         -2    1    1    2    0  502  0.99750049481E+01 -0.19674348757E+02  0.14002308824E+03  0.14174994167E+03  0.00000000000E+00 0.  1.
</event>
<event>
 4    1  0.3196713E+003  0.2403305E+02  0.7546771E-02  0.1479918E+00
          2   -1    0    0  501    0  0.00000000000E+00  0.00000000000E+00  0.11905933129E+04  0.11905933129E+04  0.00000000000E+00 0.  1.
         -2   -1    0    0    0  501 -0.00000000000E+00 -0.00000000000E+00 -0.52505111092E+00  0.52505111092E+00  0.00000000000E+00 0. -1.
          2    1    1    2  502    0 -0.18477013565E+02  0.15368388546E+02  0.75926277664E+03  0.75964304208E+03  0.00000000000E+00 0.  1.
         -2    1    1    2    0  502  0.18477013565E+02 -0.15368388546E+02  0.43080548520E+03  0.43147532197E+03  0.00000000000E+00 0. -1.
</event>
<event>
 4    1  0.3196713E+003  0.3177365E+02  0.7546771E-02  0.1404785E+00
          2   -1    0    0  501    0  0.00000000000E+00  0.00000000000E+00  0.17284937066E+03  0.17284937066E+03  0.00000000000E+00 0.  1.
         -2   -1    0    0    0  501 -0.00000000000E+00 -0.00000000000E+00 -0.66341027284E+01  0.66341027284E+01  0.00000000000E+00 0.  1.
          2    1    1    2  502    0 -0.31002403024E+02 -0.69581328627E+01  0.11414215261E+03  0.11848204762E+03  0.00000000000E+00 0.  1.
         -2    1    1    2    0  502  0.31002403024E+02  0.69581328627E+01  0.52073115318E+02  0.61001425763E+02  0.00000000000E+00 0.  1.
</event>
<event>
 4    1  0.3196713E+003  0.2768233E+02  0.7546771E-02  0.1440872E+00
          2   -1    0    0  501    0  0.00000000000E+00  0.00000000000E+00  0.22157702585E+03  0.22157702585E+03  0.00000000000E+00 0.  1.
         -2   -1    0    0    0  501 -0.00000000000E+00 -0.00000000000E+00 -0.48698201737E+01  0.48698201737E+01  0.00000000000E+00 0. -1.
          2    1    1    2  502    0  0.27671494951E+02  0.77435742606E+00  0.16930750838E+03  0.17155565761E+03  0.00000000000E+00 0.  1.
         -2    1    1    2    0  502 -0.27671494951E+02 -0.77435742606E+00  0.47399697294E+02  0.54891188417E+02  0.00000000000E+00 0. -1.
</event>
<event>
 4    1  0.3196713E+003  0.3996296E+02  0.7546771E-02  0.1348703E+00
          2   -1    0    0  501    0  0.00000000000E+00  0.00000000000E+00  0.61163291891E+03  0.61163291891E+03  0.00000000000E+00 0.  1.
         -2   -1    0    0    0  501 -0.00000000000E+00 -0.00000000000E+00 -0.26202815529E+02  0.26202815529E+02  0.00000000000E+00 0.  1.
          2    1    1    2  502    0 -0.30887107077E+01 -0.39843423902E+02  0.59532595705E+03  0.59666576380E+03  0.00000000000E+00 0.  1.
         -2    1    1    2    0  502  0.30887107077E+01  0.39843423902E+02 -0.98958536673E+01  0.41169970633E+02  0.00000000000E+00 0.  1.
</event>
<event>
 4    1  0.3196713E+003  0.2221288E+02  0.7546771E-02  0.1502626E+00
          2   -1    0    0  501    0  0.00000000000E+00  0.00000000000E+00  0.16195057409E+03  0.16195057409E+03  0.00000000000E+00 0. -1.
         -2   -1    0    0    0  501 -0.00000000000E+00 -0.00000000000E+00 -0.30684473102E+01  0.30684473102E+01  0.00000000000E+00 0. -1.
          2    1    1    2  502    0 -0.76294270666E+01 -0.20861545966E+02  0.86389786736E+02  0.89199817880E+02  0.00000000000E+00 0. -1.
         -2    1    1    2    0  502  0.76294270666E+01  0.20861545966E+02  0.72492340043E+02  0.75819203520E+02  0.00000000000E+00 0. -1.
</event>
<event>
 4    1  0.3196713E+003  0.2074466E+02  0.7546771E-02  0.1522942E+00
          2   -1    0    0  501    0  0.00000000000E+00  0.00000000000E+00  0.13764376629E+04  0.13764376629E+04  0.00000000000E+00 0. -1.
         -2   -1    0    0    0  501 -0.00000000000E+00 -0.00000000000E+00 -0.46306523360E+01  0.46306523360E+01  0.00000000000E+00 0. -1.
          2    1    1    2  502    0  0.11191181619E+02 -0.17467069047E+02  0.13527188642E+04  0.13528779201E+04  0.00000000000E+00 0. -1.
         -2    1    1    2    0  502 -0.11191181619E+02  0.17467069047E+02  0.19088146312E+02  0.28190395115E+02  0.00000000000E+00 0. -1.
</event>
<event>
 4    1  0.3196713E+003  0.4188340E+02  0.7546771E-02  0.1337789E+00
          2   -1    0    0  501    0  0.00000000000E+00  0.00000000000E+00  0.86974010327E+02  0.86974010327E+02  0.00000000000E+00 0. -1.
         -2   -1    0    0    0  501 -0.00000000000E+00 -0.00000000000E+00 -0.33861780729E+03  0.33861780729E+03  0.00000000000E+00 0.  1.
          2    1    1    2  502    0  0.15014010799E+01 -0.41856485618E+02  0.80539219025E+02  0.90778771718E+02  0.00000000000E+00 0. -1.
         -2    1    1    2    0  502 -0.15014010799E+01  0.41856485618E+02 -0.33218301598E+03  0.33481304590E+03  0.00000000000E+00 0.  1.
</event>
<event>
 4    1  0.3196713E+003  0.2186506E+02  0.7546771E-02  0.1507264E+00
          2   -1    0    0  501    0  0.00000000000E+00  0.00000000000E+00  0.84331958138E+02  0.84331958138E+02  0.00000000000E+00 0.  1.
         -2   -1    0    0    0  501 -0.00000000000E+00 -0.00000000000E+00 -0.68694999224E+01  0.68694999224E+01  0.00000000000E+00 0.  1.
          2    1    1    2  502    0 -0.66531970209E+01  0.20828242727E+02  0.57793918385E+02  0.61791728637E+02  0.00000000000E+00 0.  1.
         -2    1    1    2    0  502  0.66531970209E+01 -0.20828242727E+02  0.19668539830E+02  0.29409729423E+02  0.00000000000E+00 0.  1.
</event>
<event>
 4    1  0.3196713E+003  0.2044225E+02  0.7546771E-02  0.1527379E+00
          2   -1    0    0  501    0  0.00000000000E+00  0.00000000000E+00  0.21320462360E+03  0.21320462360E+03  0.00000000000E+00 0. -1.
         -2   -1    0    0    0  501 -0.00000000000E+00 -0.00000000000E+00 -0.20644408316E+02  0.20644408316E+02  0.00000000000E+00 0. -1.
          2    1    1    2  502    0 -0.11746963348E+02  0.16730043225E+02  0.20751570560E+03  0.20852015146E+03  0.00000000000E+00 0. -1.
         -2    1    1    2    0  502  0.11746963348E+02 -0.16730043225E+02 -0.14955490321E+02  0.25328880452E+02  0.00000000000E+00 0. -1.
</event>
<event>
 4    1  0.3196713E+003  0.3666844E+02  0.7546771E-02  0.1369198E+00
          2   -1    0    0  501    0  0.00000000000E+00  0.00000000000E+00  0.18512620094E+04  0.18512620094E+04  0.00000000000E+00 0. -1.
         -2   -1    0    0    0  501 -0.00000000000E+00 -0.00000000000E+00 -0.29758176787E+03  0.29758176787E+03  0.00000000000E+00 0.  1.
          2    1    1    2  502    0 -0.36170602939E+02  0.60217851533E+01  0.18499500490E+04  0.18503134217E+04  0.00000000000E+00 0. -1.
         -2    1    1    2    0  502  0.36170602939E+02 -0.60217851533E+01 -0.29626980749E+03  0.29853035564E+03  0.00000000000E+00 0.  1.
</event>
<event>
 4    1  0.3196713E+003  0.2141278E+02  0.7546771E-02  0.1513452E+00
          2   -1    0    0  501    0  0.00000000000E+00  0.00000000000E+00  0.72196941012E+03  0.72196941012E+03  0.00000000000E+00 0.  1.
         -2   -1    0    0    0  501 -0.00000000000E+00 -0.00000000000E+00 -0.92735027244E+00  0.92735027244E+00  0.00000000000E+00 0. -1.
          2    1    1    2  502    0 -0.21322133691E+02 -0.19681918858E+01  0.56343778355E+03  0.56384452032E+03  0.00000000000E+00 0.  1.
         -2    1    1    2    0  502  0.21322133691E+02  0.19681918858E+01  0.15760427630E+03  0.15905224007E+03  0.00000000000E+00 0. -1.
</event>
<event>
 4    1  0.3196713E+003  0.4757761E+02  0.7546771E-02  0.1309031E+00
          2   -1    0    0  501    0  0.00000000000E+00  0.00000000000E+00  0.41391162494E+03  0.41391162494E+03  0.00000000000E+00 0. -1.
         -2   -1    0    0    0  501 -0.00000000000E+00 -0.00000000000E+00 -0.87281419941E+01  0.87281419941E+01  0.00000000000E+00 0.  1.
          2    1    1    2  502    0  0.46617636925E+02 -0.95091890561E+01  0.33172549734E+03  0.33512002974E+03  0.00000000000E+00 0. -1.
         -2    1    1    2    0  502 -0.46617636925E+02  0.95091890561E+01  0.73457985609E+02  0.87519737195E+02  0.00000000000E+00 0.  1.
</event>
<event>
 4    1  0.3196713E+003  0.4686978E+02  0.7546771E-02  0.1312346E+00
          2   -1    0    0  501    0  0.00000000000E+00  0.00000000000E+00  0.13490582239E+04  0.13490582239E+04  0.00000000000E+00 0. -1.
         -2   -1    0    0    0  501 -0.00000000000E+00 -0.00000000000E+00 -0.10875376686E+02  0.10875376686E+02  0.00000000000E+00 0.  1.
          2    1    1    2  502    0 -0.83071203876E+01 -0.46127737588E+02  0.12960891381E+04  0.12969363247E+04  0.00000000000E+00 0. -1.
         -2    1    1    2    0  502  0.83071203876E+01  0.46127737588E+02  0.42093709161E+02  0.62997275934E+02  0.00000000000E+00 0.  1.
</event>
<event>
 4    1  0.3196713E+003  0.2807285E+02  0.7546771E-02  0.1437119E+00
          2   -1    0    0  501    0  0.00000000000E+00  0.00000000000E+00  0.11972479286E+04  0.11972479286E+04  0.00000000000E+00 0.  1.
         -2   -1    0    0    0  501 -0.00000000000E+00 -0.00000000000E+00 -0.97759875167E+01  0.97759875167E+01  0.00000000000E+00 0.  1.
          2    1    1    2  502    0 -0.32236786732E+01 -0.27887148432E+02  0.11765757281E+04  0.11769105867E+04  0.00000000000E+00 0.  1.
         -2    1    1    2    0  502  0.32236786732E+01  0.27887148432E+02  0.10896213014E+02  0.30113329439E+02  0.00000000000E+00 0.  1.
</event>
<event>
 4    1  0.3196713E+003  0.2212882E+02  0.7546771E-02  0.1503737E+00
          2   -1    0    0  501    0  0.00000000000E+00  0.00000000000E+00  0.65163727284E+03  0.65163727284E+03  0.00000000000E+00 0. -1.
         -2   -1    0    0    0  501 -0.00000000000E+00 -0.00000000000E+00 -0.32120511703E+01  0.32120511703E+01  0.00000000000E+00 0. -1.
          2    1    1    2  502    0  0.22109927887E+02 -0.91421139111E+00  0.61078818189E+03  0.61118891338E+03  0.00000000000E+00 0. -1.
         -2    1    1    2    0  502 -0.22109927887E+02  0.91421139111E+00  0.37637039779E+02  0.43660410637E+02  0.00000000000E+00 0. -1.
</event>
<event>
 4    1  0.3196713E+003  0.3886757E+02  0.7546771E-02  0.1355253E+00
          2   -1    0    0  501    0  0.00000000000E+00  0.00000000000E+00  0.10592069486E+04  0.10592069486E+04  0.00000000000E+00 0. -1.
         -2   -1    0    0    0  501 -0.00000000000E+00 -0.00000000000E+00 -0.22523927202E+01  0.22523927202E+01  0.00000000000E+00 0. -1.
          2    1    1    2  502    0 -0.38853066455E+02  0.10617342507E+01  0.84990276005E+03  0.85079103756E+03  0.00000000000E+00 0. -1.
         -2    1    1    2    0  502  0.38853066455E+02 -0.10617342507E+01  0.20705179582E+03  0.21066830375E+03  0.00000000000E+00 0. -1.
</event>
<event>
 4    1  0.3196713E+003  0.2711542E+02  0.7546771E-02  0.1446452E+00
          2   -1    0    0  501    0  0.00000000000E+00  0.00000000000E+00  0.11708220543E+03  0.11708220543E+03  0.00000000000E+00 0.  1.
         -2   -1    0    0    0  501 -0.00000000000E+00 -0.00000000000E+00 -0.41473295495E+02  0.41473295495E+02  0.00000000000E+00 0. -1.
          2    1    1    2  502    0 -0.42191926497E+01  0.26785157798E+02  0.11083399975E+03  0.11410268080E+03  0.00000000000E+00 0.  1.
         -2    1    1    2    0  502  0.42191926497E+01 -0.26785157798E+02 -0.35225089813E+02  0.44452820127E+02  0.00000000000E+00 0. -1.
</event>
<event>
 4    1  0.3196713E+003  0.4174269E+02  0.7546771E-02  0.1338566E+00
          2   -1    0    0  501    0  0.00000000000E+00  0.00000000000E+00  0.79892257711E+03  0.79892257711E+03  0.00000000000E+00 0.  1.
         -2   -1    0    0    0  501 -0.00000000000E+00 -0.00000000000E+00 -0.53400511248E+01  0.53400511248E+01  0.00000000000E+00 0. -1.
          2    1    1    2  502    0 -0.62243098867E+01 -0.41276024435E+02  0.70608657209E+03  0.70731937589E+03  0.00000000000E+00 0.  1.
         -2    1    1    2    0  502  0.62243098867E+01  0.41276024435E+02  0.87495953894E+02  0.96943252341E+02  0.00000000000E+00 0. -1.
</event>
<event>
 4    1  0.3196713E+003  0.2543444E+02  0.7546771E-02  0.1464002E+00
          2   -1    0    0  501    0  0.00000000000E+00  0.00000000000E+00  0.13021101255E+04  0.13021101255E+04  0.00000000000E+00 0.  1.
         -2   -1    0    0    0  501 -0.00000000000E+00 -0.00000000000E+00 -0.69263634113E+01  0.69263634113E+01  0.00000000000E+00 0. -1.
          2    1    1    2  502    0  0.14557937249E+01 -0.25392745411E+02  0.12781995920E+04  0.12784526225E+04  0.00000000000E+00 0.  1.
         -2    1    1    2    0  502 -0.14557937249E+01  0.25392745411E+02  0.16984170112E+02  0.30583866487E+02  0.00000000000E+00 0. -1.
</event>
<event>
 4    1  0.3196713E+003  0.2215707E+02  0.7546771E-02  0.1503363E+00
          2   -1    0    0  501    0  0.00000000000E+00  0.00000000000E+00  0.36037232052E+03  0.36037232052E+03  0.00000000000E+00 0. -1.
         -2   -1    0    0    0  501 -0.00000000000E+00 -0.00000000000E+00 -0.34760764232E+01  0.34760764232E+01  0.00000000000E+00 0.  1.
          2    1    1    2  502    0 -0.21385704950E+02  0.57954615762E+01  0.32031309621E+03  0.32107851899E+03  0.00000000000E+00 0. -1.
         -2    1    1    2    0  502  0.21385704950E+02 -0.57954615762E+01  0.36583147886E+02  0.42769877956E+02  0.00000000000E+00 0.  1.
</event>
<event>
 4    1  0.3196713E+003  0.2285336E+02  0.7546771E-02  0.1494348E+00
          2   -1    0    0  501    0  0.00000000000E+00  0.00000000000E+00  0.46373930332E+03  0.46373930332E+03  0.00000000000E+00 0. -1.
         -2   -1    0    0    0  501 -0.00000000000E+00 -0.00000000000E+00 -0.11428366285E+01  0.11428366285E+01  0.00000000000E+00 0.  1.
          2    1    1    2  502    0 -0.13547777874E+02 -0.18404715731E+02  0.25932011577E+03  0.26032517798E+03  0.00000000000E+00 0. -1.
         -2    1    1    2    0  502  0.13547777874E+02  0.18404715731E+02  0.20327635093E+03  0.20455696197E+03  0.00000000000E+00 0.  1.
</event>
<event>
 4    1  0.3196713E+003  0.6624072E+02  0.7546771E-02  0.1239986E+00
          2   -1    0    0  501    0  0.00000000000E+00  0.00000000000E+00  0.11708006813E+04  0.11708006813E+04  0.00000000000E+00 0.  1.
         -2   -1    0    0    0  501 -0.00000000000E+00 -0.00000000000E+00 -0.82522998353E+01  0.82522998353E+01  0.00000000000E+00 0. -1.
          2    1    1    2  502    0  0.43752473763E+02  0.49734831377E+02  0.10168291863E+04  0.10189845075E+04  0.00000000000E+00 0.  1.
         -2    1    1    2    0  502 -0.43752473763E+02 -0.49734831377E+02  0.14571919516E+03  0.16006847363E+03  0.00000000000E+00 0. -1.
</event>
<event>
 4    1  0.3196713E+003  0.2169307E+02  0.7546771E-02  0.1509595E+00
          2   -1    0    0  501    0  0.00000000000E+00  0.00000000000E+00  0.32484601377E+02  0.32484601377E+02  0.00000000000E+00 0. -1.
         -2   -1    0    0    0  501 -0.00000000000E+00 -0.00000000000E+00 -0.10469255117E+03  0.10469255117E+03  0.00000000000E+00 0.  1.
          2    1    1    2  502    0  0.12469316164E+02 -0.17751214101E+02  0.27562622263E+02  0.35075455716E+02  0.00000000000E+00 0. -1.
         -2    1    1    2    0  502 -0.12469316164E+02  0.17751214101E+02 -0.99770572052E+02  0.10210169683E+03  0.00000000000E+00 0.  1.
</event>
<event>
 4    1  0.3196713E+003  0.2363720E+02  0.7546771E-02  0.1484648E+00
          2   -1    0    0  501    0  0.00000000000E+00  0.00000000000E+00  0.19860454687E+04  0.19860454687E+04  0.00000000000E+00 0.  1.
         -2   -1    0    0    0  501 -0.00000000000E+00 -0.00000000000E+00 -0.37602634310E+00  0.37602634310E+00  0.00000000000E+00 0. -1.
          2    1    1    2  502    0  0.78687518050E+01  0.22289008071E+02  0.14912812176E+04  0.14914685337E+04  0.00000000000E+00 0.  1.
         -2    1    1    2    0  502 -0.78687518050E+01 -0.22289008071E+02  0.49438822475E+03  0.49495296131E+03  0.00000000000E+00 0. -1.
</event>
<event>
 4    1  0.3196713E+003  0.2066741E+02  0.7546771E-02  0.1524067E+00
          2   -1    0    0  501    0  0.00000000000E+00  0.00000000000E+00  0.33803257849E+03  0.33803257849E+03  0.00000000000E+00 0.  1.
         -2   -1    0    0    0  501 -0.00000000000E+00 -0.00000000000E+00 -0.12651483145E+01  0.12651483145E+01  0.00000000000E+00 0. -1.
          2    1    1    2  502    0 -0.19899870738E+02  0.55800655062E+01  0.17429572843E+03  0.17551678819E+03  0.00000000000E+00 0.  1.
         -2    1    1    2    0  502  0.19899870738E+02 -0.55800655062E+01  0.16247170175E+03  0.16378093862E+03  0.00000000000E+00 0. -1.
</event>
<event>
 4    1  0.3196713E+003  0.2940868E+02  0.7546771E-02  0.1424806E+00
          2   -1    0    0  501    0  0.00000000000E+00  0.00000000000E+00  0.92172017936E+00  0.92172017936E+00  0.00000000000E+00 0. -1.
         -2   -1    0    0    0  501 -0.00000000000E+00 -0.00000000000E+00 -0.13606291071E+04  0.13606291071E+04  0.00000000000E+00 0. -1.
          2    1    1    2  502    0 -0.28075703738E+02  0.87535797713E+01 -0.30058395515E+03  0.30201917885E+03  0.00000000000E+00 0. -1.
         -2    1    1    2    0  502  0.28075703738E+02 -0.87535797713E+01 -0.10591234318E+04  0.10595316484E+04  0.00000000000E+00 0. -1.
</event>
<event>
 4    1  0.3196713E+003  0.2041691E+02  0.7546771E-02  0.1527755E+00
          2   -1    0    0  501    0  0.00000000000E+00  0.00000000000E+00  0.86567464796E+03  0.86567464796E+03  0.00000000000E+00 0. -1.
         -2   -1    0    0    0  501 -0.00000000000E+00 -0.00000000000E+00 -0.78231481557E+00  0.78231481557E+00  0.00000000000E+00 0. -1.
          2    1    1    2  502    0  0.18939270614E+02 -0.76258804318E+01  0.70107507689E+03  0.70137230731E+03  0.00000000000E+00 0. -1.
         -2    1    1    2    0  502 -0.18939270614E+02  0.76258804318E+01  0.16381725626E+03  0.16508465547E+03  0.00000000000E+00 0. -1.
</event>
<event>
 4    1  0.3196713E+003  0.2124334E+02  0.7546771E-02  0.1515819E+00
          2   -1    0    0  501    0  0.00000000000E+00  0.00000000000E+00  0.80924392360E+03  0.80924392360E+03  0.00000000000E+00 0. -1.
         -2   -1    0    0    0  501 -0.00000000000E+00 -0.00000000000E+00 -0.13545925799E+01  0.13545925799E+01  0.00000000000E+00 0. -1.
          2    1    1    2  502    0  0.95459050486E+01 -0.18977753805E+02  0.71481797742E+03  0.71513356815E+03  0.00000000000E+00 0. -1.
         -2    1    1    2    0  502 -0.95459050486E+01  0.18977753805E+02  0.93071353600E+02  0.95464948037E+02  0.00000000000E+00 0. -1.
</event>
<event>
 4    1  0.3196713E+003  0.2167117E+02  0.7546771E-02  0.1509894E+00
          2   -1    0    0  501    0  0.00000000000E+00  0.00000000000E+00  0.30061433630E+03  0.30061433630E+03  0.00000000000E+00 0.  1.
         -2   -1    0    0    0  501 -0.00000000000E+00 -0.00000000000E+00 -0.32357489178E+01  0.32357489178E+01  0.00000000000E+00 0. -1.
          2    1    1    2  502    0 -0.21427455030E+02  0.32409627918E+01  0.25794711923E+03  0.25885585948E+03  0.00000000000E+00 0.  1.
         -2    1    1    2    0  502  0.21427455030E+02 -0.32409627918E+01  0.39431468146E+02  0.44994225730E+02  0.00000000000E+00 0. -1.
</event>
<event>
 4    1  0.3196713E+003  0.3175546E+02  0.7546771E-02  0.1404931E+00
          2   -1    0    0  501    0  0.00000000000E+00  0.00000000000E+00  0.63666175111E+02  0.63666175111E+02  0.00000000000E+00 0. -1.
         -2   -1    0    0    0  501 -0.00000000000E+00 -0.00000000000E+00 -0.16245960929E+02  0.16245960929E+02  0.00000000000E+00 0.  1.
          2    1    1    2  502    0  0.31565475554E+02 -0.34684408633E+01  0.30033932205E+02  0.43708653750E+02  0.00000000000E+00 0. -1.
         -2    1    1    2    0  502 -0.31565475554E+02  0.34684408633E+01  0.17386281977E+02  0.36203482290E+02  0.00000000000E+00 0.  1.
</event>
<event>
 4    1  0.3196713E+003  0.2162201E+02  0.7546771E-02  0.1510566E+00
          2   -1    0    0  501    0  0.00000000000E+00  0.00000000000E+00  0.12110111739E+03  0.12110111739E+03  0.00000000000E+00 0.  1.
         -2   -1    0    0    0  501 -0.00000000000E+00 -0.00000000000E+00 -0.10436899745E+03  0.10436899745E+03  0.00000000000E+00 0. -1.
          2    1    1    2  502    0  0.83059516734E+01 -0.19963027819E+02  0.11899649413E+03  0.12094493346E+03  0.00000000000E+00 0.  1.
         -2    1    1    2    0  502 -0.83059516734E+01  0.19963027819E+02 -0.10226437419E+03  0.10452518138E+03  0.00000000000E+00 0. -1.
</event>
<event>
 4    1  0.3196713E+003  0.3969077E+02  0.7546771E-02  0.1350307E+00
          2   -1    0    0  501    0  0.00000000000E+00  0.00000000000E+00  0.14221424779E+04  0.14221424779E+04  0.00000000000E+00 0. -1.
         -2   -1    0    0    0  501 -0.00000000000E+00 -0.00000000000E+00 -0.11470790005E+03  0.11470790005E+03  0.00000000000E+00 0.  1.
          2    1    1    2  502    0  0.28725787151E+02 -0.27389532206E+02  0.14184231321E+04  0.14189783434E+04  0.00000000000E+00 0. -1.
         -2    1    1    2    0  502 -0.28725787151E+02  0.27389532206E+02 -0.11098855433E+03  0.11787203449E+03  0.00000000000E+00 0.  1.
</event>
<event>
 4    1  0.3196713E+003  0.2928251E+02  0.7546771E-02  0.1425936E+00
          2   -1    0    0  501    0  0.00000000000E+00  0.00000000000E+00  0.42239868970E+01  0.42239868970E+01  0.00000000000E+00 0.  1.
         -2   -1    0    0    0  501 -0.00000000000E+00 -0.00000000000E+00 -0.44711208236E+03  0.44711208236E+03  0.00000000000E+00 0. -1.
          2    1    1    2  502    0 -0.29224443037E+02  0.18431263047E+01 -0.54697306087E+02  0.62042408710E+02  0.00000000000E+00 0.  1.
         -2    1    1    2    0  502  0.29224443037E+02 -0.18431263047E+01 -0.38819078938E+03  0.38929366055E+03  0.00000000000E+00 0. -1.
</event>
<event>
 4    1  0.3196713E+003  0.3729021E+02  0.7546771E-02  0.1365141E+00
          2   -1    0    0  501    0  0.00000000000E+00  0.00000000000E+00  0.20469551860E+04  0.20469551860E+04  0.00000000000E+00 0. -1.
         -2   -1    0    0    0  501 -0.00000000000E+00 -0.00000000000E+00 -0.25534632517E+01  0.25534632517E+01  0.00000000000E+00 0.  1.
          2    1    1    2  502    0  0.37261344480E+02  0.14669043076E+01  0.19001211790E+04  0.19004870572E+04  0.00000000000E+00 0. -1.
         -2    1    1    2    0  502 -0.37261344480E+02 -0.14669043076E+01  0.14428054370E+03  0.14902159203E+03  0.00000000000E+00 0.  1.
</event>
<event>
 4    1  0.3196713E+003  0.2580615E+02  0.7546771E-02  0.1459984E+00
          2   -1    0    0  501    0  0.00000000000E+00  0.00000000000E+00  0.25656623833E+01  0.25656623833E+01  0.00000000000E+00 0.  1.
         -2   -1    0    0    0  501 -0.00000000000E+00 -0.00000000000E+00 -0.30230340918E+03  0.30230340918E+03  0.00000000000E+00 0.  1.
          2    1    1    2  502    0 -0.15900380132E+02  0.20325731641E+02 -0.92553852537E+02  0.96084197839E+02  0.00000000000E+00 0.  1.
         -2    1    1    2    0  502  0.15900380132E+02 -0.20325731641E+02 -0.20718389426E+03  0.20878487373E+03  0.00000000000E+00 0.  1.
</event>
<event>
 4    1  0.3196713E+003  0.2284608E+02  0.7546771E-02  0.1494440E+00
          2   -1    0    0  501    0  0.00000000000E+00  0.00000000000E+00  0.25527994415E+02  0.25527994415E+02  0.00000000000E+00 0. -1.
         -2   -1    0    0    0  501 -0.00000000000E+00 -0.00000000000E+00 -0.91425346237E+02  0.91425346237E+02  0.00000000000E+00 0. -1.
          2    1    1    2  502    0  0.22837697553E+02 -0.61881860830E+00  0.18576035389E+02  0.29445075255E+02  0.00000000000E+00 0. -1.
         -2    1    1    2    0  502 -0.22837697553E+02  0.61881860830E+00 -0.84473387210E+02  0.87508265397E+02  0.00000000000E+00 0. -1.
</event>
<event>
 4    1  0.3196713E+003  0.2180284E+02  0.7546771E-02  0.1508104E+00
          2   -1    0    0  501    0  0.00000000000E+00  0.00000000000E+00  0.93797800045E+01  0.93797800045E+01  0.00000000000E+00 0.  1.
         -2   -1    0    0    0  501 -0.00000000000E+00 -0.00000000000E+00 -0.84122566373E+02  0.84122566373E+02  0.00000000000E+00 0. -1.
          2    1    1    2  502    0  0.55672419760E+01  0.21080074256E+02 -0.78940387042E+01  0.23187918426E+02  0.00000000000E+00 0.  1.
         -2    1    1    2    0  502 -0.55672419760E+01 -0.21080074256E+02 -0.66848747665E+02  0.70314427952E+02  0.00000000000E+00 0. -1.
</event>
<event>
 4    1  0.3196713E+003  0.2835352E+02  0.7546771E-02  0.1434466E+00
          2   -1    0    0  501    0  0.00000000000E+00  0.00000000000E+00  0.25122862597E+03  0.25122862597E+03  0.00000000000E+00 0.  1.
         -2   -1    0    0    0  501 -0.00000000000E+00 -0.00000000000E+00 -0.50448851863E+02  0.50448851863E+02  0.00000000000E+00 0. -1.
          2    1    1    2  502    0 -0.22744556854E+02  0.16929473936E+02  0.24636642375E+03  0.24799261422E+03  0.00000000000E+00 0.  1.
         -2    1    1    2    0  502  0.22744556854E+02 -0.16929473936E+02 -0.45586649652E+02  0.53684863609E+02  0.00000000000E+00 0. -1.
</event>
<event>
 4    1  0.3196713E+003  0.3422246E+02  0.7546771E-02  0.1386113E+00
          2   -1    0    0  501    0  0.00000000000E+00  0.00000000000E+00  0.65982154136E+03  0.65982154136E+03  0.00000000000E+00 0.  1.
         -2   -1    0    0    0  501 -0.00000000000E+00 -0.00000000000E+00 -0.19418859247E+01  0.19418859247E+01  0.00000000000E+00 0.  1.
          2    1    1    2  502    0  0.34219661128E+02 -0.43764042046E+00  0.42594247348E+03  0.42731506813E+03  0.00000000000E+00 0.  1.
         -2    1    1    2    0  502 -0.34219661128E+02  0.43764042046E+00  0.23193718195E+03  0.23444835915E+03  0.00000000000E+00 0.  1.
</event>
<event>
 4    1  0.3196713E+003  0.2118260E+02  0.7546771E-02  0.1516674E+00
          2   -1    0    0  501    0  0.00000000000E+00  0.00000000000E+00  0.97217241796E+03  0.97217241796E+03  0.00000000000E+00 0.  1.
         -2   -1    0    0    0  501 -0.00000000000E+00 -0.00000000000E+00 -0.14179905973E+01  0.14179905973E+01  0.00000000000E+00 0.  1.
          2    1    1    2  502    0 -0.18042933253E+02  0.11097517446E+02  0.88517419869E+03  0.88542761667E+03  0.00000000000E+00 0.  1.
         -2    1    1    2    0  502  0.18042933253E+02 -0.11097517446E+02  0.85580228670E+02  0.88162791885E+02  0.00000000000E+00 0.  1.
</event>
<event>
 4    1  0.3196713E+003  0.2940971E+02  0.7546771E-02  0.1424796E+00
          2   -1    0    0  501    0  0.00000000000E+00  0.00000000000E+00  0.58644043257E+03  0.58644043257E+03  0.00000000000E+00 0.  1.
         -2   -1    0    0    0  501 -0.00000000000E+00 -0.00000000000E+00 -0.68149262107E+01  0.68149262107E+01  0.00000000000E+00 0.  1.
          2    1    1    2  502    0  0.21189525959E+02  0.20394486023E+02  0.55238781578E+03  0.55317016377E+03  0.00000000000E+00 0.  1.
         -2    1    1    2    0  502 -0.21189525959E+02 -0.20394486023E+02  0.27237690583E+02  0.40085195007E+02  0.00000000000E+00 0.  1.
</event>
<event>
 4    1  0.3196713E+003  0.2443047E+02  0.7546771E-02  0.1475277E+00
          2   -1    0    0  501    0  0.00000000000E+00  0.00000000000E+00  0.14661860833E+03  0.14661860833E+03  0.00000000000E+00 0.  1.
         -2   -1    0    0    0  501 -0.00000000000E+00 -0.00000000000E+00 -0.54682755883E+02  0.54682755883E+02  0.00000000000E+00 0. -1.
          2    1    1    2  502    0 -0.24429902869E+02  0.16658919775E+00  0.14279979074E+03  0.14487452551E+03  0.00000000000E+00 0.  1.
         -2    1    1    2    0  502  0.24429902869E+02 -0.16658919775E+00 -0.50863938299E+02  0.56426838698E+02  0.00000000000E+00 0. -1.
</event>
<event>
 4    1  0.3196713E+003  0.2763312E+02  0.7546771E-02  0.1441350E+00
          2   -1    0    0  501    0  0.00000000000E+00  0.00000000000E+00  0.73700324867E+02  0.73700324867E+02  0.00000000000E+00 0. -1.
         -2   -1    0    0    0  501 -0.00000000000E+00 -0.00000000000E+00 -0.16561107153E+02  0.16561107153E+02  0.00000000000E+00 0.  1.
          2    1    1    2  502    0 -0.18941104481E+02  0.20120231318E+02  0.56184071917E+02  0.62611812659E+02  0.00000000000E+00 0. -1.
         -2    1    1    2    0  502  0.18941104481E+02 -0.20120231318E+02  0.95514579621E+00  0.27649619360E+02  0.00000000000E+00 0.  1.
</event>
<event>
 4    1  0.3196713E+003  0.2484562E+02  0.7546771E-02  0.1470538E+00
          2   -1    0    0  501    0  0.00000000000E+00  0.00000000000E+00  0.95736522558E+03  0.95736522558E+03  0.00000000000E+00 0.  1.
         -2   -1    0    0    0  501 -0.00000000000E+00 -0.00000000000E+00 -0.12802757487E+01  0.12802757487E+01  0.00000000000E+00 0.  1.
          2    1    1    2  502    0 -0.87219296425E+01  0.23264409868E+02  0.81573955049E+03  0.81611783405E+03  0.00000000000E+00 0.  1.
         -2    1    1    2    0  502  0.87219296425E+01 -0.23264409868E+02  0.14034539934E+03  0.14252766728E+03  0.00000000000E+00 0.  1.
</event>
<event>
 4    1  0.3196713E+003  0.2230663E+02  0.7546771E-02  0.1501393E+00
          2   -1    0    0  501    0  0.00000000000E+00  0.00000000000E+00  0.25513912258E+03  0.25513912258E+03  0.00000000000E+00 0. -1.
         -2   -1    0    0    0  501 -0.00000000000E+00 -0.00000000000E+00 -0.33885961945E+02  0.33885961945E+02  0.00000000000E+00 0. -1.
          2    1    1    2  502    0 -0.37108467768E+01  0.21995799892E+02  0.25091890739E+03  0.25190848275E+03  0.00000000000E+00 0. -1.
         -2    1    1    2    0  502  0.37108467768E+01 -0.21995799892E+02 -0.29665746755E+02  0.37116601773E+02  0.00000000000E+00 0. -1.
</event>
<event>
 4    1  0.3196713E+003  0.2028213E+02  0.7546771E-02  0.1529766E+00
          2   -1    0    0  501    0  0.00000000000E+00  0.00000000000E+00  0.55127615650E+03  0.55127615650E+03  0.00000000000E+00 0.  1.
         -2   -1    0    0    0  501 -0.00000000000E+00 -0.00000000000E+00 -0.78579595464E+00  0.78579595464E+00  0.00000000000E+00 0.  1.
          2    1    1    2  502    0  0.13794103937E+02  0.14869016789E+02  0.33720376905E+03  0.33781318332E+03  0.00000000000E+00 0.  1.
         -2    1    1    2    0  502 -0.13794103937E+02 -0.14869016789E+02  0.21328659149E+03  0.21424876913E+03  0.00000000000E+00 0.  1.
</event>
<event>
 4    1  0.3196713E+003  0.2680475E+02  0.7546771E-02  0.1449579E+00
          2   -1    0    0  501    0  0.00000000000E+00  0.00000000000E+00  0.40487024567E+03  0.40487024567E+03  0.00000000000E+00 0.  1.
         -2   -1    0    0    0  501 -0.00000000000E+00 -0.00000000000E+00 -0.97827903595E+01  0.97827903595E+01  0.00000000000E+00 0. -1.
          2    1    1    2  502    0 -0.20632120460E+02 -0.17111698056E+02  0.38512517380E+03  0.38605685346E+03  0.00000000000E+00 0.  1.
         -2    1    1    2    0  502  0.20632120460E+02  0.17111698056E+02  0.99622815124E+01  0.28596182577E+02  0.00000000000E+00 0. -1.
</event>
<event>
 4    1  0.3196713E+003  0.2313832E+02  0.7546771E-02  0.1490769E+00
          2   -1    0    0  501    0  0.00000000000E+00  0.00000000000E+00  0.11176549494E+03  0.11176549494E+03  0.00000000000E+00 0. -1.
         -2   -1    0    0    0  501 -0.00000000000E+00 -0.00000000000E+00 -0.27942810287E+02  0.27942810287E+02  0.00000000000E+00 0.  1.
          2    1    1    2  502    0 -0.35116725173E+01 -0.22870283180E+02  0.10549667507E+03  0.10800430615E+03  0.00000000000E+00 0. -1.
         -2    1    1    2    0  502  0.35116725173E+01  0.22870283180E+02 -0.21673990418E+02  0.31703999074E+02  0.00000000000E+00 0.  1.
</event>
<event>
 4    1  0.3196713E+003  0.2335647E+02  0.7546771E-02  0.1488070E+00
          2   -1    0    0  501    0  0.00000000000E+00  0.00000000000E+00  0.15848977679E+03  0.15848977679E+03  0.00000000000E+00 0. -1.
         -2   -1    0    0    0  501 -0.00000000000E+00 -0.00000000000E+00 -0.72977674066E+02  0.72977674066E+02  0.00000000000E+00 0.  1.
          2    1    1    2  502    0  0.11017754680E+02 -0.20594506371E+02  0.15572750155E+03  0.15746929654E+03  0.00000000000E+00 0. -1.
         -2    1    1    2    0  502 -0.11017754680E+02  0.20594506371E+02 -0.70215398827E+02  0.73998154324E+02  0.00000000000E+00 0.  1.
</event>
<event>
 4    1  0.3196713E+003  0.2239480E+02  0.7546771E-02  0.1500241E+00
          2   -1    0    0  501    0  0.00000000000E+00  0.00000000000E+00  0.23713926938E+03  0.23713926938E+03  0.00000000000E+00 0.  1.
         -2   -1    0    0    0  501 -0.00000000000E+00 -0.00000000000E+00 -0.14655941697E+02  0.14655941697E+02  0.00000000000E+00 0.  1.
          2    1    1    2  502    0  0.99500638696E+01  0.20062984080E+02  0.22770180706E+03  0.22880043715E+03  0.00000000000E+00 0.  1.
         -2    1    1    2    0  502 -0.99500638696E+01 -0.20062984080E+02 -0.52184793733E+01  0.22994773931E+02  0.00000000000E+00 0.  1.
</event>
<event>
 4    1  0.3196713E+003  0.2167110E+02  0.7546771E-02  0.1509895E+00
          2   -1    0    0  501    0  0.00000000000E+00  0.00000000000E+00  0.13678729559E+04  0.13678729559E+04  0.00000000000E+00 0.  1.
         -2   -1    0    0    0  501 -0.00000000000E+00 -0.00000000000E+00 -0.54813327442E+01  0.54813327442E+01  0.00000000000E+00 0. -1.
          2    1    1    2  502    0 -0.18099817644E+02  0.11917767002E+02  0.13460195656E+04  0.13461940081E+04  0.00000000000E+00 0.  1.
         -2    1    1    2    0  502  0.18099817644E+02 -0.11917767002E+02  0.16372057579E+02  0.27160280529E+02  0.00000000000E+00 0. -1.
</event>
<event>
 4    1  0.3196713E+003  0.2168131E+02  0.7546771E-02  0.1509756E+00
          2   -1    0    0  501    0  0.00000000000E+00  0.00000000000E+00  0.29090803241E+03  0.29090803241E+03  0.00000000000E+00 0. -1.
         -2   -1    0    0    0  501 -0.00000000000E+00 -0.00000000000E+00 -0.92436874942E+01  0.92436874942E+01  0.00000000000E+00 0.  1.
          2    1    1    2  502    0 -0.73140217186E+01 -0.20410397226E+02  0.27716091033E+03  0.27800764278E+03  0.00000000000E+00 0. -1.
         -2    1    1    2    0  502  0.73140217186E+01  0.20410397226E+02  0.45034345851E+01  0.22144077124E+02  0.00000000000E+00 0.  1.
</event>
<event>
 4    1  0.3196713E+003  0.2948142E+02  0.7546771E-02  0.1424157E+00
          2   -1    0    0  501    0  0.00000000000E+00  0.00000000000E+00  0.99273657162E+02  0.99273657162E+02  0.00000000000E+00 0. -1.
         -2   -1    0    0    0  501 -0.00000000000E+00 -0.00000000000E+00 -0.95008513138E+01  0.95008513138E+01  0.00000000000E+00 0.  1.
          2    1    1    2  502    0 -0.12587873813E+02  0.26658950966E+02  0.60123519936E+02  0.66962615565E+02  0.00000000000E+00 0. -1.
         -2    1    1    2    0  502  0.12587873813E+02 -0.26658950966E+02  0.29649285912E+02  0.41811892911E+02  0.00000000000E+00 0.  1.
</event>
<event>
 4    1  0.3196713E+003  0.6183228E+02  0.7546771E-02  0.1253731E+00
          2   -1    0    0  501    0  0.00000000000E+00  0.00000000000E+00  0.13347418961E+04  0.13347418961E+04  0.00000000000E+00 0.  1.
         -2   -1    0    0    0  501 -0.00000000000E+00 -0.00000000000E+00 -0.32381268628E+01  0.32381268628E+01  0.00000000000E+00 0.  1.
          2    1    1    2  502    0 -0.31324852344E+02 -0.53310234788E+02  0.43847619367E+03  0.44281440799E+03  0.00000000000E+00 0.  1.
         -2    1    1    2    0  502  0.31324852344E+02  0.53310234788E+02  0.89302757560E+03  0.89516561501E+03  0.00000000000E+00 0.  1.
</event>
<event>
 4    1  0.3196713E+003  0.3123060E+02  0.7546771E-02  0.1409196E+00
          2   -1    0    0  501    0  0.00000000000E+00  0.00000000000E+00  0.20655906128E+02  0.20655906128E+02  0.00000000000E+00 0. -1.
         -2   -1    0    0    0  501 -0.00000000000E+00 -0.00000000000E+00 -0.86809879082E+03  0.86809879082E+03  0.00000000000E+00 0.  1.
          2    1    1    2  502    0  0.70597341188E+01 -0.30422207008E+02  0.84013050537E+01  0.32340878957E+02  0.00000000000E+00 0. -1.
         -2    1    1    2    0  502 -0.70597341188E+01  0.30422207008E+02 -0.85584418975E+03  0.85641381799E+03  0.00000000000E+00 0.  1.
</event>
<event>
 4    1  0.3196713E+003  0.2028248E+02  0.7546771E-02  0.1529760E+00
          2   -1    0    0  501    0  0.00000000000E+00  0.00000000000E+00  0.14084373355E+03  0.14084373355E+03  0.00000000000E+00 0. -1.
         -2   -1    0    0    0  501 -0.00000000000E+00 -0.00000000000E+00 -0.37625114872E+01  0.37625114872E+01  0.00000000000E+00 0. -1.
          2    1    1    2  502    0  0.89888955954E+01  0.18181826643E+02  0.10273814906E+03  0.10472108830E+03  0.00000000000E+00 0. -1.
         -2    1    1    2    0  502 -0.89888955954E+01 -0.18181826643E+02  0.34343073007E+02  0.39885156733E+02  0.00000000000E+00 0. -1.
</event>
<event>
 4    1  0.3196713E+003  0.4086349E+02  0.7546771E-02  0.1343499E+00
          2   -1    0    0  501    0  0.00000000000E+00  0.00000000000E+00  0.10912956517E+02  0.10912956517E+02  0.00000000000E+00 0. -1.
         -2   -1    0    0    0  501 -0.00000000000E+00 -0.00000000000E+00 -0.15360992905E+03  0.15360992905E+03  0.00000000000E+00 0. -1.
          2    1    1    2  502    0  0.94545961746E+01  0.39754672121E+02 -0.76476829360E+02  0.86709450311E+02  0.00000000000E+00 0. -1.
         -2    1    1    2    0  502 -0.94545961746E+01 -0.39754672121E+02 -0.66220143170E+02  0.77813435252E+02  0.00000000000E+00 0. -1.
</event>
<event>
 4    1  0.3196713E+003  0.2304128E+02  0.7546771E-02  0.1491980E+00
          2   -1    0    0  501    0  0.00000000000E+00  0.00000000000E+00  0.81395432018E+03  0.81395432018E+03  0.00000000000E+00 0.  1.
         -2   -1    0    0    0  501 -0.00000000000E+00 -0.00000000000E+00 -0.52319424384E+02  0.52319424384E+02  0.00000000000E+00 0. -1.
          2    1    1    2  502    0  0.21955319826E+02  0.69903202879E+01  0.81124596669E+03  0.81157311384E+03  0.00000000000E+00 0.  1.
         -2    1    1    2    0  502 -0.21955319826E+02 -0.69903202879E+01 -0.49611070891E+02  0.54700630721E+02  0.00000000000E+00 0. -1.
</event>
<event>
 4    1  0.3196713E+003  0.2833333E+02  0.7546771E-02  0.1434655E+00
          2   -1    0    0  501    0  0.00000000000E+00  0.00000000000E+00  0.25603624944E+03  0.25603624944E+03  0.00000000000E+00 0. -1.
         -2   -1    0    0    0  501 -0.00000000000E+00 -0.00000000000E+00 -0.10391852812E+04  0.10391852812E+04  0.00000000000E+00 0. -1.
          2    1    1    2  502    0  0.20973528378E+02 -0.19049637150E+02  0.25505853325E+03  0.25662742050E+03  0.00000000000E+00 0. -1.
         -2    1    1    2    0  502 -0.20973528378E+02  0.19049637150E+02 -0.10382075650E+04  0.10385941101E+04  0.00000000000E+00 0. -1.
</event>
<event>
 4    1  0.3196713E+003  0.2641324E+02  0.7546771E-02  0.1453593E+00
          2   -1    0    0  501    0  0.00000000000E+00  0.00000000000E+00  0.66324079343E+02  0.66324079343E+02  0.00000000000E+00 0. -1.
         -2   -1    0    0    0  501 -0.00000000000E+00 -0.00000000000E+00 -0.23239999066E+02  0.23239999066E+02  0.00000000000E+00 0.  1.
          2    1    1    2  502    0 -0.11432955796E+01  0.26388485138E+02  0.54674019331E+02  0.60719911582E+02  0.00000000000E+00 0. -1.
         -2    1    1    2    0  502  0.11432955796E+01 -0.26388485138E+02 -0.11589939054E+02  0.28844166827E+02  0.00000000000E+00 0.  1.
</event>
<event>
 4    1  0.3196713E+003  0.2122064E+02  0.7546771E-02  0.1516138E+00
          2   -1    0    0  501    0  0.00000000000E+00  0.00000000000E+00  0.65156177412E+03  0.65156177412E+03  0.00000000000E+00 0.  1.
         -2   -1    0    0    0  501 -0.00000000000E+00 -0.00000000000E+00 -0.84018089063E+01  0.84018089063E+01  0.00000000000E+00 0. -1.
          2    1    1    2  502    0  0.14091822742E+02  0.15866195271E+02  0.63769840839E+03  0.63805138954E+03  0.00000000000E+00 0.  1.
         -2    1    1    2    0  502 -0.14091822742E+02 -0.15866195271E+02  0.54615568169E+01  0.21912193487E+02  0.00000000000E+00 0. -1.
</event>
<event>
 4    1  0.3196713E+003  0.2536658E+02  0.7546771E-02  0.1464744E+00
          2   -1    0    0  501    0  0.00000000000E+00  0.00000000000E+00  0.17922221001E+03  0.17922221001E+03  0.00000000000E+00 0.  1.
         -2   -1    0    0    0  501 -0.00000000000E+00 -0.00000000000E+00 -0.87454022432E+01  0.87454022432E+01  0.00000000000E+00 0.  1.
          2    1    1    2  502    0 -0.25210943928E+02 -0.28056119046E+01  0.15739588887E+03  0.15942687661E+03  0.00000000000E+00 0.  1.
         -2    1    1    2    0  502  0.25210943928E+02  0.28056119046E+01  0.13080918894E+02  0.28540735642E+02  0.00000000000E+00 0.  1.
</event>
<event>
 4    1  0.3196713E+003  0.2475396E+02  0.7546771E-02  0.1471575E+00
          2   -1    0    0  501    0  0.00000000000E+00  0.00000000000E+00  0.10029359055E+04  0.10029359055E+04  0.00000000000E+00 0.  1.
         -2   -1    0    0    0  501 -0.00000000000E+00 -0.00000000000E+00 -0.27721874504E+02  0.27721874504E+02  0.00000000000E+00 0.  1.
          2    1    1    2  502    0 -0.15984145807E+02  0.18901471981E+02  0.99722557829E+03  0.99753276265E+03  0.00000000000E+00 0.  1.
         -2    1    1    2    0  502  0.15984145807E+02 -0.18901471981E+02 -0.22011547297E+02  0.33125017353E+02  0.00000000000E+00 0.  1.
</event>
<event>
 4    1  0.3196713E+003  0.2545607E+02  0.7546771E-02  0.1463765E+00
          2   -1    0    0  501    0  0.00000000000E+00  0.00000000000E+00  0.16495665260E+04  0.16495665260E+04  0.00000000000E+00 0. -1.
         -2   -1    0    0    0  501 -0.00000000000E+00 -0.00000000000E+00 -0.65532415615E+02  0.65532415615E+02  0.00000000000E+00 0. -1.
          2    1    1    2  502    0  0.16683826025E+02  0.19226585967E+02  0.16469923495E+04  0.16471890635E+04  0.00000000000E+00 0. -1.
         -2    1    1    2    0  502 -0.16683826025E+02 -0.19226585967E+02 -0.62958239161E+02  0.67909878052E+02  0.00000000000E+00 0. -1.
</event>
<event>
 4    1  0.3196713E+003  0.2156961E+02  0.7546771E-02  0.1511286E+00
          2   -1    0    0  501    0  0.00000000000E+00  0.00000000000E+00  0.95146761892E+03  0.95146761892E+03  0.00000000000E+00 0. -1.
         -2   -1    0    0    0  501 -0.00000000000E+00 -0.00000000000E+00 -0.53897517295E+00  0.53897517295E+00  0.00000000000E+00 0.  1.
          2    1    1    2  502    0 -0.20393178557E+02  0.70261132640E+01  0.62043912448E+03  0.62081394571E+03  0.00000000000E+00 0. -1.
         -2    1    1    2    0  502  0.20393178557E+02 -0.70261132640E+01  0.33048951926E+03  0.33119264838E+03  0.00000000000E+00 0.  1.
</event>
<event>
 4    1  0.3196713E+003  0.2559655E+02  0.7546771E-02  0.1462239E+00
          2   -1    0    0  501    0  0.00000000000E+00  0.00000000000E+00  0.45663735825E+03  0.45663735825E+03  0.00000000000E+00 0.  1.
         -2   -1    0    0    0  501 -0.00000000000E+00 -0.00000000000E+00 -0.61278299526E+01  0.61278299526E+01  0.00000000000E+00 0.  1.
          2    1    1    2  502    0  0.88836228939E+01  0.24005512861E+02  0.42774495229E+03  0.42851012545E+03  0.00000000000E+00 0.  1.
         -2    1    1    2    0  502 -0.88836228939E+01 -0.24005512861E+02  0.22764576009E+02  0.34255062755E+02  0.00000000000E+00 0.  1.
</event>
<event>
 4    1  0.3196713E+003  0.2123546E+02  0.7546771E-02  0.1515930E+00
          2   -1    0    0  501    0  0.00000000000E+00  0.00000000000E+00  0.38257400053E+03  0.38257400053E+03  0.00000000000E+00 0.  1.
         -2   -1    0    0    0  501 -0.00000000000E+00 -0.00000000000E+00 -0.16660625839E+03  0.16660625839E+03  0.00000000000E+00 0. -1.
          2    1    1    2  502    0 -0.17657885273E+02  0.11795924881E+02  0.38160093589E+03  0.38219133824E+03  0.00000000000E+00 0.  1.
         -2    1    1    2    0  502  0.17657885273E+02 -0.11795924881E+02 -0.16563319375E+03  0.16698892067E+03  0.00000000000E+00 0. -1.
</event>
<event>
 4    1  0.3196713E+003  0.3003057E+02  0.7546771E-02  0.1419331E+00
          2   -1    0    0  501    0  0.00000000000E+00  0.00000000000E+00  0.16989892994E+04  0.16989892994E+04  0.00000000000E+00 0.  1.
         -2   -1    0    0    0  501 -0.00000000000E+00 -0.00000000000E+00 -0.17005837324E+02  0.17005837324E+02  0.00000000000E+00 0. -1.
          2    1    1    2  502    0 -0.17251182842E+02  0.24581122151E+02  0.16854927197E+04  0.16857602270E+04  0.00000000000E+00 0.  1.
         -2    1    1    2    0  502  0.17251182842E+02 -0.24581122151E+02 -0.35092576162E+01  0.30234909702E+02  0.00000000000E+00 0. -1.
</event>
<event>
 4    1  0.3196713E+003  0.2248163E+02  0.7546771E-02  0.1499112E+00
          2   -1    0    0  501    0  0.00000000000E+00  0.00000000000E+00  0.17547992745E+03  0.17547992745E+03  0.00000000000E+00 0.  1.
         -2   -1    0    0    0  501 -0.00000000000E+00 -0.00000000000E+00 -0.54405716610E+02  0.54405716610E+02  0.00000000000E+00 0.  1.
          2    1    1    2  502    0 -0.21680545012E+02  0.59479044620E+01  0.17239602335E+03  0.17385572313E+03  0.00000000000E+00 0.  1.
         -2    1    1    2    0  502  0.21680545012E+02 -0.59479044620E+01 -0.51321812511E+02  0.56029920926E+02  0.00000000000E+00 0.  1.
</event>
<event>
 4    1  0.3196713E+003  0.5691186E+02  0.7546771E-02  0.1270702E+00
          2   -1    0    0  501    0  0.00000000000E+00  0.00000000000E+00  0.14349821122E+04  0.14349821122E+04  0.00000000000E+00 0.  1.
         -2   -1    0    0    0  501 -0.00000000000E+00 -0.00000000000E+00 -0.11642608626E+03  0.11642608626E+03  0.00000000000E+00 0.  1.
          2    1    1    2  502    0  0.39703940114E+02 -0.40774468976E+02  0.14274260541E+04  0.14285601493E+04  0.00000000000E+00 0.  1.
         -2    1    1    2    0  502 -0.39703940114E+02  0.40774468976E+02 -0.10887002811E+03  0.12284804924E+03  0.00000000000E+00 0.  1.
</event>
<event>
 4    1  0.3196713E+003  0.2064846E+02  0.7546771E-02  0.1524344E+00
          2   -1    0    0  501    0  0.00000000000E+00  0.00000000000E+00  0.68877624834E+03  0.68877624834E+03  0.00000000000E+00 0. -1.
         -2   -1    0    0    0  501 -0.00000000000E+00 -0.00000000000E+00 -0.40520779793E+02  0.40520779793E+02  0.00000000000E+00 0. -1.
          2    1    1    2  502    0  0.88739230515E+01  0.18644362336E+02  0.68598028242E+03  0.68629097811E+03  0.00000000000E+00 0. -1.
         -2    1    1    2    0  502 -0.88739230515E+01 -0.18644362336E+02 -0.37724813874E+02  0.43006050029E+02  0.00000000000E+00 0. -1.
</event>
<event>
 4    1  0.3196713E+003  0.2349672E+02  0.7546771E-02  0.1486353E+00
          2   -1    0    0  501    0  0.00000000000E+00  0.00000000000E+00  0.14105235815E+04  0.14105235815E+04  0.00000000000E+00 0.  1.
         -2   -1    0    0    0  501 -0.00000000000E+00 -0.00000000000E+00 -0.20762191232E+01  0.20762191232E+01  0.00000000000E+00 0.  1.
          2    1    1    2  502    0 -0.23392953237E+02 -0.22058127131E+01  0.13404734612E+04  0.13406793785E+04  0.00000000000E+00 0.  1.
         -2    1    1    2    0  502  0.23392953237E+02  0.22058127131E+01  0.67973901177E+02  0.71920422080E+02  0.00000000000E+00 0.  1.
</event>
<event>
 4    1  0.3196713E+003  0.3463985E+02  0.7546771E-02  0.1383113E+00
          2   -1    0    0  501    0  0.00000000000E+00  0.00000000000E+00  0.25126941846E+03  0.25126941846E+03  0.00000000000E+00 0. -1.
         -2   -1    0    0    0  501 -0.00000000000E+00 -0.00000000000E+00 -0.21144462024E+02  0.21144462024E+02  0.00000000000E+00 0.  1.
          2    1    1    2  502    0  0.33258159127E+02 -0.96857831352E+01  0.23490540726E+03  0.23744571991E+03  0.00000000000E+00 0. -1.
         -2    1    1    2    0  502 -0.33258159127E+02  0.96857831352E+01 -0.47804508296E+01  0.34968160569E+02  0.00000000000E+00 0.  1.
</event>
<event>
 4    1  0.3196713E+003  0.2316218E+02  0.7546771E-02  0.1490472E+00
          2   -1    0    0  501    0  0.00000000000E+00  0.00000000000E+00  0.10779467559E+04  0.10779467559E+04  0.00000000000E+00 0. -1.
         -2   -1    0    0    0  501 -0.00000000000E+00 -0.00000000000E+00 -0.34896512551E+01  0.34896512551E+01  0.00000000000E+00 0. -1.
          2    1    1    2  502    0 -0.93232572505E+00 -0.23143405493E+02  0.10379056765E+04  0.10381640909E+04  0.00000000000E+00 0. -1.
         -2    1    1    2    0  502  0.93232572505E+00  0.23143405493E+02  0.36551428119E+02  0.43272316169E+02  0.00000000000E+00 0. -1.
</event>
<event>
 4    1  0.3196713E+003  0.4384304E+02  0.7546771E-02  0.1327327E+00
          2   -1    0    0  501    0  0.00000000000E+00  0.00000000000E+00  0.91266005478E+03  0.91266005478E+03  0.00000000000E+00 0.  1.
         -2   -1    0    0    0  501 -0.00000000000E+00 -0.00000000000E+00 -0.11578347152E+02  0.11578347152E+02  0.00000000000E+00 0.  1.
          2    1    1    2  502    0  0.33311436708E+02  0.28505451003E+02  0.86852109637E+03  0.86962699325E+03  0.00000000000E+00 0.  1.
         -2    1    1    2    0  502 -0.33311436708E+02 -0.28505451003E+02  0.32560611253E+02  0.54611408676E+02  0.00000000000E+00 0.  1.
</event>
<event>
 4    1  0.3196713E+003  0.2823894E+02  0.7546771E-02  0.1435545E+00
          2   -1    0    0  501    0  0.00000000000E+00  0.00000000000E+00  0.22999458710E+04  0.22999458710E+04  0.00000000000E+00 0. -1.
         -2   -1    0    0    0  501 -0.00000000000E+00 -0.00000000000E+00 -0.34839706843E+00  0.34839706843E+00  0.00000000000E+00 0.  1.
          2    1    1    2  502    0  0.22520271806E+02  0.17037461144E+02  0.12295915624E+04  0.12299157890E+04  0.00000000000E+00 0.  1.
         -2    1    1    2    0  502 -0.22520271806E+02 -0.17037461144E+02  0.10700059115E+04  0.10703784791E+04  0.00000000000E+00 0. -1.
</event>
<event>
 4    1  0.3196713E+003  0.2168982E+02  0.7546771E-02  0.1509640E+00
          2   -1    0    0  501    0  0.00000000000E+00  0.00000000000E+00  0.13068358455E+03  0.13068358455E+03  0.00000000000E+00 0. -1.
         -2   -1    0    0    0  501 -0.00000000000E+00 -0.00000000000E+00 -0.36122293628E+01  0.36122293628E+01  0.00000000000E+00 0. -1.
          2    1    1    2  502    0 -0.21470770160E+02  0.30747883197E+01  0.67458090802E+02  0.70859313496E+02  0.00000000000E+00 0. -1.
         -2    1    1    2    0  502  0.21470770160E+02 -0.30747883197E+01  0.59613264388E+02  0.63436500420E+02  0.00000000000E+00 0. -1.
</event>
<event>
 4    1  0.3196713E+003  0.3310552E+02  0.7546771E-02  0.1394394E+00
          2   -1    0    0  501    0  0.00000000000E+00  0.00000000000E+00  0.26407628658E+03  0.26407628658E+03  0.00000000000E+00 0. -1.
         -2   -1    0    0    0  501 -0.00000000000E+00 -0.00000000000E+00 -0.28063464339E+02  0.28063464339E+02  0.00000000000E+00 0. -1.
          2    1    1    2  502    0 -0.33093621681E+02 -0.88765369928E+00  0.25284345817E+03  0.25500154914E+03  0.00000000000E+00 0. -1.
         -2    1    1    2    0  502  0.33093621681E+02  0.88765369928E+00 -0.16830635933E+02  0.37138201774E+02  0.00000000000E+00 0. -1.
</event>
<event>
 4    1  0.3196713E+003  0.5901533E+02  0.7546771E-02  0.1263215E+00
          2   -1    0    0  501    0  0.00000000000E+00  0.00000000000E+00  0.60180491462E+03  0.60180491462E+03  0.00000000000E+00 0. -1.
         -2   -1    0    0    0  501 -0.00000000000E+00 -0.00000000000E+00 -0.96358787970E+01  0.96358787970E+01  0.00000000000E+00 0.  1.
          2    1    1    2  502    0 -0.14810220812E+02 -0.57126755054E+02  0.48929492544E+03  0.49284108275E+03  0.00000000000E+00 0. -1.
         -2    1    1    2    0  502  0.14810220812E+02  0.57126755054E+02  0.10287411038E+03  0.11859971067E+03  0.00000000000E+00 0.  1.
</event>
<event>
 4    1  0.3196713E+003  0.2961679E+02  0.7546771E-02  0.1422956E+00
          2   -1    0    0  501    0  0.00000000000E+00  0.00000000000E+00  0.20583956567E+04  0.20583956567E+04  0.00000000000E+00 0. -1.
         -2   -1    0    0    0  501 -0.00000000000E+00 -0.00000000000E+00 -0.43611104722E+00  0.43611104722E+00  0.00000000000E+00 0.  1.
          2    1    1    2  502    0  0.21955721195E+02  0.19877131228E+02  0.11846751568E+04  0.11850453077E+04  0.00000000000E+00 0. -1.
         -2    1    1    2    0  502 -0.21955721195E+02 -0.19877131228E+02  0.87328438884E+03  0.87378646008E+03  0.00000000000E+00 0.  1.
</event>
<event>
 4    1  0.3196713E+003  0.2448552E+02  0.7546771E-02  0.1474642E+00
          2   -1    0    0  501    0  0.00000000000E+00  0.00000000000E+00  0.67451448735E+03  0.67451448735E+03  0.00000000000E+00 0. -1.
         -2   -1    0    0    0  501 -0.00000000000E+00 -0.00000000000E+00 -0.14495625129E+01  0.14495625129E+01  0.00000000000E+00 0.  1.
          2    1    1    2  502    0  0.10398962974E+01  0.24463424282E+02  0.54673900222E+03  0.54728701525E+03  0.00000000000E+00 0. -1.
         -2    1    1    2    0  502 -0.10398962974E+01 -0.24463424282E+02  0.12632592262E+03  0.12867703462E+03  0.00000000000E+00 0.  1.
</event>
<event>
 4    1  0.3196713E+003  0.3079261E+02  0.7546771E-02  0.1412831E+00
          2   -1    0    0  501    0  0.00000000000E+00  0.00000000000E+00  0.17153027565E+02  0.17153027565E+02  0.00000000000E+00 0. -1.
         -2   -1    0    0    0  501 -0.00000000000E+00 -0.00000000000E+00 -0.66885877508E+02  0.66885877508E+02  0.00000000000E+00 0.  1.
          2    1    1    2  502    0 -0.12914710183E+02 -0.27953446929E+02 -0.73615215883E+01  0.31660336928E+02  0.00000000000E+00 0. -1.
         -2    1    1    2    0  502  0.12914710183E+02  0.27953446929E+02 -0.42371328354E+02  0.52378568144E+02  0.00000000000E+00 0.  1.
</event>
<event>
 4    1  0.3196713E+003  0.2085629E+02  0.7546771E-02  0.1521327E+00
          2   -1    0    0  501    0  0.00000000000E+00  0.00000000000E+00  0.10502395594E+04  0.10502395594E+04  0.00000000000E+00 0.  1.
         -2   -1    0    0    0  501 -0.00000000000E+00 -0.00000000000E+00 -0.18887125036E+01  0.18887125036E+01  0.00000000000E+00 0.  1.
          2    1    1    2  502    0  0.20318576022E+02  0.47053479366E+01  0.98899393736E+03  0.98921382570E+03  0.00000000000E+00 0.  1.
         -2    1    1    2    0  502 -0.20318576022E+02 -0.47053479366E+01  0.59356909534E+02  0.62914446196E+02  0.00000000000E+00 0.  1.
</event>
<event>
 4    1  0.3196713E+003  0.2663106E+02  0.7546771E-02  0.1451350E+00
          2   -1    0    0  501    0  0.00000000000E+00  0.00000000000E+00  0.24355470352E+03  0.24355470352E+03  0.00000000000E+00 0. -1.
         -2   -1    0    0    0  501 -0.00000000000E+00 -0.00000000000E+00 -0.42014873252E+01  0.42014873252E+01  0.00000000000E+00 0.  1.
          2    1    1    2  502    0  0.26629249956E+02  0.31079364390E+00  0.18830657705E+03  0.19018038938E+03  0.00000000000E+00 0. -1.
         -2    1    1    2    0  502 -0.26629249956E+02 -0.31079364390E+00  0.51046639143E+02  0.57575801460E+02  0.00000000000E+00 0.  1.
</event>
<event>
 4    1  0.3196713E+003  0.2907512E+02  0.7546771E-02  0.1427807E+00
          2   -1    0    0  501    0  0.00000000000E+00  0.00000000000E+00  0.13818810132E+04  0.13818810132E+04  0.00000000000E+00 0. -1.
         -2   -1    0    0    0  501 -0.00000000000E+00 -0.00000000000E+00 -0.15475245116E+01  0.15475245116E+01  0.00000000000E+00 0.  1.
          2    1    1    2  502    0  0.17515301896E+02  0.23207255726E+02  0.12280575341E+04  0.12284016727E+04  0.00000000000E+00 0. -1.
         -2    1    1    2    0  502 -0.17515301896E+02 -0.23207255726E+02  0.15227595463E+03  0.15502686501E+03  0.00000000000E+00 0.  1.
</event>
<event>
 4    1  0.3196713E+003  0.2215471E+02  0.7546771E-02  0.1503394E+00
          2   -1    0    0  501    0  0.00000000000E+00  0.00000000000E+00  0.78312254301E+02  0.78312254301E+02  0.00000000000E+00 0.  1.
         -2   -1    0    0    0  501 -0.00000000000E+00 -0.00000000000E+00 -0.16227162682E+02  0.16227162682E+02  0.00000000000E+00 0. -1.
          2    1    1    2  502    0 -0.18438032471E+02  0.12282926838E+02  0.68074903320E+02  0.71589271508E+02  0.00000000000E+00 0.  1.
         -2    1    1    2    0  502  0.18438032471E+02 -0.12282926838E+02 -0.59898117005E+01  0.22950145475E+02  0.00000000000E+00 0. -1.
</event>
<event>
 4    1  0.3196713E+003  0.5339006E+02  0.7546771E-02  0.1284107E+00
          2   -1    0    0  501    0  0.00000000000E+00  0.00000000000E+00  0.42502277699E+01  0.42502277699E+01  0.00000000000E+00 0. -1.
         -2   -1    0    0    0  501 -0.00000000000E+00 -0.00000000000E+00 -0.11636747104E+04  0.11636747104E+04  0.00000000000E+00 0. -1.
          2    1    1    2  502    0  0.14256149433E+02 -0.51451537789E+02 -0.19961488338E+03  0.20663155665E+03  0.00000000000E+00 0. -1.
         -2    1    1    2    0  502 -0.14256149433E+02  0.51451537789E+02 -0.95980959923E+03  0.96129338150E+03  0.00000000000E+00 0. -1.
</event>
<event>
 4    1  0.3196713E+003  0.2328179E+02  0.7546771E-02  0.1488990E+00
          2   -1    0    0  501    0  0.00000000000E+00  0.00000000000E+00  0.42686713140E+03  0.42686713140E+03  0.00000000000E+00 0. -1.
         -2   -1    0    0    0  501 -0.00000000000E+00 -0.00000000000E+00 -0.14824866914E+01  0.14824866914E+01  0.00000000000E+00 0.  1.
          2    1    1    2  502    0  0.20559351905E+01 -0.23190831384E+02  0.29381263936E+03  0.29473362309E+03  0.00000000000E+00 0. -1.
         -2    1    1    2    0  502 -0.20559351905E+01  0.23190831384E+02  0.13157200534E+03  0.13361599500E+03  0.00000000000E+00 0.  1.
</event>
<event>
 4    1  0.3196713E+003  0.2222777E+02  0.7546771E-02  0.1502430E+00
          2   -1    0    0  501    0  0.00000000000E+00  0.00000000000E+00  0.47518320052E+03  0.47518320052E+03  0.00000000000E+00 0. -1.
         -2   -1    0    0    0  501 -0.00000000000E+00 -0.00000000000E+00 -0.31472149615E+01  0.31472149615E+01  0.00000000000E+00 0.  1.
          2    1    1    2  502    0  0.11462183388E+02  0.19044476167E+02  0.43172868286E+03  0.43230050812E+03  0.00000000000E+00 0. -1.
         -2    1    1    2    0  502 -0.11462183388E+02 -0.19044476167E+02  0.40307302699E+02  0.46029907358E+02  0.00000000000E+00 0.  1.
</event>
<event>
 4    1  0.3196713E+003  0.6429238E+02  0.7546771E-02  0.1245907E+00
          2   -1    0    0  501    0  0.00000000000E+00  0.00000000000E+00  0.66960153045E+03  0.66960153045E+03  0.00000000000E+00 0. -1.
         -2   -1    0    0    0  501 -0.00000000000E+00 -0.00000000000E+00 -0.24434335054E+03  0.24434335054E+03  0.00000000000E+00 0. -1.
          2    1    1    2  502    0  0.32846827429E+02  0.55268398189E+02  0.66379212890E+03  0.66689841828E+03  0.00000000000E+00 0. -1.
         -2    1    1    2    0  502 -0.32846827429E+02 -0.55268398189E+02 -0.23853394900E+03  0.24704646270E+03  0.00000000000E+00 0. -1.
</event>
<event>
 4    1  0.3196713E+003  0.2419555E+02  0.7546771E-02  0.1478008E+00
          2   -1    0    0  501    0  0.00000000000E+00  0.00000000000E+00  0.46253103882E+03  0.46253103882E+03  0.00000000000E+00 0.  1.
         -2   -1    0    0    0  501 -0.00000000000E+00 -0.00000000000E+00 -0.70111615606E+01  0.70111615606E+01  0.00000000000E+00 0.  1.
          2    1    1    2  502    0  0.31190302523E+01 -0.23993671067E+02  0.44028599612E+03  0.44095031804E+03  0.00000000000E+00 0.  1.
         -2    1    1    2    0  502 -0.31190302523E+01  0.23993671067E+02  0.15233881133E+02  0.28591882333E+02  0.00000000000E+00 0.  1.
</event>
<event>
 4    1  0.3196713E+003  0.2757243E+02  0.7546771E-02  0.1441941E+00
          2   -1    0    0  501    0  0.00000000000E+00  0.00000000000E+00  0.85302159648E+03  0.85302159648E+03  0.00000000000E+00 0. -1.
         -2   -1    0    0    0  501 -0.00000000000E+00 -0.00000000000E+00 -0.28038578233E+02  0.28038578233E+02  0.00000000000E+00 0.  1.
          2    1    1    2  502    0  0.27381956637E+02  0.32353569028E+01  0.84596374129E+03  0.84641295516E+03  0.00000000000E+00 0. -1.
         -2    1    1    2    0  502 -0.27381956637E+02 -0.32353569028E+01 -0.20980723042E+02  0.34647219555E+02  0.00000000000E+00 0.  1.
</event>
<event>
 4    1  0.3196713E+003  0.2294762E+02  0.7546771E-02  0.1493157E+00
          2   -1    0    0  501    0  0.00000000000E+00  0.00000000000E+00  0.17466099057E+02  0.17466099057E+02  0.00000000000E+00 0. -1.
         -2   -1    0    0    0  501 -0.00000000000E+00 -0.00000000000E+00 -0.83592666755E+03  0.83592666755E+03  0.00000000000E+00 0. -1.
          2    1    1    2  502    0  0.22789062189E+02  0.26929642462E+01  0.97005838285E+01  0.24913745975E+02  0.00000000000E+00 0. -1.
         -2    1    1    2    0  502 -0.22789062189E+02 -0.26929642462E+01 -0.82816115232E+03  0.82847902063E+03  0.00000000000E+00 0. -1.
</event>
<event>
 4    1  0.3196713E+003  0.4033610E+02  0.7546771E-02  0.1346527E+00
          2   -1    0    0  501    0  0.00000000000E+00  0.00000000000E+00  0.20988078315E+04  0.20988078315E+04  0.00000000000E+00 0. -1.
         -2   -1    0    0    0  501 -0.00000000000E+00 -0.00000000000E+00 -0.39826494740E+01  0.39826494740E+01  0.00000000000E+00 0. -1.
          2    1    1    2  502    0 -0.70173689420E+01 -0.39720993903E+02  0.19909512856E+04  0.19913598426E+04  0.00000000000E+00 0. -1.
         -2    1    1    2    0  502  0.70173689420E+01  0.39720993903E+02  0.10387389636E+03  0.11143063837E+03  0.00000000000E+00 0. -1.
</event>
<event>
 4    1  0.3196713E+003  0.2516618E+02  0.7546771E-02  0.1466953E+00
          2   -1    0    0  501    0  0.00000000000E+00  0.00000000000E+00  0.51631080223E+02  0.51631080223E+02  0.00000000000E+00 0.  1.
         -2   -1    0    0    0  501 -0.00000000000E+00 -0.00000000000E+00 -0.22998360406E+03  0.22998360406E+03  0.00000000000E+00 0. -1.
          2    1    1    2  502    0  0.22638743762E+02  0.10991991220E+02  0.47824524911E+02  0.54041852050E+02  0.00000000000E+00 0.  1.
         -2    1    1    2    0  502 -0.22638743762E+02 -0.10991991220E+02 -0.22617704874E+03  0.22757283223E+03  0.00000000000E+00 0. -1.
</event>
<event>
 4    1  0.3196713E+003  0.2932270E+02  0.7546771E-02  0.1425575E+00
          2   -1    0    0  501    0  0.00000000000E+00  0.00000000000E+00  0.60148897011E+03  0.60148897011E+03  0.00000000000E+00 0. -1.
         -2   -1    0    0    0  501 -0.00000000000E+00 -0.00000000000E+00 -0.50209985752E+01  0.50209985752E+01  0.00000000000E+00 0.  1.
          2    1    1    2  502    0  0.46943554579E+01 -0.28944494378E+02  0.55471281786E+03  0.55548729151E+03  0.00000000000E+00 0. -1.
         -2    1    1    2    0  502 -0.46943554579E+01  0.28944494378E+02  0.41755153674E+02  0.51022677178E+02  0.00000000000E+00 0.  1.
</event>
<event>
 4    1  0.3196713E+003  0.2105585E+02  0.7546771E-02  0.1518469E+00
          2   -1    0    0  501    0  0.00000000000E+00  0.00000000000E+00  0.14663340804E+04  0.14663340804E+04  0.00000000000E+00 0.  1.
         -2   -1    0    0    0  501 -0.00000000000E+00 -0.00000000000E+00 -0.19542220667E+02  0.19542220667E+02  0.00000000000E+00 0. -1.
          2    1    1    2  502    0  0.16652366669E+02  0.12885936349E+02  0.14605644116E+04  0.14607161768E+04  0.00000000000E+00 0.  1.
         -2    1    1    2    0  502 -0.16652366669E+02 -0.12885936349E+02 -0.13772551842E+02  0.25160124314E+02  0.00000000000E+00 0. -1.
</event>
<event>
 4    1  0.3196713E+003  0.2391739E+02  0.7546771E-02  0.1481289E+00
          2   -1    0    0  501    0  0.00000000000E+00  0.00000000000E+00  0.12018143497E+04  0.12018143497E+04  0.00000000000E+00 0.  1.
         -2   -1    0    0    0  501 -0.00000000000E+00 -0.00000000000E+00 -0.90638770559E+01  0.90638770559E+01  0.00000000000E+00 0. -1.
          2    1    1    2  502    0 -0.14901247943E+02  0.18708130865E+02  0.11857029292E+04  0.11859441292E+04  0.00000000000E+00 0.  1.
         -2    1    1    2    0  502  0.14901247943E+02 -0.18708130865E+02  0.70475434462E+01  0.24934097524E+02  0.00000000000E+00 0. -1.
</event>
<event>
 4    1  0.3196713E+003  0.2317549E+02  0.7546771E-02  0.1490306E+00
          2   -1    0    0  501    0  0.00000000000E+00  0.00000000000E+00  0.24745292099E+03  0.24745292099E+03  0.00000000000E+00 0.  1.
         -2   -1    0    0    0  501 -0.00000000000E+00 -0.00000000000E+00 -0.12134273849E+03  0.12134273849E+03  0.00000000000E+00 0.  1.
          2    1    1    2  502    0 -0.22976398841E+02 -0.30312635715E+01  0.24579626375E+03  0.24688642477E+03  0.00000000000E+00 0.  1.
         -2    1    1    2    0  502  0.22976398841E+02  0.30312635715E+01 -0.11968608125E+03  0.12190923471E+03  0.00000000000E+00 0.  1.
</event>
<event>
 4    1  0.3196713E+003  0.3134917E+02  0.7546771E-02  0.1408224E+00
          2   -1    0    0  501    0  0.00000000000E+00  0.00000000000E+00  0.96164877369E+02  0.96164877369E+02  0.00000000000E+00 0.  1.
         -2   -1    0    0    0  501 -0.00000000000E+00 -0.00000000000E+00 -0.25362204045E+02  0.25362204045E+02  0.00000000000E+00 0. -1.
          2    1    1    2  502    0 -0.12092125758E+00  0.31348939155E+02  0.82352813666E+02  0.88117855891E+02  0.00000000000E+00 0.  1.
         -2    1    1    2    0  502  0.12092125758E+00 -0.31348939155E+02 -0.11550140342E+02  0.33409225522E+02  0.00000000000E+00 0. -1.
</event>
<event>
 4    1  0.3196713E+003  0.3555252E+02  0.7546771E-02  0.1376720E+00
          2   -1    0    0  501    0  0.00000000000E+00  0.00000000000E+00  0.16455275421E+03  0.16455275421E+03  0.00000000000E+00 0. -1.
         -2   -1    0    0    0  501 -0.00000000000E+00 -0.00000000000E+00 -0.22186197774E+02  0.22186197774E+02  0.00000000000E+00 0.  1.
          2    1    1    2  502    0  0.35523083844E+02  0.14464775694E+01  0.14667869219E+03  0.15092587759E+03  0.00000000000E+00 0. -1.
         -2    1    1    2    0  502 -0.35523083844E+02 -0.14464775694E+01 -0.43121357508E+01  0.35813074399E+02  0.00000000000E+00 0.  1.
</event>
<event>
 4    1  0.3196713E+003  0.2070715E+02  0.7546771E-02  0.1523487E+00
          2   -1    0    0  501    0  0.00000000000E+00  0.00000000000E+00  0.56300912833E+03  0.56300912833E+03  0.00000000000E+00 0. -1.
         -2   -1    0    0    0  501 -0.00000000000E+00 -0.00000000000E+00 -0.25439533604E+01  0.25439533604E+01  0.00000000000E+00 0. -1.
          2    1    1    2  502    0 -0.19673345605E+02 -0.64610868593E+01  0.51692593504E+03  0.51734051502E+03  0.00000000000E+00 0. -1.
         -2    1    1    2    0  502  0.19673345605E+02  0.64610868593E+01  0.43539239929E+02  0.48212566663E+02  0.00000000000E+00 0. -1.
</event>
<event>
 4    1  0.3196713E+003  0.2734796E+02  0.7546771E-02  0.1444144E+00
          2   -1    0    0  501    0  0.00000000000E+00  0.00000000000E+00  0.11552239395E+04  0.11552239395E+04  0.00000000000E+00 0.  1.
         -2   -1    0    0    0  501 -0.00000000000E+00 -0.00000000000E+00 -0.79492735444E+00  0.79492735444E+00  0.00000000000E+00 0.  1.
          2    1    1    2  502    0  0.25326656626E+02  0.10318492242E+02  0.82620540735E+03  0.82665790140E+03  0.00000000000E+00 0.  1.
         -2    1    1    2    0  502 -0.25326656626E+02 -0.10318492242E+02  0.32822360481E+03  0.32936096547E+03  0.00000000000E+00 0.  1.
</event>
<event>
 4    1  0.3196713E+003  0.2325500E+02  0.7546771E-02  0.1489321E+00
          2   -1    0    0  501    0  0.00000000000E+00  0.00000000000E+00  0.94839308502E+03  0.94839308502E+03  0.00000000000E+00 0.  1.
         -2   -1    0    0    0  501 -0.00000000000E+00 -0.00000000000E+00 -0.33231090854E+02  0.33231090854E+02  0.00000000000E+00 0. -1.
          2    1    1    2  502    0 -0.23254788497E+02 -0.98368995683E-01  0.94416386783E+03  0.94445021266E+03  0.00000000000E+00 0.  1.
         -2    1    1    2    0  502  0.23254788497E+02  0.98368995683E-01 -0.29001873671E+02  0.37173963213E+02  0.00000000000E+00 0. -1.
</event>
<event>
 4    1  0.3196713E+003  0.2245215E+02  0.7546771E-02  0.1499495E+00
          2   -1    0    0  501    0  0.00000000000E+00  0.00000000000E+00  0.75064914552E+01  0.75064914552E+01  0.00000000000E+00 0. -1.
         -2   -1    0    0    0  501 -0.00000000000E+00 -0.00000000000E+00 -0.14796915358E+03  0.14796915358E+03  0.00000000000E+00 0. -1.
          2    1    1    2  502    0 -0.20667109705E+02 -0.87732220503E+01 -0.12781290109E+02  0.25835251606E+02  0.00000000000E+00 0. -1.
         -2    1    1    2    0  502  0.20667109705E+02  0.87732220503E+01 -0.12768137201E+03  0.12964039343E+03  0.00000000000E+00 0. -1.
</event>
<event>
 4    1  0.3196713E+003  0.3421865E+02  0.7546771E-02  0.1386141E+00
          2   -1    0    0  501    0  0.00000000000E+00  0.00000000000E+00  0.21293709107E+02  0.21293709107E+02  0.00000000000E+00 0. -1.
         -2   -1    0    0    0  501 -0.00000000000E+00 -0.00000000000E+00 -0.67372109543E+02  0.67372109543E+02  0.00000000000E+00 0.  1.
          2    1    1    2  502    0  0.72539111567E+01  0.33440943052E+02 -0.40326102986E+01  0.34455447249E+02  0.00000000000E+00 0. -1.
         -2    1    1    2    0  502 -0.72539111567E+01 -0.33440943052E+02 -0.42045790137E+02  0.54210371402E+02  0.00000000000E+00 0.  1.
</event>
<event>
 4    1  0.3196713E+003  0.4914529E+02  0.7546771E-02  0.1301921E+00
          2   -1    0    0  501    0  0.00000000000E+00  0.00000000000E+00  0.17241205205E+04  0.17241205205E+04  0.00000000000E+00 0. -1.
         -2   -1    0    0    0  501 -0.00000000000E+00 -0.00000000000E+00 -0.73461205924E+01  0.73461205924E+01  0.00000000000E+00 0.  1.
          2    1    1    2  502    0 -0.36046254772E+02  0.33405494243E+02  0.16372130960E+04  0.16379505429E+04  0.00000000000E+00 0. -1.
         -2    1    1    2    0  502  0.36046254772E+02 -0.33405494243E+02  0.79561303968E+02  0.93516098174E+02  0.00000000000E+00 0.  1.
</event>
<event>
 4    1  0.3196713E+003  0.2000086E+02  0.7546771E-02  0.1534022E+00
          2   -1    0    0  501    0  0.00000000000E+00  0.00000000000E+00  0.61328190115E+02  0.61328190115E+02  0.00000000000E+00 0.  1.
         -2   -1    0    0    0  501 -0.00000000000E+00 -0.00000000000E+00 -0.45418406316E+02  0.45418406316E+02  0.00000000000E+00 0. -1.
          2    1    1    2  502    0  0.10017881422E+02 -0.17311165807E+02  0.57347061687E+02  0.60734832624E+02  0.00000000000E+00 0.  1.
         -2    1    1    2    0  502 -0.10017881422E+02  0.17311165807E+02 -0.41437277888E+02  0.46011763806E+02  0.00000000000E+00 0. -1.
</event>
<event>
 4    1  0.3196713E+003  0.2002072E+02  0.7546771E-02  0.1533719E+00
          2   -1    0    0  501    0  0.00000000000E+00  0.00000000000E+00  0.26021953324E+03  0.26021953324E+03  0.00000000000E+00 0. -1.
         -2   -1    0    0    0  501 -0.00000000000E+00 -0.00000000000E+00 -0.17479510532E+01  0.17479510532E+01  0.00000000000E+00 0.  1.
          2    1    1    2  502    0  0.88098232085E+01  0.17978221083E+02  0.17437630411E+03  0.17552186431E+03  0.00000000000E+00 0. -1.
         -2    1    1    2    0  502 -0.88098232085E+01 -0.17978221083E+02  0.84095278084E+02  0.86445619983E+02  0.00000000000E+00 0.  1.
</event>
<event>
 4    1  0.3196713E+003  0.4118003E+02  0.7546771E-02  0.1341706E+00
          2   -1    0    0  501    0  0.00000000000E+00  0.00000000000E+00  0.42622247799E+03  0.42622247799E+03  0.00000000000E+00 0.  1.
         -2   -1    0    0    0  501 -0.00000000000E+00 -0.00000000000E+00 -0.15541787129E+02  0.15541787129E+02  0.00000000000E+00 0.  1.
          2    1    1    2  502    0  0.18454249869E+02 -0.36813528841E+02  0.39586348005E+03  0.39799961066E+03  0.00000000000E+00 0.  1.
         -2    1    1    2    0  502 -0.18454249869E+02  0.36813528841E+02  0.14817210808E+02  0.43764654461E+02  0.00000000000E+00 0.  1.
</event>
<event>
 4    1  0.3196713E+003  0.2793031E+02  0.7546771E-02  0.1438480E+00
          2   -1    0    0  501    0  0.00000000000E+00  0.00000000000E+00  0.30832848350E+04  0.30832848350E+04  0.00000000000E+00 0.  1.
         -2   -1    0    0    0  501 -0.00000000000E+00 -0.00000000000E+00 -0.25337532066E+00  0.25337532066E+00  0.00000000000E+00 0. -1.
          2    1    1    2  502    0  0.95359190406E+01  0.26252017904E+02  0.16000508449E+04  0.16002946005E+04  0.00000000000E+00 0.  1.
         -2    1    1    2    0  502 -0.95359190406E+01 -0.26252017904E+02  0.14829806148E+04  0.14832436098E+04  0.00000000000E+00 0. -1.
</event>
<event>
 4    1  0.3196713E+003  0.4320065E+02  0.7546771E-02  0.1330686E+00
          2   -1    0    0  501    0  0.00000000000E+00  0.00000000000E+00  0.17363935655E+04  0.17363935655E+04  0.00000000000E+00 0. -1.
         -2   -1    0    0    0  501 -0.00000000000E+00 -0.00000000000E+00 -0.42766605021E+02  0.42766605021E+02  0.00000000000E+00 0. -1.
          2    1    1    2  502    0  0.42940470734E+02  0.47341678991E+01  0.17251439551E+04  0.17256847807E+04  0.00000000000E+00 0. -1.
         -2    1    1    2    0  502 -0.42940470734E+02 -0.47341678991E+01 -0.31516994613E+02  0.53475389872E+02  0.00000000000E+00 0. -1.
</event>
<event>
 4    1  0.3196713E+003  0.6322273E+02  0.7546771E-02  0.1249259E+00
          2   -1    0    0  501    0  0.00000000000E+00  0.00000000000E+00  0.26858574820E+03  0.26858574820E+03  0.00000000000E+00 0.  1.
         -2   -1    0    0    0  501 -0.00000000000E+00 -0.00000000000E+00 -0.14966877425E+03  0.14966877425E+03  0.00000000000E+00 0.  1.
          2    1    1    2  502    0 -0.54995669943E+02 -0.31186376000E+02  0.25791646622E+03  0.26555228733E+03  0.00000000000E+00 0.  1.
         -2    1    1    2    0  502  0.54995669943E+02  0.31186376000E+02 -0.13899949226E+03  0.15270223512E+03  0.00000000000E+00 0.  1.
</event>
<event>
 4    1  0.3196713E+003  0.2033135E+02  0.7546771E-02  0.1529029E+00
          2   -1    0    0  501    0  0.00000000000E+00  0.00000000000E+00  0.46794194493E+03  0.46794194493E+03  0.00000000000E+00 0.  1.
         -2   -1    0    0    0  501 -0.00000000000E+00 -0.00000000000E+00 -0.30569186008E+01  0.30569186008E+01  0.00000000000E+00 0.  1.
          2    1    1    2  502    0 -0.15783521533E+02  0.12815782062E+02  0.43102138660E+03  0.43150063677E+03  0.00000000000E+00 0.  1.
         -2    1    1    2    0  502  0.15783521533E+02 -0.12815782062E+02  0.33863639722E+02  0.39498226759E+02  0.00000000000E+00 0.  1.
</event>
<event>
 4    1  0.3196713E+003  0.6108857E+02  0.7546771E-02  0.1256178E+00
          2   -1    0    0  501    0  0.00000000000E+00  0.00000000000E+00  0.91283322196E+02  0.91283322196E+02  0.00000000000E+00 0.  1.
         -2   -1    0    0    0  501 -0.00000000000E+00 -0.00000000000E+00 -0.41650087937E+02  0.41650087937E+02  0.00000000000E+00 0. -1.
          2    1    1    2  502    0  0.36128369002E+02  0.49260068835E+02  0.33844766413E+02  0.69837537484E+02  0.00000000000E+00 0.  1.
         -2    1    1    2    0  502 -0.36128369002E+02 -0.49260068835E+02  0.15788467846E+02  0.63095872648E+02  0.00000000000E+00 0. -1.
</event>
<event>
 4    1  0.3196713E+003  0.2367070E+02  0.7546771E-02  0.1484244E+00
          2   -1    0    0  501    0  0.00000000000E+00  0.00000000000E+00  0.36110204148E+03  0.36110204148E+03  0.00000000000E+00 0. -1.
         -2   -1    0    0    0  501 -0.00000000000E+00 -0.00000000000E+00 -0.39803943943E+03  0.39803943943E+03  0.00000000000E+00 0. -1.
          2    1    1    2  502    0 -0.23602038770E+02  0.18016374682E+01  0.36036149415E+03  0.36113807415E+03  0.00000000000E+00 0. -1.
         -2    1    1    2    0  502  0.23602038770E+02 -0.18016374682E+01 -0.39729889210E+03  0.39800340677E+03  0.00000000000E+00 0. -1.
</event>
<event>
 4    1  0.3196713E+003  0.3082199E+02  0.7546771E-02  0.1412585E+00
          2   -1    0    0  501    0  0.00000000000E+00  0.00000000000E+00  0.40200652569E+02  0.40200652569E+02  0.00000000000E+00 0.  1.
         -2   -1    0    0    0  501 -0.00000000000E+00 -0.00000000000E+00 -0.17020811591E+03  0.17020811591E+03  0.00000000000E+00 0.  1.
          2    1    1    2  502    0 -0.10235817365E+02  0.29072723887E+02  0.32624695134E+02  0.44881688515E+02  0.00000000000E+00 0.  1.
         -2    1    1    2    0  502  0.10235817365E+02 -0.29072723887E+02 -0.16263215848E+03  0.16552707997E+03  0.00000000000E+00 0.  1.
</event>
<event>
 4    1  0.3196713E+003  0.6317998E+02  0.7546771E-02  0.1249395E+00
          2   -1    0    0  501    0  0.00000000000E+00  0.00000000000E+00  0.76740038899E+03  0.76740038899E+03  0.00000000000E+00 0. -1.
         -2   -1    0    0    0  501 -0.00000000000E+00 -0.00000000000E+00 -0.97854726150E+01  0.97854726150E+01  0.00000000000E+00 0. -1.
          2    1    1    2  502    0 -0.14135672423E+02 -0.61578341859E+02  0.64476988691E+03  0.64785794468E+03  0.00000000000E+00 0. -1.
         -2    1    1    2    0  502  0.14135672423E+02  0.61578341859E+02  0.11284502947E+03  0.12932791693E+03  0.00000000000E+00 0. -1.
</event>
<event>
 4    1  0.3196713E+003  0.2423482E+02  0.7546771E-02  0.1477548E+00
          2   -1    0    0  501    0  0.00000000000E+00  0.00000000000E+00  0.52870586039E+03  0.52870586039E+03  0.00000000000E+00 0. -1.
         -2   -1    0    0    0  501 -0.00000000000E+00 -0.00000000000E+00 -0.52736908363E+01  0.52736908363E+01  0.00000000000E+00 0.  1.
          2    1    1    2  502    0 -0.84202170436E+01 -0.22725020802E+02  0.49892491217E+03  0.49951315759E+03  0.00000000000E+00 0. -1.
         -2    1    1    2    0  502  0.84202170436E+01  0.22725020802E+02  0.24507257383E+02  0.34466393631E+02  0.00000000000E+00 0.  1.
</event>
<event>
 4    1  0.3196713E+003  0.2977260E+02  0.7546771E-02  0.1421583E+00
          2   -1    0    0  501    0  0.00000000000E+00  0.00000000000E+00  0.26286271897E+02  0.26286271897E+02  0.00000000000E+00 0.  1.
         -2   -1    0    0    0  501 -0.00000000000E+00 -0.00000000000E+00 -0.17745866481E+03  0.17745866481E+03  0.00000000000E+00 0. -1.
          2    1    1    2  502    0  0.12842708556E+02 -0.26860238875E+02  0.16097696278E+02  0.33845877458E+02  0.00000000000E+00 0.  1.
         -2    1    1    2    0  502 -0.12842708556E+02  0.26860238875E+02 -0.16727008919E+03  0.16989905925E+03  0.00000000000E+00 0. -1.
</event>
<event>
 4    1  0.3196713E+003  0.2201607E+02  0.7546771E-02  0.1505237E+00
          2   -1    0    0  501    0  0.00000000000E+00  0.00000000000E+00  0.27047805020E+02  0.27047805020E+02  0.00000000000E+00 0. -1.
         -2   -1    0    0    0  501 -0.00000000000E+00 -0.00000000000E+00 -0.51770760224E+02  0.51770760224E+02  0.00000000000E+00 0. -1.
          2    1    1    2  502    0 -0.83353522738E+01  0.20377172369E+02  0.19505286170E+02  0.29413660769E+02  0.00000000000E+00 0. -1.
         -2    1    1    2    0  502  0.83353522738E+01 -0.20377172369E+02 -0.44228241373E+02  0.49404904475E+02  0.00000000000E+00 0. -1.
</event>
<event>
 4    1  0.3196713E+003  0.4699292E+02  0.7546771E-02  0.1311764E+00
          2   -1    0    0  501    0  0.00000000000E+00  0.00000000000E+00  0.49208375915E+03  0.49208375915E+03  0.00000000000E+00 0.  1.
         -2   -1    0    0    0  501 -0.00000000000E+00 -0.00000000000E+00 -0.45647467319E+01  0.45647467319E+01  0.00000000000E+00 0. -1.
          2    1    1    2  502    0 -0.46538567949E+02  0.65189113011E+01  0.27601690421E+03  0.27998868891E+03  0.00000000000E+00 0.  1.
         -2    1    1    2    0  502  0.46538567949E+02 -0.65189113011E+01  0.21150210821E+03  0.21665981697E+03  0.00000000000E+00 0. -1.
</event>
<event>
 4    1  0.3196713E+003  0.2953160E+02  0.7546771E-02  0.1423711E+00
          2   -1    0    0  501    0  0.00000000000E+00  0.00000000000E+00  0.12179148019E+04  0.12179148019E+04  0.00000000000E+00 0. -1.
         -2   -1    0    0    0  501 -0.00000000000E+00 -0.00000000000E+00 -0.37532297174E+02  0.37532297174E+02  0.00000000000E+00 0.  1.
          2    1    1    2  502    0 -0.10588951180E+02  0.27567910078E+02  0.12118978458E+04  0.12122576064E+04  0.00000000000E+00 0. -1.
         -2    1    1    2    0  502  0.10588951180E+02 -0.27567910078E+02 -0.31515341098E+02  0.43189492677E+02  0.00000000000E+00 0.  1.
</event>
<event>
 4    1  0.3196713E+003  0.2633548E+02  0.7546771E-02  0.1454400E+00
          2   -1    0    0  501    0  0.00000000000E+00  0.00000000000E+00  0.90331638483E+03  0.90331638483E+03  0.00000000000E+00 0. -1.
         -2   -1    0    0    0  501 -0.00000000000E+00 -0.00000000000E+00 -0.30471862812E+02  0.30471862812E+02  0.00000000000E+00 0.  1.
          2    1    1    2  502    0  0.22100528507E+01 -0.26242580845E+02  0.89739676479E+03  0.89778310901E+03  0.00000000000E+00 0. -1.
         -2    1    1    2    0  502 -0.22100528507E+01  0.26242580845E+02 -0.24552242765E+02  0.36005138630E+02  0.00000000000E+00 0.  1.
</event>
<event>
 4    1  0.3196713E+003  0.2716771E+02  0.7546771E-02  0.1445931E+00
          2   -1    0    0  501    0  0.00000000000E+00  0.00000000000E+00  0.19169209198E+03  0.19169209198E+03  0.00000000000E+00 0.  1.
         -2   -1    0    0    0  501 -0.00000000000E+00 -0.00000000000E+00 -0.66895190100E+03  0.66895190100E+03  0.00000000000E+00 0.  1.
          2    1    1    2  502    0  0.24392141568E+02  0.11962760895E+02  0.19045187788E+03  0.19237983784E+03  0.00000000000E+00 0.  1.
         -2    1    1    2    0  502 -0.24392141568E+02 -0.11962760895E+02 -0.66771168690E+03  0.66826415514E+03  0.00000000000E+00 0.  1.
</event>
<event>
 4    1  0.3196713E+003  0.2880294E+02  0.7546771E-02  0.1430292E+00
          2   -1    0    0  501    0  0.00000000000E+00  0.00000000000E+00  0.86136088184E+03  0.86136088184E+03  0.00000000000E+00 0. -1.
         -2   -1    0    0    0  501 -0.00000000000E+00 -0.00000000000E+00 -0.15128145013E+01  0.15128145013E+01  0.00000000000E+00 0.  1.
          2    1    1    2  502    0  0.10759090130E+01  0.28782837293E+02  0.68998670783E+03  0.69058762390E+03  0.00000000000E+00 0. -1.
         -2    1    1    2    0  502 -0.10759090130E+01 -0.28782837293E+02  0.16986135950E+03  0.17228607244E+03  0.00000000000E+00 0.  1.
</event>
<event>
 4    1  0.3196713E+003  0.2863302E+02  0.7546771E-02  0.1431860E+00
          2   -1    0    0  501    0  0.00000000000E+00  0.00000000000E+00  0.11054488079E+03  0.11054488079E+03  0.00000000000E+00 0.  1.
         -2   -1    0    0    0  501 -0.00000000000E+00 -0.00000000000E+00 -0.72042569498E+02  0.72042569498E+02  0.00000000000E+00 0.  1.
          2    1    1    2  502    0  0.23295461024E+02  0.16648462565E+02  0.10571815627E+03  0.10952706686E+03  0.00000000000E+00 0.  1.
         -2    1    1    2    0  502 -0.23295461024E+02 -0.16648462565E+02 -0.67215844979E+02  0.73060383426E+02  0.00000000000E+00 0.  1.
</event>
<event>
 4    1  0.3196713E+003  0.7429009E+02  0.7546771E-02  0.1217762E+00
          2   -1    0    0  501    0  0.00000000000E+00  0.00000000000E+00  0.12203751626E+04  0.12203751626E+04  0.00000000000E+00 0. -1.
         -2   -1    0    0    0  501 -0.00000000000E+00 -0.00000000000E+00 -0.10561285955E+03  0.10561285955E+03  0.00000000000E+00 0.  1.
          2    1    1    2  502    0  0.69994761032E+02 -0.24894803702E+02  0.12060249974E+04  0.12083109336E+04  0.00000000000E+00 0. -1.
         -2    1    1    2    0  502 -0.69994761032E+02  0.24894803702E+02 -0.91262694283E+02  0.11767708864E+03  0.00000000000E+00 0.  1.
</event>
<event>
 4    1  0.3196713E+003  0.2119060E+02  0.7546771E-02  0.1516561E+00
          2   -1    0    0  501    0  0.00000000000E+00  0.00000000000E+00  0.18456931481E+03  0.18456931481E+03  0.00000000000E+00 0. -1.
         -2   -1    0    0    0  501 -0.00000000000E+00 -0.00000000000E+00 -0.26013720747E+01  0.26013720747E+01  0.00000000000E+00 0. -1.
          2    1    1    2  502    0  0.18158276241E+02  0.10923293798E+02  0.11479904918E+03  0.11673843856E+03  0.00000000000E+00 0. -1.
         -2    1    1    2    0  502 -0.18158276241E+02 -0.10923293798E+02  0.67168893558E+02  0.70432248333E+02  0.00000000000E+00 0. -1.
</event>
<event>
 4    1  0.3196713E+003  0.3900386E+02  0.7546771E-02  0.1354424E+00
          2   -1    0    0  501    0  0.00000000000E+00  0.00000000000E+00  0.24898216423E+03  0.24898216423E+03  0.00000000000E+00 0.  1.
         -2   -1    0    0    0  501 -0.00000000000E+00 -0.00000000000E+00 -0.63745453805E+01  0.63745453805E+01  0.00000000000E+00 0.  1.
          2    1    1    2  502    0 -0.10616234532E+02  0.37531276303E+02  0.14730998214E+03  0.15238612790E+03  0.00000000000E+00 0.  1.
         -2    1    1    2    0  502  0.10616234532E+02 -0.37531276303E+02  0.95297636711E+02  0.10297058172E+03  0.00000000000E+00 0.  1.
</event>
<event>
 4    1  0.3196713E+003  0.2411776E+02  0.7546771E-02  0.1478920E+00
          2   -1    0    0  501    0  0.00000000000E+00  0.00000000000E+00  0.43834046761E+03  0.43834046761E+03  0.00000000000E+00 0.  1.
         -2   -1    0    0    0  501 -0.00000000000E+00 -0.00000000000E+00 -0.40148853013E+02  0.40148853013E+02  0.00000000000E+00 0.  1.
          2    1    1    2  502    0 -0.10008485719E+02  0.21943034762E+02  0.43435356650E+03  0.43502262848E+03  0.00000000000E+00 0.  1.
         -2    1    1    2    0  502  0.10008485719E+02 -0.21943034762E+02 -0.36161951898E+02  0.43466692145E+02  0.00000000000E+00 0.  1.
</event>
<event>
 4    1  0.3196713E+003  0.2227097E+02  0.7546771E-02  0.1501861E+00
          2   -1    0    0  501    0  0.00000000000E+00  0.00000000000E+00  0.16081035273E+04  0.16081035273E+04  0.00000000000E+00 0. -1.
         -2   -1    0    0    0  501 -0.00000000000E+00 -0.00000000000E+00 -0.99855915365E+02  0.99855915365E+02  0.00000000000E+00 0. -1.
          2    1    1    2  502    0 -0.67080446128E+01 -0.21236715761E+02  0.16067836193E+04  0.16069379563E+04  0.00000000000E+00 0. -1.
         -2    1    1    2    0  502  0.67080446128E+01  0.21236715761E+02 -0.98536007398E+02  0.10102148639E+03  0.00000000000E+00 0. -1.
</event>
<event>
 4    1  0.3196713E+003  0.2456387E+02  0.7546771E-02  0.1473742E+00
          2   -1    0    0  501    0  0.00000000000E+00  0.00000000000E+00  0.69320368388E+03  0.69320368388E+03  0.00000000000E+00 0.  1.
         -2   -1    0    0    0  501 -0.00000000000E+00 -0.00000000000E+00 -0.45386823436E+01  0.45386823436E+01  0.00000000000E+00 0. -1.
          2    1    1    2  502    0  0.18803439051E+02 -0.15805514119E+02  0.65797142083E+03  0.65842977927E+03  0.00000000000E+00 0.  1.
         -2    1    1    2    0  502 -0.18803439051E+02  0.15805514119E+02  0.30693580710E+02  0.39312586960E+02  0.00000000000E+00 0. -1.
</event>
<event>
 4    1  0.3196713E+003  0.4293741E+02  0.7546771E-02  0.1332082E+00
          2   -1    0    0  501    0  0.00000000000E+00  0.00000000000E+00  0.45580651265E+03  0.45580651265E+03  0.00000000000E+00 0. -1.
         -2   -1    0    0    0  501 -0.00000000000E+00 -0.00000000000E+00 -0.43301172865E+01  0.43301172865E+01  0.00000000000E+00 0. -1.
          2    1    1    2  502    0 -0.42851907811E+02  0.27083562779E+01  0.28480082192E+03  0.28801932116E+03  0.00000000000E+00 0. -1.
         -2    1    1    2    0  502  0.42851907811E+02 -0.27083562779E+01  0.16667557344E+03  0.17211730877E+03  0.00000000000E+00 0. -1.
</event>
<event>
 4    1  0.3196713E+003  0.2456281E+02  0.7546771E-02  0.1473754E+00
          2   -1    0    0  501    0  0.00000000000E+00  0.00000000000E+00  0.17399927368E+02  0.17399927368E+02  0.00000000000E+00 0.  1.
         -2   -1    0    0    0  501 -0.00000000000E+00 -0.00000000000E+00 -0.49211526687E+02  0.49211526687E+02  0.00000000000E+00 0.  1.
          2    1    1    2  502    0 -0.13601863322E+02  0.20452898015E+02  0.21961378010E+01  0.24660793667E+02  0.00000000000E+00 0.  1.
         -2    1    1    2    0  502  0.13601863322E+02 -0.20452898015E+02 -0.34007737120E+02  0.41950660389E+02  0.00000000000E+00 0.  1.
</event>
<event>
 4    1  0.3196713E+003  0.2276342E+02  0.7546771E-02  0.1495490E+00
          2   -1    0    0  501    0  0.00000000000E+00  0.00000000000E+00  0.18838361185E+02  0.18838361185E+02  0.00000000000E+00 0. -1.
         -2   -1    0    0    0  501 -0.00000000000E+00 -0.00000000000E+00 -0.29255207537E+02  0.29255207537E+02  0.00000000000E+00 0. -1.
          2    1    1    2  502    0 -0.22737680589E+02  0.10820688450E+01 -0.11087957715E+02  0.25320264569E+02  0.00000000000E+00 0. -1.
         -2    1    1    2    0  502  0.22737680589E+02 -0.10820688450E+01  0.67111136313E+00  0.22773304153E+02  0.00000000000E+00 0. -1.
</event>
<event>
 4    1  0.3196713E+003  0.2569288E+02  0.7546771E-02  0.1461199E+00
          2   -1    0    0  501    0  0.00000000000E+00  0.00000000000E+00  0.10103463286E+04  0.10103463286E+04  0.00000000000E+00 0.  1.
         -2   -1    0    0    0  501 -0.00000000000E+00 -0.00000000000E+00 -0.66044104698E+00  0.66044104698E+00  0.00000000000E+00 0.  1.
          2    1    1    2  502    0  0.23639072825E+02 -0.10065693430E+02  0.55717070780E+03  0.55776278253E+03  0.00000000000E+00 0.  1.
         -2    1    1    2    0  502 -0.23639072825E+02  0.10065693430E+02  0.45251517972E+03  0.45324398708E+03  0.00000000000E+00 0.  1.
</event>
<event>
 4    1  0.3196713E+003  0.3792654E+02  0.7546771E-02  0.1361084E+00
          2   -1    0    0  501    0  0.00000000000E+00  0.00000000000E+00  0.12458337981E+04  0.12458337981E+04  0.00000000000E+00 0.  1.
         -2   -1    0    0    0  501 -0.00000000000E+00 -0.00000000000E+00 -0.84492909895E+02  0.84492909895E+02  0.00000000000E+00 0. -1.
          2    1    1    2  502    0  0.39160383492E+01 -0.37723824004E+02  0.12412734747E+04  0.12418527535E+04  0.00000000000E+00 0.  1.
         -2    1    1    2    0  502 -0.39160383492E+01  0.37723824004E+02 -0.79932586481E+02  0.88473954560E+02  0.00000000000E+00 0. -1.
</event>
<event>
 4    1  0.3196713E+003  0.2948011E+02  0.7546771E-02  0.1424169E+00
          2   -1    0    0  501    0  0.00000000000E+00  0.00000000000E+00  0.74191829275E+02  0.74191829275E+02  0.00000000000E+00 0.  1.
         -2   -1    0    0    0  501 -0.00000000000E+00 -0.00000000000E+00 -0.11714540078E+02  0.11714540078E+02  0.00000000000E+00 0.  1.
          2    1    1    2  502    0 -0.73266549444E+01  0.28555141014E+02  0.30922085001E+02  0.42722959774E+02  0.00000000000E+00 0.  1.
         -2    1    1    2    0  502  0.73266549444E+01 -0.28555141014E+02  0.31555204196E+02  0.43183409579E+02  0.00000000000E+00 0.  1.
</event>
<event>
 4    1  0.3196713E+003  0.2173040E+02  0.7546771E-02  0.1509087E+00
          2   -1    0    0  501    0  0.00000000000E+00  0.00000000000E+00  0.18832148568E+04  0.18832148568E+04  0.00000000000E+00 0.  1.
         -2   -1    0    0    0  501 -0.00000000000E+00 -0.00000000000E+00 -0.37388397105E+00  0.37388397105E+00  0.00000000000E+00 0.  1.
          2    1    1    2  502    0  0.18884333992E+02 -0.10751374530E+02  0.14819037233E+04  0.14820630402E+04  0.00000000000E+00 0.  1.
         -2    1    1    2    0  502 -0.18884333992E+02  0.10751374530E+02  0.40093724958E+03  0.40152570058E+03  0.00000000000E+00 0.  1.
</event>
<event>
 4    1  0.3196713E+003  0.2012935E+02  0.7546771E-02  0.1532067E+00
          2   -1    0    0  501    0  0.00000000000E+00  0.00000000000E+00  0.13727948512E+02  0.13727948512E+02  0.00000000000E+00 0. -1.
         -2   -1    0    0    0  501 -0.00000000000E+00 -0.00000000000E+00 -0.41580503804E+03  0.41580503804E+03  0.00000000000E+00 0.  1.
          2    1    1    2  502    0  0.20911751423E+01  0.20020435115E+02  0.59650938359E+01  0.20994598833E+02  0.00000000000E+00 0. -1.
         -2    1    1    2    0  502 -0.20911751423E+01 -0.20020435115E+02 -0.40804218336E+03  0.40853838772E+03  0.00000000000E+00 0.  1.
</event>
<event>
 4    1  0.3196713E+003  0.2094350E+02  0.7546771E-02  0.1520073E+00
          2   -1    0    0  501    0  0.00000000000E+00  0.00000000000E+00  0.72794780689E+02  0.72794780689E+02  0.00000000000E+00 0. -1.
         -2   -1    0    0    0  501 -0.00000000000E+00 -0.00000000000E+00 -0.56325008850E+02  0.56325008850E+02  0.00000000000E+00 0.  1.
          2    1    1    2  502    0  0.16938061776E+02 -0.12317961364E+02  0.69243863346E+02  0.72341846258E+02  0.00000000000E+00 0. -1.
         -2    1    1    2    0  502 -0.16938061776E+02  0.12317961364E+02 -0.52774091507E+02  0.56777943281E+02  0.00000000000E+00 0.  1.
</event>
<event>
 4    1  0.3196713E+003  0.2063796E+02  0.7546771E-02  0.1524497E+00
          2   -1    0    0  501    0  0.00000000000E+00  0.00000000000E+00  0.21085990622E+03  0.21085990622E+03  0.00000000000E+00 0.  1.
         -2   -1    0    0    0  501 -0.00000000000E+00 -0.00000000000E+00 -0.15666865279E+02  0.15666865279E+02  0.00000000000E+00 0.  1.
          2    1    1    2  502    0 -0.13438347247E+02 -0.15663217743E+02  0.20330645430E+03  0.20435126603E+03  0.00000000000E+00 0.  1.
         -2    1    1    2    0  502  0.13438347247E+02  0.15663217743E+02 -0.81134133555E+01  0.22175505475E+02  0.00000000000E+00 0.  1.
</event>
<event>
 4    1  0.3196713E+003  0.2358598E+02  0.7546771E-02  0.1485268E+00
          2   -1    0    0  501    0  0.00000000000E+00  0.00000000000E+00  0.39140306085E+03  0.39140306085E+03  0.00000000000E+00 0. -1.
         -2   -1    0    0    0  501 -0.00000000000E+00 -0.00000000000E+00 -0.21166261907E+01  0.21166261907E+01  0.00000000000E+00 0. -1.
          2    1    1    2  502    0 -0.16074828002E+01 -0.23531136354E+02  0.30741771645E+03  0.30832118118E+03  0.00000000000E+00 0. -1.
         -2    1    1    2    0  502  0.16074828002E+01  0.23531136354E+02  0.81868718209E+02  0.85198505856E+02  0.00000000000E+00 0. -1.
</event>
<event>
 4    1  0.3196713E+003  0.2060846E+02  0.7546771E-02  0.1524929E+00
          2   -1    0    0  501    0  0.00000000000E+00  0.00000000000E+00  0.10323851323E+04  0.10323851323E+04  0.00000000000E+00 0. -1.
         -2   -1    0    0    0  501 -0.00000000000E+00 -0.00000000000E+00 -0.37882809604E+01  0.37882809604E+01  0.00000000000E+00 0.  1.
          2    1    1    2  502    0  0.20590568703E+02 -0.85850614742E+00  0.10034462759E+04  0.10036578785E+04  0.00000000000E+00 0. -1.
         -2    1    1    2    0  502 -0.20590568703E+02  0.85850614742E+00  0.25150575411E+02  0.32515534685E+02  0.00000000000E+00 0.  1.
</event>
<event>
 4    1  0.3196713E+003  0.2252302E+02  0.7546771E-02  0.1498576E+00
          2   -1    0    0  501    0  0.00000000000E+00  0.00000000000E+00  0.64730703029E+03  0.64730703029E+03  0.00000000000E+00 0.  1.
         -2   -1    0    0    0  501 -0.00000000000E+00 -0.00000000000E+00 -0.23095622281E+01  0.23095622281E+01  0.00000000000E+00 0. -1.
          2    1    1    2  502    0 -0.10890080481E+02  0.19715284365E+02  0.58650956847E+03  0.58694187122E+03  0.00000000000E+00 0.  1.
         -2    1    1    2    0  502  0.10890080481E+02 -0.19715284365E+02  0.58487899591E+02  0.62674721292E+02  0.00000000000E+00 0. -1.
</event>
<event>
 4    1  0.3196713E+003  0.2202262E+02  0.7546771E-02  0.1505150E+00
          2   -1    0    0  501    0  0.00000000000E+00  0.00000000000E+00  0.91354427395E+03  0.91354427395E+03  0.00000000000E+00 0.  1.
         -2   -1    0    0    0  501 -0.00000000000E+00 -0.00000000000E+00 -0.21349634033E+01  0.21349634033E+01  0.00000000000E+00 0.  1.
          2    1    1    2  502    0 -0.16652023157E+02  0.14412009481E+02  0.85255761600E+03  0.85284200441E+03  0.00000000000E+00 0.  1.
         -2    1    1    2    0  502  0.16652023157E+02 -0.14412009481E+02  0.58851694548E+02  0.62837232941E+02  0.00000000000E+00 0.  1.
</event>
<event>
 4    1  0.3196713E+003  0.2528379E+02  0.7546771E-02  0.1465653E+00
          2   -1    0    0  501    0  0.00000000000E+00  0.00000000000E+00  0.19433913166E+04  0.19433913166E+04  0.00000000000E+00 0. -1.
         -2   -1    0    0    0  501 -0.00000000000E+00 -0.00000000000E+00 -0.11057059445E+01  0.11057059445E+01  0.00000000000E+00 0. -1.
          2    1    1    2  502    0 -0.67102202972E+01 -0.24377104403E+02  0.17860364881E+04  0.17862154425E+04  0.00000000000E+00 0. -1.
         -2    1    1    2    0  502  0.67102202972E+01  0.24377104403E+02  0.15624912258E+03  0.15828158005E+03  0.00000000000E+00 0. -1.
</event>
<event>
 4    1  0.3196713E+003  0.2326618E+02  0.7546771E-02  0.1489182E+00
          2   -1    0    0  501    0  0.00000000000E+00  0.00000000000E+00  0.46159142147E+03  0.46159142147E+03  0.00000000000E+00 0.  1.
         -2   -1    0    0    0  501 -0.00000000000E+00 -0.00000000000E+00 -0.23341694186E+02  0.23341694186E+02  0.00000000000E+00 0.  1.
          2    1    1    2  502    0 -0.68278514855E+01  0.22241753446E+02  0.45542202699E+03  0.45601594031E+03  0.00000000000E+00 0.  1.
         -2    1    1    2    0  502  0.68278514855E+01 -0.22241753446E+02 -0.17172299709E+02  0.28917175339E+02  0.00000000000E+00 0.  1.
</event>
<event>
 4    1  0.3196713E+003  0.3222101E+02  0.7546771E-02  0.1401229E+00
          2   -1    0    0  501    0  0.00000000000E+00  0.00000000000E+00  0.10685647647E+04  0.10685647647E+04  0.00000000000E+00 0.  1.
         -2   -1    0    0    0  501 -0.00000000000E+00 -0.00000000000E+00 -0.10572212461E+03  0.10572212461E+03  0.00000000000E+00 0.  1.
          2    1    1    2  502    0 -0.17998706311E+02 -0.26725264279E+02  0.10658606388E+04  0.10663475487E+04  0.00000000000E+00 0.  1.
         -2    1    1    2    0  502  0.17998706311E+02  0.26725264279E+02 -0.10301799877E+03  0.10793934060E+03  0.00000000000E+00 0.  1.
</event>
<event>
 4    1  0.3196713E+003  0.3461929E+02  0.7546771E-02  0.1383260E+00
          2   -1    0    0  501    0  0.00000000000E+00  0.00000000000E+00  0.16901359766E+03  0.16901359766E+03  0.00000000000E+00 0. -1.
         -2   -1    0    0    0  501 -0.00000000000E+00 -0.00000000000E+00 -0.19487308825E+04  0.19487308825E+04  0.00000000000E+00 0. -1.
          2    1    1    2  502    0 -0.34612039882E+02 -0.70830669516E+00  0.16708530964E+03  0.17063409888E+03  0.00000000000E+00 0. -1.
         -2    1    1    2    0  502  0.34612039882E+02  0.70830669516E+00 -0.19468025945E+04  0.19471103812E+04  0.00000000000E+00 0. -1.
</event>
<event>
 4    1  0.3196713E+003  0.2671093E+02  0.7546771E-02  0.1450534E+00
          2   -1    0    0  501    0  0.00000000000E+00  0.00000000000E+00  0.19941797678E+04  0.19941797678E+04  0.00000000000E+00 0.  1.
         -2   -1    0    0    0  501 -0.00000000000E+00 -0.00000000000E+00 -0.52456400982E+01  0.52456400982E+01  0.00000000000E+00 0.  1.
          2    1    1    2  502    0  0.10281212327E+02  0.24653005186E+02  0.19594851002E+04  0.19596671482E+04  0.00000000000E+00 0.  1.
         -2    1    1    2    0  502 -0.10281212327E+02 -0.24653005186E+02  0.29449027574E+02  0.39758259729E+02  0.00000000000E+00 0.  1.
</event>
<event>
 4    1  0.3196713E+003  0.2719346E+02  0.7546771E-02  0.1445674E+00
          2   -1    0    0  501    0  0.00000000000E+00  0.00000000000E+00  0.43819471048E+03  0.43819471048E+03  0.00000000000E+00 0. -1.
         -2   -1    0    0    0  501 -0.00000000000E+00 -0.00000000000E+00 -0.39064923673E+01  0.39064923673E+01  0.00000000000E+00 0.  1.
          2    1    1    2  502    0 -0.26589497139E+02 -0.56994010839E+01  0.38374188585E+03  0.38470419738E+03  0.00000000000E+00 0. -1.
         -2    1    1    2    0  502  0.26589497139E+02  0.56994010839E+01  0.50546332270E+02  0.57397005469E+02  0.00000000000E+00 0.  1.
</event>
<event>
 4    1  0.3196713E+003  0.2299773E+02  0.7546771E-02  0.1492527E+00
          2   -1    0    0  501    0  0.00000000000E+00  0.00000000000E+00  0.66223423214E+03  0.66223423214E+03  0.00000000000E+00 0.  1.
         -2   -1    0    0    0  501 -0.00000000000E+00 -0.00000000000E+00 -0.25241634996E+03  0.25241634996E+03  0.00000000000E+00 0. -1.
          2    1    1    2  502    0 -0.16529529903E+02 -0.15989684973E+02  0.66151016335E+03  0.66190980624E+03  0.00000000000E+00 0.  1.
         -2    1    1    2    0  502  0.16529529903E+02  0.15989684973E+02 -0.25169228117E+03  0.25274077586E+03  0.00000000000E+00 0. -1.
</event>
<event>
 4    1  0.3196713E+003  0.3546638E+02  0.7546771E-02  0.1377314E+00
          2   -1    0    0  501    0  0.00000000000E+00  0.00000000000E+00  0.81655923242E+02  0.81655923242E+02  0.00000000000E+00 0. -1.
         -2   -1    0    0    0  501 -0.00000000000E+00 -0.00000000000E+00 -0.22374140195E+02  0.22374140195E+02  0.00000000000E+00 0. -1.
          2    1    1    2  502    0  0.26789494755E+02 -0.23241930524E+02  0.58671926050E+02  0.68558436899E+02  0.00000000000E+00 0. -1.
         -2    1    1    2    0  502 -0.26789494755E+02  0.23241930524E+02  0.60985699748E+00  0.35471626538E+02  0.00000000000E+00 0. -1.
</event>
<event>
 4    1  0.3196713E+003  0.2502160E+02  0.7546771E-02  0.1468562E+00
          2   -1    0    0  501    0  0.00000000000E+00  0.00000000000E+00  0.77603699832E+03  0.77603699832E+03  0.00000000000E+00 0. -1.
         -2   -1    0    0    0  501 -0.00000000000E+00 -0.00000000000E+00 -0.24994857400E+01  0.24994857400E+01  0.00000000000E+00 0.  1.
          2    1    1    2  502    0 -0.23241385877E+02 -0.92692278859E+01  0.70711240334E+03  0.70755496717E+03  0.00000000000E+00 0. -1.
         -2    1    1    2    0  502  0.23241385877E+02  0.92692278859E+01  0.66425109235E+02  0.70981516890E+02  0.00000000000E+00 0.  1.
</event>
<event>
 4    1  0.3196713E+003  0.2409588E+02  0.7546771E-02  0.1479177E+00
          2   -1    0    0  501    0  0.00000000000E+00  0.00000000000E+00  0.65064928245E+02  0.65064928245E+02  0.00000000000E+00 0. -1.
         -2   -1    0    0    0  501 -0.00000000000E+00 -0.00000000000E+00 -0.60734299480E+02  0.60734299480E+02  0.00000000000E+00 0. -1.
          2    1    1    2  502    0  0.90418907829E+01  0.22335071926E+02  0.60260592270E+02  0.64899539348E+02  0.00000000000E+00 0. -1.
         -2    1    1    2    0  502 -0.90418907829E+01 -0.22335071926E+02 -0.55929963504E+02  0.60899688377E+02  0.00000000000E+00 0. -1.
</event>
<event>
 4    1  0.3196713E+003  0.2633626E+02  0.7546771E-02  0.1454392E+00
          2   -1    0    0  501    0  0.00000000000E+00  0.00000000000E+00  0.73025370725E+02  0.73025370725E+02  0.00000000000E+00 0. -1.
         -2   -1    0    0    0  501 -0.00000000000E+00 -0.00000000000E+00 -0.59032924610E+02  0.59032924610E+02  0.00000000000E+00 0.  1.
          2    1    1    2  502    0  0.22689171036E+02 -0.13371611962E+02  0.67480721471E+02  0.72437878620E+02  0.00000000000E+00 0. -1.
         -2    1    1    2    0  502 -0.22689171036E+02  0.13371611962E+02 -0.53488275356E+02  0.59620416715E+02  0.00000000000E+00 0.  1.
</event>
<event>
 4    1  0.3196713E+003  0.4893157E+02  0.7546771E-02  0.1302872E+00
          2   -1    0    0  501    0  0.00000000000E+00  0.00000000000E+00  0.35214139339E+02  0.35214139339E+02  0.00000000000E+00 0.  1.
         -2   -1    0    0    0  501 -0.00000000000E+00 -0.00000000000E+00 -0.83015299145E+02  0.83015299145E+02  0.00000000000E+00 0.  1.
          2    1    1    2  502    0  0.11718307792E+02 -0.47507680163E+02  0.12467318012E+01  0.48947448883E+02  0.00000000000E+00 0.  1.
         -2    1    1    2    0  502 -0.11718307792E+02  0.47507680163E+02 -0.49047891607E+02  0.69281989601E+02  0.00000000000E+00 0.  1.
</event>
<event>
 4    1  0.3196713E+003  0.3420785E+02  0.7546771E-02  0.1386219E+00
          2   -1    0    0  501    0  0.00000000000E+00  0.00000000000E+00  0.17865165549E+03  0.17865165549E+03  0.00000000000E+00 0. -1.
         -2   -1    0    0    0  501 -0.00000000000E+00 -0.00000000000E+00 -0.48167444246E+02  0.48167444246E+02  0.00000000000E+00 0. -1.
          2    1    1    2  502    0 -0.71430524889E+01  0.33453756548E+02  0.17065901385E+03  0.17405365849E+03  0.00000000000E+00 0. -1.
         -2    1    1    2    0  502  0.71430524889E+01 -0.33453756548E+02 -0.40174802602E+02  0.52765441249E+02  0.00000000000E+00 0. -1.
</event>
<event>
 4    1  0.3196713E+003  0.2430030E+02  0.7546771E-02  0.1476785E+00
          2   -1    0    0  501    0  0.00000000000E+00  0.00000000000E+00  0.53789774749E+02  0.53789774749E+02  0.00000000000E+00 0.  1.
         -2   -1    0    0    0  501 -0.00000000000E+00 -0.00000000000E+00 -0.24317935594E+02  0.24317935594E+02  0.00000000000E+00 0.  1.
          2    1    1    2  502    0  0.57747021785E+01 -0.23604182450E+02  0.43661180447E+02  0.49968022699E+02  0.00000000000E+00 0.  1.
         -2    1    1    2    0  502 -0.57747021785E+01  0.23604182450E+02 -0.14189341293E+02  0.28139687644E+02  0.00000000000E+00 0.  1.
</event>
<event>
 4    1  0.3196713E+003  0.2009009E+02  0.7546771E-02  0.1532663E+00
          2   -1    0    0  501    0  0.00000000000E+00  0.00000000000E+00  0.91080965722E+03  0.91080965722E+03  0.00000000000E+00 0.  1.
         -2   -1    0    0    0  501 -0.00000000000E+00 -0.00000000000E+00 -0.12686969693E+02  0.12686969693E+02  0.00000000000E+00 0.  1.
          2    1    1    2  502    0 -0.20083778867E+02  0.50368373329E+00  0.90267392430E+03  0.90289746122E+03  0.00000000000E+00 0.  1.
         -2    1    1    2    0  502  0.20083778867E+02 -0.50368373329E+00 -0.45512367748E+01  0.20599165688E+02  0.00000000000E+00 0.  1.
</event>
<event>
 4    1  0.3196713E+003  0.2130640E+02  0.7546771E-02  0.1514935E+00
          2   -1    0    0  501    0  0.00000000000E+00  0.00000000000E+00  0.74781238953E+03  0.74781238953E+03  0.00000000000E+00 0. -1.
         -2   -1    0    0    0  501 -0.00000000000E+00 -0.00000000000E+00 -0.19346331646E+03  0.19346331646E+03  0.00000000000E+00 0.  1.
          2    1    1    2  502    0 -0.15048685476E+02 -0.15083099326E+02  0.74707341930E+03  0.74737718499E+03  0.00000000000E+00 0. -1.
         -2    1    1    2    0  502  0.15048685476E+02  0.15083099326E+02 -0.19272434622E+03  0.19389852100E+03  0.00000000000E+00 0.  1.
</event>
<event>
 4    1  0.3196713E+003  0.2063640E+02  0.7546771E-02  0.1524520E+00
          2   -1    0    0  501    0  0.00000000000E+00  0.00000000000E+00  0.20656265428E+03  0.20656265428E+03  0.00000000000E+00 0. -1.
         -2   -1    0    0    0  501 -0.00000000000E+00 -0.00000000000E+00 -0.10967799657E+02  0.10967799657E+02  0.00000000000E+00 0. -1.
          2    1    1    2  502    0  0.19482769945E+02 -0.68031494589E+01  0.19580850405E+03  0.19689294407E+03  0.00000000000E+00 0. -1.
         -2    1    1    2    0  502 -0.19482769945E+02  0.68031494589E+01 -0.21364942705E+00  0.20637509863E+02  0.00000000000E+00 0. -1.
</event>
<event>
 4    1  0.3196713E+003  0.2650317E+02  0.7546771E-02  0.1452664E+00
          2   -1    0    0  501    0  0.00000000000E+00  0.00000000000E+00  0.45397232427E+03  0.45397232427E+03  0.00000000000E+00 0. -1.
         -2   -1    0    0    0  501 -0.00000000000E+00 -0.00000000000E+00 -0.11043529335E+03  0.11043529335E+03  0.00000000000E+00 0.  1.
          2    1    1    2  502    0 -0.55476939160E+01  0.25916036175E+02  0.45198842150E+03  0.45276478552E+03  0.00000000000E+00 0. -1.
         -2    1    1    2    0  502  0.55476939160E+01 -0.25916036175E+02 -0.10845139059E+03  0.11164283210E+03  0.00000000000E+00 0.  1.
</event>
<event>
 4    1  0.3196713E+003  0.3343177E+02  0.7546771E-02  0.1391937E+00
          2   -1    0    0  501    0  0.00000000000E+00  0.00000000000E+00  0.10949913261E+04  0.10949913261E+04  0.00000000000E+00 0. -1.
         -2   -1    0    0    0  501 -0.00000000000E+00 -0.00000000000E+00 -0.15276322693E+01  0.15276322693E+01  0.00000000000E+00 0.  1.
          2    1    1    2  502    0 -0.21358094705E+02  0.25719939445E+02  0.86255327598E+03  0.86320092528E+03  0.00000000000E+00 0. -1.
         -2    1    1    2    0  502  0.21358094705E+02 -0.25719939445E+02  0.23091041790E+03  0.23331803314E+03  0.00000000000E+00 0.  1.
</event>
<event>
 4    1  0.3196713E+003  0.2884581E+02  0.7546771E-02  0.1429899E+00
          2   -1    0    0  501    0  0.00000000000E+00  0.00000000000E+00  0.25845927809E+03  0.25845927809E+03  0.00000000000E+00 0. -1.
         -2   -1    0    0    0  501 -0.00000000000E+00 -0.00000000000E+00 -0.70073918861E+02  0.70073918861E+02  0.00000000000E+00 0. -1.
          2    1    1    2  502    0  0.70147031582E+01  0.27979894313E+02  0.25464148424E+03  0.25627010369E+03  0.00000000000E+00 0. -1.
         -2    1    1    2    0  502 -0.70147031582E+01 -0.27979894313E+02 -0.66256125014E+02  0.72263093264E+02  0.00000000000E+00 0. -1.
</event>
<event>
 4    1  0.3196713E+003  0.2972253E+02  0.7546771E-02  0.1422023E+00
          2   -1    0    0  501    0  0.00000000000E+00  0.00000000000E+00  0.13398615781E+03  0.13398615781E+03  0.00000000000E+00 0.  1.
         -2   -1    0    0    0  501 -0.00000000000E+00 -0.00000000000E+00 -0.48386911241E+02  0.48386911241E+02  0.00000000000E+00 0.  1.
          2    1    1    2  502    0 -0.12117831169E+01 -0.29697821350E+02  0.12754597465E+03  0.13096337145E+03  0.00000000000E+00 0.  1.
         -2    1    1    2    0  502  0.12117831169E+01  0.29697821350E+02 -0.41946728080E+02  0.51409697605E+02  0.00000000000E+00 0.  1.
</event>
<event>
 4    1  0.3196713E+003  0.2012443E+02  0.7546771E-02  0.1532142E+00
          2   -1    0    0  501    0  0.00000000000E+00  0.00000000000E+00  0.24632792519E+03  0.24632792519E+03  0.00000000000E+00 0. -1.
         -2   -1    0    0    0  501 -0.00000000000E+00 -0.00000000000E+00 -0.41686263053E+03  0.41686263053E+03  0.00000000000E+00 0.  1.
          2    1    1    2  502    0  0.13682979479E+02  0.14756988492E+02  0.24567336784E+03  0.24649623993E+03  0.00000000000E+00 0. -1.
         -2    1    1    2    0  502 -0.13682979479E+02 -0.14756988492E+02 -0.41620807317E+03  0.41669431579E+03  0.00000000000E+00 0.  1.
</event>
<event>
 4    1  0.3196713E+003  0.2494324E+02  0.7546771E-02  0.1469439E+00
          2   -1    0    0  501    0  0.00000000000E+00  0.00000000000E+00  0.29013701727E+01  0.29013701727E+01  0.00000000000E+00 0. -1.
         -2   -1    0    0    0  501 -0.00000000000E+00 -0.00000000000E+00 -0.45539899661E+03  0.45539899661E+03  0.00000000000E+00 0. -1.
          2    1    1    2  502    0  0.19834536882E+02 -0.15124690309E+02 -0.59563548040E+02  0.64575392878E+02  0.00000000000E+00 0. -1.
         -2    1    1    2    0  502 -0.19834536882E+02  0.15124690309E+02 -0.39293407839E+03  0.39372497390E+03  0.00000000000E+00 0. -1.
</event>
<event>
 4    1  0.3196713E+003  0.2153072E+02  0.7546771E-02  0.1511821E+00
          2   -1    0    0  501    0  0.00000000000E+00  0.00000000000E+00  0.11431503658E+04  0.11431503658E+04  0.00000000000E+00 0. -1.
         -2   -1    0    0    0  501 -0.00000000000E+00 -0.00000000000E+00 -0.62919241357E+00  0.62919241357E+00  0.00000000000E+00 0. -1.
          2    1    1    2  502    0  0.21526149749E+02 -0.44375698587E+00  0.91223780111E+03  0.91249185083E+03  0.00000000000E+00 0. -1.
         -2    1    1    2    0  502 -0.21526149749E+02  0.44375698587E+00  0.23028337228E+03  0.23128770739E+03  0.00000000000E+00 0. -1.
</event>
<event>
 4    1  0.3196713E+003  0.3395547E+02  0.7546771E-02  0.1388059E+00
          2   -1    0    0  501    0  0.00000000000E+00  0.00000000000E+00  0.51585177976E+02  0.51585177976E+02  0.00000000000E+00 0.  1.
         -2   -1    0    0    0  501 -0.00000000000E+00 -0.00000000000E+00 -0.10070484698E+03  0.10070484698E+03  0.00000000000E+00 0.  1.
          2    1    1    2  502    0  0.19183448290E+02  0.28017301042E+02  0.42605747869E+02  0.54481405979E+02  0.00000000000E+00 0.  1.
         -2    1    1    2    0  502 -0.19183448290E+02 -0.28017301042E+02 -0.91725416874E+02  0.97808618979E+02  0.00000000000E+00 0.  1.
</event>
<event>
 4    1  0.3196713E+003  0.2510918E+02  0.7546771E-02  0.1467586E+00
          2   -1    0    0  501    0  0.00000000000E+00  0.00000000000E+00  0.33220652909E+02  0.33220652909E+02  0.00000000000E+00 0. -1.
         -2   -1    0    0    0  501 -0.00000000000E+00 -0.00000000000E+00 -0.21062557623E+02  0.21062557623E+02  0.00000000000E+00 0. -1.
          2    1    1    2  502    0 -0.65755757541E+01  0.24232887102E+02  0.14617069349E+02  0.29053910755E+02  0.00000000000E+00 0. -1.
         -2    1    1    2    0  502  0.65755757541E+01 -0.24232887102E+02 -0.24589740630E+01  0.25229299777E+02  0.00000000000E+00 0. -1.
</event>
<event>
 4    1  0.3196713E+003  0.2436615E+02  0.7546771E-02  0.1476021E+00
          2   -1    0    0  501    0  0.00000000000E+00  0.00000000000E+00  0.35326109464E+02  0.35326109464E+02  0.00000000000E+00 0.  1.
         -2   -1    0    0    0  501 -0.00000000000E+00 -0.00000000000E+00 -0.18943961775E+03  0.18943961775E+03  0.00000000000E+00 0. -1.
          2    1    1    2  502    0 -0.21341975322E+01  0.24272509276E+02  0.30225206594E+02  0.38823609045E+02  0.00000000000E+00 0.  1.
         -2    1    1    2    0  502  0.21341975322E+01 -0.24272509276E+02 -0.18433871488E+03  0.18594211817E+03  0.00000000000E+00 0. -1.
</event>
<event>
 4    1  0.3196713E+003  0.2458526E+02  0.7546771E-02  0.1473497E+00
          2   -1    0    0  501    0  0.00000000000E+00  0.00000000000E+00  0.19263327708E+04  0.19263327708E+04  0.00000000000E+00 0. -1.
         -2   -1    0    0    0  501 -0.00000000000E+00 -0.00000000000E+00 -0.12298522378E+01  0.12298522378E+01  0.00000000000E+00 0.  1.
          2    1    1    2  502    0 -0.23357629829E+02 -0.76717710703E+01  0.17943498850E+04  0.17945183043E+04  0.00000000000E+00 0. -1.
         -2    1    1    2    0  502  0.23357629829E+02  0.76717710703E+01  0.13075303360E+03  0.13304431870E+03  0.00000000000E+00 0.  1.
</event>
<event>
 4    1  0.3196713E+003  0.2110526E+02  0.7546771E-02  0.1517767E+00
          2   -1    0    0  501    0  0.00000000000E+00  0.00000000000E+00  0.55216945882E+03  0.55216945882E+03  0.00000000000E+00 0. -1.
         -2   -1    0    0    0  501 -0.00000000000E+00 -0.00000000000E+00 -0.22299497879E+01  0.22299497879E+01  0.00000000000E+00 0. -1.
          2    1    1    2  502    0  0.20816108293E+02  0.34816116346E+01  0.49642534395E+03  0.49687378086E+03  0.00000000000E+00 0. -1.
         -2    1    1    2    0  502 -0.20816108293E+02 -0.34816116346E+01  0.53514165076E+02  0.57525627748E+02  0.00000000000E+00 0. -1.
</event>
<event>
 4    1  0.3196713E+003  0.2420858E+02  0.7546771E-02  0.1477855E+00
          2   -1    0    0  501    0  0.00000000000E+00  0.00000000000E+00  0.14841794627E+02  0.14841794627E+02  0.00000000000E+00 0. -1.
         -2   -1    0    0    0  501 -0.00000000000E+00 -0.00000000000E+00 -0.35232160439E+03  0.35232160439E+03  0.00000000000E+00 0. -1.
          2    1    1    2  502    0 -0.20456511011E+02  0.12945515609E+02  0.42486096976E+01  0.24578565896E+02  0.00000000000E+00 0. -1.
         -2    1    1    2    0  502  0.20456511011E+02 -0.12945515609E+02 -0.34172841946E+03  0.34258483312E+03  0.00000000000E+00 0. -1.
</event>
<event>
 4    1  0.3196713E+003  0.2727916E+02  0.7546771E-02  0.1444824E+00
          2   -1    0    0  501    0  0.00000000000E+00  0.00000000000E+00  0.34414451975E+03  0.34414451975E+03  0.00000000000E+00 0.  1.
         -2   -1    0    0    0  501 -0.00000000000E+00 -0.00000000000E+00 -0.12871379490E+03  0.12871379490E+03  0.00000000000E+00 0. -1.
          2    1    1    2  502    0 -0.61442704467E+01  0.26578191654E+02  0.34215016454E+03  0.34323590637E+03  0.00000000000E+00 0.  1.
         -2    1    1    2    0  502  0.61442704467E+01 -0.26578191654E+02 -0.12671943969E+03  0.12962240827E+03  0.00000000000E+00 0. -1.
</event>
<event>
 4    1  0.3196713E+003  0.2821524E+02  0.7546771E-02  0.1435768E+00
          2   -1    0    0  501    0  0.00000000000E+00  0.00000000000E+00  0.62766552205E+02  0.62766552205E+02  0.00000000000E+00 0.  1.
         -2   -1    0    0    0  501 -0.00000000000E+00 -0.00000000000E+00 -0.37933474993E+02  0.37933474993E+02  0.00000000000E+00 0. -1.
          2    1    1    2  502    0  0.27275261683E+02 -0.72221782402E+01  0.53495431190E+02  0.60480252286E+02  0.00000000000E+00 0.  1.
         -2    1    1    2    0  502 -0.27275261683E+02  0.72221782402E+01 -0.28662353978E+02  0.40219774912E+02  0.00000000000E+00 0. -1.
</event>
<event>
 4    1  0.3196713E+003  0.2009238E+02  0.7546771E-02  0.1532628E+00
          2   -1    0    0  501    0  0.00000000000E+00  0.00000000000E+00  0.28014010930E+03  0.28014010930E+03  0.00000000000E+00 0. -1.
         -2   -1    0    0    0  501 -0.00000000000E+00 -0.00000000000E+00 -0.35578667814E+01  0.35578667814E+01  0.00000000000E+00 0. -1.
          2    1    1    2  502    0 -0.20015939063E+02 -0.17509833052E+01  0.24770443192E+03  0.24851798597E+03  0.00000000000E+00 0. -1.
         -2    1    1    2    0  502  0.20015939063E+02  0.17509833052E+01  0.28877810601E+02  0.35179990111E+02  0.00000000000E+00 0. -1.
</event>
<event>
 4    1  0.3196713E+003  0.3257832E+02  0.7546771E-02  0.1398437E+00
          2   -1    0    0  501    0  0.00000000000E+00  0.00000000000E+00  0.15506358143E+04  0.15506358143E+04  0.00000000000E+00 0. -1.
         -2   -1    0    0    0  501 -0.00000000000E+00 -0.00000000000E+00 -0.11549324646E+01  0.11549324646E+01  0.00000000000E+00 0. -1.
          2    1    1    2  502    0 -0.29886581960E+02  0.12966857100E+02  0.12699537157E+04  0.12703715154E+04  0.00000000000E+00 0. -1.
         -2    1    1    2    0  502  0.29886581960E+02 -0.12966857100E+02  0.27952716617E+03  0.28141923138E+03  0.00000000000E+00 0. -1.
</event>
<event>
 4    1  0.3196713E+003  0.2075759E+02  0.7546771E-02  0.1522754E+00
          2   -1    0    0  501    0  0.00000000000E+00  0.00000000000E+00  0.58441368095E+02  0.58441368095E+02  0.00000000000E+00 0.  1.
         -2   -1    0    0    0  501 -0.00000000000E+00 -0.00000000000E+00 -0.11315302494E+03  0.11315302494E+03  0.00000000000E+00 0. -1.
          2    1    1    2  502    0 -0.18372061259E+02  0.96615167174E+01  0.55599105203E+02  0.59347603486E+02  0.00000000000E+00 0.  1.
         -2    1    1    2    0  502  0.18372061259E+02 -0.96615167174E+01 -0.11031076205E+03  0.11224678955E+03  0.00000000000E+00 0. -1.
</event>
<event>
 4    1  0.3196713E+003  0.3122760E+02  0.7546771E-02  0.1409220E+00
          2   -1    0    0  501    0  0.00000000000E+00  0.00000000000E+00  0.20128515440E+04  0.20128515440E+04  0.00000000000E+00 0. -1.
         -2   -1    0    0    0  501 -0.00000000000E+00 -0.00000000000E+00 -0.10233491708E+01  0.10233491708E+01  0.00000000000E+00 0.  1.
          2    1    1    2  502    0 -0.31198793039E+02 -0.13410617429E+01  0.17366103514E+04  0.17368910950E+04  0.00000000000E+00 0. -1.
         -2    1    1    2    0  502  0.31198793039E+02  0.13410617429E+01  0.27521784336E+03  0.27698379815E+03  0.00000000000E+00 0.  1.
</event>
<event>
 4    1  0.3196713E+003  0.5805762E+02  0.7546771E-02  0.1266579E+00
          2   -1    0    0  501    0  0.00000000000E+00  0.00000000000E+00  0.27722061509E+03  0.27722061509E+03  0.00000000000E+00 0.  1.
         -2   -1    0    0    0  501 -0.00000000000E+00 -0.00000000000E+00 -0.13369983434E+02  0.13369983434E+02  0.00000000000E+00 0.  1.
          2    1    1    2  502    0  0.15314042687E+02  0.56001497066E+02  0.17565534148E+03  0.18500131504E+03  0.00000000000E+00 0.  1.
         -2    1    1    2    0  502 -0.15314042687E+02 -0.56001497066E+02  0.88195290176E+02  0.10558928348E+03  0.00000000000E+00 0.  1.
</event>
<event>
 4    1  0.3196713E+003  0.2036231E+02  0.7546771E-02  0.1528567E+00
          2   -1    0    0  501    0  0.00000000000E+00  0.00000000000E+00  0.45672517812E+03  0.45672517812E+03  0.00000000000E+00 0. -1.
         -2   -1    0    0    0  501 -0.00000000000E+00 -0.00000000000E+00 -0.12317899611E+01  0.12317899611E+01  0.00000000000E+00 0. -1.
          2    1    1    2  502    0 -0.48470144144E+01  0.19777008333E+02  0.34517685673E+03  0.34577693103E+03  0.00000000000E+00 0. -1.
         -2    1    1    2    0  502  0.48470144144E+01 -0.19777008333E+02  0.11031653142E+03  0.11218003705E+03  0.00000000000E+00 0. -1.
</event>
<event>
 4    1  0.3196713E+003  0.2356365E+02  0.7546771E-02  0.1485539E+00
          2   -1    0    0  501    0  0.00000000000E+00  0.00000000000E+00  0.43962827276E+02  0.43962827276E+02  0.00000000000E+00 0.  1.
         -2   -1    0    0    0  501 -0.00000000000E+00 -0.00000000000E+00 -0.14341112995E+02  0.14341112995E+02  0.00000000000E+00 0.  1.
          2    1    1    2  502    0 -0.12524319223E+02 -0.19959619218E+02  0.47408029093E+01  0.24035810441E+02  0.00000000000E+00 0.  1.
         -2    1    1    2    0  502  0.12524319223E+02  0.19959619218E+02  0.24880911372E+02  0.34268129830E+02  0.00000000000E+00 0.  1.
</event>
<event>
 4    1  0.3196713E+003  0.2640397E+02  0.7546771E-02  0.1453689E+00
          2   -1    0    0  501    0  0.00000000000E+00  0.00000000000E+00  0.83621290237E+03  0.83621290237E+03  0.00000000000E+00 0.  1.
         -2   -1    0    0    0  501 -0.00000000000E+00 -0.00000000000E+00 -0.44704475360E+01  0.44704475360E+01  0.00000000000E+00 0. -1.
          2    1    1    2  502    0  0.21797396369E+02  0.14901115901E+02  0.79499600262E+03  0.79543435551E+03  0.00000000000E+00 0.  1.
         -2    1    1    2    0  502 -0.21797396369E+02 -0.14901115901E+02  0.36746452214E+02  0.45248994396E+02  0.00000000000E+00 0. -1.
</event>
<event>
 4    1  0.3196713E+003  0.2299992E+02  0.7546771E-02  0.1492499E+00
          2   -1    0    0  501    0  0.00000000000E+00  0.00000000000E+00  0.17555354108E+04  0.17555354108E+04  0.00000000000E+00 0. -1.
         -2   -1    0    0    0  501 -0.00000000000E+00 -0.00000000000E+00 -0.10185553248E+01  0.10185553248E+01  0.00000000000E+00 0.  1.
          2    1    1    2  502    0 -0.22584966680E+02 -0.43491887101E+01  0.16142573975E+04  0.16144212404E+04  0.00000000000E+00 0. -1.
         -2    1    1    2    0  502  0.22584966680E+02  0.43491887101E+01  0.14025945796E+03  0.14213272568E+03  0.00000000000E+00 0.  1.
</event>
<event>
 4    1  0.3196713E+003  0.2509286E+02  0.7546771E-02  0.1467767E+00
          2   -1    0    0  501    0  0.00000000000E+00  0.00000000000E+00  0.16736612012E+04  0.16736612012E+04  0.00000000000E+00 0.  1.
         -2   -1    0    0    0  501 -0.00000000000E+00 -0.00000000000E+00 -0.74365721725E+01  0.74365721725E+01  0.00000000000E+00 0.  1.
          2    1    1    2  502    0 -0.22802621009E+02 -0.10473407181E+02  0.16521238155E+04  0.16523143628E+04  0.00000000000E+00 0.  1.
         -2    1    1    2    0  502  0.22802621009E+02  0.10473407181E+02  0.14100813562E+02  0.28783410604E+02  0.00000000000E+00 0.  1.
</event>
<event>
 4    1  0.3196713E+003  0.2037755E+02  0.7546771E-02  0.1528340E+00
          2   -1    0    0  501    0  0.00000000000E+00  0.00000000000E+00  0.53646229114E+03  0.53646229114E+03  0.00000000000E+00 0.  1.
         -2   -1    0    0    0  501 -0.00000000000E+00 -0.00000000000E+00 -0.27852422679E+02  0.27852422679E+02  0.00000000000E+00 0.  1.
          2    1    1    2  502    0  0.13598031488E+02 -0.15176886465E+02  0.53251397225E+03  0.53290372018E+03  0.00000000000E+00 0.  1.
         -2    1    1    2    0  502 -0.13598031488E+02  0.15176886465E+02 -0.23904103790E+02  0.31410993635E+02  0.00000000000E+00 0.  1.
</event>
<event>
 4    1  0.3196713E+003  0.2017565E+02  0.7546771E-02  0.1531367E+00
          2   -1    0    0  501    0  0.00000000000E+00  0.00000000000E+00  0.89725323617E+03  0.89725323617E+03  0.00000000000E+00 0. -1.
         -2   -1    0    0    0  501 -0.00000000000E+00 -0.00000000000E+00 -0.23756729196E+02  0.23756729196E+02  0.00000000000E+00 0. -1.
          2    1    1    2  502    0 -0.19785166755E+02  0.39502059846E+01  0.89283502759E+03  0.89306295603E+03  0.00000000000E+00 0. -1.
         -2    1    1    2    0  502  0.19785166755E+02 -0.39502059846E+01 -0.19338520616E+02  0.27947009330E+02  0.00000000000E+00 0. -1.
</event>
<event>
 4    1  0.3196713E+003  0.3156879E+02  0.7546771E-02  0.1406436E+00
          2   -1    0    0  501    0  0.00000000000E+00  0.00000000000E+00  0.33128921723E+02  0.33128921723E+02  0.00000000000E+00 0. -1.
         -2   -1    0    0    0  501 -0.00000000000E+00 -0.00000000000E+00 -0.48007523473E+02  0.48007523473E+02  0.00000000000E+00 0. -1.
          2    1    1    2  502    0 -0.28497867390E+02 -0.13581607846E+02  0.17350080123E+02  0.36022406885E+02  0.00000000000E+00 0. -1.
         -2    1    1    2    0  502  0.28497867390E+02  0.13581607846E+02 -0.32228681873E+02  0.45114038311E+02  0.00000000000E+00 0. -1.
</event>
<event>
 4    1  0.3196713E+003  0.2254635E+02  0.7546771E-02  0.1498275E+00
          2   -1    0    0  501    0  0.00000000000E+00  0.00000000000E+00  0.62449403238E+03  0.62449403238E+03  0.00000000000E+00 0. -1.
         -2   -1    0    0    0  501 -0.00000000000E+00 -0.00000000000E+00 -0.17455304965E+01  0.17455304965E+01  0.00000000000E+00 0.  1.
          2    1    1    2  502    0 -0.21261135110E+02  0.75034636448E+01  0.54011600074E+03  0.54058637801E+03  0.00000000000E+00 0. -1.
         -2    1    1    2    0  502  0.21261135110E+02 -0.75034636448E+01  0.82632501144E+02  0.85653184869E+02  0.00000000000E+00 0.  1.
</event>
<event>
 4    1  0.3196713E+003  0.2064820E+02  0.7546771E-02  0.1524347E+00
          2   -1    0    0  501    0  0.00000000000E+00  0.00000000000E+00  0.10659192012E+04  0.10659192012E+04  0.00000000000E+00 0.  1.
         -2   -1    0    0    0  501 -0.00000000000E+00 -0.00000000000E+00 -0.43711882807E+00  0.43711882807E+00  0.00000000000E+00 0.  1.
          2    1    1    2  502    0 -0.19523717150E+02  0.67210488191E+01  0.68815053689E+03  0.68846024536E+03  0.00000000000E+00 0.  1.
         -2    1    1    2    0  502  0.19523717150E+02 -0.67210488191E+01  0.37733154548E+03  0.37789607466E+03  0.00000000000E+00 0.  1.
</event>
<event>
 4    1  0.3196713E+003  0.5020950E+02  0.7546771E-02  0.1297267E+00
          2   -1    0    0  501    0  0.00000000000E+00  0.00000000000E+00  0.24536353315E+03  0.24536353315E+03  0.00000000000E+00 0. -1.
         -2   -1    0    0    0  501 -0.00000000000E+00 -0.00000000000E+00 -0.29054173791E+02  0.29054173791E+02  0.00000000000E+00 0.  1.
          2    1    1    2  502    0  0.50103926005E+02 -0.32543489395E+01  0.21846638107E+03  0.22416189205E+03  0.00000000000E+00 0. -1.
         -2    1    1    2    0  502 -0.50103926005E+02  0.32543489395E+01 -0.21570217110E+01  0.50255814895E+02  0.00000000000E+00 0.  1.
</event>
<event>
 4    1  0.3196713E+003  0.2216714E+02  0.7546771E-02  0.1503230E+00
          2   -1    0    0  501    0  0.00000000000E+00  0.00000000000E+00  0.17672690728E+03  0.17672690728E+03  0.00000000000E+00 0. -1.
         -2   -1    0    0    0  501 -0.00000000000E+00 -0.00000000000E+00 -0.47135815919E+01  0.47135815919E+01  0.00000000000E+00 0. -1.
          2    1    1    2  502    0  0.52578462706E+01  0.21534560041E+02  0.14410426420E+03  0.14579924960E+03  0.00000000000E+00 0. -1.
         -2    1    1    2    0  502 -0.52578462706E+01 -0.21534560041E+02  0.27909061485E+02  0.35641239268E+02  0.00000000000E+00 0. -1.
</event>
<event>
 4    1  0.3196713E+003  0.2147233E+02  0.7546771E-02  0.1512627E+00
          2   -1    0    0  501    0  0.00000000000E+00  0.00000000000E+00  0.39841526479E+03  0.39841526479E+03  0.00000000000E+00 0.  1.
         -2   -1    0    0    0  501 -0.00000000000E+00 -0.00000000000E+00 -0.14156319816E+02  0.14156319816E+02  0.00000000000E+00 0. -1.
          2    1    1    2  502    0 -0.17923042417E+02 -0.11824790463E+02  0.38980389568E+03  0.39039484910E+03  0.00000000000E+00 0.  1.
         -2    1    1    2    0  502  0.17923042417E+02  0.11824790463E+02 -0.55449507101E+01  0.22176735498E+02  0.00000000000E+00 0. -1.
</event>
<event>
 4    1  0.3196713E+003  0.4320958E+02  0.7546771E-02  0.1330639E+00
          2   -1    0    0  501    0  0.00000000000E+00  0.00000000000E+00  0.79329548558E+03  0.79329548558E+03  0.00000000000E+00 0. -1.
         -2   -1    0    0    0  501 -0.00000000000E+00 -0.00000000000E+00 -0.33375639894E+01  0.33375639894E+01  0.00000000000E+00 0.  1.
          2    1    1    2  502    0  0.41714000827E+02 -0.11269874321E+02  0.61125684764E+03  0.61278218130E+03  0.00000000000E+00 0. -1.
         -2    1    1    2    0  502 -0.41714000827E+02  0.11269874321E+02  0.17870107395E+03  0.18385086827E+03  0.00000000000E+00 0.  1.
</event>
<event>
 4    1  0.3196713E+003  0.6272909E+02  0.7546771E-02  0.1250832E+00
          2   -1    0    0  501    0  0.00000000000E+00  0.00000000000E+00  0.30413545903E+04  0.30413545903E+04  0.00000000000E+00 0.  1.
         -2   -1    0    0    0  501 -0.00000000000E+00 -0.00000000000E+00 -0.21644271706E+01  0.21644271706E+01  0.00000000000E+00 0.  1.
          2    1    1    2  502    0  0.37333938628E+02 -0.50409477700E+02  0.24847296434E+04  0.24855213415E+04  0.00000000000E+00 0.  1.
         -2    1    1    2    0  502 -0.37333938628E+02  0.50409477700E+02  0.55446051975E+03  0.55799767596E+03  0.00000000000E+00 0.  1.
</event>
<event>
 4    1  0.3196713E+003  0.2017936E+02  0.7546771E-02  0.1531311E+00
          2   -1    0    0  501    0  0.00000000000E+00  0.00000000000E+00  0.16272467229E+01  0.16272467229E+01  0.00000000000E+00 0. -1.
         -2   -1    0    0    0  501 -0.00000000000E+00 -0.00000000000E+00 -0.33619609158E+03  0.33619609158E+03  0.00000000000E+00 0.  1.
          2    1    1    2  502    0 -0.12045172276E+02 -0.16190138128E+02 -0.81877194941E+02  0.84327230472E+02  0.00000000000E+00 0. -1.
         -2    1    1    2    0  502  0.12045172276E+02  0.16190138128E+02 -0.25269164992E+03  0.25349610784E+03  0.00000000000E+00 0.  1.
</event>
<event>
 4    1  0.3196713E+003  0.2094939E+02  0.7546771E-02  0.1519989E+00
          2   -1    0    0  501    0  0.00000000000E+00  0.00000000000E+00  0.98927802528E+03  0.98927802528E+03  0.00000000000E+00 0. -1.
         -2   -1    0    0    0  501 -0.00000000000E+00 -0.00000000000E+00 -0.22224972766E+01  0.22224972766E+01  0.00000000000E+00 0.  1.
          2    1    1    2  502    0  0.10106769646E+02  0.18350204256E+02  0.93704825479E+03  0.93728240600E+03  0.00000000000E+00 0. -1.
         -2    1    1    2    0  502 -0.10106769646E+02 -0.18350204256E+02  0.50007273215E+02  0.54218116560E+02  0.00000000000E+00 0.  1.
</event>
<event>
 4    1  0.3196713E+003  0.2691404E+02  0.7546771E-02  0.1448473E+00
          2   -1    0    0  501    0  0.00000000000E+00  0.00000000000E+00  0.63534358880E+02  0.63534358880E+02  0.00000000000E+00 0.  1.
         -2   -1    0    0    0  501 -0.00000000000E+00 -0.00000000000E+00 -0.48571096480E+02  0.48571096480E+02  0.00000000000E+00 0.  1.
          2    1    1    2  502    0 -0.14362688609E+02 -0.22761346827E+02  0.56516348473E+02  0.62597630771E+02  0.00000000000E+00 0.  1.
         -2    1    1    2    0  502  0.14362688609E+02  0.22761346827E+02 -0.41553086072E+02  0.49507824590E+02  0.00000000000E+00 0.  1.
</event>
<event>
 4    1  0.3196713E+003  0.2260450E+02  0.7546771E-02  0.1497525E+00
          2   -1    0    0  501    0  0.00000000000E+00  0.00000000000E+00  0.87585351851E+03  0.87585351851E+03  0.00000000000E+00 0. -1.
         -2   -1    0    0    0  501 -0.00000000000E+00 -0.00000000000E+00 -0.93015228898E+02  0.93015228898E+02  0.00000000000E+00 0. -1.
          2    1    1    2  502    0 -0.11323037395E+02 -0.19564057215E+02  0.87433194870E+03  0.87462410213E+03  0.00000000000E+00 0. -1.
         -2    1    1    2    0  502  0.11323037395E+02  0.19564057215E+02 -0.91493659087E+02  0.94244645279E+02  0.00000000000E+00 0. -1.
</event>
<event>
 4    1  0.3196713E+003  0.2029891E+02  0.7546771E-02  0.1529514E+00
          2   -1    0    0  501    0  0.00000000000E+00  0.00000000000E+00  0.67826799365E+03  0.67826799365E+03  0.00000000000E+00 0. -1.
         -2   -1    0    0    0  501 -0.00000000000E+00 -0.00000000000E+00 -0.14192080066E+01  0.14192080066E+01  0.00000000000E+00 0.  1.
          2    1    1    2  502    0 -0.18769309337E+01  0.20211944987E+02  0.59543843937E+03  0.59578434073E+03  0.00000000000E+00 0. -1.
         -2    1    1    2    0  502  0.18769309337E+01 -0.20211944987E+02  0.81410346275E+02  0.83902860920E+02  0.00000000000E+00 0.  1.
</event>
<event>
 4    1  0.3196713E+003  0.1558774E+03  0.7546771E-02  0.1091741E+00
          2   -1    0    0  501    0  0.00000000000E+00  0.00000000000E+00  0.90137500990E+02  0.90137500990E+02  0.00000000000E+00 0. -1.
         -2   -1    0    0    0  501 -0.00000000000E+00 -0.00000000000E+00 -0.69853885506E+03  0.69853885506E+03  0.00000000000E+00 0.  1.
          2    1    1    2  502    0 -0.38647684822E+02 -0.15101034053E+03  0.48216011784E+01  0.15595196160E+03  0.00000000000E+00 0. -1.
         -2    1    1    2    0  502  0.38647684822E+02  0.15101034053E+03 -0.61322295524E+03  0.63272439445E+03  0.00000000000E+00 0.  1.
</event>
<event>
 4    1  0.3196713E+003  0.2204611E+02  0.7546771E-02  0.1504837E+00
          2   -1    0    0  501    0  0.00000000000E+00  0.00000000000E+00  0.15600362058E+03  0.15600362058E+03  0.00000000000E+00 0.  1.
         -2   -1    0    0    0  501 -0.00000000000E+00 -0.00000000000E+00 -0.23491974595E+02  0.23491974595E+02  0.00000000000E+00 0.  1.
          2    1    1    2  502    0 -0.20381628034E+02 -0.84035913935E+01  0.14984084040E+03  0.15145398166E+03  0.00000000000E+00 0.  1.
         -2    1    1    2    0  502  0.20381628034E+02  0.84035913935E+01 -0.17329194412E+02  0.28041613516E+02  0.00000000000E+00 0.  1.
</event>
<event>
 4    1  0.3196713E+003  0.3437667E+02  0.7546771E-02  0.1384999E+00
          2   -1    0    0  501    0  0.00000000000E+00  0.00000000000E+00  0.34352902295E+04  0.34352902295E+04  0.00000000000E+00 0. -1.
         -2   -1    0    0    0  501 -0.00000000000E+00 -0.00000000000E+00 -0.34470348752E+00  0.34470348752E+00  0.00000000000E+00 0. -1.
          2    1    1    2  502    0 -0.16462389226E+02  0.30178557993E+02  0.17948226350E+04  0.17951518172E+04  0.00000000000E+00 0. -1.
         -2    1    1    2    0  502  0.16462389226E+02 -0.30178557993E+02  0.16401228910E+04  0.16404831158E+04  0.00000000000E+00 0. -1.
</event>
<event>
 4    1  0.3196713E+003  0.2135324E+02  0.7546771E-02  0.1514281E+00
          2   -1    0    0  501    0  0.00000000000E+00  0.00000000000E+00  0.13593083873E+04  0.13593083873E+04  0.00000000000E+00 0.  1.
         -2   -1    0    0    0  501 -0.00000000000E+00 -0.00000000000E+00 -0.19587022179E+01  0.19587022179E+01  0.00000000000E+00 0. -1.
          2    1    1    2  502    0  0.20149336302E+02 -0.70686149443E+01  0.12982928160E+04  0.12984684044E+04  0.00000000000E+00 0.  1.
         -2    1    1    2    0  502 -0.20149336302E+02  0.70686149443E+01  0.59056869101E+02  0.62798685167E+02  0.00000000000E+00 0. -1.
</event>
<event>
 4    1  0.3196713E+003  0.5802801E+02  0.7546771E-02  0.1266684E+00
          2   -1    0    0  501    0  0.00000000000E+00  0.00000000000E+00  0.52353563657E+03  0.52353563657E+03  0.00000000000E+00 0. -1.
         -2   -1    0    0    0  501 -0.00000000000E+00 -0.00000000000E+00 -0.55452693525E+02  0.55452693525E+02  0.00000000000E+00 0. -1.
          2    1    1    2  502    0 -0.57713961139E+02 -0.60289640609E+01  0.50622969420E+03  0.50954465261E+03  0.00000000000E+00 0. -1.
         -2    1    1    2    0  502  0.57713961139E+02  0.60289640609E+01 -0.38146751157E+02  0.69443677479E+02  0.00000000000E+00 0. -1.
</event>
<event>
 4    1  0.3196713E+003  0.2302090E+02  0.7546771E-02  0.1492236E+00
          2   -1    0    0  501    0  0.00000000000E+00  0.00000000000E+00  0.66995468076E+03  0.66995468076E+03  0.00000000000E+00 0. -1.
         -2   -1    0    0    0  501 -0.00000000000E+00 -0.00000000000E+00 -0.28977903296E+01  0.28977903296E+01  0.00000000000E+00 0.  1.
          2    1    1    2  502    0 -0.97074974292E+01  0.20874060227E+02  0.62038367123E+03  0.62081064861E+03  0.00000000000E+00 0. -1.
         -2    1    1    2    0  502  0.97074974292E+01 -0.20874060227E+02  0.46673219203E+02  0.52041822484E+02  0.00000000000E+00 0.  1.
</event>
<event>
 4    1  0.3196713E+003  0.2002013E+02  0.7546771E-02  0.1533728E+00
          2   -1    0    0  501    0  0.00000000000E+00  0.00000000000E+00  0.15185018290E+03  0.15185018290E+03  0.00000000000E+00 0.  1.
         -2   -1    0    0    0  501 -0.00000000000E+00 -0.00000000000E+00 -0.56649395332E+01  0.56649395332E+01  0.00000000000E+00 0.  1.
          2    1    1    2  502    0  0.19252836910E+02  0.54894350532E+01  0.13064857404E+03  0.13217358104E+03  0.00000000000E+00 0.  1.
         -2    1    1    2    0  502 -0.19252836910E+02 -0.54894350532E+01  0.15536669320E+02  0.25341541387E+02  0.00000000000E+00 0.  1.
</event>
<event>
 4    1  0.3196713E+003  0.6233791E+02  0.7546771E-02  0.1252090E+00
          2   -1    0    0  501    0  0.00000000000E+00  0.00000000000E+00  0.35541970809E+03  0.35541970809E+03  0.00000000000E+00 0.  1.
         -2   -1    0    0    0  501 -0.00000000000E+00 -0.00000000000E+00 -0.14584002305E+02  0.14584002305E+02  0.00000000000E+00 0.  1.
          2    1    1    2  502    0  0.37890282448E+02 -0.49500930282E+02  0.26297464771E+03  0.27026224476E+03  0.00000000000E+00 0.  1.
         -2    1    1    2    0  502 -0.37890282448E+02  0.49500930282E+02  0.77861058072E+02  0.99741465634E+02  0.00000000000E+00 0.  1.
</event>
<event>
 4    1  0.3196713E+003  0.2225592E+02  0.7546771E-02  0.1502059E+00
          2   -1    0    0  501    0  0.00000000000E+00  0.00000000000E+00  0.41900491216E+02  0.41900491216E+02  0.00000000000E+00 0.  1.
         -2   -1    0    0    0  501 -0.00000000000E+00 -0.00000000000E+00 -0.16227116455E+02  0.16227116455E+02  0.00000000000E+00 0. -1.
          2    1    1    2  502    0  0.16161899607E+02  0.15300941606E+02  0.27980530874E+02  0.35752425386E+02  0.00000000000E+00 0.  1.
         -2    1    1    2    0  502 -0.16161899607E+02 -0.15300941606E+02 -0.23071561134E+01  0.22375182285E+02  0.00000000000E+00 0. -1.
</event>
<event>
 4    1  0.3196713E+003  0.2400386E+02  0.7546771E-02  0.1480263E+00
          2   -1    0    0  501    0  0.00000000000E+00  0.00000000000E+00  0.16073751105E+02  0.16073751105E+02  0.00000000000E+00 0.  1.
         -2   -1    0    0    0  501 -0.00000000000E+00 -0.00000000000E+00 -0.15692470297E+04  0.15692470297E+04  0.00000000000E+00 0.  1.
          2    1    1    2  502    0 -0.84909972658E+01  0.22451907823E+02  0.69680713207E+01  0.24994783804E+02  0.00000000000E+00 0.  1.
         -2    1    1    2    0  502  0.84909972658E+01 -0.22451907823E+02 -0.15601413499E+04  0.15603259970E+04  0.00000000000E+00 0.  1.
</event>
<event>
 4    1  0.3196713E+003  0.2185192E+02  0.7546771E-02  0.1507441E+00
          2   -1    0    0  501    0  0.00000000000E+00  0.00000000000E+00  0.27461315296E+03  0.27461315296E+03  0.00000000000E+00 0. -1.
         -2   -1    0    0    0  501 -0.00000000000E+00 -0.00000000000E+00 -0.62668250731E+02  0.62668250731E+02  0.00000000000E+00 0.  1.
          2    1    1    2  502    0 -0.28811230468E+01 -0.21661147870E+02  0.27225708996E+03  0.27313262206E+03  0.00000000000E+00 0. -1.
         -2    1    1    2    0  502  0.28811230468E+01  0.21661147870E+02 -0.60312187729E+02  0.64148781638E+02  0.00000000000E+00 0.  1.
</event>
<event>
 4    1  0.3196713E+003  0.2623448E+02  0.7546771E-02  0.1455453E+00
          2   -1    0    0  501    0  0.00000000000E+00  0.00000000000E+00  0.69375221449E+02  0.69375221449E+02  0.00000000000E+00 0.  1.
         -2   -1    0    0    0  501 -0.00000000000E+00 -0.00000000000E+00 -0.16166577267E+02  0.16166577267E+02  0.00000000000E+00 0.  1.
          2    1    1    2  502    0  0.23351480481E+02 -0.11956430429E+02  0.53189373999E+02  0.59307313004E+02  0.00000000000E+00 0.  1.
         -2    1    1    2    0  502 -0.23351480481E+02  0.11956430429E+02  0.19270182784E-01  0.26234485713E+02  0.00000000000E+00 0.  1.
</event>
<event>
 4    1  0.3196713E+003  0.3280874E+02  0.7546771E-02  0.1396659E+00
          2   -1    0    0  501    0  0.00000000000E+00  0.00000000000E+00  0.42803026879E+02  0.42803026879E+02  0.00000000000E+00 0. -1.
         -2   -1    0    0    0  501 -0.00000000000E+00 -0.00000000000E+00 -0.51917904980E+03  0.51917904980E+03  0.00000000000E+00 0.  1.
          2    1    1    2  502    0  0.32486022431E+02 -0.45903695888E+01  0.35913219002E+02  0.48643318610E+02  0.00000000000E+00 0. -1.
         -2    1    1    2    0  502 -0.32486022431E+02  0.45903695888E+01 -0.51228924193E+03  0.51333875807E+03  0.00000000000E+00 0.  1.
</event>
<event>
 4    1  0.3196713E+003  0.4133038E+02  0.7546771E-02  0.1340861E+00
          2   -1    0    0  501    0  0.00000000000E+00  0.00000000000E+00  0.43635796238E+02  0.43635796238E+02  0.00000000000E+00 0. -1.
         -2   -1    0    0    0  501 -0.00000000000E+00 -0.00000000000E+00 -0.48133888818E+03  0.48133888818E+03  0.00000000000E+00 0. -1.
          2    1    1    2  502    0  0.40196391812E+02 -0.96151178180E+01  0.32735565959E+02  0.52723976368E+02  0.00000000000E+00 0. -1.
         -2    1    1    2    0  502 -0.40196391812E+02  0.96151178180E+01 -0.47043865791E+03  0.47225070805E+03  0.00000000000E+00 0. -1.
</event>
<event>
 4    1  0.3196713E+003  0.2146070E+02  0.7546771E-02  0.1512788E+00
          2   -1    0    0  501    0  0.00000000000E+00  0.00000000000E+00  0.93448052322E+02  0.93448052322E+02  0.00000000000E+00 0.  1.
         -2   -1    0    0    0  501 -0.00000000000E+00 -0.00000000000E+00 -0.51419657845E+01  0.51419657845E+01  0.00000000000E+00 0. -1.
          2    1    1    2  502    0 -0.21309953440E+02 -0.25390824099E+01  0.34109726984E+02  0.40299311781E+02  0.00000000000E+00 0.  1.
         -2    1    1    2    0  502  0.21309953440E+02  0.25390824099E+01  0.54196359554E+02  0.58290706326E+02  0.00000000000E+00 0. -1.
</event>
<event>
 4    1  0.3196713E+003  0.2227213E+02  0.7546771E-02  0.1501846E+00
          2   -1    0    0  501    0  0.00000000000E+00  0.00000000000E+00  0.83935375437E+03  0.83935375437E+03  0.00000000000E+00 0.  1.
         -2   -1    0    0    0  501 -0.00000000000E+00 -0.00000000000E+00 -0.26932025226E+02  0.26932025226E+02  0.00000000000E+00 0. -1.
          2    1    1    2  502    0  0.22048952571E+02  0.31450808252E+01  0.83457501810E+03  0.83487215110E+03  0.00000000000E+00 0.  1.
         -2    1    1    2    0  502 -0.22048952571E+02 -0.31450808252E+01 -0.22153288965E+02  0.31413628489E+02  0.00000000000E+00 0. -1.
</event>
<event>
 4    1  0.3196713E+003  0.2601209E+02  0.7546771E-02  0.1457792E+00
          2   -1    0    0  501    0  0.00000000000E+00  0.00000000000E+00  0.14218920613E+04  0.14218920613E+04  0.00000000000E+00 0. -1.
         -2   -1    0    0    0  501 -0.00000000000E+00 -0.00000000000E+00 -0.72515498392E+00  0.72515498392E+00  0.00000000000E+00 0. -1.
          2    1    1    2  502    0 -0.23948318754E+02  0.10154145520E+02  0.11276401272E+04  0.11279401071E+04  0.00000000000E+00 0. -1.
         -2    1    1    2    0  502  0.23948318754E+02 -0.10154145520E+02  0.29352677908E+03  0.29467710919E+03  0.00000000000E+00 0. -1.
</event>
<event>
 4    1  0.3196713E+003  0.3713035E+02  0.7546771E-02  0.1366175E+00
          2   -1    0    0  501    0  0.00000000000E+00  0.00000000000E+00  0.16350315710E+03  0.16350315710E+03  0.00000000000E+00 0.  1.
         -2   -1    0    0    0  501 -0.00000000000E+00 -0.00000000000E+00 -0.16173325160E+02  0.16173325160E+02  0.00000000000E+00 0. -1.
          2    1    1    2  502    0  0.16245437020E+01 -0.37094795963E+02  0.13581882960E+03  0.14080276100E+03  0.00000000000E+00 0.  1.
         -2    1    1    2    0  502 -0.16245437020E+01  0.37094795963E+02  0.11511002332E+02  0.38873721258E+02  0.00000000000E+00 0. -1.
</event>
<event>
 4    1  0.3196713E+003  0.3454283E+02  0.7546771E-02  0.1383806E+00
          2   -1    0    0  501    0  0.00000000000E+00  0.00000000000E+00  0.63424980595E+03  0.63424980595E+03  0.00000000000E+00 0.  1.
         -2   -1    0    0    0  501 -0.00000000000E+00 -0.00000000000E+00 -0.67289708713E+02  0.67289708713E+02  0.00000000000E+00 0.  1.
          2    1    1    2  502    0  0.34214721471E+02 -0.47497538827E+01  0.62931162610E+03  0.63025893891E+03  0.00000000000E+00 0.  1.
         -2    1    1    2    0  502 -0.34214721471E+02  0.47497538827E+01 -0.62351528868E+02  0.71280575751E+02  0.00000000000E+00 0.  1.
</event>
<event>
 4    1  0.3196713E+003  0.3587897E+02  0.7546771E-02  0.1374487E+00
          2   -1    0    0  501    0  0.00000000000E+00  0.00000000000E+00  0.82238774603E+03  0.82238774603E+03  0.00000000000E+00 0.  1.
         -2   -1    0    0    0  501 -0.00000000000E+00 -0.00000000000E+00 -0.26117551499E+01  0.26117551499E+01  0.00000000000E+00 0.  1.
          2    1    1    2  502    0 -0.35427919603E+02  0.56712261395E+01  0.67099200601E+03  0.67195057290E+03  0.00000000000E+00 0.  1.
         -2    1    1    2    0  502  0.35427919603E+02 -0.56712261395E+01  0.14878398487E+03  0.15304892827E+03  0.00000000000E+00 0.  1.
</event>
<event>
 4    1  0.3196713E+003  0.4617359E+02  0.7546771E-02  0.1315673E+00
          2   -1    0    0  501    0  0.00000000000E+00  0.00000000000E+00  0.13640048683E+04  0.13640048683E+04  0.00000000000E+00 0.  1.
         -2   -1    0    0    0  501 -0.00000000000E+00 -0.00000000000E+00 -0.16021726107E+02  0.16021726107E+02  0.00000000000E+00 0.  1.
          2    1    1    2  502    0  0.28593051187E+02 -0.36255179240E+02  0.13294832040E+04  0.13302847779E+04  0.00000000000E+00 0.  1.
         -2    1    1    2    0  502 -0.28593051187E+02  0.36255179240E+02  0.18499938220E+02  0.49741816533E+02  0.00000000000E+00 0.  1.
</event>
<event>
 4    1  0.3196713E+003  0.2436319E+02  0.7546771E-02  0.1476055E+00
          2   -1    0    0  501    0  0.00000000000E+00  0.00000000000E+00  0.16270945283E+02  0.16270945283E+02  0.00000000000E+00 0.  1.
         -2   -1    0    0    0  501 -0.00000000000E+00 -0.00000000000E+00 -0.36491779256E+02  0.36491779256E+02  0.00000000000E+00 0.  1.
          2    1    1    2  502    0  0.20663423207E+02  0.12906864257E+02 -0.10584247476E+02  0.26562953493E+02  0.00000000000E+00 0.  1.
         -2    1    1    2    0  502 -0.20663423207E+02 -0.12906864257E+02 -0.96365864963E+01  0.26199771047E+02  0.00000000000E+00 0.  1.
</event>
<event>
 4    1  0.3196713E+003  0.3257955E+02  0.7546771E-02  0.1398428E+00
          2   -1    0    0  501    0  0.00000000000E+00  0.00000000000E+00  0.39560625594E+03  0.39560625594E+03  0.00000000000E+00 0. -1.
         -2   -1    0    0    0  501 -0.00000000000E+00 -0.00000000000E+00 -0.19573169055E+02  0.19573169055E+02  0.00000000000E+00 0. -1.
          2    1    1    2  502    0 -0.27780135391E+02 -0.17020312799E+02  0.38085415870E+03  0.38224510091E+03  0.00000000000E+00 0. -1.
         -2    1    1    2    0  502  0.27780135391E+02  0.17020312799E+02 -0.48210718070E+01  0.32934324093E+02  0.00000000000E+00 0. -1.
</event>
<event>
 4    1  0.3196713E+003  0.2338377E+02  0.7546771E-02  0.1487735E+00
          2   -1    0    0  501    0  0.00000000000E+00  0.00000000000E+00  0.90547095773E+01  0.90547095773E+01  0.00000000000E+00 0.  1.
         -2   -1    0    0    0  501 -0.00000000000E+00 -0.00000000000E+00 -0.31841207875E+03  0.31841207875E+03  0.00000000000E+00 0. -1.
          2    1    1    2  502    0 -0.22869024593E+02  0.48793909850E+01 -0.72872803092E+01  0.24492962184E+02  0.00000000000E+00 0.  1.
         -2    1    1    2    0  502  0.22869024593E+02 -0.48793909850E+01 -0.30207008887E+03  0.30297382615E+03  0.00000000000E+00 0. -1.
</event>
<event>
 4    1  0.3196713E+003  0.2719565E+02  0.7546771E-02  0.1445653E+00
          2   -1    0    0  501    0  0.00000000000E+00  0.00000000000E+00  0.42462658205E+02  0.42462658205E+02  0.00000000000E+00 0. -1.
         -2   -1    0    0    0  501 -0.00000000000E+00 -0.00000000000E+00 -0.18899868586E+02  0.18899868586E+02  0.00000000000E+00 0.  1.
          2    1    1    2  502    0 -0.59942534946E+01  0.26526823226E+02  0.20373254679E+02  0.33980478684E+02  0.00000000000E+00 0. -1.
         -2    1    1    2    0  502  0.59942534946E+01 -0.26526823226E+02  0.31895349400E+01  0.27382048107E+02  0.00000000000E+00 0.  1.
</event>
<event>
 4    1  0.3196713E+003  0.2076795E+02  0.7546771E-02  0.1522604E+00
          2   -1    0    0  501    0  0.00000000000E+00  0.00000000000E+00  0.98290331369E+03  0.98290331369E+03  0.00000000000E+00 0. -1.
         -2   -1    0    0    0  501 -0.00000000000E+00 -0.00000000000E+00 -0.29957430934E+02  0.29957430934E+02  0.00000000000E+00 0.  1.
          2    1    1    2  502    0  0.64194624949E+01  0.19750903550E+02  0.97918059043E+03  0.97940080476E+03  0.00000000000E+00 0. -1.
         -2    1    1    2    0  502 -0.64194624949E+01 -0.19750903550E+02 -0.26234707668E+02  0.33459939871E+02  0.00000000000E+00 0.  1.
</event>
<event>
 4    1  0.3196713E+003  0.4350195E+02  0.7546771E-02  0.1329102E+00
          2   -1    0    0  501    0  0.00000000000E+00  0.00000000000E+00  0.13660007126E+03  0.13660007126E+03  0.00000000000E+00 0. -1.
         -2   -1    0    0    0  501 -0.00000000000E+00 -0.00000000000E+00 -0.14252893841E+02  0.14252893841E+02  0.00000000000E+00 0. -1.
          2    1    1    2  502    0 -0.25228030881E+02  0.35439606478E+02  0.73796308089E+02  0.85663961717E+02  0.00000000000E+00 0. -1.
         -2    1    1    2    0  502  0.25228030881E+02 -0.35439606478E+02  0.48550869328E+02  0.65189003383E+02  0.00000000000E+00 0. -1.
</event>
<event>
 4    1  0.3196713E+003  0.4870111E+02  0.7546771E-02  0.1303904E+00
          2   -1    0    0  501    0  0.00000000000E+00  0.00000000000E+00  0.10581973287E+04  0.10581973287E+04  0.00000000000E+00 0. -1.
         -2   -1    0    0    0  501 -0.00000000000E+00 -0.00000000000E+00 -0.31103771544E+01  0.31103771544E+01  0.00000000000E+00 0.  1.
          2    1    1    2  502    0 -0.43918340749E+02 -0.21047033252E+02  0.80803494365E+03  0.80950124670E+03  0.00000000000E+00 0. -1.
         -2    1    1    2    0  502  0.43918340749E+02  0.21047033252E+02  0.24705200794E+03  0.25180645919E+03  0.00000000000E+00 0.  1.
</event>
<event>
 4    1  0.3196713E+003  0.2134450E+02  0.7546771E-02  0.1514403E+00
          2   -1    0    0  501    0  0.00000000000E+00  0.00000000000E+00  0.12612136524E+04  0.12612136524E+04  0.00000000000E+00 0. -1.
         -2   -1    0    0    0  501 -0.00000000000E+00 -0.00000000000E+00 -0.20311123858E+03  0.20311123858E+03  0.00000000000E+00 0. -1.
          2    1    1    2  502    0  0.11873404861E+02 -0.17737249304E+02  0.12605622939E+04  0.12607429891E+04  0.00000000000E+00 0. -1.
         -2    1    1    2    0  502 -0.11873404861E+02  0.17737249304E+02 -0.20245988005E+03  0.20358190191E+03  0.00000000000E+00 0. -1.
</event>
<event>
 4    1  0.3196713E+003  0.4982675E+02  0.7546771E-02  0.1298925E+00
          2   -1    0    0  501    0  0.00000000000E+00  0.00000000000E+00  0.10671481129E+03  0.10671481129E+03  0.00000000000E+00 0.  1.
         -2   -1    0    0    0  501 -0.00000000000E+00 -0.00000000000E+00 -0.10963694235E+03  0.10963694235E+03  0.00000000000E+00 0.  1.
          2    1    1    2  502    0  0.13774577959E+02  0.47884928755E+02  0.94553839256E+02  0.10687906211E+03  0.00000000000E+00 0.  1.
         -2    1    1    2    0  502 -0.13774577959E+02 -0.47884928755E+02 -0.97475970318E+02  0.10947269152E+03  0.00000000000E+00 0.  1.
</event>
<event>
 4    1  0.3196713E+003  0.2346798E+02  0.7546771E-02  0.1486704E+00
          2   -1    0    0  501    0  0.00000000000E+00  0.00000000000E+00  0.14325239768E+04  0.14325239768E+04  0.00000000000E+00 0. -1.
         -2   -1    0    0    0  501 -0.00000000000E+00 -0.00000000000E+00 -0.33130406674E+01  0.33130406674E+01  0.00000000000E+00 0.  1.
          2    1    1    2  502    0  0.12440674362E+02 -0.19899139909E+02  0.13895847875E+04  0.13897829427E+04  0.00000000000E+00 0. -1.
         -2    1    1    2    0  502 -0.12440674362E+02  0.19899139909E+02  0.39626148616E+02  0.46054074758E+02  0.00000000000E+00 0.  1.
</event>
<event>
 4    1  0.3196713E+003  0.2064300E+02  0.7546771E-02  0.1524423E+00
          2   -1    0    0  501    0  0.00000000000E+00  0.00000000000E+00  0.85506309925E+03  0.85506309925E+03  0.00000000000E+00 0. -1.
         -2   -1    0    0    0  501 -0.00000000000E+00 -0.00000000000E+00 -0.94049156952E+00  0.94049156952E+00  0.00000000000E+00 0. -1.
          2    1    1    2  502    0 -0.20546788992E+02  0.19907333778E+01  0.72051624335E+03  0.72081189675E+03  0.00000000000E+00 0. -1.
         -2    1    1    2    0  502  0.20546788992E+02 -0.19907333778E+01  0.13360636433E+03  0.13519169407E+03  0.00000000000E+00 0. -1.
</event>
<event>
 4    1  0.3196713E+003  0.2114187E+02  0.7546771E-02  0.1517249E+00
          2   -1    0    0  501    0  0.00000000000E+00  0.00000000000E+00  0.20016448982E+03  0.20016448982E+03  0.00000000000E+00 0. -1.
         -2   -1    0    0    0  501 -0.00000000000E+00 -0.00000000000E+00 -0.24417676374E+02  0.24417676374E+02  0.00000000000E+00 0. -1.
          2    1    1    2  502    0  0.15646238183E+02  0.14218788455E+02  0.19490675095E+03  0.19605004535E+03  0.00000000000E+00 0. -1.
         -2    1    1    2    0  502 -0.15646238183E+02 -0.14218788455E+02 -0.19159937509E+02  0.28532120842E+02  0.00000000000E+00 0. -1.
</event>
<event>
 4    1  0.3196713E+003  0.2030713E+02  0.7546771E-02  0.1529391E+00
          2   -1    0    0  501    0  0.00000000000E+00  0.00000000000E+00  0.49618214560E+01  0.49618214560E+01  0.00000000000E+00 0.  1.
         -2   -1    0    0    0  501 -0.00000000000E+00 -0.00000000000E+00 -0.12076889627E+03  0.12076889627E+03  0.00000000000E+00 0.  1.
          2    1    1    2  502    0  0.20038803854E+02  0.32902584701E+01 -0.22798878092E+02  0.30531431394E+02  0.00000000000E+00 0.  1.
         -2    1    1    2    0  502 -0.20038803854E+02 -0.32902584701E+01 -0.93008196724E+02  0.95199286334E+02  0.00000000000E+00 0.  1.
</event>
<event>
 4    1  0.3196713E+003  0.2602333E+02  0.7546771E-02  0.1457674E+00
          2   -1    0    0  501    0  0.00000000000E+00  0.00000000000E+00  0.24289424199E+03  0.24289424199E+03  0.00000000000E+00 0.  1.
         -2   -1    0    0    0  501 -0.00000000000E+00 -0.00000000000E+00 -0.95470392735E+01  0.95470392735E+01  0.00000000000E+00 0.  1.
          2    1    1    2  502    0 -0.25142201822E+02  0.67144015632E+01  0.22287623563E+03  0.22439035165E+03  0.00000000000E+00 0.  1.
         -2    1    1    2    0  502  0.25142201822E+02 -0.67144015632E+01  0.10470967082E+02  0.28050929618E+02  0.00000000000E+00 0.  1.
</event>
<event>
 4    1  0.3196713E+003  0.4189841E+02  0.7546771E-02  0.1337706E+00
          2   -1    0    0  501    0  0.00000000000E+00  0.00000000000E+00  0.20857981305E+03  0.20857981305E+03  0.00000000000E+00 0. -1.
         -2   -1    0    0    0  501 -0.00000000000E+00 -0.00000000000E+00 -0.12105567057E+02  0.12105567057E+02  0.00000000000E+00 0.  1.
          2    1    1    2  502    0 -0.38044760262E+02 -0.17552009427E+02  0.15915141496E+03  0.16457414652E+03  0.00000000000E+00 0. -1.
         -2    1    1    2    0  502  0.38044760262E+02  0.17552009427E+02  0.37322831030E+02  0.56111233585E+02  0.00000000000E+00 0.  1.
</event>
<event>
 4    1  0.3196713E+003  0.3462194E+02  0.7546771E-02  0.1383241E+00
          2   -1    0    0  501    0  0.00000000000E+00  0.00000000000E+00  0.38087921088E+03  0.38087921088E+03  0.00000000000E+00 0. -1.
         -2   -1    0    0    0  501 -0.00000000000E+00 -0.00000000000E+00 -0.89353222230E+02  0.89353222230E+02  0.00000000000E+00 0.  1.
          2    1    1    2  502    0  0.13392162559E+02 -0.31926924218E+02  0.37670154750E+03  0.37828922057E+03  0.00000000000E+00 0. -1.
         -2    1    1    2    0  502 -0.13392162559E+02  0.31926924218E+02 -0.85175558848E+02  0.91943212545E+02  0.00000000000E+00 0.  1.
</event>
<event>
 4    1  0.3196713E+003  0.2069863E+02  0.7546771E-02  0.1523611E+00
          2   -1    0    0  501    0  0.00000000000E+00  0.00000000000E+00  0.17315590087E+04  0.17315590087E+04  0.00000000000E+00 0.  1.
         -2   -1    0    0    0  501 -0.00000000000E+00 -0.00000000000E+00 -0.36114323541E+00  0.36114323541E+00  0.00000000000E+00 0.  1.
          2    1    1    2  502    0 -0.48518279506E+01  0.20121959177E+02  0.13515252717E+04  0.13516837624E+04  0.00000000000E+00 0.  1.
         -2    1    1    2    0  502  0.48518279506E+01 -0.20121959177E+02  0.37967259374E+03  0.38023638952E+03  0.00000000000E+00 0.  1.
</event>
<event>
 4    1  0.3196713E+003  0.2779187E+02  0.7546771E-02  0.1439812E+00
          2   -1    0    0  501    0  0.00000000000E+00  0.00000000000E+00  0.64312824509E+01  0.64312824509E+01  0.00000000000E+00 0.  1.
         -2   -1    0    0    0  501 -0.00000000000E+00 -0.00000000000E+00 -0.34465522449E+03  0.34465522449E+03  0.00000000000E+00 0.  1.
          2    1    1    2  502    0  0.26555670043E+02 -0.81966029100E+01 -0.27416926490E+02  0.39039413019E+02  0.00000000000E+00 0.  1.
         -2    1    1    2    0  502 -0.26555670043E+02  0.81966029100E+01 -0.31080701554E+03  0.31204709392E+03  0.00000000000E+00 0.  1.
</event>
<event>
 4    1  0.3196713E+003  0.2288062E+02  0.7546771E-02  0.1494003E+00
          2   -1    0    0  501    0  0.00000000000E+00  0.00000000000E+00  0.79596467781E+03  0.79596467781E+03  0.00000000000E+00 0. -1.
         -2   -1    0    0    0  501 -0.00000000000E+00 -0.00000000000E+00 -0.14556117006E+03  0.14556117006E+03  0.00000000000E+00 0. -1.
          2    1    1    2  502    0  0.22513796800E+02  0.40806627269E+01  0.79489989754E+03  0.79522913048E+03  0.00000000000E+00 0. -1.
         -2    1    1    2    0  502 -0.22513796800E+02 -0.40806627269E+01 -0.14449638979E+03  0.14629671739E+03  0.00000000000E+00 0. -1.
</event>
<event>
 4    1  0.3196713E+003  0.4851444E+02  0.7546771E-02  0.1304745E+00
          2   -1    0    0  501    0  0.00000000000E+00  0.00000000000E+00  0.65692123203E+02  0.65692123203E+02  0.00000000000E+00 0. -1.
         -2   -1    0    0    0  501 -0.00000000000E+00 -0.00000000000E+00 -0.66103971354E+02  0.66103971354E+02  0.00000000000E+00 0. -1.
          2    1    1    2  502    0 -0.13638267431E+02 -0.46558015934E+02  0.44390919595E+02  0.65758687097E+02  0.00000000000E+00 0. -1.
         -2    1    1    2    0  502  0.13638267431E+02  0.46558015934E+02 -0.44802767746E+02  0.66037407459E+02  0.00000000000E+00 0. -1.
</event>
<event>
 4    1  0.3196713E+003  0.3106325E+02  0.7546771E-02  0.1410576E+00
          2   -1    0    0  501    0  0.00000000000E+00  0.00000000000E+00  0.11588472652E+03  0.11588472652E+03  0.00000000000E+00 0. -1.
         -2   -1    0    0    0  501 -0.00000000000E+00 -0.00000000000E+00 -0.12359654729E+02  0.12359654729E+02  0.00000000000E+00 0.  1.
          2    1    1    2  502    0 -0.22107650660E+02 -0.21821493650E+02  0.88391296269E+02  0.93690698892E+02  0.00000000000E+00 0. -1.
         -2    1    1    2    0  502  0.22107650660E+02  0.21821493650E+02  0.15133775523E+02  0.34553682357E+02  0.00000000000E+00 0.  1.
</event>
<event>
 4    1  0.3196713E+003  0.2368822E+02  0.7546771E-02  0.1484032E+00
          2   -1    0    0  501    0  0.00000000000E+00  0.00000000000E+00  0.14995869406E+03  0.14995869406E+03  0.00000000000E+00 0. -1.
         -2   -1    0    0    0  501 -0.00000000000E+00 -0.00000000000E+00 -0.84983796487E+01  0.84983796487E+01  0.00000000000E+00 0.  1.
          2    1    1    2  502    0 -0.82846114719E+01 -0.22192268873E+02  0.13000303910E+03  0.13214356496E+03  0.00000000000E+00 0. -1.
         -2    1    1    2    0  502  0.82846114719E+01  0.22192268873E+02  0.11457275306E+02  0.26313508744E+02  0.00000000000E+00 0.  1.
</event>
<event>
 4    1  0.3196713E+003  0.2248487E+02  0.7546771E-02  0.1499070E+00
          2   -1    0    0  501    0  0.00000000000E+00  0.00000000000E+00  0.71087690467E+02  0.71087690467E+02  0.00000000000E+00 0.  1.
         -2   -1    0    0    0  501 -0.00000000000E+00 -0.00000000000E+00 -0.11167116685E+02  0.11167116685E+02  0.00000000000E+00 0.  1.
          2    1    1    2  502    0 -0.19848407113E+02 -0.10564566173E+02  0.54744047908E+02  0.59181754829E+02  0.00000000000E+00 0.  1.
         -2    1    1    2    0  502  0.19848407113E+02  0.10564566173E+02  0.51765258745E+01  0.23073052322E+02  0.00000000000E+00 0.  1.
</event>
<event>
 4    1  0.3196713E+003  0.2469149E+02  0.7546771E-02  0.1472284E+00
          2   -1    0    0  501    0  0.00000000000E+00  0.00000000000E+00  0.17062933159E+04  0.17062933159E+04  0.00000000000E+00 0. -1.
         -2   -1    0    0    0  501 -0.00000000000E+00 -0.00000000000E+00 -0.24763780678E+03  0.24763780678E+03  0.00000000000E+00 0.  1.
          2    1    1    2  502    0 -0.62913900336E+01  0.23876518010E+02  0.17055882496E+04  0.17057669673E+04  0.00000000000E+00 0. -1.
         -2    1    1    2    0  502  0.62913900336E+01 -0.23876518010E+02 -0.24693274045E+03  0.24816415537E+03  0.00000000000E+00 0.  1.
</event>
<event>
 4    1  0.3196713E+003  0.3417817E+02  0.7546771E-02  0.1386435E+00
          2   -1    0    0  501    0  0.00000000000E+00  0.00000000000E+00  0.72725213062E+01  0.72725213062E+01  0.00000000000E+00 0. -1.
         -2   -1    0    0    0  501 -0.00000000000E+00 -0.00000000000E+00 -0.18596786543E+03  0.18596786543E+03  0.00000000000E+00 0. -1.
          2    1    1    2  502    0  0.27574531914E+02 -0.20193877775E+02 -0.53679713682E+02  0.63636932443E+02  0.00000000000E+00 0. -1.
         -2    1    1    2    0  502 -0.27574531914E+02  0.20193877775E+02 -0.12501563044E+03  0.12960345429E+03  0.00000000000E+00 0. -1.
</event>
<event>
 4    1  0.3196713E+003  0.6348166E+02  0.7546771E-02  0.1248441E+00
          2   -1    0    0  501    0  0.00000000000E+00  0.00000000000E+00  0.11050289266E+04  0.11050289266E+04  0.00000000000E+00 0.  1.
         -2   -1    0    0    0  501 -0.00000000000E+00 -0.00000000000E+00 -0.54971847434E+02  0.54971847434E+02  0.00000000000E+00 0. -1.
          2    1    1    2  502    0  0.44415341350E+02 -0.45356356592E+02  0.10854598695E+04  0.10873146048E+04  0.00000000000E+00 0.  1.
         -2    1    1    2    0  502 -0.44415341350E+02  0.45356356592E+02 -0.35402790316E+02  0.72686169198E+02  0.00000000000E+00 0. -1.
</event>
<event>
 4    1  0.3196713E+003  0.2105945E+02  0.7546771E-02  0.1518418E+00
          2   -1    0    0  501    0  0.00000000000E+00  0.00000000000E+00  0.31337495024E+03  0.31337495024E+03  0.00000000000E+00 0.  1.
         -2   -1    0    0    0  501 -0.00000000000E+00 -0.00000000000E+00 -0.18333901601E+01  0.18333901601E+01  0.00000000000E+00 0. -1.
          2    1    1    2  502    0  0.13702570106E+02  0.15991867896E+02  0.23103823235E+03  0.23199604539E+03  0.00000000000E+00 0.  1.
         -2    1    1    2    0  502 -0.13702570106E+02 -0.15991867896E+02  0.80503327731E+02  0.83212295017E+02  0.00000000000E+00 0. -1.
</event>
<event>
 4    1  0.3196713E+003  0.2388782E+02  0.7546771E-02  0.1481641E+00
          2   -1    0    0  501    0  0.00000000000E+00  0.00000000000E+00  0.48327191100E+03  0.48327191100E+03  0.00000000000E+00 0.  1.
         -2   -1    0    0    0  501 -0.00000000000E+00 -0.00000000000E+00 -0.17428390959E+01  0.17428390959E+01  0.00000000000E+00 0.  1.
          2    1    1    2  502    0  0.20637573859E+02  0.12029909661E+02  0.37848389387E+03  0.37923697881E+03  0.00000000000E+00 0.  1.
         -2    1    1    2    0  502 -0.20637573859E+02 -0.12029909661E+02  0.10304517804E+03  0.10577777129E+03  0.00000000000E+00 0.  1.
</event>
<event>
 4    1  0.3196713E+003  0.2134380E+02  0.7546771E-02  0.1514412E+00
          2   -1    0    0  501    0  0.00000000000E+00  0.00000000000E+00  0.15311579271E+01  0.15311579271E+01  0.00000000000E+00 0.  1.
         -2   -1    0    0    0  501 -0.00000000000E+00 -0.00000000000E+00 -0.11644178684E+04  0.11644178684E+04  0.00000000000E+00 0. -1.
          2    1    1    2  502    0  0.68726951865E+01  0.20207025080E+02 -0.78431933633E+02  0.81284229806E+02  0.00000000000E+00 0.  1.
         -2    1    1    2    0  502 -0.68726951865E+01 -0.20207025080E+02 -0.10844547768E+04  0.10846647965E+04  0.00000000000E+00 0. -1.
</event>
<event>
 4    1  0.3196713E+003  0.2267273E+02  0.7546771E-02  0.1496649E+00
          2   -1    0    0  501    0  0.00000000000E+00  0.00000000000E+00  0.18631177166E+02  0.18631177166E+02  0.00000000000E+00 0.  1.
         -2   -1    0    0    0  501 -0.00000000000E+00 -0.00000000000E+00 -0.42970747574E+02  0.42970747574E+02  0.00000000000E+00 0. -1.
          2    1    1    2  502    0  0.20048301956E+02  0.10588584176E+02  0.62571305260E+01  0.23520293548E+02  0.00000000000E+00 0.  1.
         -2    1    1    2    0  502 -0.20048301956E+02 -0.10588584176E+02 -0.30596700934E+02  0.38081631191E+02  0.00000000000E+00 0. -1.
</event>
<event>
 4    1  0.3196713E+003  0.2477785E+02  0.7546771E-02  0.1471304E+00
          2   -1    0    0  501    0  0.00000000000E+00  0.00000000000E+00  0.61608742551E+03  0.61608742551E+03  0.00000000000E+00 0. -1.
         -2   -1    0    0    0  501 -0.00000000000E+00 -0.00000000000E+00 -0.10730401896E+01  0.10730401896E+01  0.00000000000E+00 0.  1.
          2    1    1    2  502    0 -0.39234350581E+01  0.24465248714E+02  0.38991265032E+03  0.39069913823E+03  0.00000000000E+00 0. -1.
         -2    1    1    2    0  502  0.39234350581E+01 -0.24465248714E+02  0.22510173501E+03  0.22646132747E+03  0.00000000000E+00 0.  1.
</event>
<event>
 4    1  0.3196713E+003  0.2023333E+02  0.7546771E-02  0.1530498E+00
          2   -1    0    0  501    0  0.00000000000E+00  0.00000000000E+00  0.44557901540E+01  0.44557901540E+01  0.00000000000E+00 0. -1.
         -2   -1    0    0    0  501 -0.00000000000E+00 -0.00000000000E+00 -0.26039700370E+03  0.26039700370E+03  0.00000000000E+00 0. -1.
          2    1    1    2  502    0 -0.11844198854E+02  0.16404350887E+02 -0.21438284854E+02  0.29478599560E+02  0.00000000000E+00 0. -1.
         -2    1    1    2    0  502  0.11844198854E+02 -0.16404350887E+02 -0.23450292870E+03  0.23537419430E+03  0.00000000000E+00 0. -1.
</event>
<event>
 4    1  0.3196713E+003  0.2802831E+02  0.7546771E-02  0.1437543E+00
          2   -1    0    0  501    0  0.00000000000E+00  0.00000000000E+00  0.42663049207E+01  0.42663049207E+01  0.00000000000E+00 0.  1.
         -2   -1    0    0    0  501 -0.00000000000E+00 -0.00000000000E+00 -0.19536777400E+03  0.19536777400E+03  0.00000000000E+00 0.  1.
          2    1    1    2  502    0 -0.66409994953E+01 -0.27230186912E+02 -0.71618850991E+02  0.76908034502E+02  0.00000000000E+00 0.  1.
         -2    1    1    2    0  502  0.66409994953E+01  0.27230186912E+02 -0.11948261809E+03  0.12272604442E+03  0.00000000000E+00 0.  1.
</event>
<event>
 4    1  0.3196713E+003  0.2363666E+02  0.7546771E-02  0.1484655E+00
          2   -1    0    0  501    0  0.00000000000E+00  0.00000000000E+00  0.31089011849E+03  0.31089011849E+03  0.00000000000E+00 0.  1.
         -2   -1    0    0    0  501 -0.00000000000E+00 -0.00000000000E+00 -0.61791785208E+02  0.61791785208E+02  0.00000000000E+00 0. -1.
          2    1    1    2  502    0 -0.23042454809E+02  0.52665803788E+01  0.30816047829E+03  0.30906564347E+03  0.00000000000E+00 0.  1.
         -2    1    1    2    0  502  0.23042454809E+02 -0.52665803788E+01 -0.59062145009E+02  0.63616260229E+02  0.00000000000E+00 0. -1.
</event>
<event>
 4    1  0.3196713E+003  0.3020864E+02  0.7546771E-02  0.1417792E+00
          2   -1    0    0  501    0  0.00000000000E+00  0.00000000000E+00  0.80817553358E+03  0.80817553358E+03  0.00000000000E+00 0.  1.
         -2   -1    0    0    0  501 -0.00000000000E+00 -0.00000000000E+00 -0.37022926673E+03  0.37022926673E+03  0.00000000000E+00 0. -1.
          2    1    1    2  502    0 -0.29591290369E+02 -0.60759539074E+01  0.80727634287E+03  0.80784135536E+03  0.00000000000E+00 0.  1.
         -2    1    1    2    0  502  0.29591290369E+02  0.60759539074E+01 -0.36933007602E+03  0.37056344495E+03  0.00000000000E+00 0. -1.
</event>
<event>
 4    1  0.3196713E+003  0.3181836E+02  0.7546771E-02  0.1404426E+00
          2   -1    0    0  501    0  0.00000000000E+00  0.00000000000E+00  0.54158187241E+02  0.54158187241E+02  0.00000000000E+00 0. -1.
         -2   -1    0    0    0  501 -0.00000000000E+00 -0.00000000000E+00 -0.19898989579E+02  0.19898989579E+02  0.00000000000E+00 0. -1.
          2    1    1    2  502    0  0.80683491507E+01  0.30778395222E+02  0.26243354814E+02  0.41244654712E+02  0.00000000000E+00 0. -1.
         -2    1    1    2    0  502 -0.80683491507E+01 -0.30778395222E+02  0.80158428486E+01  0.32812522108E+02  0.00000000000E+00 0. -1.
</event>
<event>
 4    1  0.3196713E+003  0.2388075E+02  0.7546771E-02  0.1481725E+00
          2   -1    0    0  501    0  0.00000000000E+00  0.00000000000E+00  0.52094015255E+03  0.52094015255E+03  0.00000000000E+00 0. -1.
         -2   -1    0    0    0  501 -0.00000000000E+00 -0.00000000000E+00 -0.11090950791E+01  0.11090950791E+01  0.00000000000E+00 0.  1.
          2    1    1    2  502    0 -0.16364616384E+02  0.17392225819E+02  0.28961927274E+03  0.29060215645E+03  0.00000000000E+00 0. -1.
         -2    1    1    2    0  502  0.16364616384E+02 -0.17392225819E+02  0.23021178473E+03  0.23144709118E+03  0.00000000000E+00 0.  1.
</event>
<event>
 4    1  0.3196713E+003  0.2294428E+02  0.7546771E-02  0.1493199E+00
          2   -1    0    0  501    0  0.00000000000E+00  0.00000000000E+00  0.39568349219E+03  0.39568349219E+03  0.00000000000E+00 0. -1.
         -2   -1    0    0    0  501 -0.00000000000E+00 -0.00000000000E+00 -0.17860908675E+01  0.17860908675E+01  0.00000000000E+00 0.  1.
          2    1    1    2  502    0  0.95635929210E+01  0.20856118403E+02  0.29732472544E+03  0.29820870601E+03  0.00000000000E+00 0. -1.
         -2    1    1    2    0  502 -0.95635929210E+01 -0.20856118403E+02  0.96572675883E+02  0.99260877044E+02  0.00000000000E+00 0.  1.
</event>
<event>
 4    1  0.3196713E+003  0.2262189E+02  0.7546771E-02  0.1497301E+00
          2   -1    0    0  501    0  0.00000000000E+00  0.00000000000E+00  0.30341078765E+02  0.30341078765E+02  0.00000000000E+00 0. -1.
         -2   -1    0    0    0  501 -0.00000000000E+00 -0.00000000000E+00 -0.37570488681E+02  0.37570488681E+02  0.00000000000E+00 0. -1.
          2    1    1    2  502    0 -0.17630727171E+02 -0.14174182456E+02  0.21592029866E+02  0.31272443822E+02  0.00000000000E+00 0. -1.
         -2    1    1    2    0  502  0.17630727171E+02  0.14174182456E+02 -0.28821439782E+02  0.36639123625E+02  0.00000000000E+00 0. -1.
</event>
<event>
 4    1  0.3196713E+003  0.2632457E+02  0.7546771E-02  0.1454513E+00
          2   -1    0    0  501    0  0.00000000000E+00  0.00000000000E+00  0.13676228028E+03  0.13676228028E+03  0.00000000000E+00 0.  1.
         -2   -1    0    0    0  501 -0.00000000000E+00 -0.00000000000E+00 -0.46241832308E+02  0.46241832308E+02  0.00000000000E+00 0. -1.
          2    1    1    2  502    0  0.82905329118E+01 -0.24984993577E+02  0.13160358174E+03  0.13421060155E+03  0.00000000000E+00 0.  1.
         -2    1    1    2    0  502 -0.82905329118E+01  0.24984993577E+02 -0.41083133767E+02  0.48793511045E+02  0.00000000000E+00 0. -1.
</event>
<event>
 4    1  0.3196713E+003  0.2015852E+02  0.7546771E-02  0.1531626E+00
          2   -1    0    0  501    0  0.00000000000E+00  0.00000000000E+00  0.11248717834E+03  0.11248717834E+03  0.00000000000E+00 0. -1.
         -2   -1    0    0    0  501 -0.00000000000E+00 -0.00000000000E+00 -0.18468535486E+02  0.18468535486E+02  0.00000000000E+00 0.  1.
          2    1    1    2  502    0 -0.20102389932E+02 -0.15032802416E+01  0.10573511737E+03  0.10763958834E+03  0.00000000000E+00 0. -1.
         -2    1    1    2    0  502  0.20102389932E+02  0.15032802416E+01 -0.11716474519E+02  0.23316125484E+02  0.00000000000E+00 0.  1.
</event>
<event>
 4    1  0.3196713E+003  0.2160720E+02  0.7546771E-02  0.1510769E+00
          2   -1    0    0  501    0  0.00000000000E+00  0.00000000000E+00  0.18184815455E+04  0.18184815455E+04  0.00000000000E+00 0.  1.
         -2   -1    0    0    0  501 -0.00000000000E+00 -0.00000000000E+00 -0.28177004956E+00  0.28177004956E+00  0.00000000000E+00 0. -1.
          2    1    1    2  502    0  0.20901029186E+02 -0.54788251017E+01  0.63804315932E+03  0.63840891575E+03  0.00000000000E+00 0.  1.
         -2    1    1    2    0  502 -0.20901029186E+02  0.54788251017E+01  0.11801566162E+04  0.11803543998E+04  0.00000000000E+00 0. -1.
</event>
<event>
 4    1  0.3196713E+003  0.2772204E+02  0.7546771E-02  0.1440487E+00
          2   -1    0    0  501    0  0.00000000000E+00  0.00000000000E+00  0.82496390764E+02  0.82496390764E+02  0.00000000000E+00 0.  1.
         -2   -1    0    0    0  501 -0.00000000000E+00 -0.00000000000E+00 -0.11467926445E+02  0.11467926445E+02  0.00000000000E+00 0. -1.
          2    1    1    2  502    0 -0.22957036109E+02  0.15539824513E+02  0.55867515006E+02  0.62367386395E+02  0.00000000000E+00 0.  1.
         -2    1    1    2    0  502  0.22957036109E+02 -0.15539824513E+02  0.15160949313E+02  0.31596930814E+02  0.00000000000E+00 0. -1.
</event>
<event>
 4    1  0.3196713E+003  0.3391303E+02  0.7546771E-02  0.1388370E+00
          2   -1    0    0  501    0  0.00000000000E+00  0.00000000000E+00  0.22096668824E+03  0.22096668824E+03  0.00000000000E+00 0.  1.
         -2   -1    0    0    0  501 -0.00000000000E+00 -0.00000000000E+00 -0.13464131218E+02  0.13464131218E+02  0.00000000000E+00 0.  1.
          2    1    1    2  502    0  0.10888483353E+02 -0.32117514900E+02  0.19555646568E+03  0.19847525060E+03  0.00000000000E+00 0.  1.
         -2    1    1    2    0  502 -0.10888483353E+02  0.32117514900E+02  0.11946091339E+02  0.35955568850E+02  0.00000000000E+00 0.  1.
</event>
<event>
 4    1  0.3196713E+003  0.2185544E+02  0.7546771E-02  0.1507393E+00
          2   -1    0    0  501    0  0.00000000000E+00  0.00000000000E+00  0.59504931747E+03  0.59504931747E+03  0.00000000000E+00 0. -1.
         -2   -1    0    0    0  501 -0.00000000000E+00 -0.00000000000E+00 -0.11012446965E+01  0.11012446965E+01  0.00000000000E+00 0. -1.
          2    1    1    2  502    0 -0.10727894080E+02 -0.19041338976E+02  0.45216675898E+03  0.45269464127E+03  0.00000000000E+00 0. -1.
         -2    1    1    2    0  502  0.10727894080E+02  0.19041338976E+02  0.14178131379E+03  0.14345592090E+03  0.00000000000E+00 0. -1.
</event>
<event>
 4    1  0.3196713E+003  0.2982373E+02  0.7546771E-02  0.1421135E+00
          2   -1    0    0  501    0  0.00000000000E+00  0.00000000000E+00  0.20647391266E+01  0.20647391266E+01  0.00000000000E+00 0.  1.
         -2   -1    0    0    0  501 -0.00000000000E+00 -0.00000000000E+00 -0.58146035609E+03  0.58146035609E+03  0.00000000000E+00 0.  1.
          2    1    1    2  502    0  0.10621751079E+02 -0.27868138338E+02 -0.14117493846E+03  0.14429074115E+03  0.00000000000E+00 0.  1.
         -2    1    1    2    0  502 -0.10621751079E+02  0.27868138338E+02 -0.43822067850E+03  0.43923435407E+03  0.00000000000E+00 0.  1.
</event>
<event>
 4    1  0.3196713E+003  0.4183536E+02  0.7546771E-02  0.1338054E+00
          2   -1    0    0  501    0  0.00000000000E+00  0.00000000000E+00  0.10995150674E+02  0.10995150674E+02  0.00000000000E+00 0. -1.
         -2   -1    0    0    0  501 -0.00000000000E+00 -0.00000000000E+00 -0.45448372324E+03  0.45448372324E+03  0.00000000000E+00 0. -1.
          2    1    1    2  502    0 -0.40227480752E+02  0.11486839840E+02 -0.34138612668E+02  0.53996690380E+02  0.00000000000E+00 0. -1.
         -2    1    1    2    0  502  0.40227480752E+02 -0.11486839840E+02 -0.40934995990E+03  0.41148218354E+03  0.00000000000E+00 0. -1.
</event>
<event>
 4    1  0.3196713E+003  0.5264138E+02  0.7546771E-02  0.1287109E+00
          2   -1    0    0  501    0  0.00000000000E+00  0.00000000000E+00  0.50388030538E+03  0.50388030538E+03  0.00000000000E+00 0. -1.
         -2   -1    0    0    0  501 -0.00000000000E+00 -0.00000000000E+00 -0.42612614507E+02  0.42612614507E+02  0.00000000000E+00 0. -1.
          2    1    1    2  502    0  0.75107359919E+01 -0.52102822243E+02  0.48563894070E+03  0.48848367011E+03  0.00000000000E+00 0. -1.
         -2    1    1    2    0  502 -0.75107359919E+01  0.52102822243E+02 -0.24371249830E+02  0.58009249772E+02  0.00000000000E+00 0. -1.
</event>
<event>
 4    1  0.3196713E+003  0.6505914E+02  0.7546771E-02  0.1243549E+00
          2   -1    0    0  501    0  0.00000000000E+00  0.00000000000E+00  0.10911439526E+03  0.10911439526E+03  0.00000000000E+00 0.  1.
         -2   -1    0    0    0  501 -0.00000000000E+00 -0.00000000000E+00 -0.38847097942E+02  0.38847097942E+02  0.00000000000E+00 0.  1.
          2    1    1    2  502    0 -0.42197612514E+01  0.64922149168E+02  0.37936860255E+02  0.75311999068E+02  0.00000000000E+00 0.  1.
         -2    1    1    2    0  502  0.42197612514E+01 -0.64922149168E+02  0.32330437065E+02  0.72649494137E+02  0.00000000000E+00 0.  1.
</event>
<event>
 4    1  0.3196713E+003  0.2437385E+02  0.7546771E-02  0.1475932E+00
          2   -1    0    0  501    0  0.00000000000E+00  0.00000000000E+00  0.37056794957E+02  0.37056794957E+02  0.00000000000E+00 0. -1.
         -2   -1    0    0    0  501 -0.00000000000E+00 -0.00000000000E+00 -0.31340899339E+02  0.31340899339E+02  0.00000000000E+00 0.  1.
          2    1    1    2  502    0 -0.24142081542E+02  0.33532456386E+01  0.26759803440E+02  0.36196290385E+02  0.00000000000E+00 0. -1.
         -2    1    1    2    0  502  0.24142081542E+02 -0.33532456386E+01 -0.21043907821E+02  0.32201403911E+02  0.00000000000E+00 0.  1.
</event>
<event>
 4    1  0.3196713E+003  0.2846534E+02  0.7546771E-02  0.1433419E+00
          2   -1    0    0  501    0  0.00000000000E+00  0.00000000000E+00  0.44400135459E+03  0.44400135459E+03  0.00000000000E+00 0. -1.
         -2   -1    0    0    0  501 -0.00000000000E+00 -0.00000000000E+00 -0.20878904255E+01  0.20878904255E+01  0.00000000000E+00 0.  1.
          2    1    1    2  502    0 -0.20850456671E+02  0.19378697146E+02  0.30011122333E+03  0.30145815931E+03  0.00000000000E+00 0. -1.
         -2    1    1    2    0  502  0.20850456671E+02 -0.19378697146E+02  0.14180224084E+03  0.14463108571E+03  0.00000000000E+00 0.  1.
</event>
<event>
 4    1  0.3196713E+003  0.2245966E+02  0.7546771E-02  0.1499397E+00
          2   -1    0    0  501    0  0.00000000000E+00  0.00000000000E+00  0.21611075920E+03  0.21611075920E+03  0.00000000000E+00 0.  1.
         -2   -1    0    0    0  501 -0.00000000000E+00 -0.00000000000E+00 -0.55176003176E+02  0.55176003176E+02  0.00000000000E+00 0.  1.
          2    1    1    2  502    0  0.22269235611E+02 -0.29184917403E+01  0.21321063798E+03  0.21439032766E+03  0.00000000000E+00 0.  1.
         -2    1    1    2    0  502 -0.22269235611E+02  0.29184917403E+01 -0.52275881955E+02  0.56896434712E+02  0.00000000000E+00 0.  1.
</event>
<event>
 4    1  0.3196713E+003  0.2635111E+02  0.7546771E-02  0.1454237E+00
          2   -1    0    0  501    0  0.00000000000E+00  0.00000000000E+00  0.90415253772E+03  0.90415253772E+03  0.00000000000E+00 0.  1.
         -2   -1    0    0    0  501 -0.00000000000E+00 -0.00000000000E+00 -0.46889481720E+01  0.46889481720E+01  0.00000000000E+00 0.  1.
          2    1    1    2  502    0 -0.24219320450E+02  0.10382943226E+02  0.86527528352E+03  0.86567643913E+03  0.00000000000E+00 0.  1.
         -2    1    1    2    0  502  0.24219320450E+02 -0.10382943226E+02  0.34188306036E+02  0.43165046771E+02  0.00000000000E+00 0.  1.
</event>
<event>
 4    1  0.3196713E+003  0.2157445E+02  0.7546771E-02  0.1511219E+00
          2   -1    0    0  501    0  0.00000000000E+00  0.00000000000E+00  0.11264975066E+03  0.11264975066E+03  0.00000000000E+00 0. -1.
         -2   -1    0    0    0  501 -0.00000000000E+00 -0.00000000000E+00 -0.28650756747E+03  0.28650756747E+03  0.00000000000E+00 0. -1.
          2    1    1    2  502    0 -0.21179135912E+02 -0.41110716503E+01  0.11120540411E+03  0.11327885333E+03  0.00000000000E+00 0. -1.
         -2    1    1    2    0  502  0.21179135912E+02  0.41110716503E+01 -0.28506322093E+03  0.28587846480E+03  0.00000000000E+00 0. -1.
</event>
<event>
 4    1  0.3196713E+003  0.2575702E+02  0.7546771E-02  0.1460510E+00
          2   -1    0    0  501    0  0.00000000000E+00  0.00000000000E+00  0.30109726326E+02  0.30109726326E+02  0.00000000000E+00 0.  1.
         -2   -1    0    0    0  501 -0.00000000000E+00 -0.00000000000E+00 -0.34821197769E+02  0.34821197769E+02  0.00000000000E+00 0.  1.
          2    1    1    2  502    0  0.25323725002E+02  0.47046024662E+01  0.17318368649E+02  0.31037883707E+02  0.00000000000E+00 0.  1.
         -2    1    1    2    0  502 -0.25323725002E+02 -0.47046024662E+01 -0.22029840091E+02  0.33893040388E+02  0.00000000000E+00 0.  1.
</event>
<event>
 4    1  0.3196713E+003  0.2630975E+02  0.7546771E-02  0.1454668E+00
          2   -1    0    0  501    0  0.00000000000E+00  0.00000000000E+00  0.50733612206E+03  0.50733612206E+03  0.00000000000E+00 0.  1.
         -2   -1    0    0    0  501 -0.00000000000E+00 -0.00000000000E+00 -0.45782011174E+01  0.45782011174E+01  0.00000000000E+00 0. -1.
          2    1    1    2  502    0  0.11976027554E+02  0.23425999927E+02  0.46583103039E+03  0.46657341500E+03  0.00000000000E+00 0.  1.
         -2    1    1    2    0  502 -0.11976027554E+02 -0.23425999927E+02  0.36926890547E+02  0.45340908174E+02  0.00000000000E+00 0. -1.
</event>
<event>
 4    1  0.3196713E+003  0.2380993E+02  0.7546771E-02  0.1482571E+00
          2   -1    0    0  501    0  0.00000000000E+00  0.00000000000E+00  0.11450639288E+04  0.11450639288E+04  0.00000000000E+00 0. -1.
         -2   -1    0    0    0  501 -0.00000000000E+00 -0.00000000000E+00 -0.10513327499E+01  0.10513327499E+01  0.00000000000E+00 0. -1.
          2    1    1    2  502    0 -0.87181368104E+00 -0.23793961208E+02  0.98883669291E+03  0.98912330773E+03  0.00000000000E+00 0. -1.
         -2    1    1    2    0  502  0.87181368104E+00  0.23793961208E+02  0.15517590318E+03  0.15699195386E+03  0.00000000000E+00 0. -1.
</event>
<event>
 4    1  0.3196713E+003  0.2625978E+02  0.7546771E-02  0.1455189E+00
          2   -1    0    0  501    0  0.00000000000E+00  0.00000000000E+00  0.20912222284E+02  0.20912222284E+02  0.00000000000E+00 0. -1.
         -2   -1    0    0    0  501 -0.00000000000E+00 -0.00000000000E+00 -0.19585976818E+03  0.19585976818E+03  0.00000000000E+00 0. -1.
          2    1    1    2  502    0 -0.23747505420E+02  0.11208574534E+02  0.11368123058E+02  0.28614862897E+02  0.00000000000E+00 0. -1.
         -2    1    1    2    0  502  0.23747505420E+02 -0.11208574534E+02 -0.18631566896E+03  0.18815712757E+03  0.00000000000E+00 0. -1.
</event>
<event>
 4    1  0.3196713E+003  0.2152407E+02  0.7546771E-02  0.1511912E+00
          2   -1    0    0  501    0  0.00000000000E+00  0.00000000000E+00  0.95456197321E+00  0.95456197321E+00  0.00000000000E+00 0.  1.
         -2   -1    0    0    0  501 -0.00000000000E+00 -0.00000000000E+00 -0.91632698487E+03  0.91632698487E+03  0.00000000000E+00 0.  1.
          2    1    1    2  502    0 -0.59500142292E+01 -0.20685329492E+02 -0.14314298594E+03  0.14475220188E+03  0.00000000000E+00 0.  1.
         -2    1    1    2    0  502  0.59500142292E+01  0.20685329492E+02 -0.77222943696E+03  0.77252934497E+03  0.00000000000E+00 0.  1.
</event>
<event>
 4    1  0.3196713E+003  0.2753451E+02  0.7546771E-02  0.1442311E+00
          2   -1    0    0  501    0  0.00000000000E+00  0.00000000000E+00  0.17066863483E+04  0.17066863483E+04  0.00000000000E+00 0. -1.
         -2   -1    0    0    0  501 -0.00000000000E+00 -0.00000000000E+00 -0.16102622084E+02  0.16102622084E+02  0.00000000000E+00 0. -1.
          2    1    1    2  502    0 -0.25567795694E+02  0.10219455215E+02  0.16947216077E+04  0.16949452726E+04  0.00000000000E+00 0. -1.
         -2    1    1    2    0  502  0.25567795694E+02 -0.10219455215E+02 -0.41378815249E+01  0.27843697762E+02  0.00000000000E+00 0. -1.
</event>
<event>
 4    1  0.3196713E+003  0.3486430E+02  0.7546771E-02  0.1381520E+00
          2   -1    0    0  501    0  0.00000000000E+00  0.00000000000E+00  0.27177300568E+01  0.27177300568E+01  0.00000000000E+00 0.  1.
         -2   -1    0    0    0  501 -0.00000000000E+00 -0.00000000000E+00 -0.59943887639E+03  0.59943887639E+03  0.00000000000E+00 0.  1.
          2    1    1    2  502    0  0.24997100597E+02 -0.24303585699E+02 -0.14665874157E+03  0.15074583176E+03  0.00000000000E+00 0.  1.
         -2    1    1    2    0  502 -0.24997100597E+02  0.24303585699E+02 -0.45006240477E+03  0.45141077469E+03  0.00000000000E+00 0.  1.
</event>
<event>
 4    1  0.3196713E+003  0.2611210E+02  0.7546771E-02  0.1456737E+00
          2   -1    0    0  501    0  0.00000000000E+00  0.00000000000E+00  0.27662423240E+02  0.27662423240E+02  0.00000000000E+00 0. -1.
         -2   -1    0    0    0  501 -0.00000000000E+00 -0.00000000000E+00 -0.10408456145E+03  0.10408456145E+03  0.00000000000E+00 0. -1.
          2    1    1    2  502    0  0.42295404020E+01 -0.25767278512E+02  0.19336362512E+02  0.32492100103E+02  0.00000000000E+00 0. -1.
         -2    1    1    2    0  502 -0.42295404020E+01  0.25767278512E+02 -0.95758500725E+02  0.99254884590E+02  0.00000000000E+00 0. -1.
</event>
<event>
 4    1  0.3196713E+003  0.2039108E+02  0.7546771E-02  0.1528139E+00
          2   -1    0    0  501    0  0.00000000000E+00  0.00000000000E+00  0.42537528717E+03  0.42537528717E+03  0.00000000000E+00 0.  1.
         -2   -1    0    0    0  501 -0.00000000000E+00 -0.00000000000E+00 -0.20524551732E+01  0.20524551732E+01  0.00000000000E+00 0. -1.
          2    1    1    2  502    0  0.99113603427E+00 -0.20366976762E+02  0.36632745582E+03  0.36689453659E+03  0.00000000000E+00 0.  1.
         -2    1    1    2    0  502 -0.99113603427E+00  0.20366976762E+02  0.56995376178E+02  0.60533205753E+02  0.00000000000E+00 0. -1.
</event>
<event>
 4    1  0.3196713E+003  0.2058263E+02  0.7546771E-02  0.1525308E+00
          2   -1    0    0  501    0  0.00000000000E+00  0.00000000000E+00  0.28929212026E+03  0.28929212026E+03  0.00000000000E+00 0.  1.
         -2   -1    0    0    0  501 -0.00000000000E+00 -0.00000000000E+00 -0.35631723660E+01  0.35631723660E+01  0.00000000000E+00 0.  1.
          2    1    1    2  502    0 -0.40392054489E+00  0.20578663744E+02  0.25524355709E+03  0.25607209530E+03  0.00000000000E+00 0.  1.
         -2    1    1    2    0  502  0.40392054489E+00 -0.20578663744E+02  0.30485390799E+02  0.36783197325E+02  0.00000000000E+00 0.  1.
</event>
<event>
 4    1  0.3196713E+003  0.4069234E+02  0.7546771E-02  0.1344476E+00
          2   -1    0    0  501    0  0.00000000000E+00  0.00000000000E+00  0.71903419880E+03  0.71903419880E+03  0.00000000000E+00 0.  1.
         -2   -1    0    0    0  501 -0.00000000000E+00 -0.00000000000E+00 -0.12416161860E+02  0.12416161860E+02  0.00000000000E+00 0.  1.
          2    1    1    2  502    0  0.11424239205E+02 -0.39055775474E+02  0.68337952307E+03  0.68458997903E+03  0.00000000000E+00 0.  1.
         -2    1    1    2    0  502 -0.11424239205E+02  0.39055775474E+02  0.23238513866E+02  0.46860381624E+02  0.00000000000E+00 0.  1.
</event>
<event>
 4    1  0.3196713E+003  0.2118465E+02  0.7546771E-02  0.1516645E+00
          2   -1    0    0  501    0  0.00000000000E+00  0.00000000000E+00  0.24622015835E+03  0.24622015835E+03  0.00000000000E+00 0.  1.
         -2   -1    0    0    0  501 -0.00000000000E+00 -0.00000000000E+00 -0.13287087529E+02  0.13287087529E+02  0.00000000000E+00 0.  1.
          2    1    1    2  502    0  0.79181682500E+01 -0.19649226473E+02  0.23699225019E+03  0.23793721049E+03  0.00000000000E+00 0.  1.
         -2    1    1    2    0  502 -0.79181682500E+01  0.19649226473E+02 -0.40591793654E+01  0.21570035385E+02  0.00000000000E+00 0.  1.
</event>
<event>
 4    1  0.3196713E+003  0.3604626E+02  0.7546771E-02  0.1373353E+00
          2   -1    0    0  501    0  0.00000000000E+00  0.00000000000E+00  0.26337172920E+02  0.26337172920E+02  0.00000000000E+00 0.  1.
         -2   -1    0    0    0  501 -0.00000000000E+00 -0.00000000000E+00 -0.92586022029E+02  0.92586022029E+02  0.00000000000E+00 0. -1.
          2    1    1    2  502    0  0.23429044617E+02  0.27393655942E+02  0.75165690715E+01  0.36821614959E+02  0.00000000000E+00 0.  1.
         -2    1    1    2    0  502 -0.23429044617E+02 -0.27393655942E+02 -0.73765418180E+02  0.82101579990E+02  0.00000000000E+00 0. -1.
</event>
<event>
 4    1  0.3196713E+003  0.2196958E+02  0.7546771E-02  0.1505859E+00
          2   -1    0    0  501    0  0.00000000000E+00  0.00000000000E+00  0.51865710548E+03  0.51865710548E+03  0.00000000000E+00 0.  1.
         -2   -1    0    0    0  501 -0.00000000000E+00 -0.00000000000E+00 -0.85381484431E+01  0.85381484431E+01  0.00000000000E+00 0.  1.
          2    1    1    2  502    0  0.12117245892E+02 -0.18325801315E+02  0.50387759042E+03  0.50435631133E+03  0.00000000000E+00 0.  1.
         -2    1    1    2    0  502 -0.12117245892E+02  0.18325801315E+02  0.62413666146E+01  0.22838942600E+02  0.00000000000E+00 0.  1.
</event>
<event>
 4    1  0.3196713E+003  0.2281771E+02  0.7546771E-02  0.1494800E+00
          2   -1    0    0  501    0  0.00000000000E+00  0.00000000000E+00  0.41683396445E+03  0.41683396445E+03  0.00000000000E+00 0. -1.
         -2   -1    0    0    0  501 -0.00000000000E+00 -0.00000000000E+00 -0.47530425954E+02  0.47530425954E+02  0.00000000000E+00 0.  1.
          2    1    1    2  502    0  0.16346925536E+01 -0.22759080769E+02  0.41376289214E+03  0.41439157676E+03  0.00000000000E+00 0. -1.
         -2    1    1    2    0  502 -0.16346925536E+01  0.22759080769E+02 -0.44459353644E+02  0.49972813645E+02  0.00000000000E+00 0.  1.
</event>
<event>
 4    1  0.3196713E+003  0.2145266E+02  0.7546771E-02  0.1512899E+00
          2   -1    0    0  501    0  0.00000000000E+00  0.00000000000E+00  0.63625575085E+02  0.63625575085E+02  0.00000000000E+00 0. -1.
         -2   -1    0    0    0  501 -0.00000000000E+00 -0.00000000000E+00 -0.11080721029E+03  0.11080721029E+03  0.00000000000E+00 0. -1.
          2    1    1    2  502    0 -0.20707279651E+02 -0.56058019771E+01  0.60730912283E+02  0.64408540994E+02  0.00000000000E+00 0. -1.
         -2    1    1    2    0  502  0.20707279651E+02  0.56058019771E+01 -0.10791254748E+03  0.11002424438E+03  0.00000000000E+00 0. -1.
</event>
<event>
 4    1  0.3196713E+003  0.2008150E+02  0.7546771E-02  0.1532794E+00
          2   -1    0    0  501    0  0.00000000000E+00  0.00000000000E+00  0.28825000082E+02  0.28825000082E+02  0.00000000000E+00 0. -1.
         -2   -1    0    0    0  501 -0.00000000000E+00 -0.00000000000E+00 -0.17248504710E+03  0.17248504710E+03  0.00000000000E+00 0.  1.
          2    1    1    2  502    0  0.97352077843E+01 -0.17563946353E+02  0.24656654015E+02  0.31799639452E+02  0.00000000000E+00 0. -1.
         -2    1    1    2    0  502 -0.97352077843E+01  0.17563946353E+02 -0.16831670103E+03  0.16951040773E+03  0.00000000000E+00 0.  1.
</event>
<event>
 4    1  0.3196713E+003  0.2815571E+02  0.7546771E-02  0.1436332E+00
          2   -1    0    0  501    0  0.00000000000E+00  0.00000000000E+00  0.24889128746E+03  0.24889128746E+03  0.00000000000E+00 0. -1.
         -2   -1    0    0    0  501 -0.00000000000E+00 -0.00000000000E+00 -0.46615158654E+01  0.46615158654E+01  0.00000000000E+00 0.  1.
          2    1    1    2  502    0  0.16168621032E+02 -0.23050375247E+02  0.19346241111E+03  0.19550050798E+03  0.00000000000E+00 0. -1.
         -2    1    1    2    0  502 -0.16168621032E+02  0.23050375247E+02  0.50767360483E+02  0.58052295351E+02  0.00000000000E+00 0.  1.
</event>
<event>
 4    1  0.3196713E+003  0.2140959E+02  0.7546771E-02  0.1513497E+00
          2   -1    0    0  501    0  0.00000000000E+00  0.00000000000E+00  0.88890627821E+00  0.88890627821E+00  0.00000000000E+00 0. -1.
         -2   -1    0    0    0  501 -0.00000000000E+00 -0.00000000000E+00 -0.64344974297E+03  0.64344974297E+03  0.00000000000E+00 0.  1.
          2    1    1    2  502    0  0.89960691511E+01  0.19427852611E+02 -0.17770502350E+03  0.17899007262E+03  0.00000000000E+00 0. -1.
         -2    1    1    2    0  502 -0.89960691511E+01 -0.19427852611E+02 -0.46485581319E+03  0.46534857663E+03  0.00000000000E+00 0.  1.
</event>
<event>
 4    1  0.3196713E+003  0.2816783E+02  0.7546771E-02  0.1436217E+00
          2   -1    0    0  501    0  0.00000000000E+00  0.00000000000E+00  0.18155685437E+04  0.18155685437E+04  0.00000000000E+00 0. -1.
         -2   -1    0    0    0  501 -0.00000000000E+00 -0.00000000000E+00 -0.23959448007E+02  0.23959448007E+02  0.00000000000E+00 0. -1.
          2    1    1    2  502    0  0.19675060082E+02  0.20157345817E+02  0.18071418399E+04  0.18073613518E+04  0.00000000000E+00 0. -1.
         -2    1    1    2    0  502 -0.19675060082E+02 -0.20157345817E+02 -0.15532744193E+02  0.32166639889E+02  0.00000000000E+00 0. -1.
</event>
<event>
 4    1  0.3196713E+003  0.2171362E+02  0.7546771E-02  0.1509315E+00
          2   -1    0    0  501    0  0.00000000000E+00  0.00000000000E+00  0.11830615023E+04  0.11830615023E+04  0.00000000000E+00 0. -1.
         -2   -1    0    0    0  501 -0.00000000000E+00 -0.00000000000E+00 -0.16077588686E+01  0.16077588686E+01  0.00000000000E+00 0.  1.
          2    1    1    2  502    0 -0.12314898639E+02  0.17883633534E+02  0.11044292687E+04  0.11046426981E+04  0.00000000000E+00 0. -1.
         -2    1    1    2    0  502  0.12314898639E+02 -0.17883633534E+02  0.77024474806E+02  0.80026563065E+02  0.00000000000E+00 0.  1.
</event>
<event>
 4    1  0.3196713E+003  0.3875098E+02  0.7546771E-02  0.1355965E+00
          2   -1    0    0  501    0  0.00000000000E+00  0.00000000000E+00  0.57808106823E+03  0.57808106823E+03  0.00000000000E+00 0.  1.
         -2   -1    0    0    0  501 -0.00000000000E+00 -0.00000000000E+00 -0.33232716292E+01  0.33232716292E+01  0.00000000000E+00 0.  1.
          2    1    1    2  502    0  0.37061194691E+02  0.11318405668E+02  0.42321888228E+03  0.42498924784E+03  0.00000000000E+00 0.  1.
         -2    1    1    2    0  502 -0.37061194691E+02 -0.11318405668E+02  0.15153891433E+03  0.15641509203E+03  0.00000000000E+00 0.  1.
</event>
<event>
 4    1  0.3196713E+003  0.3608230E+02  0.7546771E-02  0.1373110E+00
          2   -1    0    0  501    0  0.00000000000E+00  0.00000000000E+00  0.47266808650E+03  0.47266808650E+03  0.00000000000E+00 0.  1.
         -2   -1    0    0    0  501 -0.00000000000E+00 -0.00000000000E+00 -0.68572165175E+01  0.68572165175E+01  0.00000000000E+00 0. -1.
          2    1    1    2  502    0  0.89744563673E+01 -0.34948409882E+02  0.41836402016E+03  0.41991711752E+03  0.00000000000E+00 0.  1.
         -2    1    1    2    0  502 -0.89744563673E+01  0.34948409882E+02  0.47446849819E+02  0.59608185495E+02  0.00000000000E+00 0. -1.
</event>
<event>
 4    1  0.3196713E+003  0.2029317E+02  0.7546771E-02  0.1529600E+00
          2   -1    0    0  501    0  0.00000000000E+00  0.00000000000E+00  0.15832591340E+01  0.15832591340E+01  0.00000000000E+00 0.  1.
         -2   -1    0    0    0  501 -0.00000000000E+00 -0.00000000000E+00 -0.28707459999E+03  0.28707459999E+03  0.00000000000E+00 0. -1.
          2    1    1    2  502    0  0.14111523019E+01  0.20244050021E+02 -0.98507531917E+02  0.10057607447E+03  0.00000000000E+00 0.  1.
         -2    1    1    2    0  502 -0.14111523019E+01 -0.20244050021E+02 -0.18698380894E+03  0.18808178465E+03  0.00000000000E+00 0. -1.
</event>
<event>
 4    1  0.3196713E+003  0.3189911E+02  0.7546771E-02  0.1403781E+00
          2   -1    0    0  501    0  0.00000000000E+00  0.00000000000E+00  0.52132037319E+03  0.52132037319E+03  0.00000000000E+00 0. -1.
         -2   -1    0    0    0  501 -0.00000000000E+00 -0.00000000000E+00 -0.25086283795E+03  0.25086283795E+03  0.00000000000E+00 0.  1.
          2    1    1    2  502    0 -0.71246407921E+01 -0.31093293375E+02  0.51981541722E+03  0.52079326165E+03  0.00000000000E+00 0. -1.
         -2    1    1    2    0  502  0.71246407921E+01  0.31093293375E+02 -0.24935788198E+03  0.25138994949E+03  0.00000000000E+00 0.  1.
</event>
<event>
 4    1  0.3196713E+003  0.2855916E+02  0.7546771E-02  0.1432545E+00
          2   -1    0    0  501    0  0.00000000000E+00  0.00000000000E+00  0.21933632743E+02  0.21933632743E+02  0.00000000000E+00 0.  1.
         -2   -1    0    0    0  501 -0.00000000000E+00 -0.00000000000E+00 -0.14398229584E+03  0.14398229584E+03  0.00000000000E+00 0. -1.
          2    1    1    2  502    0  0.16732747107E+02  0.23143918630E+02  0.10422253231E+02  0.30401466374E+02  0.00000000000E+00 0.  1.
         -2    1    1    2    0  502 -0.16732747107E+02 -0.23143918630E+02 -0.13247091633E+03  0.13551446221E+03  0.00000000000E+00 0. -1.
</event>
<event>
 4    1  0.3196713E+003  0.2027730E+02  0.7546771E-02  0.1529838E+00
          2   -1    0    0  501    0  0.00000000000E+00  0.00000000000E+00  0.35992280984E+03  0.35992280984E+03  0.00000000000E+00 0. -1.
         -2   -1    0    0    0  501 -0.00000000000E+00 -0.00000000000E+00 -0.17722267999E+01  0.17722267999E+01  0.00000000000E+00 0. -1.
          2    1    1    2  502    0  0.17939160451E+02 -0.94527934710E+01  0.28688806328E+03  0.28760377194E+03  0.00000000000E+00 0. -1.
         -2    1    1    2    0  502 -0.17939160451E+02  0.94527934710E+01  0.71262519758E+02  0.74091264697E+02  0.00000000000E+00 0. -1.
</event>
<event>
 4    1  0.3196713E+003  0.2465453E+02  0.7546771E-02  0.1472705E+00
          2   -1    0    0  501    0  0.00000000000E+00  0.00000000000E+00  0.21168678124E+03  0.21168678124E+03  0.00000000000E+00 0. -1.
         -2   -1    0    0    0  501 -0.00000000000E+00 -0.00000000000E+00 -0.11116383842E+03  0.11116383842E+03  0.00000000000E+00 0.  1.
          2    1    1    2  502    0 -0.36436895383E+01 -0.24383792548E+02  0.20958827685E+03  0.21103338979E+03  0.00000000000E+00 0. -1.
         -2    1    1    2    0  502  0.36436895383E+01  0.24383792548E+02 -0.10906533402E+03  0.11181722988E+03  0.00000000000E+00 0.  1.
</event>
<event>
 4    1  0.3196713E+003  0.2499507E+02  0.7546771E-02  0.1468859E+00
          2   -1    0    0  501    0  0.00000000000E+00  0.00000000000E+00  0.58352305175E+01  0.58352305175E+01  0.00000000000E+00 0.  1.
         -2   -1    0    0    0  501 -0.00000000000E+00 -0.00000000000E+00 -0.31080643770E+03  0.31080643770E+03  0.00000000000E+00 0.  1.
          2    1    1    2  502    0  0.24823319274E+02 -0.29251646735E+01 -0.24302178877E+02  0.34861865502E+02  0.00000000000E+00 0.  1.
         -2    1    1    2    0  502 -0.24823319274E+02  0.29251646735E+01 -0.28066902831E+03  0.28177980272E+03  0.00000000000E+00 0.  1.
</event>
<event>
 4    1  0.3196713E+003  0.2291866E+02  0.7546771E-02  0.1493522E+00
          2   -1    0    0  501    0  0.00000000000E+00  0.00000000000E+00  0.13001914048E+04  0.13001914048E+04  0.00000000000E+00 0. -1.
         -2   -1    0    0    0  501 -0.00000000000E+00 -0.00000000000E+00 -0.20395424592E+03  0.20395424592E+03  0.00000000000E+00 0.  1.
          2    1    1    2  502    0  0.15481478134E+02  0.16899379258E+02  0.12994461862E+04  0.12996482817E+04  0.00000000000E+00 0. -1.
         -2    1    1    2    0  502 -0.15481478134E+02 -0.16899379258E+02 -0.20320902730E+03  0.20449736908E+03  0.00000000000E+00 0.  1.
</event>
<event>
 4    1  0.3196713E+003  0.2951945E+02  0.7546771E-02  0.1423819E+00
          2   -1    0    0  501    0  0.00000000000E+00  0.00000000000E+00  0.14584157504E+03  0.14584157504E+03  0.00000000000E+00 0.  1.
         -2   -1    0    0    0  501 -0.00000000000E+00 -0.00000000000E+00 -0.81509136490E+01  0.81509136490E+01  0.00000000000E+00 0.  1.
          2    1    1    2  502    0  0.25157630097E+02 -0.15443172761E+02  0.10862772977E+03  0.11256723152E+03  0.00000000000E+00 0.  1.
         -2    1    1    2    0  502 -0.25157630097E+02  0.15443172761E+02  0.29062931615E+02  0.41425257164E+02  0.00000000000E+00 0.  1.
</event>
<event>
 4    1  0.3196713E+003  0.3011313E+02  0.7546771E-02  0.1418616E+00
          2   -1    0    0  501    0  0.00000000000E+00  0.00000000000E+00  0.15904767275E+04  0.15904767275E+04  0.00000000000E+00 0.  1.
         -2   -1    0    0    0  501 -0.00000000000E+00 -0.00000000000E+00 -0.58545789993E+00  0.58545789993E+00  0.00000000000E+00 0.  1.
          2    1    1    2  502    0 -0.25795013468E+02  0.15537626130E+02  0.92360878102E+03  0.92409955141E+03  0.00000000000E+00 0.  1.
         -2    1    1    2    0  502  0.25795013468E+02 -0.15537626130E+02  0.66628248860E+03  0.66696263401E+03  0.00000000000E+00 0.  1.
</event>
<event>
 4    1  0.3196713E+003  0.2892386E+02  0.7546771E-02  0.1429184E+00
          2   -1    0    0  501    0  0.00000000000E+00  0.00000000000E+00  0.70453648743E+03  0.70453648743E+03  0.00000000000E+00 0. -1.
         -2   -1    0    0    0  501 -0.00000000000E+00 -0.00000000000E+00 -0.38353525238E+02  0.38353525238E+02  0.00000000000E+00 0.  1.
          2    1    1    2  502    0  0.28733218499E+02  0.33154206700E+01  0.69874127286E+03  0.69933965729E+03  0.00000000000E+00 0. -1.
         -2    1    1    2    0  502 -0.28733218499E+02 -0.33154206700E+01 -0.32558310672E+02  0.43550355375E+02  0.00000000000E+00 0.  1.
</event>
<event>
 4    1  0.3196713E+003  0.4300240E+02  0.7546771E-02  0.1331736E+00
          2   -1    0    0  501    0  0.00000000000E+00  0.00000000000E+00  0.54918642798E+03  0.54918642798E+03  0.00000000000E+00 0. -1.
         -2   -1    0    0    0  501 -0.00000000000E+00 -0.00000000000E+00 -0.46041562051E+01  0.46041562051E+01  0.00000000000E+00 0. -1.
          2    1    1    2  502    0  0.41756289680E+02  0.10277095445E+02  0.41581437352E+03  0.41803205576E+03  0.00000000000E+00 0. -1.
         -2    1    1    2    0  502 -0.41756289680E+02 -0.10277095445E+02  0.12876789825E+03  0.13575852842E+03  0.00000000000E+00 0. -1.
</event>
<event>
 4    1  0.3196713E+003  0.2849363E+02  0.7546771E-02  0.1433155E+00
          2   -1    0    0  501    0  0.00000000000E+00  0.00000000000E+00  0.83086104536E+02  0.83086104536E+02  0.00000000000E+00 0.  1.
         -2   -1    0    0    0  501 -0.00000000000E+00 -0.00000000000E+00 -0.15241088465E+02  0.15241088465E+02  0.00000000000E+00 0. -1.
          2    1    1    2  502    0 -0.28293596004E+02  0.33703786286E+01  0.63374023596E+02  0.69484918462E+02  0.00000000000E+00 0.  1.
         -2    1    1    2    0  502  0.28293596004E+02 -0.33703786286E+01  0.44709924752E+01  0.28842274540E+02  0.00000000000E+00 0. -1.
</event>
<event>
 4    1  0.3196713E+003  0.3933153E+02  0.7546771E-02  0.1352448E+00
          2   -1    0    0  501    0  0.00000000000E+00  0.00000000000E+00  0.12529088655E+02  0.12529088655E+02  0.00000000000E+00 0. -1.
         -2   -1    0    0    0  501 -0.00000000000E+00 -0.00000000000E+00 -0.57634287924E+03  0.57634287924E+03  0.00000000000E+00 0.  1.
          2    1    1    2  502    0  0.21950427886E+02  0.32636607885E+02 -0.20908122175E+02  0.44543451051E+02  0.00000000000E+00 0. -1.
         -2    1    1    2    0  502 -0.21950427886E+02 -0.32636607885E+02 -0.54290566841E+03  0.54432851685E+03  0.00000000000E+00 0.  1.
</event>
<event>
 4    1  0.3196713E+003  0.2246598E+02  0.7546771E-02  0.1499315E+00
          2   -1    0    0  501    0  0.00000000000E+00  0.00000000000E+00  0.36779704261E+03  0.36779704261E+03  0.00000000000E+00 0. -1.
         -2   -1    0    0    0  501 -0.00000000000E+00 -0.00000000000E+00 -0.26854238271E+01  0.26854238271E+01  0.00000000000E+00 0. -1.
          2    1    1    2  502    0  0.10835866600E+02  0.19680048531E+02  0.31209091617E+03  0.31289848237E+03  0.00000000000E+00 0. -1.
         -2    1    1    2    0  502 -0.10835866600E+02 -0.19680048531E+02  0.53020702609E+02  0.57583984061E+02  0.00000000000E+00 0. -1.
</event>
<event>
 4    1  0.3196713E+003  0.2382948E+02  0.7546771E-02  0.1482337E+00
          2   -1    0    0  501    0  0.00000000000E+00  0.00000000000E+00  0.54371169413E+03  0.54371169413E+03  0.00000000000E+00 0.  1.
         -2   -1    0    0    0  501 -0.00000000000E+00 -0.00000000000E+00 -0.18600187916E+03  0.18600187916E+03  0.00000000000E+00 0.  1.
          2    1    1    2  502    0 -0.36374848845E+01  0.23550214510E+02  0.54268593283E+03  0.54320886001E+03  0.00000000000E+00 0.  1.
         -2    1    1    2    0  502  0.36374848845E+01 -0.23550214510E+02 -0.18497611785E+03  0.18650471328E+03  0.00000000000E+00 0.  1.
</event>
<event>
 4    1  0.3196713E+003  0.2282030E+02  0.7546771E-02  0.1494767E+00
          2   -1    0    0  501    0  0.00000000000E+00  0.00000000000E+00  0.16879155082E+03  0.16879155082E+03  0.00000000000E+00 0. -1.
         -2   -1    0    0    0  501 -0.00000000000E+00 -0.00000000000E+00 -0.62114331609E+02  0.62114331609E+02  0.00000000000E+00 0. -1.
          2    1    1    2  502    0 -0.22299356230E+02  0.48481717116E+01  0.16588771941E+03  0.16744999704E+03  0.00000000000E+00 0. -1.
         -2    1    1    2    0  502  0.22299356230E+02 -0.48481717116E+01 -0.59210500197E+02  0.63455885391E+02  0.00000000000E+00 0. -1.
</event>
<event>
 4    1  0.3196713E+003  0.2546303E+02  0.7546771E-02  0.1463690E+00
          2   -1    0    0  501    0  0.00000000000E+00  0.00000000000E+00  0.89424444133E+02  0.89424444133E+02  0.00000000000E+00 0.  1.
         -2   -1    0    0    0  501 -0.00000000000E+00 -0.00000000000E+00 -0.33184827124E+03  0.33184827124E+03  0.00000000000E+00 0.  1.
          2    1    1    2  502    0 -0.23879613296E+02  0.88391228336E+01  0.87110677031E+02  0.90755914829E+02  0.00000000000E+00 0.  1.
         -2    1    1    2    0  502  0.23879613296E+02 -0.88391228336E+01 -0.32953450414E+03  0.33051680054E+03  0.00000000000E+00 0.  1.
</event>
<event>
 4    1  0.3196713E+003  0.2623762E+02  0.7546771E-02  0.1455420E+00
          2   -1    0    0  501    0  0.00000000000E+00  0.00000000000E+00  0.41771380300E+03  0.41771380300E+03  0.00000000000E+00 0. -1.
         -2   -1    0    0    0  501 -0.00000000000E+00 -0.00000000000E+00 -0.41936270301E+01  0.41936270301E+01  0.00000000000E+00 0. -1.
          2    1    1    2  502    0 -0.57968751075E+01 -0.25589235305E+02  0.37111606490E+03  0.37204239860E+03  0.00000000000E+00 0. -1.
         -2    1    1    2    0  502  0.57968751075E+01  0.25589235305E+02  0.42404111070E+02  0.49865031436E+02  0.00000000000E+00 0. -1.
</event>
<event>
 4    1  0.3196713E+003  0.2858685E+02  0.7546771E-02  0.1432288E+00
          2   -1    0    0  501    0  0.00000000000E+00  0.00000000000E+00  0.16471922427E+04  0.16471922427E+04  0.00000000000E+00 0. -1.
         -2   -1    0    0    0  501 -0.00000000000E+00 -0.00000000000E+00 -0.12505828789E+01  0.12505828789E+01  0.00000000000E+00 0. -1.
          2    1    1    2  502    0  0.94447927153E+01 -0.26981543792E+02  0.14631567272E+04  0.14634359624E+04  0.00000000000E+00 0. -1.
         -2    1    1    2    0  502 -0.94447927153E+01  0.26981543792E+02  0.18278493262E+03  0.18500686314E+03  0.00000000000E+00 0. -1.
</event>
<event>
 4    1  0.3196713E+003  0.2471880E+02  0.7546771E-02  0.1471974E+00
          2   -1    0    0  501    0  0.00000000000E+00  0.00000000000E+00  0.40833010882E+02  0.40833010882E+02  0.00000000000E+00 0. -1.
         -2   -1    0    0    0  501 -0.00000000000E+00 -0.00000000000E+00 -0.59813916594E+02  0.59813916594E+02  0.00000000000E+00 0.  1.
          2    1    1    2  502    0  0.75589582023E+01 -0.23534681990E+02  0.34085906613E+02  0.42105440683E+02  0.00000000000E+00 0. -1.
         -2    1    1    2    0  502 -0.75589582023E+01  0.23534681990E+02 -0.53066812325E+02  0.58541486792E+02  0.00000000000E+00 0.  1.
</event>
<event>
 4    1  0.3196713E+003  0.2263902E+02  0.7546771E-02  0.1497081E+00
          2   -1    0    0  501    0  0.00000000000E+00  0.00000000000E+00  0.66887734065E+02  0.66887734065E+02  0.00000000000E+00 0.  1.
         -2   -1    0    0    0  501 -0.00000000000E+00 -0.00000000000E+00 -0.62381499408E+02  0.62381499408E+02  0.00000000000E+00 0.  1.
          2    1    1    2  502    0  0.30734742324E+01 -0.22429426872E+02  0.62788104596E+02  0.66744823862E+02  0.00000000000E+00 0.  1.
         -2    1    1    2    0  502 -0.30734742324E+01  0.22429426872E+02 -0.58281869938E+02  0.62524409611E+02  0.00000000000E+00 0.  1.
</event>
<event>
 4    1  0.3196713E+003  0.3223759E+02  0.7546771E-02  0.1401098E+00
          2   -1    0    0  501    0  0.00000000000E+00  0.00000000000E+00  0.70463673072E+01  0.70463673072E+01  0.00000000000E+00 0. -1.
         -2   -1    0    0    0  501 -0.00000000000E+00 -0.00000000000E+00 -0.15344267478E+03  0.15344267478E+03  0.00000000000E+00 0. -1.
          2    1    1    2  502    0  0.32194081088E+02 -0.16744114251E+01 -0.57391843575E+02  0.65826181870E+02  0.00000000000E+00 0. -1.
         -2    1    1    2    0  502 -0.32194081088E+02  0.16744114251E+01 -0.89004463898E+02  0.94662860217E+02  0.00000000000E+00 0. -1.
</event>
<event>
 4    1  0.3196713E+003  0.2367332E+02  0.7546771E-02  0.1484212E+00
          2   -1    0    0  501    0  0.00000000000E+00  0.00000000000E+00  0.71728272626E+03  0.71728272626E+03  0.00000000000E+00 0. -1.
         -2   -1    0    0    0  501 -0.00000000000E+00 -0.00000000000E+00 -0.11508810856E+01  0.11508810856E+01  0.00000000000E+00 0. -1.
          2    1    1    2  502    0 -0.13080472884E+02  0.19731380789E+02  0.56162266983E+03  0.56212138317E+03  0.00000000000E+00 0. -1.
         -2    1    1    2    0  502  0.13080472884E+02 -0.19731380789E+02  0.15450917535E+03  0.15631222417E+03  0.00000000000E+00 0. -1.
</event>
<event>
 4    1  0.3196713E+003  0.2021960E+02  0.7546771E-02  0.1530705E+00
          2   -1    0    0  501    0  0.00000000000E+00  0.00000000000E+00  0.30147044897E+03  0.30147044897E+03  0.00000000000E+00 0.  1.
         -2   -1    0    0    0  501 -0.00000000000E+00 -0.00000000000E+00 -0.76072488003E+01  0.76072488003E+01  0.00000000000E+00 0.  1.
          2    1    1    2  502    0 -0.20219443121E+02 -0.79598560573E-01  0.28702021561E+03  0.28773153527E+03  0.00000000000E+00 0.  1.
         -2    1    1    2    0  502  0.20219443121E+02  0.79598560573E-01  0.68429845586E+01  0.21346162506E+02  0.00000000000E+00 0.  1.
</event>
<event>
 4    1  0.3196713E+003  0.2828531E+02  0.7546771E-02  0.1435107E+00
          2   -1    0    0  501    0  0.00000000000E+00  0.00000000000E+00  0.31252886911E+03  0.31252886911E+03  0.00000000000E+00 0. -1.
         -2   -1    0    0    0  501 -0.00000000000E+00 -0.00000000000E+00 -0.30067985730E+01  0.30067985730E+01  0.00000000000E+00 0. -1.
          2    1    1    2  502    0 -0.22186544582E+02  0.17544684966E+02  0.21558094608E+03  0.21742861597E+03  0.00000000000E+00 0. -1.
         -2    1    1    2    0  502  0.22186544582E+02 -0.17544684966E+02  0.93941124459E+02  0.98107051713E+02  0.00000000000E+00 0. -1.
</event>
<event>
 4    1  0.3196713E+003  0.2156620E+02  0.7546771E-02  0.1511332E+00
          2   -1    0    0  501    0  0.00000000000E+00  0.00000000000E+00  0.45646494651E+01  0.45646494651E+01  0.00000000000E+00 0. -1.
         -2   -1    0    0    0  501 -0.00000000000E+00 -0.00000000000E+00 -0.16297763797E+03  0.16297763797E+03  0.00000000000E+00 0.  1.
          2    1    1    2  502    0  0.12347419414E+02 -0.17681685553E+02 -0.27920311428E+02  0.35279520411E+02  0.00000000000E+00 0. -1.
         -2    1    1    2    0  502 -0.12347419414E+02  0.17681685553E+02 -0.13049267708E+03  0.13226276702E+03  0.00000000000E+00 0.  1.
</event>
<event>
 4    1  0.3196713E+003  0.2657078E+02  0.7546771E-02  0.1451968E+00
          2   -1    0    0  501    0  0.00000000000E+00  0.00000000000E+00  0.69137580389E+02  0.69137580389E+02  0.00000000000E+00 0. -1.
         -2   -1    0    0    0  501 -0.00000000000E+00 -0.00000000000E+00 -0.10930041700E+02  0.10930041700E+02  0.00000000000E+00 0. -1.
          2    1    1    2  502    0 -0.96839671880E+01  0.24743222893E+02  0.39367553041E+02  0.47495373796E+02  0.00000000000E+00 0. -1.
         -2    1    1    2    0  502  0.96839671880E+01 -0.24743222893E+02  0.18839985649E+02  0.32572248293E+02  0.00000000000E+00 0. -1.
</event>
<event>
 4    1  0.3196713E+003  0.2007678E+02  0.7546771E-02  0.1532865E+00
          2   -1    0    0  501    0  0.00000000000E+00  0.00000000000E+00  0.78232193185E+02  0.78232193185E+02  0.00000000000E+00 0.  1.
         -2   -1    0    0    0  501 -0.00000000000E+00 -0.00000000000E+00 -0.33743134899E+02  0.33743134899E+02  0.00000000000E+00 0. -1.
          2    1    1    2  502    0  0.17734014669E+02 -0.94117969379E+01  0.73780790515E+02  0.76463600797E+02  0.00000000000E+00 0.  1.
         -2    1    1    2    0  502 -0.17734014669E+02  0.94117969379E+01 -0.29291732229E+02  0.35511727287E+02  0.00000000000E+00 0. -1.
</event>
<event>
 4    1  0.3196713E+003  0.3036968E+02  0.7546771E-02  0.1416411E+00
          2   -1    0    0  501    0  0.00000000000E+00  0.00000000000E+00  0.76026549407E+02  0.76026549407E+02  0.00000000000E+00 0.  1.
         -2   -1    0    0    0  501 -0.00000000000E+00 -0.00000000000E+00 -0.35043389885E+02  0.35043389885E+02  0.00000000000E+00 0.  1.
          2    1    1    2  502    0  0.30365117091E+02  0.52659043475E+00  0.65396481161E+02  0.72104211955E+02  0.00000000000E+00 0.  1.
         -2    1    1    2    0  502 -0.30365117091E+02 -0.52659043475E+00 -0.24413321639E+02  0.38965727337E+02  0.00000000000E+00 0.  1.
</event>
<event>
 4    1  0.3196713E+003  0.2055876E+02  0.7546771E-02  0.1525659E+00
          2   -1    0    0  501    0  0.00000000000E+00  0.00000000000E+00  0.66973077458E+03  0.66973077458E+03  0.00000000000E+00 0.  1.
         -2   -1    0    0    0  501 -0.00000000000E+00 -0.00000000000E+00 -0.66671876685E+01  0.66671876685E+01  0.00000000000E+00 0.  1.
          2    1    1    2  502    0  0.87957655163E+01  0.18582174305E+02  0.65332654810E+03  0.65364993777E+03  0.00000000000E+00 0.  1.
         -2    1    1    2    0  502 -0.87957655163E+01 -0.18582174305E+02  0.97370388117E+01  0.22748024480E+02  0.00000000000E+00 0.  1.
</event>
<event>
 4    1  0.3196713E+003  0.2472471E+02  0.7546771E-02  0.1471907E+00
          2   -1    0    0  501    0  0.00000000000E+00  0.00000000000E+00  0.14988722940E+04  0.14988722940E+04  0.00000000000E+00 0.  1.
         -2   -1    0    0    0  501 -0.00000000000E+00 -0.00000000000E+00 -0.29227126191E+01  0.29227126191E+01  0.00000000000E+00 0. -1.
          2    1    1    2  502    0 -0.11665434240E+02  0.21799750541E+02  0.14445129956E+04  0.14447245779E+04  0.00000000000E+00 0.  1.
         -2    1    1    2    0  502  0.11665434240E+02 -0.21799750541E+02  0.51436585801E+02  0.57070428757E+02  0.00000000000E+00 0. -1.
</event>
<event>
 4    1  0.3196713E+003  0.2004240E+02  0.7546771E-02  0.1533389E+00
          2   -1    0    0  501    0  0.00000000000E+00  0.00000000000E+00  0.74923047338E+03  0.74923047338E+03  0.00000000000E+00 0. -1.
         -2   -1    0    0    0  501 -0.00000000000E+00 -0.00000000000E+00 -0.60774313034E+02  0.60774313034E+02  0.00000000000E+00 0.  1.
          2    1    1    2  502    0 -0.15661068821E+02  0.12507143965E+02  0.74744006340E+03  0.74770873079E+03  0.00000000000E+00 0. -1.
         -2    1    1    2    0  502  0.15661068821E+02 -0.12507143965E+02 -0.58983903054E+02  0.62296055623E+02  0.00000000000E+00 0.  1.
</event>
<event>
 4    1  0.3196713E+003  0.2317546E+02  0.7546771E-02  0.1490307E+00
          2   -1    0    0  501    0  0.00000000000E+00  0.00000000000E+00  0.11434702126E+03  0.11434702126E+03  0.00000000000E+00 0. -1.
         -2   -1    0    0    0  501 -0.00000000000E+00 -0.00000000000E+00 -0.73986628883E+01  0.73986628883E+01  0.00000000000E+00 0. -1.
          2    1    1    2  502    0  0.11767267926E+02  0.19965799877E+02  0.90257661095E+02  0.93185552236E+02  0.00000000000E+00 0. -1.
         -2    1    1    2    0  502 -0.11767267926E+02 -0.19965799877E+02  0.16690697273E+02  0.28560131909E+02  0.00000000000E+00 0. -1.
</event>
<event>
 4    1  0.3196713E+003  0.2578293E+02  0.7546771E-02  0.1460232E+00
          2   -1    0    0  501    0  0.00000000000E+00  0.00000000000E+00  0.42115817988E+02  0.42115817988E+02  0.00000000000E+00 0.  1.
         -2   -1    0    0    0  501 -0.00000000000E+00 -0.00000000000E+00 -0.56827030347E+03  0.56827030347E+03  0.00000000000E+00 0. -1.
          2    1    1    2  502    0  0.13973688452E+02  0.21667842900E+02  0.37847502200E+02  0.45795117727E+02  0.00000000000E+00 0.  1.
         -2    1    1    2    0  502 -0.13973688452E+02 -0.21667842900E+02 -0.56400198768E+03  0.56459100373E+03  0.00000000000E+00 0. -1.
</event>
<event>
 4    1  0.3196713E+003  0.5311305E+02  0.7546771E-02  0.1285212E+00
          2   -1    0    0  501    0  0.00000000000E+00  0.00000000000E+00  0.13928514770E+04  0.13928514770E+04  0.00000000000E+00 0.  1.
         -2   -1    0    0    0  501 -0.00000000000E+00 -0.00000000000E+00 -0.86456219081E+01  0.86456219081E+01  0.00000000000E+00 0. -1.
          2    1    1    2  502    0  0.52910586991E+02  0.46331738043E+01  0.13053032295E+04  0.13063833731E+04  0.00000000000E+00 0.  1.
         -2    1    1    2    0  502 -0.52910586991E+02 -0.46331738043E+01  0.78902625575E+02  0.95113725812E+02  0.00000000000E+00 0. -1.
</event>
<event>
 4    1  0.3196713E+003  0.3545529E+02  0.7546771E-02  0.1377390E+00
          2   -1    0    0  501    0  0.00000000000E+00  0.00000000000E+00  0.27612137014E+03  0.27612137014E+03  0.00000000000E+00 0.  1.
         -2   -1    0    0    0  501 -0.00000000000E+00 -0.00000000000E+00 -0.64647489912E+02  0.64647489912E+02  0.00000000000E+00 0. -1.
          2    1    1    2  502    0 -0.19648471403E+02 -0.29512966717E+02  0.27001242066E+03  0.27233028650E+03  0.00000000000E+00 0.  1.
         -2    1    1    2    0  502  0.19648471403E+02  0.29512966717E+02 -0.58538540438E+02  0.68438573550E+02  0.00000000000E+00 0. -1.
</event>
<event>
 4    1  0.3196713E+003  0.2320833E+02  0.7546771E-02  0.1489899E+00
          2   -1    0    0  501    0  0.00000000000E+00  0.00000000000E+00  0.61309811901E+03  0.61309811901E+03  0.00000000000E+00 0. -1.
         -2   -1    0    0    0  501 -0.00000000000E+00 -0.00000000000E+00 -0.22144345750E+01  0.22144345750E+01  0.00000000000E+00 0.  1.
          2    1    1    2  502    0 -0.39190889013E+01  0.22875038770E+02  0.54439988723E+03  0.54489436029E+03  0.00000000000E+00 0. -1.
         -2    1    1    2    0  502  0.39190889013E+01 -0.22875038770E+02  0.66483797207E+02  0.70418193300E+02  0.00000000000E+00 0.  1.
</event>
<event>
 4    1  0.3196713E+003  0.2181641E+02  0.7546771E-02  0.1507920E+00
          2   -1    0    0  501    0  0.00000000000E+00  0.00000000000E+00  0.14032097227E+04  0.14032097227E+04  0.00000000000E+00 0. -1.
         -2   -1    0    0    0  501 -0.00000000000E+00 -0.00000000000E+00 -0.48346625401E+00  0.48346625401E+00  0.00000000000E+00 0.  1.
          2    1    1    2  502    0 -0.37572629349E+01 -0.21490433501E+02  0.10847660478E+04  0.10849854074E+04  0.00000000000E+00 0. -1.
         -2    1    1    2    0  502  0.37572629349E+01  0.21490433501E+02  0.31796020860E+03  0.31870778153E+03  0.00000000000E+00 0.  1.
</event>
<event>
 4    1  0.3196713E+003  0.2921123E+02  0.7546771E-02  0.1426577E+00
          2   -1    0    0  501    0  0.00000000000E+00  0.00000000000E+00  0.77080080117E+03  0.77080080117E+03  0.00000000000E+00 0. -1.
         -2   -1    0    0    0  501 -0.00000000000E+00 -0.00000000000E+00 -0.13535798885E+01  0.13535798885E+01  0.00000000000E+00 0. -1.
          2    1    1    2  502    0  0.18556172977E+00  0.29210635985E+02  0.54949776280E+03  0.55027364739E+03  0.00000000000E+00 0. -1.
         -2    1    1    2    0  502 -0.18556172977E+00 -0.29210635985E+02  0.21994945848E+03  0.22188073367E+03  0.00000000000E+00 0. -1.
</event>
<event>
 4    1  0.3196713E+003  0.2018289E+02  0.7546771E-02  0.1531258E+00
          2   -1    0    0  501    0  0.00000000000E+00  0.00000000000E+00  0.80816026260E+02  0.80816026260E+02  0.00000000000E+00 0. -1.
         -2   -1    0    0    0  501 -0.00000000000E+00 -0.00000000000E+00 -0.50468547318E+01  0.50468547318E+01  0.00000000000E+00 0. -1.
          2    1    1    2  502    0 -0.15784027509E+02 -0.12578287286E+02  0.36354756106E+02  0.41581451718E+02  0.00000000000E+00 0. -1.
         -2    1    1    2    0  502  0.15784027509E+02  0.12578287286E+02  0.39414415423E+02  0.44281429274E+02  0.00000000000E+00 0. -1.
</event>
<event>
 4    1  0.3196713E+003  0.2524127E+02  0.7546771E-02  0.1466122E+00
          2   -1    0    0  501    0  0.00000000000E+00  0.00000000000E+00  0.11546408469E+04  0.11546408469E+04  0.00000000000E+00 0. -1.
         -2   -1    0    0    0  501 -0.00000000000E+00 -0.00000000000E+00 -0.70959053287E+00  0.70959053287E+00  0.00000000000E+00 0. -1.
          2    1    1    2  502    0  0.13058052652E+02  0.21601132611E+02  0.84938074767E+03  0.84975571559E+03  0.00000000000E+00 0. -1.
         -2    1    1    2    0  502 -0.13058052652E+02 -0.21601132611E+02  0.30455050867E+03  0.30559472182E+03  0.00000000000E+00 0. -1.
</event>
<event>
 4    1  0.3196713E+003  0.2262619E+02  0.7546771E-02  0.1497246E+00
          2   -1    0    0  501    0  0.00000000000E+00  0.00000000000E+00  0.17603348252E+02  0.17603348252E+02  0.00000000000E+00 0.  1.
         -2   -1    0    0    0  501 -0.00000000000E+00 -0.00000000000E+00 -0.31923183386E+03  0.31923183386E+03  0.00000000000E+00 0. -1.
          2    1    1    2  502    0 -0.74522922915E+01  0.21363699180E+02  0.97487148030E+01  0.24636999479E+02  0.00000000000E+00 0.  1.
         -2    1    1    2    0  502  0.74522922915E+01 -0.21363699180E+02 -0.31137720041E+03  0.31219818264E+03  0.00000000000E+00 0. -1.
</event>
<event>
 4    1  0.3196713E+003  0.2398951E+02  0.7546771E-02  0.1480433E+00
          2   -1    0    0  501    0  0.00000000000E+00  0.00000000000E+00  0.64550990982E+03  0.64550990982E+03  0.00000000000E+00 0.  1.
         -2   -1    0    0    0  501 -0.00000000000E+00 -0.00000000000E+00 -0.22807995798E+02  0.22807995798E+02  0.00000000000E+00 0. -1.
          2    1    1    2  502    0 -0.16020449304E+02 -0.17856146160E+02  0.63891386561E+03  0.63936407814E+03  0.00000000000E+00 0.  1.
         -2    1    1    2    0  502  0.16020449304E+02  0.17856146160E+02 -0.16211951583E+02  0.28953827479E+02  0.00000000000E+00 0. -1.
</event>
<event>
 4    1  0.3196713E+003  0.2086623E+02  0.7546771E-02  0.1521183E+00
          2   -1    0    0  501    0  0.00000000000E+00  0.00000000000E+00  0.36065364560E+02  0.36065364560E+02  0.00000000000E+00 0. -1.
         -2   -1    0    0    0  501 -0.00000000000E+00 -0.00000000000E+00 -0.77622348780E+02  0.77622348780E+02  0.00000000000E+00 0.  1.
          2    1    1    2  502    0 -0.24127900812E+01  0.20726258863E+02  0.31458236388E+02  0.37749437070E+02  0.00000000000E+00 0. -1.
         -2    1    1    2    0  502  0.24127900812E+01 -0.20726258863E+02 -0.73015220609E+02  0.75938276271E+02  0.00000000000E+00 0.  1.
</event>
<event>
 4    1  0.3196713E+003  0.2145423E+02  0.7546771E-02  0.1512877E+00
          2   -1    0    0  501    0  0.00000000000E+00  0.00000000000E+00  0.63297210599E+03  0.63297210599E+03  0.00000000000E+00 0. -1.
         -2   -1    0    0    0  501 -0.00000000000E+00 -0.00000000000E+00 -0.31057254691E+01  0.31057254691E+01  0.00000000000E+00 0. -1.
          2    1    1    2  502    0 -0.21431238463E+02  0.99293049610E+00  0.59325969865E+03  0.59364749973E+03  0.00000000000E+00 0. -1.
         -2    1    1    2    0  502  0.21431238463E+02 -0.99293049610E+00  0.36606681868E+02  0.42430331727E+02  0.00000000000E+00 0. -1.
</event>
<event>
 4    1  0.3196713E+003  0.2074966E+02  0.7546771E-02  0.1522869E+00
          2   -1    0    0  501    0  0.00000000000E+00  0.00000000000E+00  0.92553822126E+03  0.92553822126E+03  0.00000000000E+00 0.  1.
         -2   -1    0    0    0  501 -0.00000000000E+00 -0.00000000000E+00 -0.20228972941E+02  0.20228972941E+02  0.00000000000E+00 0. -1.
          2    1    1    2  502    0  0.12937301275E+02 -0.16222661320E+02  0.92006936227E+03  0.92030330864E+03  0.00000000000E+00 0.  1.
         -2    1    1    2    0  502 -0.12937301275E+02  0.16222661320E+02 -0.14760113944E+02  0.25463885569E+02  0.00000000000E+00 0. -1.
</event>
<event>
 4    1  0.3196713E+003  0.2802840E+02  0.7546771E-02  0.1437542E+00
          2   -1    0    0  501    0  0.00000000000E+00  0.00000000000E+00  0.77420433019E+03  0.77420433019E+03  0.00000000000E+00 0. -1.
         -2   -1    0    0    0  501 -0.00000000000E+00 -0.00000000000E+00 -0.18900276980E+01  0.18900276980E+01  0.00000000000E+00 0.  1.
          2    1    1    2  502    0  0.27238888776E+02  0.66055957830E+01  0.65023618098E+03  0.65083998188E+03  0.00000000000E+00 0. -1.
         -2    1    1    2    0  502 -0.27238888776E+02 -0.66055957830E+01  0.12207812151E+03  0.12525437600E+03  0.00000000000E+00 0.  1.
</event>
<event>
 4    1  0.3196713E+003  0.2744788E+02  0.7546771E-02  0.1443160E+00
          2   -1    0    0  501    0  0.00000000000E+00  0.00000000000E+00  0.20491805127E+04  0.20491805127E+04  0.00000000000E+00 0. -1.
         -2   -1    0    0    0  501 -0.00000000000E+00 -0.00000000000E+00 -0.27388017320E+01  0.27388017320E+01  0.00000000000E+00 0.  1.
          2    1    1    2  502    0 -0.27325570831E+02 -0.25882616100E+01  0.19778384828E+04  0.19780289305E+04  0.00000000000E+00 0. -1.
         -2    1    1    2    0  502  0.27325570831E+02  0.25882616100E+01  0.68603228116E+02  0.73890383863E+02  0.00000000000E+00 0.  1.
</event>
<event>
 4    1  0.3196713E+003  0.5658421E+02  0.7546771E-02  0.1271902E+00
          2   -1    0    0  501    0  0.00000000000E+00  0.00000000000E+00  0.35934640603E+03  0.35934640603E+03  0.00000000000E+00 0. -1.
         -2   -1    0    0    0  501 -0.00000000000E+00 -0.00000000000E+00 -0.41848743914E+02  0.41848743914E+02  0.00000000000E+00 0. -1.
          2    1    1    2  502    0 -0.26822447235E+02 -0.49822982700E+02  0.33671524133E+03  0.34143656369E+03  0.00000000000E+00 0. -1.
         -2    1    1    2    0  502  0.26822447235E+02  0.49822982700E+02 -0.19217579210E+02  0.59758586257E+02  0.00000000000E+00 0. -1.
</event>
<event>
 4    1  0.3196713E+003  0.2686681E+02  0.7546771E-02  0.1448951E+00
          2   -1    0    0  501    0  0.00000000000E+00  0.00000000000E+00  0.90117184899E+03  0.90117184899E+03  0.00000000000E+00 0.  1.
         -2   -1    0    0    0  501 -0.00000000000E+00 -0.00000000000E+00 -0.30162548012E+02  0.30162548012E+02  0.00000000000E+00 0.  1.
          2    1    1    2  502    0  0.24794522728E+02 -0.10346829089E+02  0.89494720598E+03  0.89535039326E+03  0.00000000000E+00 0.  1.
         -2    1    1    2    0  502 -0.24794522728E+02  0.10346829089E+02 -0.23937904997E+02  0.35984003740E+02  0.00000000000E+00 0.  1.
</event>
<event>
 4    1  0.3196713E+003  0.3940983E+02  0.7546771E-02  0.1351979E+00
          2   -1    0    0  501    0  0.00000000000E+00  0.00000000000E+00  0.53215336038E+03  0.53215336038E+03  0.00000000000E+00 0. -1.
         -2   -1    0    0    0  501 -0.00000000000E+00 -0.00000000000E+00 -0.14860818534E+03  0.14860818534E+03  0.00000000000E+00 0.  1.
          2    1    1    2  502    0  0.36367046272E+02 -0.15184610332E+02  0.52879433921E+03  0.53026086753E+03  0.00000000000E+00 0. -1.
         -2    1    1    2    0  502 -0.36367046272E+02  0.15184610332E+02 -0.14524916417E+03  0.15050067820E+03  0.00000000000E+00 0.  1.
</event>
<event>
 4    1  0.3196713E+003  0.2921385E+02  0.7546771E-02  0.1426553E+00
          2   -1    0    0  501    0  0.00000000000E+00  0.00000000000E+00  0.16112059918E+04  0.16112059918E+04  0.00000000000E+00 0. -1.
         -2   -1    0    0    0  501 -0.00000000000E+00 -0.00000000000E+00 -0.55699758262E+00  0.55699758262E+00  0.00000000000E+00 0.  1.
          2    1    1    2  502    0  0.25624742690E+02  0.14029314658E+02  0.98374293384E+03  0.98417661473E+03  0.00000000000E+00 0. -1.
         -2    1    1    2    0  502 -0.25624742690E+02 -0.14029314658E+02  0.62690606042E+03  0.62758637469E+03  0.00000000000E+00 0.  1.
</event>
<event>
 4    1  0.3196713E+003  0.3565565E+02  0.7546771E-02  0.1376011E+00
          2   -1    0    0  501    0  0.00000000000E+00  0.00000000000E+00  0.28264302976E+02  0.28264302976E+02  0.00000000000E+00 0.  1.
         -2   -1    0    0    0  501 -0.00000000000E+00 -0.00000000000E+00 -0.14017268453E+03  0.14017268453E+03  0.00000000000E+00 0.  1.
          2    1    1    2  502    0 -0.20352934782E+02 -0.29275988762E+02  0.13448737332E+02  0.38107663377E+02  0.00000000000E+00 0.  1.
         -2    1    1    2    0  502  0.20352934782E+02  0.29275988762E+02 -0.12535711888E+03  0.13032932412E+03  0.00000000000E+00 0.  1.
</event>
<event>
 4    1  0.3196713E+003  0.3017880E+02  0.7546771E-02  0.1418049E+00
          2   -1    0    0  501    0  0.00000000000E+00  0.00000000000E+00  0.82407105164E+03  0.82407105164E+03  0.00000000000E+00 0.  1.
         -2   -1    0    0    0  501 -0.00000000000E+00 -0.00000000000E+00 -0.80108222980E+01  0.80108222980E+01  0.00000000000E+00 0. -1.
          2    1    1    2  502    0  0.27501931268E+02  0.12425933204E+02  0.79430729511E+03  0.79488039296E+03  0.00000000000E+00 0.  1.
         -2    1    1    2    0  502 -0.27501931268E+02 -0.12425933204E+02  0.21752934227E+02  0.37201480978E+02  0.00000000000E+00 0. -1.
</event>
<event>
 4    1  0.3196713E+003  0.2084590E+02  0.7546771E-02  0.1521476E+00
          2   -1    0    0  501    0  0.00000000000E+00  0.00000000000E+00  0.42756463461E+03  0.42756463461E+03  0.00000000000E+00 0.  1.
         -2   -1    0    0    0  501 -0.00000000000E+00 -0.00000000000E+00 -0.83530578472E+01  0.83530578472E+01  0.00000000000E+00 0. -1.
          2    1    1    2  502    0  0.20494798028E+02  0.38098166309E+01  0.41387486995E+03  0.41439951668E+03  0.00000000000E+00 0.  1.
         -2    1    1    2    0  502 -0.20494798028E+02 -0.38098166309E+01  0.53367068078E+01  0.21518175772E+02  0.00000000000E+00 0. -1.
</event>
<event>
 4    1  0.3196713E+003  0.3378215E+02  0.7546771E-02  0.1389333E+00
          2   -1    0    0  501    0  0.00000000000E+00  0.00000000000E+00  0.11474209083E+04  0.11474209083E+04  0.00000000000E+00 0. -1.
         -2   -1    0    0    0  501 -0.00000000000E+00 -0.00000000000E+00 -0.12563785814E+01  0.12563785814E+01  0.00000000000E+00 0. -1.
          2    1    1    2  502    0 -0.27707290952E+02  0.19327169200E+02  0.83524358152E+03  0.83592647638E+03  0.00000000000E+00 0. -1.
         -2    1    1    2    0  502  0.27707290952E+02 -0.19327169200E+02  0.31092094822E+03  0.31275081052E+03  0.00000000000E+00 0. -1.
</event>
<event>
 4    1  0.3196713E+003  0.2791309E+02  0.7546771E-02  0.1438645E+00
          2   -1    0    0  501    0  0.00000000000E+00  0.00000000000E+00  0.10626686661E+04  0.10626686661E+04  0.00000000000E+00 0. -1.
         -2   -1    0    0    0  501 -0.00000000000E+00 -0.00000000000E+00 -0.14026715454E+02  0.14026715454E+02  0.00000000000E+00 0.  1.
          2    1    1    2  502    0  0.24631658118E+02 -0.13130949107E+02  0.10484098135E+04  0.10487813296E+04  0.00000000000E+00 0. -1.
         -2    1    1    2    0  502 -0.24631658118E+02  0.13130949107E+02  0.23213716014E+00  0.27914051905E+02  0.00000000000E+00 0.  1.
</event>
<event>
 4    1  0.3196713E+003  0.2223948E+02  0.7546771E-02  0.1502275E+00
          2   -1    0    0  501    0  0.00000000000E+00  0.00000000000E+00  0.85993780885E+03  0.85993780885E+03  0.00000000000E+00 0.  1.
         -2   -1    0    0    0  501 -0.00000000000E+00 -0.00000000000E+00 -0.96579211777E+02  0.96579211777E+02  0.00000000000E+00 0.  1.
          2    1    1    2  502    0  0.13991030568E+02  0.17287147800E+02  0.85851161274E+03  0.85879961786E+03  0.00000000000E+00 0.  1.
         -2    1    1    2    0  502 -0.13991030568E+02 -0.17287147800E+02 -0.95153015664E+02  0.97717402777E+02  0.00000000000E+00 0.  1.
</event>
<event>
 4    1  0.3196713E+003  0.2002593E+02  0.7546771E-02  0.1533640E+00
          2   -1    0    0  501    0  0.00000000000E+00  0.00000000000E+00  0.18131676783E+04  0.18131676783E+04  0.00000000000E+00 0. -1.
         -2   -1    0    0    0  501 -0.00000000000E+00 -0.00000000000E+00 -0.22219784675E+00  0.22219784675E+00  0.00000000000E+00 0. -1.
          2    1    1    2  502    0  0.63594040639E+01 -0.18989354901E+02  0.84512591297E+03  0.84536314469E+03  0.00000000000E+00 0. -1.
         -2    1    1    2    0  502 -0.63594040639E+01  0.18989354901E+02  0.96781956748E+03  0.96802673146E+03  0.00000000000E+00 0. -1.
</event>
<event>
 4    1  0.3196713E+003  0.2801456E+02  0.7546771E-02  0.1437674E+00
          2   -1    0    0  501    0  0.00000000000E+00  0.00000000000E+00  0.83848753121E+02  0.83848753121E+02  0.00000000000E+00 0.  1.
         -2   -1    0    0    0  501 -0.00000000000E+00 -0.00000000000E+00 -0.12248797173E+02  0.12248797173E+02  0.00000000000E+00 0.  1.
          2    1    1    2  502    0  0.25825602473E+02 -0.10856058025E+02  0.59134656689E+02  0.65434878778E+02  0.00000000000E+00 0.  1.
         -2    1    1    2    0  502 -0.25825602473E+02  0.10856058025E+02  0.12465299259E+02  0.30662671517E+02  0.00000000000E+00 0.  1.
</event>
<event>
 4    1  0.3196713E+003  0.2270278E+02  0.7546771E-02  0.1496264E+00
          2   -1    0    0  501    0  0.00000000000E+00  0.00000000000E+00  0.18093825563E+04  0.18093825563E+04  0.00000000000E+00 0. -1.
         -2   -1    0    0    0  501 -0.00000000000E+00 -0.00000000000E+00 -0.42073167169E+00  0.42073167169E+00  0.00000000000E+00 0.  1.
          2    1    1    2  502    0 -0.13352586178E+02  0.18360954604E+02  0.14187225183E+04  0.14189041546E+04  0.00000000000E+00 0. -1.
         -2    1    1    2    0  502  0.13352586178E+02 -0.18360954604E+02  0.39023930641E+03  0.39089913338E+03  0.00000000000E+00 0.  1.
</event>
<event>
 4    1  0.3196713E+003  0.2648344E+02  0.7546771E-02  0.1452867E+00
          2   -1    0    0  501    0  0.00000000000E+00  0.00000000000E+00  0.63737881758E+03  0.63737881758E+03  0.00000000000E+00 0. -1.
         -2   -1    0    0    0  501 -0.00000000000E+00 -0.00000000000E+00 -0.97315191979E+01  0.97315191979E+01  0.00000000000E+00 0. -1.
          2    1    1    2  502    0  0.26372160172E+02  0.24251865369E+01  0.61853704618E+03  0.61910374725E+03  0.00000000000E+00 0. -1.
         -2    1    1    2    0  502 -0.26372160172E+02 -0.24251865369E+01  0.91102522037E+01  0.28006589530E+02  0.00000000000E+00 0. -1.
</event>
<event>
 4    1  0.3196713E+003  0.3421593E+02  0.7546771E-02  0.1386161E+00
          2   -1    0    0  501    0  0.00000000000E+00  0.00000000000E+00  0.38799099283E+03  0.38799099283E+03  0.00000000000E+00 0. -1.
         -2   -1    0    0    0  501 -0.00000000000E+00 -0.00000000000E+00 -0.69372854719E+01  0.69372854719E+01  0.00000000000E+00 0. -1.
          2    1    1    2  502    0  0.47537649864E+01 -0.33884089766E+02  0.33895946036E+03  0.34068203003E+03  0.00000000000E+00 0. -1.
         -2    1    1    2    0  502 -0.47537649864E+01  0.33884089766E+02  0.42094247000E+02  0.54246248269E+02  0.00000000000E+00 0. -1.
</event>
<event>
 4    1  0.3196713E+003  0.2333572E+02  0.7546771E-02  0.1488325E+00
          2   -1    0    0  501    0  0.00000000000E+00  0.00000000000E+00  0.52686555419E+03  0.52686555419E+03  0.00000000000E+00 0. -1.
         -2   -1    0    0    0  501 -0.00000000000E+00 -0.00000000000E+00 -0.11667484771E+01  0.11667484771E+01  0.00000000000E+00 0.  1.
          2    1    1    2  502    0  0.20806940085E+02  0.10565366006E+02  0.35204609199E+03  0.35281865966E+03  0.00000000000E+00 0. -1.
         -2    1    1    2    0  502 -0.20806940085E+02 -0.10565366006E+02  0.17365271372E+03  0.17521364301E+03  0.00000000000E+00 0.  1.
</event>
<event>
 4    1  0.3196713E+003  0.3135031E+02  0.7546771E-02  0.1408214E+00
          2   -1    0    0  501    0  0.00000000000E+00  0.00000000000E+00  0.12116147854E+03  0.12116147854E+03  0.00000000000E+00 0.  1.
         -2   -1    0    0    0  501 -0.00000000000E+00 -0.00000000000E+00 -0.11843586274E+02  0.11843586274E+02  0.00000000000E+00 0.  1.
          2    1    1    2  502    0  0.22285461162E+02 -0.22049942102E+02  0.91988517967E+02  0.97183996438E+02  0.00000000000E+00 0.  1.
         -2    1    1    2    0  502 -0.22285461162E+02  0.22049942102E+02  0.17329374297E+02  0.35821068374E+02  0.00000000000E+00 0.  1.
</event>
<event>
 4    1  0.3196713E+003  0.3543901E+02  0.7546771E-02  0.1377503E+00
          2   -1    0    0  501    0  0.00000000000E+00  0.00000000000E+00  0.28351517995E+02  0.28351517995E+02  0.00000000000E+00 0. -1.
         -2   -1    0    0    0  501 -0.00000000000E+00 -0.00000000000E+00 -0.93884743686E+02  0.93884743686E+02  0.00000000000E+00 0.  1.
          2    1    1    2  502    0  0.17286823327E+02  0.30936853748E+02  0.11650892841E+02  0.37305046369E+02  0.00000000000E+00 0. -1.
         -2    1    1    2    0  502 -0.17286823327E+02 -0.30936853748E+02 -0.77184118533E+02  0.84931215312E+02  0.00000000000E+00 0.  1.
</event>
<event>
 4    1  0.3196713E+003  0.2021671E+02  0.7546771E-02  0.1530748E+00
          2   -1    0    0  501    0  0.00000000000E+00  0.00000000000E+00  0.12105343021E+04  0.12105343021E+04  0.00000000000E+00 0. -1.
         -2   -1    0    0    0  501 -0.00000000000E+00 -0.00000000000E+00 -0.35543358849E+01  0.35543358849E+01  0.00000000000E+00 0. -1.
          2    1    1    2  502    0  0.12630483708E+02  0.15785632711E+02  0.11809829461E+04  0.11811559738E+04  0.00000000000E+00 0. -1.
         -2    1    1    2    0  502 -0.12630483708E+02 -0.15785632711E+02  0.25997020064E+02  0.32932664196E+02  0.00000000000E+00 0. -1.
</event>
<event>
 4    1  0.3196713E+003  0.3956650E+02  0.7546771E-02  0.1351045E+00
          2   -1    0    0  501    0  0.00000000000E+00  0.00000000000E+00  0.97326095965E+02  0.97326095965E+02  0.00000000000E+00 0. -1.
         -2   -1    0    0    0  501 -0.00000000000E+00 -0.00000000000E+00 -0.32127696225E+02  0.32127696225E+02  0.00000000000E+00 0.  1.
          2    1    1    2  502    0  0.18786534420E+02 -0.34822039131E+02  0.78337620207E+02  0.87762697226E+02  0.00000000000E+00 0. -1.
         -2    1    1    2    0  502 -0.18786534420E+02  0.34822039131E+02 -0.13139220467E+02  0.41691094963E+02  0.00000000000E+00 0.  1.
</event>
<event>
 4    1  0.3196713E+003  0.2001805E+02  0.7546771E-02  0.1533760E+00
          2   -1    0    0  501    0  0.00000000000E+00  0.00000000000E+00  0.14623058453E+04  0.14623058453E+04  0.00000000000E+00 0. -1.
         -2   -1    0    0    0  501 -0.00000000000E+00 -0.00000000000E+00 -0.54713864607E+00  0.54713864607E+00  0.00000000000E+00 0. -1.
          2    1    1    2  502    0 -0.19447718955E+02 -0.47443156052E+01  0.12476360448E+04  0.12477966271E+04  0.00000000000E+00 0. -1.
         -2    1    1    2    0  502  0.19447718955E+02  0.47443156052E+01  0.21412266190E+03  0.21505635690E+03  0.00000000000E+00 0. -1.
</event>
<event>
 4    1  0.3196713E+003  0.2873375E+02  0.7546771E-02  0.1430929E+00
          2   -1    0    0  501    0  0.00000000000E+00  0.00000000000E+00  0.16905928275E+03  0.16905928275E+03  0.00000000000E+00 0.  1.
         -2   -1    0    0    0  501 -0.00000000000E+00 -0.00000000000E+00 -0.20542101706E+02  0.20542101706E+02  0.00000000000E+00 0.  1.
          2    1    1    2  502    0  0.26383767459E+02 -0.11380916977E+02  0.15702675195E+03  0.15963404801E+03  0.00000000000E+00 0.  1.
         -2    1    1    2    0  502 -0.26383767459E+02  0.11380916977E+02 -0.85095709070E+01  0.29967336444E+02  0.00000000000E+00 0.  1.
</event>
<event>
 4    1  0.3196713E+003  0.2070540E+02  0.7546771E-02  0.1523513E+00
          2   -1    0    0  501    0  0.00000000000E+00  0.00000000000E+00  0.12550317076E+03  0.12550317076E+03  0.00000000000E+00 0.  1.
         -2   -1    0    0    0  501 -0.00000000000E+00 -0.00000000000E+00 -0.13715283797E+03  0.13715283797E+03  0.00000000000E+00 0. -1.
          2    1    1    2  502    0 -0.75261941698E+01  0.19289116484E+02  0.12385741684E+03  0.12557616541E+03  0.00000000000E+00 0.  1.
         -2    1    1    2    0  502  0.75261941698E+01 -0.19289116484E+02 -0.13550708406E+03  0.13707984332E+03  0.00000000000E+00 0. -1.
</event>
<event>
 4    1  0.3196713E+003  0.2527491E+02  0.7546771E-02  0.1465751E+00
          2   -1    0    0  501    0  0.00000000000E+00  0.00000000000E+00  0.28056480115E+03  0.28056480115E+03  0.00000000000E+00 0. -1.
         -2   -1    0    0    0  501 -0.00000000000E+00 -0.00000000000E+00 -0.79757817792E+01  0.79757817792E+01  0.00000000000E+00 0.  1.
          2    1    1    2  502    0  0.13571141537E+02 -0.21322412790E+02  0.25824531443E+03  0.25947921611E+03  0.00000000000E+00 0. -1.
         -2    1    1    2    0  502 -0.13571141537E+02  0.21322412790E+02  0.14343704942E+02  0.29061366817E+02  0.00000000000E+00 0.  1.
</event>
<event>
 4    1  0.3196713E+003  0.2149969E+02  0.7546771E-02  0.1512249E+00
          2   -1    0    0  501    0  0.00000000000E+00  0.00000000000E+00  0.10979618317E+03  0.10979618317E+03  0.00000000000E+00 0.  1.
         -2   -1    0    0    0  501 -0.00000000000E+00 -0.00000000000E+00 -0.29949181740E+02  0.29949181740E+02  0.00000000000E+00 0.  1.
          2    1    1    2  502    0 -0.21283262359E+02  0.30429213456E+01  0.10469928970E+03  0.10688394590E+03  0.00000000000E+00 0.  1.
         -2    1    1    2    0  502  0.21283262359E+02 -0.30429213456E+01 -0.24852288272E+02  0.32861419010E+02  0.00000000000E+00 0.  1.
</event>
<event>
 4    1  0.3196713E+003  0.3553371E+02  0.7546771E-02  0.1376849E+00
          2   -1    0    0  501    0  0.00000000000E+00  0.00000000000E+00  0.13852401478E+03  0.13852401478E+03  0.00000000000E+00 0. -1.
         -2   -1    0    0    0  501 -0.00000000000E+00 -0.00000000000E+00 -0.42031373733E+02  0.42031373733E+02  0.00000000000E+00 0. -1.
          2    1    1    2  502    0  0.27765340777E+02 -0.22174994543E+02  0.12813766819E+03  0.13297333018E+03  0.00000000000E+00 0. -1.
         -2    1    1    2    0  502 -0.27765340777E+02  0.22174994543E+02 -0.31645027145E+02  0.47582058325E+02  0.00000000000E+00 0. -1.
</event>
<event>
 4    1  0.3196713E+003  0.2841244E+02  0.7546771E-02  0.1433914E+00
          2   -1    0    0  501    0  0.00000000000E+00  0.00000000000E+00  0.76966152736E+02  0.76966152736E+02  0.00000000000E+00 0.  1.
         -2   -1    0    0    0  501 -0.00000000000E+00 -0.00000000000E+00 -0.43183351411E+02  0.43183351411E+02  0.00000000000E+00 0. -1.
          2    1    1    2  502    0  0.16898041202E+02 -0.22841250881E+02  0.69163854886E+02  0.74772356931E+02  0.00000000000E+00 0.  1.
         -2    1    1    2    0  502 -0.16898041202E+02  0.22841250881E+02 -0.35381053561E+02  0.45377147215E+02  0.00000000000E+00 0. -1.
</event>
<event>
 4    1  0.3196713E+003  0.3289429E+02  0.7546771E-02  0.1396004E+00
          2   -1    0    0  501    0  0.00000000000E+00  0.00000000000E+00  0.83768205263E+03  0.83768205263E+03  0.00000000000E+00 0. -1.
         -2   -1    0    0    0  501 -0.00000000000E+00 -0.00000000000E+00 -0.14900494664E+01  0.14900494664E+01  0.00000000000E+00 0. -1.
          2    1    1    2  502    0  0.73106054782E+01  0.32071627970E+02  0.57118209447E+03  0.57212849896E+03  0.00000000000E+00 0. -1.
         -2    1    1    2    0  502 -0.73106054782E+01 -0.32071627970E+02  0.26500990869E+03  0.26704360314E+03  0.00000000000E+00 0. -1.
</event>
<event>
 4    1  0.3196713E+003  0.3155487E+02  0.7546771E-02  0.1406549E+00
          2   -1    0    0  501    0  0.00000000000E+00  0.00000000000E+00  0.16921972082E+04  0.16921972082E+04  0.00000000000E+00 0.  1.
         -2   -1    0    0    0  501 -0.00000000000E+00 -0.00000000000E+00 -0.60224998532E+00  0.60224998532E+00  0.00000000000E+00 0.  1.
          2    1    1    2  502    0  0.79832611715E+01 -0.30528303081E+02  0.97409490590E+03  0.97460586672E+03  0.00000000000E+00 0.  1.
         -2    1    1    2    0  502 -0.79832611715E+01  0.30528303081E+02  0.71750005235E+03  0.71819359150E+03  0.00000000000E+00 0.  1.
</event>
<event>
 4    1  0.3196713E+003  0.2761779E+02  0.7546771E-02  0.1441499E+00
          2   -1    0    0  501    0  0.00000000000E+00  0.00000000000E+00  0.16401009966E+03  0.16401009966E+03  0.00000000000E+00 0. -1.
         -2   -1    0    0    0  501 -0.00000000000E+00 -0.00000000000E+00 -0.50176689097E+01  0.50176689097E+01  0.00000000000E+00 0. -1.
          2    1    1    2  502    0 -0.22363951162E+02  0.16204793820E+02  0.56636845087E+02  0.63011696341E+02  0.00000000000E+00 0. -1.
         -2    1    1    2    0  502  0.22363951162E+02 -0.16204793820E+02  0.10235558567E+03  0.10601607223E+03  0.00000000000E+00 0. -1.
</event>
<event>
 4    1  0.3196713E+003  0.2013771E+02  0.7546771E-02  0.1531941E+00
          2   -1    0    0  501    0  0.00000000000E+00  0.00000000000E+00  0.10758486461E+03  0.10758486461E+03  0.00000000000E+00 0.  1.
         -2   -1    0    0    0  501 -0.00000000000E+00 -0.00000000000E+00 -0.18555439480E+02  0.18555439480E+02  0.00000000000E+00 0.  1.
          2    1    1    2  502    0  0.95119932256E+01 -0.17749624122E+02  0.10081552027E+03  0.10280708292E+03  0.00000000000E+00 0.  1.
         -2    1    1    2    0  502 -0.95119932256E+01  0.17749624122E+02 -0.11786095138E+02  0.23333221171E+02  0.00000000000E+00 0.  1.
</event>
<event>
 4    1  0.3196713E+003  0.2396568E+02  0.7546771E-02  0.1480715E+00
          2   -1    0    0  501    0  0.00000000000E+00  0.00000000000E+00  0.53941023809E+01  0.53941023809E+01  0.00000000000E+00 0. -1.
         -2   -1    0    0    0  501 -0.00000000000E+00 -0.00000000000E+00 -0.27441582716E+03  0.27441582716E+03  0.00000000000E+00 0. -1.
          2    1    1    2  502    0  0.54473111784E+01  0.23338389847E+02 -0.25064151169E+02  0.34678023496E+02  0.00000000000E+00 0. -1.
         -2    1    1    2    0  502 -0.54473111784E+01 -0.23338389847E+02 -0.24395757361E+03  0.24513190604E+03  0.00000000000E+00 0. -1.
</event>
<event>
 4    1  0.3196713E+003  0.2665776E+02  0.7546771E-02  0.1451077E+00
          2   -1    0    0  501    0  0.00000000000E+00  0.00000000000E+00  0.15053554503E+02  0.15053554503E+02  0.00000000000E+00 0.  1.
         -2   -1    0    0    0  501 -0.00000000000E+00 -0.00000000000E+00 -0.17001362939E+03  0.17001362939E+03  0.00000000000E+00 0. -1.
          2    1    1    2  502    0  0.20205026148E+02 -0.17389453608E+02  0.11644165020E+01  0.26683179050E+02  0.00000000000E+00 0.  1.
         -2    1    1    2    0  502 -0.20205026148E+02  0.17389453608E+02 -0.15612449139E+03  0.15838400484E+03  0.00000000000E+00 0. -1.
</event>
<event>
 4    1  0.3196713E+003  0.2254128E+02  0.7546771E-02  0.1498340E+00
          2   -1    0    0  501    0  0.00000000000E+00  0.00000000000E+00  0.76674858597E+03  0.76674858597E+03  0.00000000000E+00 0.  1.
         -2   -1    0    0    0  501 -0.00000000000E+00 -0.00000000000E+00 -0.16120786197E+01  0.16120786197E+01  0.00000000000E+00 0.  1.
          2    1    1    2  502    0  0.69672104715E+01  0.21437519780E+02  0.67739455244E+03  0.67776949544E+03  0.00000000000E+00 0.  1.
         -2    1    1    2    0  502 -0.69672104715E+01 -0.21437519780E+02  0.87741954909E+02  0.90591169146E+02  0.00000000000E+00 0.  1.
</event>
<event>
 4    1  0.3196713E+003  0.2265803E+02  0.7546771E-02  0.1496837E+00
          2   -1    0    0  501    0  0.00000000000E+00  0.00000000000E+00  0.30382884619E+02  0.30382884619E+02  0.00000000000E+00 0. -1.
         -2   -1    0    0    0  501 -0.00000000000E+00 -0.00000000000E+00 -0.48593243474E+03  0.48593243474E+03  0.00000000000E+00 0. -1.
          2    1    1    2  502    0  0.73191783413E+01 -0.21443320581E+02  0.25854742266E+02  0.34378104467E+02  0.00000000000E+00 0. -1.
         -2    1    1    2    0  502 -0.73191783413E+01  0.21443320581E+02 -0.48140429238E+03  0.48193721489E+03  0.00000000000E+00 0. -1.
</event>
<event>
 4    1  0.3196713E+003  0.2447498E+02  0.7546771E-02  0.1474763E+00
          2   -1    0    0  501    0  0.00000000000E+00  0.00000000000E+00  0.19683983986E+02  0.19683983986E+02  0.00000000000E+00 0. -1.
         -2   -1    0    0    0  501 -0.00000000000E+00 -0.00000000000E+00 -0.18926013723E+03  0.18926013723E+03  0.00000000000E+00 0.  1.
          2    1    1    2  502    0 -0.23325054271E+02  0.74139356082E+01  0.10916828216E+02  0.26799286114E+02  0.00000000000E+00 0. -1.
         -2    1    1    2    0  502  0.23325054271E+02 -0.74139356082E+01 -0.18049298146E+03  0.18214483510E+03  0.00000000000E+00 0.  1.
</event>
<event>
 4    1  0.3196713E+003  0.2358116E+02  0.7546771E-02  0.1485327E+00
          2   -1    0    0  501    0  0.00000000000E+00  0.00000000000E+00  0.36317688445E+03  0.36317688445E+03  0.00000000000E+00 0. -1.
         -2   -1    0    0    0  501 -0.00000000000E+00 -0.00000000000E+00 -0.40599482886E+01  0.40599482886E+01  0.00000000000E+00 0. -1.
          2    1    1    2  502    0 -0.82146015232E+01  0.22104108991E+02  0.32447393147E+03  0.32532968434E+03  0.00000000000E+00 0. -1.
         -2    1    1    2    0  502  0.82146015232E+01 -0.22104108991E+02  0.34643004696E+02  0.41907148398E+02  0.00000000000E+00 0. -1.
</event>
<event>
 4    1  0.3196713E+003  0.2473107E+02  0.7546771E-02  0.1471834E+00
          2   -1    0    0  501    0  0.00000000000E+00  0.00000000000E+00  0.15379299536E+04  0.15379299536E+04  0.00000000000E+00 0. -1.
         -2   -1    0    0    0  501 -0.00000000000E+00 -0.00000000000E+00 -0.98189734208E+00  0.98189734208E+00  0.00000000000E+00 0.  1.
          2    1    1    2  502    0 -0.13957172495E+02  0.20416248165E+02  0.13619903177E+04  0.13622148330E+04  0.00000000000E+00 0. -1.
         -2    1    1    2    0  502  0.13957172495E+02 -0.20416248165E+02  0.17495773855E+03  0.17669701789E+03  0.00000000000E+00 0.  1.
</event>
<event>
 4    1  0.3196713E+003  0.3200148E+02  0.7546771E-02  0.1402965E+00
          2   -1    0    0  501    0  0.00000000000E+00  0.00000000000E+00  0.67299403627E+02  0.67299403627E+02  0.00000000000E+00 0. -1.
         -2   -1    0    0    0  501 -0.00000000000E+00 -0.00000000000E+00 -0.15973373725E+02  0.15973373725E+02  0.00000000000E+00 0.  1.
          2    1    1    2  502    0  0.28186183995E+02 -0.15153669410E+02  0.34723354654E+02  0.47220821925E+02  0.00000000000E+00 0. -1.
         -2    1    1    2    0  502 -0.28186183995E+02  0.15153669410E+02  0.16602675248E+02  0.36051955428E+02  0.00000000000E+00 0.  1.
</event>
<event>
 4    1  0.3196713E+003  0.2014286E+02  0.7546771E-02  0.1531863E+00
          2   -1    0    0  501    0  0.00000000000E+00  0.00000000000E+00  0.30356549036E+01  0.30356549036E+01  0.00000000000E+00 0. -1.
         -2   -1    0    0    0  501 -0.00000000000E+00 -0.00000000000E+00 -0.21566588289E+03  0.21566588289E+03  0.00000000000E+00 0. -1.
          2    1    1    2  502    0  0.17719479385E+02 -0.95788705927E+01 -0.38883562956E+02  0.43791165544E+02  0.00000000000E+00 0. -1.
         -2    1    1    2    0  502 -0.17719479385E+02  0.95788705927E+01 -0.17374666503E+03  0.17491037225E+03  0.00000000000E+00 0. -1.
</event>
<event>
 4    1  0.3196713E+003  0.3198620E+02  0.7546771E-02  0.1403087E+00
          2   -1    0    0  501    0  0.00000000000E+00  0.00000000000E+00  0.19390386534E+04  0.19390386534E+04  0.00000000000E+00 0.  1.
         -2   -1    0    0    0  501 -0.00000000000E+00 -0.00000000000E+00 -0.35433733787E+02  0.35433733787E+02  0.00000000000E+00 0.  1.
          2    1    1    2  502    0 -0.30642138086E+02 -0.91747650962E+01  0.19316606504E+04  0.19319254606E+04  0.00000000000E+00 0.  1.
         -2    1    1    2    0  502  0.30642138086E+02  0.91747650962E+01 -0.28055730734E+02  0.42546926658E+02  0.00000000000E+00 0.  1.
</event>
<event>
 4    1  0.3196713E+003  0.2836346E+02  0.7546771E-02  0.1434373E+00
          2   -1    0    0  501    0  0.00000000000E+00  0.00000000000E+00  0.55306181554E+03  0.55306181554E+03  0.00000000000E+00 0.  1.
         -2   -1    0    0    0  501 -0.00000000000E+00 -0.00000000000E+00 -0.25992835349E+02  0.25992835349E+02  0.00000000000E+00 0.  1.
          2    1    1    2  502    0  0.24570218246E+02  0.14170051825E+02  0.54484396362E+03  0.54558173603E+03  0.00000000000E+00 0.  1.
         -2    1    1    2    0  502 -0.24570218246E+02 -0.14170051825E+02 -0.17774983429E+02  0.33472914861E+02  0.00000000000E+00 0.  1.
</event>
<event>
 4    1  0.3196713E+003  0.3140948E+02  0.7546771E-02  0.1407731E+00
          2   -1    0    0  501    0  0.00000000000E+00  0.00000000000E+00  0.72137094613E+03  0.72137094613E+03  0.00000000000E+00 0.  1.
         -2   -1    0    0    0  501 -0.00000000000E+00 -0.00000000000E+00 -0.26075960430E+02  0.26075960430E+02  0.00000000000E+00 0.  1.
          2    1    1    2  502    0 -0.40667650065E+01 -0.31145095287E+02  0.71143858052E+03  0.71213159555E+03  0.00000000000E+00 0.  1.
         -2    1    1    2    0  502  0.40667650065E+01  0.31145095287E+02 -0.16143594815E+02  0.35315311008E+02  0.00000000000E+00 0.  1.
</event>
<event>
 4    1  0.3196713E+003  0.3904177E+02  0.7546771E-02  0.1354194E+00
          2   -1    0    0  501    0  0.00000000000E+00  0.00000000000E+00  0.35493426983E+02  0.35493426983E+02  0.00000000000E+00 0. -1.
         -2   -1    0    0    0  501 -0.00000000000E+00 -0.00000000000E+00 -0.21505058981E+03  0.21505058981E+03  0.00000000000E+00 0. -1.
          2    1    1    2  502    0  0.32094135809E+02 -0.22231193848E+02  0.22289364388E+02  0.44956371051E+02  0.00000000000E+00 0. -1.
         -2    1    1    2    0  502 -0.32094135809E+02  0.22231193848E+02 -0.20184652721E+03  0.20558764574E+03  0.00000000000E+00 0. -1.
</event>
<event>
 4    1  0.3196713E+003  0.2257661E+02  0.7546771E-02  0.1497884E+00
          2   -1    0    0  501    0  0.00000000000E+00  0.00000000000E+00  0.16653057807E+04  0.16653057807E+04  0.00000000000E+00 0. -1.
         -2   -1    0    0    0  501 -0.00000000000E+00 -0.00000000000E+00 -0.19020791158E+03  0.19020791158E+03  0.00000000000E+00 0.  1.
          2    1    1    2  502    0 -0.17260756135E+02  0.14552298802E+02  0.16645590334E+04  0.16647121309E+04  0.00000000000E+00 0. -1.
         -2    1    1    2    0  502  0.17260756135E+02 -0.14552298802E+02 -0.18946116421E+03  0.19080156144E+03  0.00000000000E+00 0.  1.
</event>
<event>
 4    1  0.3196713E+003  0.3125312E+02  0.7546771E-02  0.1409011E+00
          2   -1    0    0  501    0  0.00000000000E+00  0.00000000000E+00  0.93805681090E+03  0.93805681090E+03  0.00000000000E+00 0.  1.
         -2   -1    0    0    0  501 -0.00000000000E+00 -0.00000000000E+00 -0.10308756205E+02  0.10308756205E+02  0.00000000000E+00 0. -1.
          2    1    1    2  502    0  0.31182548039E+02 -0.20990616843E+01  0.91347158920E+03  0.91400607309E+03  0.00000000000E+00 0.  1.
         -2    1    1    2    0  502 -0.31182548039E+02  0.20990616843E+01  0.14276465494E+02  0.34359494018E+02  0.00000000000E+00 0. -1.
</event>
<event>
 4    1  0.3196713E+003  0.2109227E+02  0.7546771E-02  0.1517952E+00
          2   -1    0    0  501    0  0.00000000000E+00  0.00000000000E+00  0.93208998482E+02  0.93208998482E+02  0.00000000000E+00 0. -1.
         -2   -1    0    0    0  501 -0.00000000000E+00 -0.00000000000E+00 -0.43866890285E+02  0.43866890285E+02  0.00000000000E+00 0.  1.
          2    1    1    2  502    0 -0.18170968789E+02  0.10709787625E+02  0.89372988912E+02  0.91828180886E+02  0.00000000000E+00 0. -1.
         -2    1    1    2    0  502  0.18170968789E+02 -0.10709787625E+02 -0.40030880715E+02  0.45247707881E+02  0.00000000000E+00 0.  1.
</event>
<event>
 4    1  0.3196713E+003  0.3261050E+02  0.7546771E-02  0.1398188E+00
          2   -1    0    0  501    0  0.00000000000E+00  0.00000000000E+00  0.96489374306E+02  0.96489374306E+02  0.00000000000E+00 0.  1.
         -2   -1    0    0    0  501 -0.00000000000E+00 -0.00000000000E+00 -0.44082916469E+02  0.44082916469E+02  0.00000000000E+00 0.  1.
          2    1    1    2  502    0 -0.15202807977E+02 -0.28849948072E+02  0.87072228513E+02  0.92978588139E+02  0.00000000000E+00 0.  1.
         -2    1    1    2    0  502  0.15202807977E+02  0.28849948072E+02 -0.34665770676E+02  0.47593702637E+02  0.00000000000E+00 0.  1.
</event>
<event>
 4    1  0.3196713E+003  0.3259101E+02  0.7546771E-02  0.1398339E+00
          2   -1    0    0  501    0  0.00000000000E+00  0.00000000000E+00  0.89089342513E+02  0.89089342513E+02  0.00000000000E+00 0. -1.
         -2   -1    0    0    0  501 -0.00000000000E+00 -0.00000000000E+00 -0.11582551143E+04  0.11582551143E+04  0.00000000000E+00 0.  1.
          2    1    1    2  502    0  0.11968133599E+02 -0.30313980378E+02  0.85871136129E+02  0.91847839649E+02  0.00000000000E+00 0. -1.
         -2    1    1    2    0  502 -0.11968133599E+02  0.30313980378E+02 -0.11550369079E+04  0.11554966172E+04  0.00000000000E+00 0.  1.
</event>
<event>
 4    1  0.3196713E+003  0.2684613E+02  0.7546771E-02  0.1449160E+00
          2   -1    0    0  501    0  0.00000000000E+00  0.00000000000E+00  0.74013798760E+01  0.74013798760E+01  0.00000000000E+00 0.  1.
         -2   -1    0    0    0  501 -0.00000000000E+00 -0.00000000000E+00 -0.98415767734E+02  0.98415767734E+02  0.00000000000E+00 0. -1.
          2    1    1    2  502    0  0.96418027744E+01 -0.25054947466E+02 -0.40068198571E+02  0.48230439455E+02  0.00000000000E+00 0.  1.
         -2    1    1    2    0  502 -0.96418027744E+01  0.25054947466E+02 -0.50946189287E+02  0.57586708155E+02  0.00000000000E+00 0. -1.
</event>
<event>
 4    1  0.3196713E+003  0.2693005E+02  0.7546771E-02  0.1448312E+00
          2   -1    0    0  501    0  0.00000000000E+00  0.00000000000E+00  0.99139689435E+03  0.99139689435E+03  0.00000000000E+00 0. -1.
         -2   -1    0    0    0  501 -0.00000000000E+00 -0.00000000000E+00 -0.15500428461E+01  0.15500428461E+01  0.00000000000E+00 0. -1.
          2    1    1    2  502    0  0.20490771823E+02 -0.17474430800E+02  0.85570087245E+03  0.85612452982E+03  0.00000000000E+00 0. -1.
         -2    1    1    2    0  502 -0.20490771823E+02  0.17474430800E+02  0.13414597906E+03  0.13682240737E+03  0.00000000000E+00 0. -1.
</event>
<event>
 4    1  0.3196713E+003  0.2468341E+02  0.7546771E-02  0.1472376E+00
          2   -1    0    0  501    0  0.00000000000E+00  0.00000000000E+00  0.68149912006E+03  0.68149912006E+03  0.00000000000E+00 0.  1.
         -2   -1    0    0    0  501 -0.00000000000E+00 -0.00000000000E+00 -0.90245765781E+00  0.90245765781E+00  0.00000000000E+00 0.  1.
          2    1    1    2  502    0  0.23408416392E+02 -0.78304689387E+01  0.30729596831E+03  0.30828571543E+03  0.00000000000E+00 0.  1.
         -2    1    1    2    0  502 -0.23408416392E+02  0.78304689387E+01  0.37330069410E+03  0.37411586229E+03  0.00000000000E+00 0.  1.
</event>
<event>
 4    1  0.3196713E+003  0.4989031E+02  0.7546771E-02  0.1298649E+00
          2   -1    0    0  501    0  0.00000000000E+00  0.00000000000E+00  0.15315813129E+04  0.15315813129E+04  0.00000000000E+00 0. -1.
         -2   -1    0    0    0  501 -0.00000000000E+00 -0.00000000000E+00 -0.11279654905E+03  0.11279654905E+03  0.00000000000E+00 0.  1.
          2    1    1    2  502    0 -0.13259242742E+02  0.48096103313E+02  0.15256368733E+04  0.15264523942E+04  0.00000000000E+00 0. -1.
         -2    1    1    2    0  502  0.13259242742E+02 -0.48096103313E+02 -0.10685210939E+03  0.11792546779E+03  0.00000000000E+00 0.  1.
</event>
<event>
 4    1  0.3196713E+003  0.2518534E+02  0.7546771E-02  0.1466741E+00
          2   -1    0    0  501    0  0.00000000000E+00  0.00000000000E+00  0.52393737209E+01  0.52393737209E+01  0.00000000000E+00 0.  1.
         -2   -1    0    0    0  501 -0.00000000000E+00 -0.00000000000E+00 -0.12295108095E+03  0.12295108095E+03  0.00000000000E+00 0. -1.
          2    1    1    2  502    0  0.22405956395E+02 -0.11501072340E+02 -0.50916032786E+02  0.56804435933E+02  0.00000000000E+00 0.  1.
         -2    1    1    2    0  502 -0.22405956395E+02  0.11501072340E+02 -0.66795674439E+02  0.71386018734E+02  0.00000000000E+00 0. -1.
</event>
<event>
 4    1  0.3196713E+003  0.3236805E+02  0.7546771E-02  0.1400075E+00
          2   -1    0    0  501    0  0.00000000000E+00  0.00000000000E+00  0.31730854454E+02  0.31730854454E+02  0.00000000000E+00 0. -1.
         -2   -1    0    0    0  501 -0.00000000000E+00 -0.00000000000E+00 -0.71403963321E+02  0.71403963321E+02  0.00000000000E+00 0. -1.
          2    1    1    2  502    0  0.93613847949E+01  0.30984760985E+02  0.17972872072E+02  0.37023169355E+02  0.00000000000E+00 0. -1.
         -2    1    1    2    0  502 -0.93613847949E+01 -0.30984760985E+02 -0.57645980938E+02  0.66111648421E+02  0.00000000000E+00 0. -1.
</event>
<event>
 4    1  0.3196713E+003  0.2494224E+02  0.7546771E-02  0.1469451E+00
          2   -1    0    0  501    0  0.00000000000E+00  0.00000000000E+00  0.20716485692E+03  0.20716485692E+03  0.00000000000E+00 0. -1.
         -2   -1    0    0    0  501 -0.00000000000E+00 -0.00000000000E+00 -0.12684154773E+03  0.12684154773E+03  0.00000000000E+00 0.  1.
          2    1    1    2  502    0 -0.24902951735E+02  0.13994764033E+01  0.20517609928E+03  0.20668659186E+03  0.00000000000E+00 0. -1.
         -2    1    1    2    0  502  0.24902951735E+02 -0.13994764033E+01 -0.12485279008E+03  0.12731981279E+03  0.00000000000E+00 0.  1.
</event>
<event>
 4    1  0.3196713E+003  0.2032788E+02  0.7546771E-02  0.1529081E+00
          2   -1    0    0  501    0  0.00000000000E+00  0.00000000000E+00  0.11621231286E+04  0.11621231286E+04  0.00000000000E+00 0. -1.
         -2   -1    0    0    0  501 -0.00000000000E+00 -0.00000000000E+00 -0.20834176716E+01  0.20834176716E+01  0.00000000000E+00 0.  1.
          2    1    1    2  502    0 -0.19160379118E+02 -0.67898818989E+01  0.11101272866E+04  0.11103133859E+04  0.00000000000E+00 0. -1.
         -2    1    1    2    0  502  0.19160379118E+02  0.67898818989E+01  0.49912424315E+02  0.53893160282E+02  0.00000000000E+00 0.  1.
</event>
<event>
 4    1  0.3196713E+003  0.2082242E+02  0.7546771E-02  0.1521815E+00
          2   -1    0    0  501    0  0.00000000000E+00  0.00000000000E+00  0.14074916898E+04  0.14074916898E+04  0.00000000000E+00 0.  1.
         -2   -1    0    0    0  501 -0.00000000000E+00 -0.00000000000E+00 -0.12913072531E+02  0.12913072531E+02  0.00000000000E+00 0. -1.
          2    1    1    2  502    0 -0.16794048048E+02  0.12309885194E+02  0.13989694686E+04  0.13991244217E+04  0.00000000000E+00 0.  1.
         -2    1    1    2    0  502  0.16794048048E+02 -0.12309885194E+02 -0.43908513047E+01  0.21280340657E+02  0.00000000000E+00 0. -1.
</event>
<event>
 4    1  0.3196713E+003  0.3012506E+02  0.7546771E-02  0.1418513E+00
          2   -1    0    0  501    0  0.00000000000E+00  0.00000000000E+00  0.43751121754E+03  0.43751121754E+03  0.00000000000E+00 0.  1.
         -2   -1    0    0    0  501 -0.00000000000E+00 -0.00000000000E+00 -0.23880617566E+01  0.23880617566E+01  0.00000000000E+00 0.  1.
          2    1    1    2  502    0 -0.16933571461E+02  0.24915330056E+02  0.29729057597E+03  0.29881299516E+03  0.00000000000E+00 0.  1.
         -2    1    1    2    0  502  0.16933571461E+02 -0.24915330056E+02  0.13783257981E+03  0.14108628414E+03  0.00000000000E+00 0.  1.
</event>
<event>
 4    1  0.3196713E+003  0.2595383E+02  0.7546771E-02  0.1458410E+00
          2   -1    0    0  501    0  0.00000000000E+00  0.00000000000E+00  0.17634112134E+04  0.17634112134E+04  0.00000000000E+00 0. -1.
         -2   -1    0    0    0  501 -0.00000000000E+00 -0.00000000000E+00 -0.22050978282E+01  0.22050978282E+01  0.00000000000E+00 0.  1.
          2    1    1    2  502    0  0.26774293536E+01  0.25815361751E+02  0.16833133815E+04  0.16835134517E+04  0.00000000000E+00 0. -1.
         -2    1    1    2    0  502 -0.26774293536E+01 -0.25815361751E+02  0.77892734025E+02  0.82102859537E+02  0.00000000000E+00 0.  1.
</event>
<event>
 4    1  0.3196713E+003  0.3563804E+02  0.7546771E-02  0.1376132E+00
          2   -1    0    0  501    0  0.00000000000E+00  0.00000000000E+00  0.11601360651E+04  0.11601360651E+04  0.00000000000E+00 0.  1.
         -2   -1    0    0    0  501 -0.00000000000E+00 -0.00000000000E+00 -0.28494768269E+02  0.28494768269E+02  0.00000000000E+00 0. -1.
          2    1    1    2  502    0 -0.29253989167E+02 -0.20353730445E+02  0.11486075478E+04  0.11491602887E+04  0.00000000000E+00 0.  1.
         -2    1    1    2    0  502  0.29253989167E+02  0.20353730445E+02 -0.16966250975E+02  0.39470544680E+02  0.00000000000E+00 0. -1.
</event>
<event>
 4    1  0.3196713E+003  0.3837672E+02  0.7546771E-02  0.1358270E+00
          2   -1    0    0  501    0  0.00000000000E+00  0.00000000000E+00  0.19872359371E+01  0.19872359371E+01  0.00000000000E+00 0.  1.
         -2   -1    0    0    0  501 -0.00000000000E+00 -0.00000000000E+00 -0.99215423531E+03  0.99215423531E+03  0.00000000000E+00 0.  1.
          2    1    1    2  502    0  0.28223600227E+02 -0.26003861395E+02 -0.24504982311E+03  0.24803666710E+03  0.00000000000E+00 0.  1.
         -2    1    1    2    0  502 -0.28223600227E+02  0.26003861395E+02 -0.74511717627E+03  0.74610480416E+03  0.00000000000E+00 0.  1.
</event>
<event>
 4    1  0.3196713E+003  0.2742400E+02  0.7546771E-02  0.1443395E+00
          2   -1    0    0  501    0  0.00000000000E+00  0.00000000000E+00  0.18097300299E+03  0.18097300299E+03  0.00000000000E+00 0. -1.
         -2   -1    0    0    0  501 -0.00000000000E+00 -0.00000000000E+00 -0.52072055328E+01  0.52072055328E+01  0.00000000000E+00 0. -1.
          2    1    1    2  502    0  0.55311040289E+01 -0.26860432904E+02  0.12971402591E+03  0.13258131273E+03  0.00000000000E+00 0. -1.
         -2    1    1    2    0  502 -0.55311040289E+01  0.26860432904E+02  0.46051771550E+02  0.53598895795E+02  0.00000000000E+00 0. -1.
</event>
<event>
 4    1  0.3196713E+003  0.3053720E+02  0.7546771E-02  0.1414985E+00
          2   -1    0    0  501    0  0.00000000000E+00  0.00000000000E+00  0.10299022764E+04  0.10299022764E+04  0.00000000000E+00 0.  1.
         -2   -1    0    0    0  501 -0.00000000000E+00 -0.00000000000E+00 -0.91298894995E+00  0.91298894995E+00  0.00000000000E+00 0.  1.
          2    1    1    2  502    0  0.30342742013E+02 -0.34406991892E+01  0.56134387525E+03  0.56217387585E+03  0.00000000000E+00 0.  1.
         -2    1    1    2    0  502 -0.30342742013E+02  0.34406991892E+01  0.46764541220E+03  0.46864138950E+03  0.00000000000E+00 0.  1.
</event>
<event>
 4    1  0.3196713E+003  0.3082336E+02  0.7546771E-02  0.1412574E+00
          2   -1    0    0  501    0  0.00000000000E+00  0.00000000000E+00  0.99359682298E+02  0.99359682298E+02  0.00000000000E+00 0. -1.
         -2   -1    0    0    0  501 -0.00000000000E+00 -0.00000000000E+00 -0.28716374786E+02  0.28716374786E+02  0.00000000000E+00 0.  1.
          2    1    1    2  502    0 -0.22027452139E+02  0.21560869000E+02  0.87622276406E+02  0.92885644974E+02  0.00000000000E+00 0. -1.
         -2    1    1    2    0  502  0.22027452139E+02 -0.21560869000E+02 -0.16978968894E+02  0.35190412110E+02  0.00000000000E+00 0.  1.
</event>
<event>
 4    1  0.3196713E+003  0.2122953E+02  0.7546771E-02  0.1516013E+00
          2   -1    0    0  501    0  0.00000000000E+00  0.00000000000E+00  0.12907735258E+04  0.12907735258E+04  0.00000000000E+00 0.  1.
         -2   -1    0    0    0  501 -0.00000000000E+00 -0.00000000000E+00 -0.54848347360E+00  0.54848347360E+00  0.00000000000E+00 0.  1.
          2    1    1    2  502    0  0.13651981154E+02 -0.16257810984E+02  0.10343337345E+04  0.10345515779E+04  0.00000000000E+00 0.  1.
         -2    1    1    2    0  502 -0.13651981154E+02  0.16257810984E+02  0.25589130780E+03  0.25677043135E+03  0.00000000000E+00 0.  1.
</event>
<event>
 4    1  0.3196713E+003  0.2136487E+02  0.7546771E-02  0.1514119E+00
          2   -1    0    0  501    0  0.00000000000E+00  0.00000000000E+00  0.12464112117E+02  0.12464112117E+02  0.00000000000E+00 0. -1.
         -2   -1    0    0    0  501 -0.00000000000E+00 -0.00000000000E+00 -0.37982428774E+03  0.37982428774E+03  0.00000000000E+00 0. -1.
          2    1    1    2  502    0  0.51057836851E+01 -0.20745811346E+02  0.27686053099E+01  0.21543511571E+02  0.00000000000E+00 0. -1.
         -2    1    1    2    0  502 -0.51057836851E+01  0.20745811346E+02 -0.37012878093E+03  0.37074488828E+03  0.00000000000E+00 0. -1.
</event>
<event>
 4    1  0.3196713E+003  0.2133119E+02  0.7546771E-02  0.1514588E+00
          2   -1    0    0  501    0  0.00000000000E+00  0.00000000000E+00  0.94512053841E+02  0.94512053841E+02  0.00000000000E+00 0.  1.
         -2   -1    0    0    0  501 -0.00000000000E+00 -0.00000000000E+00 -0.88757934334E+02  0.88757934334E+02  0.00000000000E+00 0.  1.
          2    1    1    2  502    0 -0.16849347626E+02 -0.13081253869E+02  0.91992173154E+02  0.94432937261E+02  0.00000000000E+00 0.  1.
         -2    1    1    2    0  502  0.16849347626E+02  0.13081253869E+02 -0.86238053647E+02  0.88837050914E+02  0.00000000000E+00 0.  1.
</event>
<event>
 4    1  0.3196713E+003  0.2579278E+02  0.7546771E-02  0.1460127E+00
          2   -1    0    0  501    0  0.00000000000E+00  0.00000000000E+00  0.92524553355E+03  0.92524553355E+03  0.00000000000E+00 0.  1.
         -2   -1    0    0    0  501 -0.00000000000E+00 -0.00000000000E+00 -0.19628580137E+01  0.19628580137E+01  0.00000000000E+00 0. -1.
          2    1    1    2  502    0  0.24538809526E+01  0.25675785882E+02  0.83069141915E+03  0.83109175267E+03  0.00000000000E+00 0.  1.
         -2    1    1    2    0  502 -0.24538809526E+01 -0.25675785882E+02  0.92591256387E+02  0.96116638891E+02  0.00000000000E+00 0. -1.
</event>
<event>
 4    1  0.3196713E+003  0.2045581E+02  0.7546771E-02  0.1527178E+00
          2   -1    0    0  501    0  0.00000000000E+00  0.00000000000E+00  0.18948125931E+03  0.18948125931E+03  0.00000000000E+00 0. -1.
         -2   -1    0    0    0  501 -0.00000000000E+00 -0.00000000000E+00 -0.23782408354E+01  0.23782408354E+01  0.00000000000E+00 0. -1.
          2    1    1    2  502    0 -0.13647174472E+02  0.15237935185E+02  0.11919141583E+03  0.12093400534E+03  0.00000000000E+00 0. -1.
         -2    1    1    2    0  502  0.13647174472E+02 -0.15237935185E+02  0.67911602644E+02  0.70925494806E+02  0.00000000000E+00 0. -1.
</event>
<event>
 4    1  0.3196713E+003  0.2055396E+02  0.7546771E-02  0.1525729E+00
          2   -1    0    0  501    0  0.00000000000E+00  0.00000000000E+00  0.85679051971E+03  0.85679051971E+03  0.00000000000E+00 0.  1.
         -2   -1    0    0    0  501 -0.00000000000E+00 -0.00000000000E+00 -0.49586881446E+00  0.49586881446E+00  0.00000000000E+00 0.  1.
          2    1    1    2  502    0 -0.45949342030E+01  0.20033755583E+02  0.39599166881E+03  0.39652473637E+03  0.00000000000E+00 0.  1.
         -2    1    1    2    0  502  0.45949342030E+01 -0.20033755583E+02  0.46030298209E+03  0.46076165216E+03  0.00000000000E+00 0.  1.
</event>
<event>
 4    1  0.3196713E+003  0.2265934E+02  0.7546771E-02  0.1496821E+00
          2   -1    0    0  501    0  0.00000000000E+00  0.00000000000E+00  0.14206576339E+04  0.14206576339E+04  0.00000000000E+00 0.  1.
         -2   -1    0    0    0  501 -0.00000000000E+00 -0.00000000000E+00 -0.61231350745E+00  0.61231350745E+00  0.00000000000E+00 0.  1.
          2    1    1    2  502    0  0.21579875449E+02 -0.69104861960E+01  0.11649158004E+04  0.11651361585E+04  0.00000000000E+00 0.  1.
         -2    1    1    2    0  502 -0.21579875449E+02  0.69104861960E+01  0.25512952002E+03  0.25613378893E+03  0.00000000000E+00 0.  1.
</event>
<event>
 4    1  0.3196713E+003  0.2749156E+02  0.7546771E-02  0.1442732E+00
          2   -1    0    0  501    0  0.00000000000E+00  0.00000000000E+00  0.53814054239E+03  0.53814054239E+03  0.00000000000E+00 0. -1.
         -2   -1    0    0    0  501 -0.00000000000E+00 -0.00000000000E+00 -0.34256797368E+01  0.34256797368E+01  0.00000000000E+00 0. -1.
          2    1    1    2  502    0 -0.11012617857E+02 -0.25189441803E+02  0.47535448470E+03  0.47614879172E+03  0.00000000000E+00 0. -1.
         -2    1    1    2    0  502  0.11012617857E+02  0.25189441803E+02  0.59360377948E+02  0.65417430403E+02  0.00000000000E+00 0. -1.
</event>
<event>
 4    1  0.3196713E+003  0.2771324E+02  0.7546771E-02  0.1440572E+00
          2   -1    0    0  501    0  0.00000000000E+00  0.00000000000E+00  0.11204549215E+04  0.11204549215E+04  0.00000000000E+00 0. -1.
         -2   -1    0    0    0  501 -0.00000000000E+00 -0.00000000000E+00 -0.40985728569E+02  0.40985728569E+02  0.00000000000E+00 0.  1.
          2    1    1    2  502    0 -0.51695233168E+01 -0.27226816752E+02  0.11155783812E+04  0.11159225547E+04  0.00000000000E+00 0. -1.
         -2    1    1    2    0  502  0.51695233168E+01  0.27226816752E+02 -0.36109188302E+02  0.45518095320E+02  0.00000000000E+00 0.  1.
</event>
<event>
 4    1  0.3196713E+003  0.2088319E+02  0.7546771E-02  0.1520939E+00
          2   -1    0    0  501    0  0.00000000000E+00  0.00000000000E+00  0.44834947269E+03  0.44834947269E+03  0.00000000000E+00 0. -1.
         -2   -1    0    0    0  501 -0.00000000000E+00 -0.00000000000E+00 -0.10595001781E+01  0.10595001781E+01  0.00000000000E+00 0. -1.
          2    1    1    2  502    0  0.12706842757E+02  0.16572378717E+02  0.28796296314E+03  0.28871919875E+03  0.00000000000E+00 0. -1.
         -2    1    1    2    0  502 -0.12706842757E+02 -0.16572378717E+02  0.15932700937E+03  0.16068977411E+03  0.00000000000E+00 0. -1.
</event>
<event>
 4    1  0.3196713E+003  0.2388715E+02  0.7546771E-02  0.1481649E+00
          2   -1    0    0  501    0  0.00000000000E+00  0.00000000000E+00  0.70868307878E+03  0.70868307878E+03  0.00000000000E+00 0.  1.
         -2   -1    0    0    0  501 -0.00000000000E+00 -0.00000000000E+00 -0.97193191175E+00  0.97193191175E+00  0.00000000000E+00 0.  1.
          2    1    1    2  502    0  0.18149174261E+02  0.15530725570E+02  0.50084098441E+03  0.50141029869E+03  0.00000000000E+00 0.  1.
         -2    1    1    2    0  502 -0.18149174261E+02 -0.15530725570E+02  0.20687016246E+03  0.20824471201E+03  0.00000000000E+00 0.  1.
</event>
<event>
 4    1  0.3196713E+003  0.3061205E+02  0.7546771E-02  0.1414351E+00
          2   -1    0    0  501    0  0.00000000000E+00  0.00000000000E+00  0.10714252560E+02  0.10714252560E+02  0.00000000000E+00 0.  1.
         -2   -1    0    0    0  501 -0.00000000000E+00 -0.00000000000E+00 -0.15825135569E+03  0.15825135569E+03  0.00000000000E+00 0.  1.
          2    1    1    2  502    0  0.41915152874E+00 -0.30609180584E+02 -0.17264916858E+02  0.35145056241E+02  0.00000000000E+00 0.  1.
         -2    1    1    2    0  502 -0.41915152874E+00  0.30609180584E+02 -0.13027218627E+03  0.13382055201E+03  0.00000000000E+00 0.  1.
</event>
<event>
 4    1  0.3196713E+003  0.2009572E+02  0.7546771E-02  0.1532578E+00
          2   -1    0    0  501    0  0.00000000000E+00  0.00000000000E+00  0.11225821761E+04  0.11225821761E+04  0.00000000000E+00 0.  1.
         -2   -1    0    0    0  501 -0.00000000000E+00 -0.00000000000E+00 -0.45345117541E+00  0.45345117541E+00  0.00000000000E+00 0. -1.
          2    1    1    2  502    0 -0.14230505586E+02 -0.14189097190E+02  0.81633087725E+03  0.81657818910E+03  0.00000000000E+00 0.  1.
         -2    1    1    2    0  502  0.14230505586E+02  0.14189097190E+02  0.30579784767E+03  0.30645743817E+03  0.00000000000E+00 0. -1.
</event>
<event>
 4    1  0.3196713E+003  0.3042598E+02  0.7546771E-02  0.1415930E+00
          2   -1    0    0  501    0  0.00000000000E+00  0.00000000000E+00  0.14820586440E+04  0.14820586440E+04  0.00000000000E+00 0.  1.
         -2   -1    0    0    0  501 -0.00000000000E+00 -0.00000000000E+00 -0.65272158136E+01  0.65272158136E+01  0.00000000000E+00 0. -1.
          2    1    1    2  502    0  0.27112848779E+02 -0.13807020921E+02  0.14455501529E+04  0.14458703209E+04  0.00000000000E+00 0.  1.
         -2    1    1    2    0  502 -0.27112848779E+02  0.13807020921E+02  0.29981275336E+02  0.42715538934E+02  0.00000000000E+00 0. -1.
</event>
<event>
 4    1  0.3196713E+003  0.2799392E+02  0.7546771E-02  0.1437872E+00
          2   -1    0    0  501    0  0.00000000000E+00  0.00000000000E+00  0.55361071869E+03  0.55361071869E+03  0.00000000000E+00 0. -1.
         -2   -1    0    0    0  501 -0.00000000000E+00 -0.00000000000E+00 -0.28521879216E+02  0.28521879216E+02  0.00000000000E+00 0. -1.
          2    1    1    2  502    0  0.25990039227E+02 -0.10400835206E+02  0.54629598749E+03  0.54701276535E+03  0.00000000000E+00 0. -1.
         -2    1    1    2    0  502 -0.25990039227E+02  0.10400835206E+02 -0.21207148012E+02  0.35119832557E+02  0.00000000000E+00 0. -1.
</event>
<event>
 4    1  0.3196713E+003  0.2361584E+02  0.7546771E-02  0.1484906E+00
          2   -1    0    0  501    0  0.00000000000E+00  0.00000000000E+00  0.24339101783E+04  0.24339101783E+04  0.00000000000E+00 0. -1.
         -2   -1    0    0    0  501 -0.00000000000E+00 -0.00000000000E+00 -0.28074765172E+00  0.28074765172E+00  0.00000000000E+00 0. -1.
          2    1    1    2  502    0 -0.11622975753E+02 -0.20557588932E+02  0.17386343644E+04  0.17387947438E+04  0.00000000000E+00 0. -1.
         -2    1    1    2    0  502  0.11622975753E+02  0.20557588932E+02  0.69499506620E+03  0.69539618209E+03  0.00000000000E+00 0. -1.
</event>
<event>
 4    1  0.3196713E+003  0.2133602E+02  0.7546771E-02  0.1514521E+00
          2   -1    0    0  501    0  0.00000000000E+00  0.00000000000E+00  0.57556549050E+03  0.57556549050E+03  0.00000000000E+00 0.  1.
         -2   -1    0    0    0  501 -0.00000000000E+00 -0.00000000000E+00 -0.13628153984E+02  0.13628153984E+02  0.00000000000E+00 0.  1.
          2    1    1    2  502    0  0.28940906489E+01  0.21138823710E+02  0.56688916452E+03  0.56729053445E+03  0.00000000000E+00 0.  1.
         -2    1    1    2    0  502 -0.28940906489E+01 -0.21138823710E+02 -0.49518280033E+01  0.21903110033E+02  0.00000000000E+00 0.  1.
</event>
<event>
 4    1  0.3196713E+003  0.2049587E+02  0.7546771E-02  0.1526586E+00
          2   -1    0    0  501    0  0.00000000000E+00  0.00000000000E+00  0.77470629254E+01  0.77470629254E+01  0.00000000000E+00 0. -1.
         -2   -1    0    0    0  501 -0.00000000000E+00 -0.00000000000E+00 -0.61876598384E+02  0.61876598384E+02  0.00000000000E+00 0.  1.
          2    1    1    2  502    0  0.33207532902E+01 -0.20225063924E+02 -0.14822724154E+02  0.25294144866E+02  0.00000000000E+00 0. -1.
         -2    1    1    2    0  502 -0.33207532902E+01  0.20225063924E+02 -0.39306811304E+02  0.44329516443E+02  0.00000000000E+00 0.  1.
</event>
<event>
 4    1  0.3196713E+003  0.2413468E+02  0.7546771E-02  0.1478721E+00
          2   -1    0    0  501    0  0.00000000000E+00  0.00000000000E+00  0.68191524988E+03  0.68191524988E+03  0.00000000000E+00 0.  1.
         -2   -1    0    0    0  501 -0.00000000000E+00 -0.00000000000E+00 -0.14659572084E+01  0.14659572084E+01  0.00000000000E+00 0.  1.
          2    1    1    2  502    0  0.21923357935E+02 -0.10092044396E+02  0.56095732505E+03  0.56147627154E+03  0.00000000000E+00 0.  1.
         -2    1    1    2    0  502 -0.21923357935E+02  0.10092044396E+02  0.11949196762E+03  0.12190493554E+03  0.00000000000E+00 0.  1.
</event>
<event>
 4    1  0.3196713E+003  0.5316836E+02  0.7546771E-02  0.1284990E+00
          2   -1    0    0  501    0  0.00000000000E+00  0.00000000000E+00  0.10963877316E+04  0.10963877316E+04  0.00000000000E+00 0.  1.
         -2   -1    0    0    0  501 -0.00000000000E+00 -0.00000000000E+00 -0.90041865282E+02  0.90041865282E+02  0.00000000000E+00 0. -1.
          2    1    1    2  502    0 -0.53113685754E+02  0.24106813502E+01  0.10878326753E+04  0.10891312154E+04  0.00000000000E+00 0.  1.
         -2    1    1    2    0  502  0.53113685754E+02 -0.24106813502E+01 -0.81486808964E+02  0.97298381457E+02  0.00000000000E+00 0. -1.
</event>
<event>
 4    1  0.3196713E+003  0.2428671E+02  0.7546771E-02  0.1476943E+00
          2   -1    0    0  501    0  0.00000000000E+00  0.00000000000E+00  0.16918076092E+03  0.16918076092E+03  0.00000000000E+00 0. -1.
         -2   -1    0    0    0  501 -0.00000000000E+00 -0.00000000000E+00 -0.55910040236E+01  0.55910040236E+01  0.00000000000E+00 0. -1.
          2    1    1    2  502    0 -0.21129290574E+02  0.11974848103E+02  0.28181374571E+02  0.37202604478E+02  0.00000000000E+00 0. -1.
         -2    1    1    2    0  502  0.21129290574E+02 -0.11974848103E+02  0.13540838232E+03  0.13756916047E+03  0.00000000000E+00 0. -1.
</event>
<event>
 4    1  0.3196713E+003  0.2388840E+02  0.7546771E-02  0.1481634E+00
          2   -1    0    0  501    0  0.00000000000E+00  0.00000000000E+00  0.72283028034E+03  0.72283028034E+03  0.00000000000E+00 0. -1.
         -2   -1    0    0    0  501 -0.00000000000E+00 -0.00000000000E+00 -0.15205811574E+04  0.15205811574E+04  0.00000000000E+00 0.  1.
          2    1    1    2  502    0 -0.12357173952E+02  0.20443970056E+02  0.72253905209E+03  0.72293384030E+03  0.00000000000E+00 0. -1.
         -2    1    1    2    0  502  0.12357173952E+02 -0.20443970056E+02 -0.15202899291E+04  0.15204775974E+04  0.00000000000E+00 0.  1.
</event>
<event>
 4    1  0.3196713E+003  0.2293077E+02  0.7546771E-02  0.1493369E+00
          2   -1    0    0  501    0  0.00000000000E+00  0.00000000000E+00  0.25992545350E+02  0.25992545350E+02  0.00000000000E+00 0.  1.
         -2   -1    0    0    0  501 -0.00000000000E+00 -0.00000000000E+00 -0.25677764429E+02  0.25677764429E+02  0.00000000000E+00 0. -1.
          2    1    1    2  502    0 -0.18626943763E+02 -0.13373743268E+02  0.12057628666E+02  0.25907652383E+02  0.00000000000E+00 0.  1.
         -2    1    1    2    0  502  0.18626943763E+02  0.13373743268E+02 -0.11742847745E+02  0.25762657396E+02  0.00000000000E+00 0. -1.
</event>
<event>
 4    1  0.3196713E+003  0.2697614E+02  0.7546771E-02  0.1447848E+00
          2   -1    0    0  501    0  0.00000000000E+00  0.00000000000E+00  0.13867652912E+03  0.13867652912E+03  0.00000000000E+00 0. -1.
         -2   -1    0    0    0  501 -0.00000000000E+00 -0.00000000000E+00 -0.54479309599E+01  0.54479309599E+01  0.00000000000E+00 0. -1.
          2    1    1    2  502    0 -0.26306239106E+02 -0.59744586550E+01  0.80434596126E+02  0.84837707572E+02  0.00000000000E+00 0. -1.
         -2    1    1    2    0  502  0.26306239106E+02  0.59744586550E+01  0.52794002030E+02  0.59286752504E+02  0.00000000000E+00 0. -1.
</event>
<event>
 4    1  0.3196713E+003  0.2958432E+02  0.7546771E-02  0.1423244E+00
          2   -1    0    0  501    0  0.00000000000E+00  0.00000000000E+00  0.37084334715E+02  0.37084334715E+02  0.00000000000E+00 0. -1.
         -2   -1    0    0    0  501 -0.00000000000E+00 -0.00000000000E+00 -0.14679695689E+03  0.14679695689E+03  0.00000000000E+00 0. -1.
          2    1    1    2  502    0  0.25415513483E+02 -0.15142115789E+02  0.29369854915E+02  0.41687172774E+02  0.00000000000E+00 0. -1.
         -2    1    1    2    0  502 -0.25415513483E+02  0.15142115789E+02 -0.13908247709E+03  0.14219411883E+03  0.00000000000E+00 0. -1.
</event>
<event>
 4    1  0.3196713E+003  0.2308723E+02  0.7546771E-02  0.1491406E+00
          2   -1    0    0  501    0  0.00000000000E+00  0.00000000000E+00  0.16008906339E+04  0.16008906339E+04  0.00000000000E+00 0.  1.
         -2   -1    0    0    0  501 -0.00000000000E+00 -0.00000000000E+00 -0.36794941032E+00  0.36794941032E+00  0.00000000000E+00 0. -1.
          2    1    1    2  502    0 -0.22318523532E+02  0.59079343217E+01  0.10471798594E+04  0.10474343311E+04  0.00000000000E+00 0.  1.
         -2    1    1    2    0  502  0.22318523532E+02 -0.59079343217E+01  0.55334282515E+03  0.55382425220E+03  0.00000000000E+00 0. -1.
</event>
<event>
 4    1  0.3196713E+003  0.2543049E+02  0.7546771E-02  0.1464045E+00
          2   -1    0    0  501    0  0.00000000000E+00  0.00000000000E+00  0.59453228729E+03  0.59453228729E+03  0.00000000000E+00 0. -1.
         -2   -1    0    0    0  501 -0.00000000000E+00 -0.00000000000E+00 -0.11944902103E+01  0.11944902103E+01  0.00000000000E+00 0.  1.
          2    1    1    2  502    0  0.16059023635E+02  0.19718439266E+02  0.20763255850E+03  0.20918410178E+03  0.00000000000E+00 0.  1.
         -2    1    1    2    0  502 -0.16059023635E+02 -0.19718439266E+02  0.38570523858E+03  0.38654267572E+03  0.00000000000E+00 0. -1.
</event>
<event>
 4    1  0.3196713E+003  0.2241105E+02  0.7546771E-02  0.1500029E+00
          2   -1    0    0  501    0  0.00000000000E+00  0.00000000000E+00  0.15557733593E+04  0.15557733593E+04  0.00000000000E+00 0.  1.
         -2   -1    0    0    0  501 -0.00000000000E+00 -0.00000000000E+00 -0.32871040483E+01  0.32871040483E+01  0.00000000000E+00 0.  1.
          2    1    1    2  502    0  0.20880899213E+02  0.81389897019E+01  0.15165046692E+04  0.15166702565E+04  0.00000000000E+00 0.  1.
         -2    1    1    2    0  502 -0.20880899213E+02 -0.81389897019E+01  0.35981586014E+02  0.42390206858E+02  0.00000000000E+00 0.  1.
</event>
<event>
 4    1  0.3196713E+003  0.2039269E+02  0.7546771E-02  0.1528115E+00
          2   -1    0    0  501    0  0.00000000000E+00  0.00000000000E+00  0.49647272246E+01  0.49647272246E+01  0.00000000000E+00 0.  1.
         -2   -1    0    0    0  501 -0.00000000000E+00 -0.00000000000E+00 -0.13826490031E+03  0.13826490031E+03  0.00000000000E+00 0.  1.
          2    1    1    2  502    0  0.17719050060E+02  0.10094400409E+02 -0.21687452305E+02  0.29769233146E+02  0.00000000000E+00 0.  1.
         -2    1    1    2    0  502 -0.17719050060E+02 -0.10094400409E+02 -0.11161272078E+03  0.11346039439E+03  0.00000000000E+00 0.  1.
</event>
<event>
 4    1  0.3196713E+003  0.7086347E+02  0.7546771E-02  0.1226811E+00
          2   -1    0    0  501    0  0.00000000000E+00  0.00000000000E+00  0.21988370781E+04  0.21988370781E+04  0.00000000000E+00 0. -1.
         -2   -1    0    0    0  501 -0.00000000000E+00 -0.00000000000E+00 -0.52281584107E+01  0.52281584107E+01  0.00000000000E+00 0.  1.
          2    1    1    2  502    0  0.12540118120E+02 -0.69745081359E+02  0.19238280012E+04  0.19251326731E+04  0.00000000000E+00 0. -1.
         -2    1    1    2    0  502 -0.12540118120E+02  0.69745081359E+02  0.26978091853E+03  0.27893256343E+03  0.00000000000E+00 0.  1.
</event>
<event>
 4    1  0.3196713E+003  0.6533932E+02  0.7546771E-02  0.1242696E+00
          2   -1    0    0  501    0  0.00000000000E+00  0.00000000000E+00  0.91195211241E+03  0.91195211241E+03  0.00000000000E+00 0.  1.
         -2   -1    0    0    0  501 -0.00000000000E+00 -0.00000000000E+00 -0.50227035307E+01  0.50227035307E+01  0.00000000000E+00 0. -1.
          2    1    1    2  502    0  0.16123708871E+02 -0.63318655865E+02  0.57297892349E+03  0.57669235554E+03  0.00000000000E+00 0.  1.
         -2    1    1    2    0  502 -0.16123708871E+02  0.63318655865E+02  0.33395048539E+03  0.34028246040E+03  0.00000000000E+00 0. -1.
</event>
<event>
 4    1  0.3196713E+003  0.2093975E+02  0.7546771E-02  0.1520127E+00
          2   -1    0    0  501    0  0.00000000000E+00  0.00000000000E+00  0.64009576664E+02  0.64009576664E+02  0.00000000000E+00 0. -1.
         -2   -1    0    0    0  501 -0.00000000000E+00 -0.00000000000E+00 -0.18312314287E+02  0.18312314287E+02  0.00000000000E+00 0. -1.
          2    1    1    2  502    0 -0.12224984218E+02 -0.17000675767E+02  0.55413372127E+02  0.59237783771E+02  0.00000000000E+00 0. -1.
         -2    1    1    2    0  502  0.12224984218E+02  0.17000675767E+02 -0.97161097489E+01  0.23084107180E+02  0.00000000000E+00 0. -1.
</event>
<event>
 4    1  0.3196713E+003  0.2394797E+02  0.7546771E-02  0.1480926E+00
          2   -1    0    0  501    0  0.00000000000E+00  0.00000000000E+00  0.34654960447E+03  0.34654960447E+03  0.00000000000E+00 0. -1.
         -2   -1    0    0    0  501 -0.00000000000E+00 -0.00000000000E+00 -0.74917093398E+01  0.74917093398E+01  0.00000000000E+00 0. -1.
          2    1    1    2  502    0  0.22432297602E+02  0.83843589275E+01  0.32577936533E+03  0.32665838475E+03  0.00000000000E+00 0. -1.
         -2    1    1    2    0  502 -0.22432297602E+02 -0.83843589275E+01  0.13278529795E+02  0.27382929059E+02  0.00000000000E+00 0. -1.
</event>
<event>
 4    1  0.3196713E+003  0.2208872E+02  0.7546771E-02  0.1504270E+00
          2   -1    0    0  501    0  0.00000000000E+00  0.00000000000E+00  0.32053960107E+02  0.32053960107E+02  0.00000000000E+00 0. -1.
         -2   -1    0    0    0  501 -0.00000000000E+00 -0.00000000000E+00 -0.36495685987E+02  0.36495685987E+02  0.00000000000E+00 0.  1.
          2    1    1    2  502    0 -0.20849707823E+02 -0.72939114323E+01  0.23947723316E+02  0.32579209817E+02  0.00000000000E+00 0. -1.
         -2    1    1    2    0  502  0.20849707823E+02  0.72939114323E+01 -0.28389449196E+02  0.35970436276E+02  0.00000000000E+00 0.  1.
</event>
<event>
 4    1  0.3196713E+003  0.4975826E+02  0.7546771E-02  0.1299224E+00
          2   -1    0    0  501    0  0.00000000000E+00  0.00000000000E+00  0.11568206410E+04  0.11568206410E+04  0.00000000000E+00 0. -1.
         -2   -1    0    0    0  501 -0.00000000000E+00 -0.00000000000E+00 -0.20940160739E+02  0.20940160739E+02  0.00000000000E+00 0.  1.
          2    1    1    2  502    0  0.69856665408E+01 -0.49265454102E+02  0.11259155694E+04  0.11270145314E+04  0.00000000000E+00 0. -1.
         -2    1    1    2    0  502 -0.69856665408E+01  0.49265454102E+02  0.99649108261E+01  0.50746270332E+02  0.00000000000E+00 0.  1.
</event>
<event>
 4    1  0.3196713E+003  0.5526749E+02  0.7546771E-02  0.1276819E+00
          2   -1    0    0  501    0  0.00000000000E+00  0.00000000000E+00  0.83389972498E+03  0.83389972498E+03  0.00000000000E+00 0. -1.
         -2   -1    0    0    0  501 -0.00000000000E+00 -0.00000000000E+00 -0.10174303465E+03  0.10174303465E+03  0.00000000000E+00 0. -1.
          2    1    1    2  502    0  0.18345823009E+02  0.52133734341E+02  0.82540139270E+03  0.82724963255E+03  0.00000000000E+00 0. -1.
         -2    1    1    2    0  502 -0.18345823009E+02 -0.52133734341E+02 -0.93244702372E+02  0.10839312708E+03  0.00000000000E+00 0. -1.
</event>
<event>
 4    1  0.3196713E+003  0.3800329E+02  0.7546771E-02  0.1360601E+00
          2   -1    0    0  501    0  0.00000000000E+00  0.00000000000E+00  0.18922314364E+03  0.18922314364E+03  0.00000000000E+00 0.  1.
         -2   -1    0    0    0  501 -0.00000000000E+00 -0.00000000000E+00 -0.17663671567E+02  0.17663671567E+02  0.00000000000E+00 0.  1.
          2    1    1    2  502    0  0.34399046828E+02 -0.16154113093E+02  0.16373360641E+03  0.16808611978E+03  0.00000000000E+00 0.  1.
         -2    1    1    2    0  502 -0.34399046828E+02  0.16154113093E+02  0.78258656590E+01  0.38800695430E+02  0.00000000000E+00 0.  1.
</event>
<event>
 4    1  0.3196713E+003  0.3199665E+02  0.7546771E-02  0.1403004E+00
          2   -1    0    0  501    0  0.00000000000E+00  0.00000000000E+00  0.23022015568E+04  0.23022015568E+04  0.00000000000E+00 0.  1.
         -2   -1    0    0    0  501 -0.00000000000E+00 -0.00000000000E+00 -0.14359311542E+01  0.14359311542E+01  0.00000000000E+00 0. -1.
          2    1    1    2  502    0  0.26739160557E+02 -0.17572792028E+02  0.21073677869E+04  0.21076106791E+04  0.00000000000E+00 0.  1.
         -2    1    1    2    0  502 -0.26739160557E+02  0.17572792028E+02  0.19339783875E+03  0.19602680878E+03  0.00000000000E+00 0. -1.
</event>
<event>
 4    1  0.3196713E+003  0.5805951E+02  0.7546771E-02  0.1266572E+00
          2   -1    0    0  501    0  0.00000000000E+00  0.00000000000E+00  0.13940564365E+04  0.13940564365E+04  0.00000000000E+00 0.  1.
         -2   -1    0    0    0  501 -0.00000000000E+00 -0.00000000000E+00 -0.68295137814E+01  0.68295137814E+01  0.00000000000E+00 0.  1.
          2    1    1    2  502    0 -0.19820065934E+02  0.54571709632E+02  0.12565623365E+04  0.12579029422E+04  0.00000000000E+00 0.  1.
         -2    1    1    2    0  502  0.19820065934E+02 -0.54571709632E+02  0.13066458621E+03  0.14298300806E+03  0.00000000000E+00 0.  1.
</event>
<event>
 4    1  0.3196713E+003  0.2417744E+02  0.7546771E-02  0.1478220E+00
          2   -1    0    0  501    0  0.00000000000E+00  0.00000000000E+00  0.10389297306E+04  0.10389297306E+04  0.00000000000E+00 0.  1.
         -2   -1    0    0    0  501 -0.00000000000E+00 -0.00000000000E+00 -0.35774712055E+01  0.35774712055E+01  0.00000000000E+00 0.  1.
          2    1    1    2  502    0 -0.19655112990E+02  0.14079241083E+02  0.99618737013E+03  0.99648071979E+03  0.00000000000E+00 0.  1.
         -2    1    1    2    0  502  0.19655112990E+02 -0.14079241083E+02  0.39164889267E+02  0.46026482024E+02  0.00000000000E+00 0.  1.
</event>
<event>
 4    1  0.3196713E+003  0.2416148E+02  0.7546771E-02  0.1478407E+00
          2   -1    0    0  501    0  0.00000000000E+00  0.00000000000E+00  0.35358132696E+03  0.35358132696E+03  0.00000000000E+00 0. -1.
         -2   -1    0    0    0  501 -0.00000000000E+00 -0.00000000000E+00 -0.97294346205E+02  0.97294346205E+02  0.00000000000E+00 0. -1.
          2    1    1    2  502    0  0.12474420747E+02  0.20692170237E+02  0.35166035418E+03  0.35248940663E+03  0.00000000000E+00 0. -1.
         -2    1    1    2    0  502 -0.12474420747E+02 -0.20692170237E+02 -0.95373373432E+02  0.98386266531E+02  0.00000000000E+00 0. -1.
</event>
<event>
 4    1  0.3196713E+003  0.2355938E+02  0.7546771E-02  0.1485591E+00
          2   -1    0    0  501    0  0.00000000000E+00  0.00000000000E+00  0.12584209476E+03  0.12584209476E+03  0.00000000000E+00 0.  1.
         -2   -1    0    0    0  501 -0.00000000000E+00 -0.00000000000E+00 -0.20576581450E+03  0.20576581450E+03  0.00000000000E+00 0.  1.
          2    1    1    2  502    0 -0.22082291999E+02  0.82107631534E+01  0.12405544440E+03  0.12627271097E+03  0.00000000000E+00 0.  1.
         -2    1    1    2    0  502  0.22082291999E+02 -0.82107631534E+01 -0.20397916415E+03  0.20533519829E+03  0.00000000000E+00 0.  1.
</event>
<event>
 4    1  0.3196713E+003  0.2574023E+02  0.7546771E-02  0.1460690E+00
          2   -1    0    0  501    0  0.00000000000E+00  0.00000000000E+00  0.76718029239E+02  0.76718029239E+02  0.00000000000E+00 0. -1.
         -2   -1    0    0    0  501 -0.00000000000E+00 -0.00000000000E+00 -0.12320209140E+03  0.12320209140E+03  0.00000000000E+00 0. -1.
          2    1    1    2  502    0  0.19215437297E+02  0.17126768756E+02  0.73150851073E+02  0.77547445163E+02  0.00000000000E+00 0. -1.
         -2    1    1    2    0  502 -0.19215437297E+02 -0.17126768756E+02 -0.11963491324E+03  0.12237267548E+03  0.00000000000E+00 0. -1.
</event>
<event>
 4    1  0.3196713E+003  0.2715204E+02  0.7546771E-02  0.1446087E+00
          2   -1    0    0  501    0  0.00000000000E+00  0.00000000000E+00  0.65969587626E+03  0.65969587626E+03  0.00000000000E+00 0. -1.
         -2   -1    0    0    0  501 -0.00000000000E+00 -0.00000000000E+00 -0.12853277882E+02  0.12853277882E+02  0.00000000000E+00 0.  1.
          2    1    1    2  502    0 -0.24418935573E-01 -0.27152028818E+02  0.64474471773E+03  0.64531618940E+03  0.00000000000E+00 0. -1.
         -2    1    1    2    0  502  0.24418935573E-01  0.27152028818E+02  0.20978806489E+01  0.27232964739E+02  0.00000000000E+00 0.  1.
</event>
<event>
 4    1  0.3196713E+003  0.2571714E+02  0.7546771E-02  0.1460938E+00
          2   -1    0    0  501    0  0.00000000000E+00  0.00000000000E+00  0.13918001877E+04  0.13918001877E+04  0.00000000000E+00 0.  1.
         -2   -1    0    0    0  501 -0.00000000000E+00 -0.00000000000E+00 -0.16097194970E+02  0.16097194970E+02  0.00000000000E+00 0. -1.
          2    1    1    2  502    0  0.25595506517E+02 -0.24982388323E+01  0.13813320280E+04  0.13815714034E+04  0.00000000000E+00 0.  1.
         -2    1    1    2    0  502 -0.25595506517E+02  0.24982388323E+01 -0.56290351865E+01  0.26325979341E+02  0.00000000000E+00 0. -1.
</event>
<event>
 4    1  0.3196713E+003  0.2776161E+02  0.7546771E-02  0.1440104E+00
          2   -1    0    0  501    0  0.00000000000E+00  0.00000000000E+00  0.97665218610E+03  0.97665218610E+03  0.00000000000E+00 0.  1.
         -2   -1    0    0    0  501 -0.00000000000E+00 -0.00000000000E+00 -0.26253624347E+01  0.26253624347E+01  0.00000000000E+00 0. -1.
          2    1    1    2  502    0 -0.34589236705E+01  0.27545289893E+02  0.89650482674E+03  0.89693456368E+03  0.00000000000E+00 0.  1.
         -2    1    1    2    0  502  0.34589236705E+01 -0.27545289893E+02  0.77521996928E+02  0.82342984862E+02  0.00000000000E+00 0. -1.
</event>
<event>
 4    1  0.3196713E+003  0.4060686E+02  0.7546771E-02  0.1344966E+00
          2   -1    0    0  501    0  0.00000000000E+00  0.00000000000E+00  0.25677086161E+03  0.25677086161E+03  0.00000000000E+00 0. -1.
         -2   -1    0    0    0  501 -0.00000000000E+00 -0.00000000000E+00 -0.19547454239E+03  0.19547454239E+03  0.00000000000E+00 0. -1.
          2    1    1    2  502    0  0.11810475607E+02  0.38851376304E+02  0.25302554451E+03  0.25626322980E+03  0.00000000000E+00 0. -1.
         -2    1    1    2    0  502 -0.11810475607E+02 -0.38851376304E+02 -0.19172922529E+03  0.19598217420E+03  0.00000000000E+00 0. -1.
</event>
<event>
 4    1  0.3196713E+003  0.2011518E+02  0.7546771E-02  0.1532282E+00
          2   -1    0    0  501    0  0.00000000000E+00  0.00000000000E+00  0.11673276604E+04  0.11673276604E+04  0.00000000000E+00 0. -1.
         -2   -1    0    0    0  501 -0.00000000000E+00 -0.00000000000E+00 -0.39429929747E+00  0.39429929747E+00  0.00000000000E+00 0. -1.
          2    1    1    2  502    0  0.10357662471E+02 -0.17243524504E+02  0.78649504196E+03  0.78675222995E+03  0.00000000000E+00 0. -1.
         -2    1    1    2    0  502 -0.10357662471E+02  0.17243524504E+02  0.38043831917E+03  0.38096972977E+03  0.00000000000E+00 0. -1.
</event>
<event>
 4    1  0.3196713E+003  0.5039748E+02  0.7546771E-02  0.1296458E+00
          2   -1    0    0  501    0  0.00000000000E+00  0.00000000000E+00  0.19638861399E+04  0.19638861399E+04  0.00000000000E+00 0.  1.
         -2   -1    0    0    0  501 -0.00000000000E+00 -0.00000000000E+00 -0.82973539005E+01  0.82973539005E+01  0.00000000000E+00 0.  1.
          2    1    1    2  502    0  0.45144710247E+02  0.22402251206E+02  0.18837816116E+04  0.18844556418E+04  0.00000000000E+00 0.  1.
         -2    1    1    2    0  502 -0.45144710247E+02 -0.22402251206E+02  0.71807174451E+02  0.87727852048E+02  0.00000000000E+00 0.  1.
</event>
<event>
 4    1  0.3196713E+003  0.2127791E+02  0.7546771E-02  0.1515334E+00
          2   -1    0    0  501    0  0.00000000000E+00  0.00000000000E+00  0.16940233428E+02  0.16940233428E+02  0.00000000000E+00 0. -1.
         -2   -1    0    0    0  501 -0.00000000000E+00 -0.00000000000E+00 -0.25831183597E+03  0.25831183597E+03  0.00000000000E+00 0. -1.
          2    1    1    2  502    0  0.21160669272E+02  0.22305961423E+01  0.96261281416E+01  0.23354053742E+02  0.00000000000E+00 0. -1.
         -2    1    1    2    0  502 -0.21160669272E+02 -0.22305961423E+01 -0.25099773068E+03  0.25189801566E+03  0.00000000000E+00 0. -1.
</event>
<event>
 4    1  0.3196713E+003  0.1676428E+03  0.7546771E-02  0.1080792E+00
          2   -1    0    0  501    0  0.00000000000E+00  0.00000000000E+00  0.24453671903E+04  0.24453671903E+04  0.00000000000E+00 0.  1.
         -2   -1    0    0    0  501 -0.00000000000E+00 -0.00000000000E+00 -0.14032617695E+02  0.14032617695E+02  0.00000000000E+00 0.  1.
          2    1    1    2  502    0 -0.16757635297E+03  0.47210104644E+01  0.17388228593E+04  0.17468855309E+04  0.00000000000E+00 0.  1.
         -2    1    1    2    0  502  0.16757635297E+03 -0.47210104644E+01  0.69251171332E+03  0.71251427712E+03  0.00000000000E+00 0.  1.
</event>
<event>
 4    1  0.3196713E+003  0.2393828E+02  0.7546771E-02  0.1481041E+00
          2   -1    0    0  501    0  0.00000000000E+00  0.00000000000E+00  0.26025326390E+03  0.26025326390E+03  0.00000000000E+00 0.  1.
         -2   -1    0    0    0  501 -0.00000000000E+00 -0.00000000000E+00 -0.50344154074E+02  0.50344154074E+02  0.00000000000E+00 0. -1.
          2    1    1    2  502    0 -0.23865111158E+02 -0.18702404863E+01  0.25681921095E+03  0.25793244938E+03  0.00000000000E+00 0.  1.
         -2    1    1    2    0  502  0.23865111158E+02  0.18702404863E+01 -0.46910101121E+02  0.52664968597E+02  0.00000000000E+00 0. -1.
</event>
<event>
 4    1  0.3196713E+003  0.3414450E+02  0.7546771E-02  0.1386679E+00
          2   -1    0    0  501    0  0.00000000000E+00  0.00000000000E+00  0.51544370191E+01  0.51544370191E+01  0.00000000000E+00 0.  1.
         -2   -1    0    0    0  501 -0.00000000000E+00 -0.00000000000E+00 -0.25133585792E+03  0.25133585792E+03  0.00000000000E+00 0.  1.
          2    1    1    2  502    0 -0.96860121749E+01  0.32741841951E+02 -0.82520647793E+02  0.89305679318E+02  0.00000000000E+00 0.  1.
         -2    1    1    2    0  502  0.96860121749E+01 -0.32741841951E+02 -0.16366077311E+03  0.16718461562E+03  0.00000000000E+00 0.  1.
</event>
<event>
 4    1  0.3196713E+003  0.2034788E+02  0.7546771E-02  0.1528782E+00
          2   -1    0    0  501    0  0.00000000000E+00  0.00000000000E+00  0.59404941094E+03  0.59404941094E+03  0.00000000000E+00 0. -1.
         -2   -1    0    0    0  501 -0.00000000000E+00 -0.00000000000E+00 -0.22169314614E+01  0.22169314614E+01  0.00000000000E+00 0.  1.
          2    1    1    2  502    0  0.78776617344E+01 -0.18761097281E+02  0.54277585279E+03  0.54315712523E+03  0.00000000000E+00 0. -1.
         -2    1    1    2    0  502 -0.78776617344E+01  0.18761097281E+02  0.49056626689E+02  0.53109217163E+02  0.00000000000E+00 0.  1.
</event>
<event>
 4    1  0.3196713E+003  0.3757255E+02  0.7546771E-02  0.1363329E+00
          2   -1    0    0  501    0  0.00000000000E+00  0.00000000000E+00  0.44181682372E+02  0.44181682372E+02  0.00000000000E+00 0.  1.
         -2   -1    0    0    0  501 -0.00000000000E+00 -0.00000000000E+00 -0.37972445907E+02  0.37972445907E+02  0.00000000000E+00 0. -1.
          2    1    1    2  502    0 -0.35962061621E+02  0.10882405773E+02  0.19460598157E+02  0.42313254567E+02  0.00000000000E+00 0.  1.
         -2    1    1    2    0  502  0.35962061621E+02 -0.10882405773E+02 -0.13251361692E+02  0.39840873712E+02  0.00000000000E+00 0. -1.
</event>
<event>
 4    1  0.3196713E+003  0.2324189E+02  0.7546771E-02  0.1489483E+00
          2   -1    0    0  501    0  0.00000000000E+00  0.00000000000E+00  0.64444563242E+02  0.64444563242E+02  0.00000000000E+00 0.  1.
         -2   -1    0    0    0  501 -0.00000000000E+00 -0.00000000000E+00 -0.40140612865E+02  0.40140612865E+02  0.00000000000E+00 0.  1.
          2    1    1    2  502    0  0.98695710877E+01  0.21042264836E+02  0.58665337124E+02  0.63101561967E+02  0.00000000000E+00 0.  1.
         -2    1    1    2    0  502 -0.98695710877E+01 -0.21042264836E+02 -0.34361386747E+02  0.41483614140E+02  0.00000000000E+00 0.  1.
</event>
<event>
 4    1  0.3196713E+003  0.5462611E+02  0.7546771E-02  0.1279272E+00
          2   -1    0    0  501    0  0.00000000000E+00  0.00000000000E+00  0.15222117378E+04  0.15222117378E+04  0.00000000000E+00 0. -1.
         -2   -1    0    0    0  501 -0.00000000000E+00 -0.00000000000E+00 -0.58597924677E+01  0.58597924677E+01  0.00000000000E+00 0. -1.
          2    1    1    2  502    0  0.32196675483E+02  0.44129199892E+02  0.13814454557E+04  0.13825250664E+04  0.00000000000E+00 0. -1.
         -2    1    1    2    0  502 -0.32196675483E+02 -0.44129199892E+02  0.13490648966E+03  0.14554646388E+03  0.00000000000E+00 0. -1.
</event>
<event>
 4    1  0.3196713E+003  0.4050850E+02  0.7546771E-02  0.1345532E+00
          2   -1    0    0  501    0  0.00000000000E+00  0.00000000000E+00  0.10933095082E+04  0.10933095082E+04  0.00000000000E+00 0. -1.
         -2   -1    0    0    0  501 -0.00000000000E+00 -0.00000000000E+00 -0.33973188808E+01  0.33973188808E+01  0.00000000000E+00 0. -1.
          2    1    1    2  502    0 -0.22343489561E+02  0.33789149961E+02  0.95465101922E+03  0.95551007670E+03  0.00000000000E+00 0. -1.
         -2    1    1    2    0  502  0.22343489561E+02 -0.33789149961E+02  0.13526117009E+03  0.14119675037E+03  0.00000000000E+00 0. -1.
</event>
<event>
 4    1  0.3196713E+003  0.3149200E+02  0.7546771E-02  0.1407059E+00
          2   -1    0    0  501    0  0.00000000000E+00  0.00000000000E+00  0.19878264538E+02  0.19878264538E+02  0.00000000000E+00 0. -1.
         -2   -1    0    0    0  501 -0.00000000000E+00 -0.00000000000E+00 -0.57065570269E+02  0.57065570269E+02  0.00000000000E+00 0.  1.
          2    1    1    2  502    0  0.29645934293E+02 -0.10623766650E+02 -0.49523547604E+01  0.31879015913E+02  0.00000000000E+00 0. -1.
         -2    1    1    2    0  502 -0.29645934293E+02  0.10623766650E+02 -0.32234950970E+02  0.45064818894E+02  0.00000000000E+00 0.  1.
</event>
<event>
 4    1  0.3196713E+003  0.2145146E+02  0.7546771E-02  0.1512916E+00
          2   -1    0    0  501    0  0.00000000000E+00  0.00000000000E+00  0.37887703062E+03  0.37887703062E+03  0.00000000000E+00 0.  1.
         -2   -1    0    0    0  501 -0.00000000000E+00 -0.00000000000E+00 -0.74450943451E+02  0.74450943451E+02  0.00000000000E+00 0.  1.
          2    1    1    2  502    0 -0.17072733014E+02 -0.12987951479E+02  0.37702059513E+03  0.37763036722E+03  0.00000000000E+00 0.  1.
         -2    1    1    2    0  502  0.17072733014E+02  0.12987951479E+02 -0.72594507962E+02  0.75697606847E+02  0.00000000000E+00 0.  1.
</event>
<event>
 4    1  0.3196713E+003  0.2766735E+02  0.7546771E-02  0.1441017E+00
          2   -1    0    0  501    0  0.00000000000E+00  0.00000000000E+00  0.58659439076E+03  0.58659439076E+03  0.00000000000E+00 0.  1.
         -2   -1    0    0    0  501 -0.00000000000E+00 -0.00000000000E+00 -0.13126910319E+01  0.13126910319E+01  0.00000000000E+00 0.  1.
          2    1    1    2  502    0  0.28511249680E+01 -0.27520056954E+02  0.31519908153E+03  0.31641103560E+03  0.00000000000E+00 0.  1.
         -2    1    1    2    0  502 -0.28511249680E+01  0.27520056954E+02  0.27008261819E+03  0.27149604619E+03  0.00000000000E+00 0.  1.
</event>
<event>
 4    1  0.3196713E+003  0.2321762E+02  0.7546771E-02  0.1489783E+00
          2   -1    0    0  501    0  0.00000000000E+00  0.00000000000E+00  0.12974580015E+02  0.12974580015E+02  0.00000000000E+00 0. -1.
         -2   -1    0    0    0  501 -0.00000000000E+00 -0.00000000000E+00 -0.24797438168E+03  0.24797438168E+03  0.00000000000E+00 0. -1.
          2    1    1    2  502    0 -0.18477348978E+02 -0.14058636167E+02  0.15435737747E+01  0.23268869679E+02  0.00000000000E+00 0. -1.
         -2    1    1    2    0  502  0.18477348978E+02  0.14058636167E+02 -0.23654337544E+03  0.23768009201E+03  0.00000000000E+00 0. -1.
</event>
<event>
 4    1  0.3196713E+003  0.2797051E+02  0.7546771E-02  0.1438095E+00
          2   -1    0    0  501    0  0.00000000000E+00  0.00000000000E+00  0.10221833010E+02  0.10221833010E+02  0.00000000000E+00 0.  1.
         -2   -1    0    0    0  501 -0.00000000000E+00 -0.00000000000E+00 -0.79032116582E+02  0.79032116582E+02  0.00000000000E+00 0.  1.
          2    1    1    2  502    0 -0.23504577731E+02 -0.15161929093E+02 -0.26475858169E+02  0.38513897933E+02  0.00000000000E+00 0.  1.
         -2    1    1    2    0  502  0.23504577731E+02  0.15161929093E+02 -0.42334425403E+02  0.50740051659E+02  0.00000000000E+00 0.  1.
</event>
<event>
 4    1  0.3196713E+003  0.2243756E+02  0.7546771E-02  0.1499684E+00
          2   -1    0    0  501    0  0.00000000000E+00  0.00000000000E+00  0.79378748255E+03  0.79378748255E+03  0.00000000000E+00 0.  1.
         -2   -1    0    0    0  501 -0.00000000000E+00 -0.00000000000E+00 -0.72147821969E+00  0.72147821969E+00  0.00000000000E+00 0.  1.
          2    1    1    2  502    0 -0.22212231495E+02  0.31719113418E+01  0.53467768668E+03  0.53514827186E+03  0.00000000000E+00 0.  1.
         -2    1    1    2    0  502  0.22212231495E+02 -0.31719113418E+01  0.25838831765E+03  0.25936068890E+03  0.00000000000E+00 0.  1.
</event>
<event>
 4    1  0.3196713E+003  0.2706463E+02  0.7546771E-02  0.1446960E+00
          2   -1    0    0  501    0  0.00000000000E+00  0.00000000000E+00  0.57434282532E+03  0.57434282532E+03  0.00000000000E+00 0. -1.
         -2   -1    0    0    0  501 -0.00000000000E+00 -0.00000000000E+00 -0.17959765430E+01  0.17959765430E+01  0.00000000000E+00 0.  1.
          2    1    1    2  502    0 -0.19040653122E+02 -0.19234029445E+02  0.44137114757E+03  0.44220016312E+03  0.00000000000E+00 0. -1.
         -2    1    1    2    0  502  0.19040653122E+02  0.19234029445E+02  0.13117570121E+03  0.13393863874E+03  0.00000000000E+00 0.  1.
</event>
<event>
 4    1  0.3196713E+003  0.2033284E+02  0.7546771E-02  0.1529007E+00
          2   -1    0    0  501    0  0.00000000000E+00  0.00000000000E+00  0.69296438674E+03  0.69296438674E+03  0.00000000000E+00 0.  1.
         -2   -1    0    0    0  501 -0.00000000000E+00 -0.00000000000E+00 -0.15246310028E+01  0.15246310028E+01  0.00000000000E+00 0.  1.
          2    1    1    2  502    0  0.15143237405E+02 -0.13568597649E+02  0.61663522294E+03  0.61697035800E+03  0.00000000000E+00 0.  1.
         -2    1    1    2    0  502 -0.15143237405E+02  0.13568597649E+02  0.74804532805E+02  0.77518659750E+02  0.00000000000E+00 0.  1.
</event>
<event>
 4    1  0.3196713E+003  0.3245674E+02  0.7546771E-02  0.1399383E+00
          2   -1    0    0  501    0  0.00000000000E+00  0.00000000000E+00  0.98892908529E+03  0.98892908529E+03  0.00000000000E+00 0.  1.
         -2   -1    0    0    0  501 -0.00000000000E+00 -0.00000000000E+00 -0.22600505777E+01  0.22600505777E+01  0.00000000000E+00 0. -1.
          2    1    1    2  502    0  0.64158096168E+01  0.31816302244E+02  0.85367934761E+03  0.85429612444E+03  0.00000000000E+00 0.  1.
         -2    1    1    2    0  502 -0.64158096168E+01 -0.31816302244E+02  0.13298968710E+03  0.13689301143E+03  0.00000000000E+00 0. -1.
</event>
<event>
 4    1  0.3196713E+003  0.3720598E+02  0.7546771E-02  0.1365685E+00
          2   -1    0    0  501    0  0.00000000000E+00  0.00000000000E+00  0.10580808426E+02  0.10580808426E+02  0.00000000000E+00 0. -1.
         -2   -1    0    0    0  501 -0.00000000000E+00 -0.00000000000E+00 -0.32117124664E+03  0.32117124664E+03  0.00000000000E+00 0. -1.
          2    1    1    2  502    0 -0.34427561471E+02  0.14107716887E+02 -0.27597828804E+02  0.46324127832E+02  0.00000000000E+00 0. -1.
         -2    1    1    2    0  502  0.34427561471E+02 -0.14107716887E+02 -0.28299260941E+03  0.28542792723E+03  0.00000000000E+00 0. -1.
</event>
<event>
 4    1  0.3196713E+003  0.3059419E+02  0.7546771E-02  0.1414502E+00
          2   -1    0    0  501    0  0.00000000000E+00  0.00000000000E+00  0.12596041761E+04  0.12596041761E+04  0.00000000000E+00 0. -1.
         -2   -1    0    0    0  501 -0.00000000000E+00 -0.00000000000E+00 -0.56323567255E+01  0.56323567255E+01  0.00000000000E+00 0. -1.
          2    1    1    2  502    0 -0.25722453417E+02 -0.16563802311E+02  0.12163970550E+04  0.12167817387E+04  0.00000000000E+00 0. -1.
         -2    1    1    2    0  502  0.25722453417E+02  0.16563802311E+02  0.37574764297E+02  0.48454794074E+02  0.00000000000E+00 0. -1.
</event>
<event>
 4    1  0.3196713E+003  0.2364480E+02  0.7546771E-02  0.1484556E+00
          2   -1    0    0  501    0  0.00000000000E+00  0.00000000000E+00  0.89589050436E+03  0.89589050436E+03  0.00000000000E+00 0. -1.
         -2   -1    0    0    0  501 -0.00000000000E+00 -0.00000000000E+00 -0.20175894304E+01  0.20175894304E+01  0.00000000000E+00 0.  1.
          2    1    1    2  502    0  0.17568267474E+02 -0.15825053411E+02  0.82005415012E+03  0.82039495699E+03  0.00000000000E+00 0. -1.
         -2    1    1    2    0  502 -0.17568267474E+02  0.15825053411E+02  0.73818764807E+02  0.77513136791E+02  0.00000000000E+00 0.  1.
</event>
<event>
 4    1  0.3196713E+003  0.2061067E+02  0.7546771E-02  0.1524897E+00
          2   -1    0    0  501    0  0.00000000000E+00  0.00000000000E+00  0.67320465164E+03  0.67320465164E+03  0.00000000000E+00 0. -1.
         -2   -1    0    0    0  501 -0.00000000000E+00 -0.00000000000E+00 -0.91110974775E+02  0.91110974775E+02  0.00000000000E+00 0.  1.
          2    1    1    2  502    0 -0.49558773906E+01  0.20005975662E+02  0.67187898860E+03  0.67219504246E+03  0.00000000000E+00 0. -1.
         -2    1    1    2    0  502  0.49558773906E+01 -0.20005975662E+02 -0.89785311741E+02  0.92120583950E+02  0.00000000000E+00 0.  1.
</event>
<event>
 4    1  0.3196713E+003  0.2851202E+02  0.7546771E-02  0.1432984E+00
          2   -1    0    0  501    0  0.00000000000E+00  0.00000000000E+00  0.93494036679E+01  0.93494036679E+01  0.00000000000E+00 0.  1.
         -2   -1    0    0    0  501 -0.00000000000E+00 -0.00000000000E+00 -0.73704515632E+03  0.73704515632E+03  0.00000000000E+00 0. -1.
          2    1    1    2  502    0 -0.20978582711E+02 -0.19308915000E+02 -0.13354571408E+02  0.31484594781E+02  0.00000000000E+00 0.  1.
         -2    1    1    2    0  502  0.20978582711E+02  0.19308915000E+02 -0.71434118124E+03  0.71490996521E+03  0.00000000000E+00 0. -1.
</event>
<event>
 4    1  0.3196713E+003  0.2277811E+02  0.7546771E-02  0.1495303E+00
          2   -1    0    0  501    0  0.00000000000E+00  0.00000000000E+00  0.54473139182E+03  0.54473139182E+03  0.00000000000E+00 0. -1.
         -2   -1    0    0    0  501 -0.00000000000E+00 -0.00000000000E+00 -0.24954906079E+01  0.24954906079E+01  0.00000000000E+00 0. -1.
          2    1    1    2  502    0  0.20070435856E+02 -0.10771245005E+02  0.48626968682E+03  0.48680288663E+03  0.00000000000E+00 0. -1.
         -2    1    1    2    0  502 -0.20070435856E+02  0.10771245005E+02  0.55966214392E+02  0.60423995795E+02  0.00000000000E+00 0. -1.
</event>
<event>
 4    1  0.3196713E+003  0.2078066E+02  0.7546771E-02  0.1522420E+00
          2   -1    0    0  501    0  0.00000000000E+00  0.00000000000E+00  0.71845820706E+03  0.71845820706E+03  0.00000000000E+00 0.  1.
         -2   -1    0    0    0  501 -0.00000000000E+00 -0.00000000000E+00 -0.11802084806E+01  0.11802084806E+01  0.00000000000E+00 0.  1.
          2    1    1    2  502    0 -0.20505497166E+02 -0.33705162603E+01  0.61069689219E+03  0.61105034974E+03  0.00000000000E+00 0.  1.
         -2    1    1    2    0  502  0.20505497166E+02  0.33705162603E+01  0.10658110639E+03  0.10858806580E+03  0.00000000000E+00 0.  1.
</event>
<event>
 4    1  0.3196713E+003  0.2179660E+02  0.7546771E-02  0.1508189E+00
          2   -1    0    0  501    0  0.00000000000E+00  0.00000000000E+00  0.18659645644E+03  0.18659645644E+03  0.00000000000E+00 0.  1.
         -2   -1    0    0    0  501 -0.00000000000E+00 -0.00000000000E+00 -0.55299489673E+03  0.55299489673E+03  0.00000000000E+00 0.  1.
          2    1    1    2  502    0  0.32427198987E+01 -0.21554036725E+02  0.18574417006E+03  0.18701868474E+03  0.00000000000E+00 0.  1.
         -2    1    1    2    0  502 -0.32427198987E+01  0.21554036725E+02 -0.55214261035E+03  0.55257266843E+03  0.00000000000E+00 0.  1.
</event>
<event>
 4    1  0.3196713E+003  0.2302403E+02  0.7546771E-02  0.1492197E+00
          2   -1    0    0  501    0  0.00000000000E+00  0.00000000000E+00  0.80125607370E+03  0.80125607370E+03  0.00000000000E+00 0. -1.
         -2   -1    0    0    0  501 -0.00000000000E+00 -0.00000000000E+00 -0.73249126819E+01  0.73249126819E+01  0.00000000000E+00 0. -1.
          2    1    1    2  502    0  0.34097452046E+01 -0.22770146063E+02  0.78256609742E+03  0.78290472138E+03  0.00000000000E+00 0. -1.
         -2    1    1    2    0  502 -0.34097452046E+01  0.22770146063E+02  0.11365063590E+02  0.25676265002E+02  0.00000000000E+00 0. -1.
</event>
<event>
 4    1  0.3196713E+003  0.2124234E+02  0.7546771E-02  0.1515833E+00
          2   -1    0    0  501    0  0.00000000000E+00  0.00000000000E+00  0.10044560917E+04  0.10044560917E+04  0.00000000000E+00 0.  1.
         -2   -1    0    0    0  501 -0.00000000000E+00 -0.00000000000E+00 -0.14735297214E+01  0.14735297214E+01  0.00000000000E+00 0. -1.
          2    1    1    2  502    0  0.77942596396E+01 -0.19760735829E+02  0.92083539213E+03  0.92108037465E+03  0.00000000000E+00 0.  1.
         -2    1    1    2    0  502 -0.77942596396E+01  0.19760735829E+02  0.82147169861E+02  0.84849246785E+02  0.00000000000E+00 0. -1.
</event>
<event>
 4    1  0.3196713E+003  0.3223934E+02  0.7546771E-02  0.1401085E+00
          2   -1    0    0  501    0  0.00000000000E+00  0.00000000000E+00  0.13529467630E+04  0.13529467630E+04  0.00000000000E+00 0.  1.
         -2   -1    0    0    0  501 -0.00000000000E+00 -0.00000000000E+00 -0.33199401804E+03  0.33199401804E+03  0.00000000000E+00 0. -1.
          2    1    1    2  502    0  0.27146345929E+02 -0.17391110074E+02  0.13519714650E+04  0.13523558027E+04  0.00000000000E+00 0.  1.
         -2    1    1    2    0  502 -0.27146345929E+02  0.17391110074E+02 -0.33101872006E+03  0.33258497837E+03  0.00000000000E+00 0. -1.
</event>
<event>
 4    1  0.3196713E+003  0.2117342E+02  0.7546771E-02  0.1516803E+00
          2   -1    0    0  501    0  0.00000000000E+00  0.00000000000E+00  0.14657582461E+04  0.14657582461E+04  0.00000000000E+00 0. -1.
         -2   -1    0    0    0  501 -0.00000000000E+00 -0.00000000000E+00 -0.12273490765E+01  0.12273490765E+01  0.00000000000E+00 0.  1.
          2    1    1    2  502    0  0.54665797369E+01 -0.20455568987E+02  0.13678266611E+04  0.13679905294E+04  0.00000000000E+00 0. -1.
         -2    1    1    2    0  502 -0.54665797369E+01  0.20455568987E+02  0.96704235962E+02  0.98995065784E+02  0.00000000000E+00 0.  1.
</event>
<event>
 4    1  0.3196713E+003  0.2943769E+02  0.7546771E-02  0.1424547E+00
          2   -1    0    0  501    0  0.00000000000E+00  0.00000000000E+00  0.18583227420E+04  0.18583227420E+04  0.00000000000E+00 0. -1.
         -2   -1    0    0    0  501 -0.00000000000E+00 -0.00000000000E+00 -0.79075196391E+02  0.79075196391E+02  0.00000000000E+00 0.  1.
          2    1    1    2  502    0  0.60610271890E+01  0.28806973439E+02  0.18554622109E+04  0.18556957170E+04  0.00000000000E+00 0. -1.
         -2    1    1    2    0  502 -0.60610271890E+01 -0.28806973439E+02 -0.76214665343E+02  0.81702221405E+02  0.00000000000E+00 0.  1.
</event>
<event>
 4    1  0.3196713E+003  0.2220418E+02  0.7546771E-02  0.1502741E+00
          2   -1    0    0  501    0  0.00000000000E+00  0.00000000000E+00  0.14277780394E+04  0.14277780394E+04  0.00000000000E+00 0. -1.
         -2   -1    0    0    0  501 -0.00000000000E+00 -0.00000000000E+00 -0.29832752059E+02  0.29832752059E+02  0.00000000000E+00 0.  1.
          2    1    1    2  502    0 -0.21477352112E+02 -0.56346250175E+01  0.14235478551E+04  0.14237210124E+04  0.00000000000E+00 0. -1.
         -2    1    1    2    0  502  0.21477352112E+02  0.56346250175E+01 -0.25602567672E+02  0.33889779053E+02  0.00000000000E+00 0.  1.
</event>
<event>
 4    1  0.3196713E+003  0.2864981E+02  0.7546771E-02  0.1431704E+00
          2   -1    0    0  501    0  0.00000000000E+00  0.00000000000E+00  0.13357687828E+04  0.13357687828E+04  0.00000000000E+00 0. -1.
         -2   -1    0    0    0  501 -0.00000000000E+00 -0.00000000000E+00 -0.71841071806E+00  0.71841071806E+00  0.00000000000E+00 0.  1.
          2    1    1    2  502    0 -0.17294911545E+02 -0.22840699256E+02  0.92168528795E+03  0.92213045798E+03  0.00000000000E+00 0. -1.
         -2    1    1    2    0  502  0.17294911545E+02  0.22840699256E+02  0.41336508418E+03  0.41435673559E+03  0.00000000000E+00 0.  1.
</event>
<event>
 4    1  0.3196713E+003  0.2141653E+02  0.7546771E-02  0.1513400E+00
          2   -1    0    0  501    0  0.00000000000E+00  0.00000000000E+00  0.54109371715E+01  0.54109371715E+01  0.00000000000E+00 0. -1.
         -2   -1    0    0    0  501 -0.00000000000E+00 -0.00000000000E+00 -0.57849620061E+03  0.57849620061E+03  0.00000000000E+00 0. -1.
          2    1    1    2  502    0  0.21019104392E+02  0.41066772299E+01 -0.16825799321E+02  0.27235547912E+02  0.00000000000E+00 0. -1.
         -2    1    1    2    0  502 -0.21019104392E+02 -0.41066772299E+01 -0.55625946411E+03  0.55667158987E+03  0.00000000000E+00 0. -1.
</event>
<event>
 4    1  0.3196713E+003  0.2351022E+02  0.7546771E-02  0.1486189E+00
          2   -1    0    0  501    0  0.00000000000E+00  0.00000000000E+00  0.38298200445E+02  0.38298200445E+02  0.00000000000E+00 0. -1.
         -2   -1    0    0    0  501 -0.00000000000E+00 -0.00000000000E+00 -0.68557556232E+02  0.68557556232E+02  0.00000000000E+00 0.  1.
          2    1    1    2  502    0 -0.48194409549E+01  0.23010938948E+02  0.32342628298E+02  0.39984696167E+02  0.00000000000E+00 0. -1.
         -2    1    1    2    0  502  0.48194409549E+01 -0.23010938948E+02 -0.62601984084E+02  0.66871060510E+02  0.00000000000E+00 0.  1.
</event>
<event>
 4    1  0.3196713E+003  0.6876597E+02  0.7546771E-02  0.1232644E+00
          2   -1    0    0  501    0  0.00000000000E+00  0.00000000000E+00  0.24464701915E+03  0.24464701915E+03  0.00000000000E+00 0.  1.
         -2   -1    0    0    0  501 -0.00000000000E+00 -0.00000000000E+00 -0.55822646564E+02  0.55822646564E+02  0.00000000000E+00 0.  1.
          2    1    1    2  502    0  0.58430473727E+02 -0.36257936231E+02  0.21588375560E+03  0.22657130032E+03  0.00000000000E+00 0.  1.
         -2    1    1    2    0  502 -0.58430473727E+02  0.36257936231E+02 -0.27059383005E+02  0.73898365397E+02  0.00000000000E+00 0.  1.
</event>
<event>
 4    1  0.3196713E+003  0.2655279E+02  0.7546771E-02  0.1452153E+00
          2   -1    0    0  501    0  0.00000000000E+00  0.00000000000E+00  0.17189242360E+04  0.17189242360E+04  0.00000000000E+00 0.  1.
         -2   -1    0    0    0  501 -0.00000000000E+00 -0.00000000000E+00 -0.75947784604E+01  0.75947784604E+01  0.00000000000E+00 0. -1.
          2    1    1    2  502    0 -0.10754470952E+01  0.26531000906E+02  0.16952897600E+04  0.16954976913E+04  0.00000000000E+00 0.  1.
         -2    1    1    2    0  502  0.10754470952E+01 -0.26531000906E+02  0.16039697457E+02  0.31021323151E+02  0.00000000000E+00 0. -1.
</event>
<event>
 4    1  0.3196713E+003  0.2187537E+02  0.7546771E-02  0.1507125E+00
          2   -1    0    0  501    0  0.00000000000E+00  0.00000000000E+00  0.17357253656E+03  0.17357253656E+03  0.00000000000E+00 0. -1.
         -2   -1    0    0    0  501 -0.00000000000E+00 -0.00000000000E+00 -0.91205130066E+01  0.91205130066E+01  0.00000000000E+00 0.  1.
          2    1    1    2  502    0  0.21314716619E+02  0.49208271332E+01  0.15852739259E+03  0.16002957816E+03  0.00000000000E+00 0. -1.
         -2    1    1    2    0  502 -0.21314716619E+02 -0.49208271332E+01  0.59246309642E+01  0.22663471409E+02  0.00000000000E+00 0.  1.
</event>
<event>
 4    1  0.3196713E+003  0.2095062E+02  0.7546771E-02  0.1519971E+00
          2   -1    0    0  501    0  0.00000000000E+00  0.00000000000E+00  0.25035916256E+03  0.25035916256E+03  0.00000000000E+00 0. -1.
         -2   -1    0    0    0  501 -0.00000000000E+00 -0.00000000000E+00 -0.37483855144E+01  0.37483855144E+01  0.00000000000E+00 0. -1.
          2    1    1    2  502    0  0.15388923325E+02 -0.14216527159E+02  0.21600065447E+03  0.21701431136E+03  0.00000000000E+00 0. -1.
         -2    1    1    2    0  502 -0.15388923325E+02  0.14216527159E+02  0.30610122577E+02  0.37093236712E+02  0.00000000000E+00 0. -1.
</event>
<event>
 4    1  0.3196713E+003  0.4256194E+02  0.7546771E-02  0.1334093E+00
          2   -1    0    0  501    0  0.00000000000E+00  0.00000000000E+00  0.18800544445E+04  0.18800544445E+04  0.00000000000E+00 0.  1.
         -2   -1    0    0    0  501 -0.00000000000E+00 -0.00000000000E+00 -0.19580473935E+01  0.19580473935E+01  0.00000000000E+00 0.  1.
          2    1    1    2  502    0 -0.38011506044E+02  0.19147959367E+02  0.16096791669E+04  0.16102417642E+04  0.00000000000E+00 0.  1.
         -2    1    1    2    0  502  0.38011506044E+02 -0.19147959367E+02  0.26841723023E+03  0.27177072768E+03  0.00000000000E+00 0.  1.
</event>
<event>
 4    1  0.3196713E+003  0.2708107E+02  0.7546771E-02  0.1446795E+00
          2   -1    0    0  501    0  0.00000000000E+00  0.00000000000E+00  0.21356788767E+04  0.21356788767E+04  0.00000000000E+00 0. -1.
         -2   -1    0    0    0  501 -0.00000000000E+00 -0.00000000000E+00 -0.40338444153E+00  0.40338444153E+00  0.00000000000E+00 0.  1.
          2    1    1    2  502    0  0.25200329249E+02 -0.99160226856E+01  0.14795088466E+04  0.14797566729E+04  0.00000000000E+00 0. -1.
         -2    1    1    2    0  502 -0.25200329249E+02  0.99160226856E+01  0.65576664572E+03  0.65632558821E+03  0.00000000000E+00 0.  1.
</event>
<event>
 4    1  0.3196713E+003  0.3242531E+02  0.7546771E-02  0.1399628E+00
          2   -1    0    0  501    0  0.00000000000E+00  0.00000000000E+00  0.23186395066E+03  0.23186395066E+03  0.00000000000E+00 0. -1.
         -2   -1    0    0    0  501 -0.00000000000E+00 -0.00000000000E+00 -0.63388985794E+01  0.63388985794E+01  0.00000000000E+00 0.  1.
          2    1    1    2  502    0 -0.15029942536E+02 -0.28731541025E+02  0.17630575301E+03  0.17926270991E+03  0.00000000000E+00 0. -1.
         -2    1    1    2    0  502  0.15029942536E+02  0.28731541025E+02  0.49219299068E+02  0.58940139320E+02  0.00000000000E+00 0.  1.
</event>
<event>
 4    1  0.3196713E+003  0.3920959E+02  0.7546771E-02  0.1353181E+00
          2   -1    0    0  501    0  0.00000000000E+00  0.00000000000E+00  0.49629134125E+03  0.49629134125E+03  0.00000000000E+00 0.  1.
         -2   -1    0    0    0  501 -0.00000000000E+00 -0.00000000000E+00 -0.27353092925E+02  0.27353092925E+02  0.00000000000E+00 0.  1.
          2    1    1    2  502    0 -0.38785708194E+02  0.57498798126E+01  0.48102018814E+03  0.48261559618E+03  0.00000000000E+00 0.  1.
         -2    1    1    2    0  502  0.38785708194E+02 -0.57498798126E+01 -0.12081939811E+02  0.41028837999E+02  0.00000000000E+00 0.  1.
</event>
<event>
 4    1  0.3196713E+003  0.3019240E+02  0.7546771E-02  0.1417932E+00
          2   -1    0    0  501    0  0.00000000000E+00  0.00000000000E+00  0.12881509377E+03  0.12881509377E+03  0.00000000000E+00 0. -1.
         -2   -1    0    0    0  501 -0.00000000000E+00 -0.00000000000E+00 -0.52283060758E+02  0.52283060758E+02  0.00000000000E+00 0.  1.
          2    1    1    2  502    0 -0.56307686137E+01 -0.29662693704E+02  0.12246434694E+03  0.12613126981E+03  0.00000000000E+00 0. -1.
         -2    1    1    2    0  502  0.56307686137E+01  0.29662693704E+02 -0.45932313926E+02  0.54966884718E+02  0.00000000000E+00 0.  1.
</event>
<event>
 4    1  0.3196713E+003  0.2113640E+02  0.7546771E-02  0.1517326E+00
          2   -1    0    0  501    0  0.00000000000E+00  0.00000000000E+00  0.94602880702E+02  0.94602880702E+02  0.00000000000E+00 0.  1.
         -2   -1    0    0    0  501 -0.00000000000E+00 -0.00000000000E+00 -0.15354050899E+02  0.15354050899E+02  0.00000000000E+00 0. -1.
          2    1    1    2  502    0 -0.77519050020E+00  0.21122177945E+02  0.85373522972E+02  0.87951041757E+02  0.00000000000E+00 0.  1.
         -2    1    1    2    0  502  0.77519050020E+00 -0.21122177945E+02 -0.61246931686E+01  0.22005889845E+02  0.00000000000E+00 0. -1.
</event>
<event>
 4    1  0.3196713E+003  0.2349471E+02  0.7546771E-02  0.1486378E+00
          2   -1    0    0  501    0  0.00000000000E+00  0.00000000000E+00  0.47333198065E+03  0.47333198065E+03  0.00000000000E+00 0. -1.
         -2   -1    0    0    0  501 -0.00000000000E+00 -0.00000000000E+00 -0.90577561973E+01  0.90577561973E+01  0.00000000000E+00 0. -1.
          2    1    1    2  502    0 -0.68490214860E+01  0.22474260210E+02  0.45727001838E+03  0.45787320426E+03  0.00000000000E+00 0. -1.
         -2    1    1    2    0  502  0.68490214860E+01 -0.22474260210E+02  0.70042060657E+01  0.24516532583E+02  0.00000000000E+00 0. -1.
</event>
<event>
 4    1  0.3196713E+003  0.3460534E+02  0.7546771E-02  0.1383359E+00
          2   -1    0    0  501    0  0.00000000000E+00  0.00000000000E+00  0.55082269999E+03  0.55082269999E+03  0.00000000000E+00 0.  1.
         -2   -1    0    0    0  501 -0.00000000000E+00 -0.00000000000E+00 -0.75847161405E+01  0.75847161405E+01  0.00000000000E+00 0.  1.
          2    1    1    2  502    0  0.16693726984E+01 -0.34565050818E+02  0.50743642314E+03  0.50861503426E+03  0.00000000000E+00 0.  1.
         -2    1    1    2    0  502 -0.16693726984E+01  0.34565050818E+02  0.35801560706E+02  0.49792381870E+02  0.00000000000E+00 0.  1.
</event>
<event>
 4    1  0.3196713E+003  0.4039861E+02  0.7546771E-02  0.1346166E+00
          2   -1    0    0  501    0  0.00000000000E+00  0.00000000000E+00  0.83504587693E+03  0.83504587693E+03  0.00000000000E+00 0. -1.
         -2   -1    0    0    0  501 -0.00000000000E+00 -0.00000000000E+00 -0.19464275753E+02  0.19464275753E+02  0.00000000000E+00 0. -1.
          2    1    1    2  502    0  0.16135051572E+02  0.37036572059E+02  0.81302784190E+03  0.81403090806E+03  0.00000000000E+00 0. -1.
         -2    1    1    2    0  502 -0.16135051572E+02 -0.37036572059E+02  0.25537592728E+01  0.40479244627E+02  0.00000000000E+00 0. -1.
</event>
<event>
 4    1  0.3196713E+003  0.2282928E+02  0.7546771E-02  0.1494653E+00
          2   -1    0    0  501    0  0.00000000000E+00  0.00000000000E+00  0.32845781758E+02  0.32845781758E+02  0.00000000000E+00 0.  1.
         -2   -1    0    0    0  501 -0.00000000000E+00 -0.00000000000E+00 -0.54113259922E+02  0.54113259922E+02  0.00000000000E+00 0.  1.
          2    1    1    2  502    0  0.22064707296E+00  0.22828212818E+02  0.25919453799E+02  0.34539746247E+02  0.00000000000E+00 0.  1.
         -2    1    1    2    0  502 -0.22064707296E+00 -0.22828212818E+02 -0.47186931963E+02  0.52419295433E+02  0.00000000000E+00 0.  1.
</event>
<event>
 4    1  0.3196713E+003  0.2031045E+02  0.7546771E-02  0.1529342E+00
          2   -1    0    0  501    0  0.00000000000E+00  0.00000000000E+00  0.21239888459E+03  0.21239888459E+03  0.00000000000E+00 0. -1.
         -2   -1    0    0    0  501 -0.00000000000E+00 -0.00000000000E+00 -0.46385973166E+02  0.46385973166E+02  0.00000000000E+00 0.  1.
          2    1    1    2  502    0 -0.16243631169E+02 -0.12192578665E+02  0.20966110648E+03  0.21064257427E+03  0.00000000000E+00 0. -1.
         -2    1    1    2    0  502  0.16243631169E+02  0.12192578665E+02 -0.43648195049E+02  0.48142283485E+02  0.00000000000E+00 0.  1.
</event>
<event>
 4    1  0.3196713E+003  0.2987271E+02  0.7546771E-02  0.1420706E+00
          2   -1    0    0  501    0  0.00000000000E+00  0.00000000000E+00  0.19851883027E+04  0.19851883027E+04  0.00000000000E+00 0. -1.
         -2   -1    0    0    0  501 -0.00000000000E+00 -0.00000000000E+00 -0.34096514963E+01  0.34096514963E+01  0.00000000000E+00 0.  1.
          2    1    1    2  502    0 -0.26781708726E+02  0.13233244953E+02  0.19173300025E+04  0.19175627023E+04  0.00000000000E+00 0. -1.
         -2    1    1    2    0  502  0.26781708726E+02 -0.13233244953E+02  0.64448648659E+02  0.71035251870E+02  0.00000000000E+00 0.  1.
</event>
<event>
 4    1  0.3196713E+003  0.2067802E+02  0.7546771E-02  0.1523912E+00
          2   -1    0    0  501    0  0.00000000000E+00  0.00000000000E+00  0.14854133448E+04  0.14854133448E+04  0.00000000000E+00 0. -1.
         -2   -1    0    0    0  501 -0.00000000000E+00 -0.00000000000E+00 -0.44351799736E+00  0.44351799736E+00  0.00000000000E+00 0. -1.
          2    1    1    2  502    0  0.17756810730E+02  0.10596038410E+02  0.11826211742E+04  0.11828019369E+04  0.00000000000E+00 0. -1.
         -2    1    1    2    0  502 -0.17756810730E+02 -0.10596038410E+02  0.30234865267E+03  0.30305492592E+03  0.00000000000E+00 0. -1.
</event>
<event>
 4    1  0.3196713E+003  0.2214497E+02  0.7546771E-02  0.1503523E+00
          2   -1    0    0  501    0  0.00000000000E+00  0.00000000000E+00  0.22261478487E+03  0.22261478487E+03  0.00000000000E+00 0. -1.
         -2   -1    0    0    0  501 -0.00000000000E+00 -0.00000000000E+00 -0.85496118969E+01  0.85496118969E+01  0.00000000000E+00 0.  1.
          2    1    1    2  502    0  0.16301971617E+02  0.14988176464E+02  0.20661712062E+03  0.20780046738E+03  0.00000000000E+00 0. -1.
         -2    1    1    2    0  502 -0.16301971617E+02 -0.14988176464E+02  0.74480523545E+01  0.23363929383E+02  0.00000000000E+00 0.  1.
</event>
<event>
 4    1  0.3196713E+003  0.3424823E+02  0.7546771E-02  0.1385927E+00
          2   -1    0    0  501    0  0.00000000000E+00  0.00000000000E+00  0.11438205274E+03  0.11438205274E+03  0.00000000000E+00 0.  1.
         -2   -1    0    0    0  501 -0.00000000000E+00 -0.00000000000E+00 -0.46792687149E+03  0.46792687149E+03  0.00000000000E+00 0. -1.
          2    1    1    2  502    0  0.10772324170E+02 -0.32509974087E+02  0.11117406225E+03  0.11632976189E+03  0.00000000000E+00 0.  1.
         -2    1    1    2    0  502 -0.10772324170E+02  0.32509974087E+02 -0.46471888100E+03  0.46597916234E+03  0.00000000000E+00 0. -1.
</event>
<event>
 4    1  0.3196713E+003  0.2147221E+02  0.7546771E-02  0.1512629E+00
          2   -1    0    0  501    0  0.00000000000E+00  0.00000000000E+00  0.57188376442E+03  0.57188376442E+03  0.00000000000E+00 0.  1.
         -2   -1    0    0    0  501 -0.00000000000E+00 -0.00000000000E+00 -0.29008363894E+02  0.29008363894E+02  0.00000000000E+00 0. -1.
          2    1    1    2  502    0 -0.10602200373E+02 -0.18672150976E+02  0.56767932091E+03  0.56808526407E+03  0.00000000000E+00 0.  1.
         -2    1    1    2    0  502  0.10602200373E+02  0.18672150976E+02 -0.24803920382E+02  0.32806864238E+02  0.00000000000E+00 0. -1.
</event>
<event>
 4    1  0.3196713E+003  0.2003344E+02  0.7546771E-02  0.1533525E+00
          2   -1    0    0  501    0  0.00000000000E+00  0.00000000000E+00  0.65914154979E+02  0.65914154979E+02  0.00000000000E+00 0. -1.
         -2   -1    0    0    0  501 -0.00000000000E+00 -0.00000000000E+00 -0.16562917836E+02  0.16562917836E+02  0.00000000000E+00 0. -1.
          2    1    1    2  502    0 -0.99266892610E+01  0.17401138941E+02  0.57469538400E+02  0.60861208007E+02  0.00000000000E+00 0. -1.
         -2    1    1    2    0  502  0.99266892610E+01 -0.17401138941E+02 -0.81183012567E+01  0.21615864809E+02  0.00000000000E+00 0. -1.
</event>
<event>
 4    1  0.3196713E+003  0.2017055E+02  0.7546771E-02  0.1531444E+00
          2   -1    0    0  501    0  0.00000000000E+00  0.00000000000E+00  0.16181334790E+02  0.16181334790E+02  0.00000000000E+00 0. -1.
         -2   -1    0    0    0  501 -0.00000000000E+00 -0.00000000000E+00 -0.23876433012E+03  0.23876433012E+03  0.00000000000E+00 0. -1.
          2    1    1    2  502    0 -0.58415187716E+01 -0.19306156739E+02  0.92828680367E+01  0.22204113776E+02  0.00000000000E+00 0. -1.
         -2    1    1    2    0  502  0.58415187716E+01  0.19306156739E+02 -0.23186586337E+03  0.23274155114E+03  0.00000000000E+00 0. -1.
</event>
<event>
 4    1  0.3196713E+003  0.2034659E+02  0.7546771E-02  0.1528802E+00
          2   -1    0    0  501    0  0.00000000000E+00  0.00000000000E+00  0.53699506490E+01  0.53699506490E+01  0.00000000000E+00 0.  1.
         -2   -1    0    0    0  501 -0.00000000000E+00 -0.00000000000E+00 -0.32694290744E+03  0.32694290744E+03  0.00000000000E+00 0.  1.
          2    1    1    2  502    0 -0.58909909676E+01 -0.19475108914E+02 -0.15534818523E+02  0.25599106007E+02  0.00000000000E+00 0.  1.
         -2    1    1    2    0  502  0.58909909676E+01  0.19475108914E+02 -0.30603813827E+03  0.30671375209E+03  0.00000000000E+00 0.  1.
</event>
<event>
 4    1  0.3196713E+003  0.2438563E+02  0.7546771E-02  0.1475795E+00
          2   -1    0    0  501    0  0.00000000000E+00  0.00000000000E+00  0.40008353473E+03  0.40008353473E+03  0.00000000000E+00 0.  1.
         -2   -1    0    0    0  501 -0.00000000000E+00 -0.00000000000E+00 -0.11357274676E+02  0.11357274676E+02  0.00000000000E+00 0. -1.
          2    1    1    2  502    0  0.91141172044E+01 -0.22618390262E+02  0.38615028821E+03  0.38691950557E+03  0.00000000000E+00 0.  1.
         -2    1    1    2    0  502 -0.91141172044E+01  0.22618390262E+02  0.25759718406E+01  0.24521303828E+02  0.00000000000E+00 0. -1.
</event>
<event>
 4    1  0.3196713E+003  0.2472846E+02  0.7546771E-02  0.1471864E+00
          2   -1    0    0  501    0  0.00000000000E+00  0.00000000000E+00  0.20540812579E+03  0.20540812579E+03  0.00000000000E+00 0.  1.
         -2   -1    0    0    0  501 -0.00000000000E+00 -0.00000000000E+00 -0.83278093831E+01  0.83278093831E+01  0.00000000000E+00 0. -1.
          2    1    1    2  502    0 -0.24701936762E+02  0.11450003404E+01  0.18420301447E+03  0.18585544718E+03  0.00000000000E+00 0.  1.
         -2    1    1    2    0  502  0.24701936762E+02 -0.11450003404E+01  0.12877301932E+02  0.27880487991E+02  0.00000000000E+00 0. -1.
</event>
<event>
 4    1  0.3196713E+003  0.2458415E+02  0.7546771E-02  0.1473510E+00
          2   -1    0    0  501    0  0.00000000000E+00  0.00000000000E+00  0.32727529038E+03  0.32727529038E+03  0.00000000000E+00 0.  1.
         -2   -1    0    0    0  501 -0.00000000000E+00 -0.00000000000E+00 -0.36401296066E+02  0.36401296066E+02  0.00000000000E+00 0. -1.
          2    1    1    2  502    0 -0.10512738519E+02 -0.22223021198E+02  0.32260276577E+03  0.32353813504E+03  0.00000000000E+00 0.  1.
         -2    1    1    2    0  502  0.10512738519E+02  0.22223021198E+02 -0.31728771462E+02  0.40138451400E+02  0.00000000000E+00 0. -1.
</event>
<event>
 4    1  0.3196713E+003  0.3420522E+02  0.7546771E-02  0.1386238E+00
          2   -1    0    0  501    0  0.00000000000E+00  0.00000000000E+00  0.28874864275E+04  0.28874864275E+04  0.00000000000E+00 0.  1.
         -2   -1    0    0    0  501 -0.00000000000E+00 -0.00000000000E+00 -0.61765330135E+00  0.61765330135E+00  0.00000000000E+00 0. -1.
          2    1    1    2  502    0  0.14850920335E+02 -0.30813105932E+02  0.22903624244E+04  0.22906178277E+04  0.00000000000E+00 0.  1.
         -2    1    1    2    0  502 -0.14850920335E+02  0.30813105932E+02  0.59650634980E+03  0.59748625314E+03  0.00000000000E+00 0. -1.
</event>
<event>
 4    1  0.3196713E+003  0.2577459E+02  0.7546771E-02  0.1460322E+00
          2   -1    0    0  501    0  0.00000000000E+00  0.00000000000E+00  0.80176399471E+01  0.80176399471E+01  0.00000000000E+00 0.  1.
         -2   -1    0    0    0  501 -0.00000000000E+00 -0.00000000000E+00 -0.10124351185E+03  0.10124351185E+03  0.00000000000E+00 0. -1.
          2    1    1    2  502    0  0.23943913129E+02 -0.95403689024E+01 -0.23332873429E+02  0.34767119483E+02  0.00000000000E+00 0.  1.
         -2    1    1    2    0  502 -0.23943913129E+02  0.95403689024E+01 -0.69892998470E+02  0.74494032311E+02  0.00000000000E+00 0. -1.
</event>
<event>
 4    1  0.3196713E+003  0.2141204E+02  0.7546771E-02  0.1513463E+00
          2   -1    0    0  501    0  0.00000000000E+00  0.00000000000E+00  0.10480727074E+04  0.10480727074E+04  0.00000000000E+00 0.  1.
         -2   -1    0    0    0  501 -0.00000000000E+00 -0.00000000000E+00 -0.18625764213E+01  0.18625764213E+01  0.00000000000E+00 0. -1.
          2    1    1    2  502    0  0.19191542545E+02  0.94952630733E+01  0.98230601107E+03  0.98253935021E+03  0.00000000000E+00 0.  1.
         -2    1    1    2    0  502 -0.19191542545E+02 -0.94952630733E+01  0.63904119911E+02  0.67395933614E+02  0.00000000000E+00 0. -1.
</event>
<event>
 4    1  0.3196713E+003  0.2525796E+02  0.7546771E-02  0.1465938E+00
          2   -1    0    0  501    0  0.00000000000E+00  0.00000000000E+00  0.11277040569E+04  0.11277040569E+04  0.00000000000E+00 0.  1.
         -2   -1    0    0    0  501 -0.00000000000E+00 -0.00000000000E+00 -0.12161095824E+03  0.12161095824E+03  0.00000000000E+00 0.  1.
          2    1    1    2  502    0  0.98807859013E+01  0.23245101489E+02  0.11262494464E+04  0.11265326361E+04  0.00000000000E+00 0.  1.
         -2    1    1    2    0  502 -0.98807859013E+01 -0.23245101489E+02 -0.12015634780E+03  0.12278237899E+03  0.00000000000E+00 0.  1.
</event>
<event>
 4    1  0.3196713E+003  0.2885005E+02  0.7546771E-02  0.1429860E+00
          2   -1    0    0  501    0  0.00000000000E+00  0.00000000000E+00  0.57066074309E+02  0.57066074309E+02  0.00000000000E+00 0.  1.
         -2   -1    0    0    0  501 -0.00000000000E+00 -0.00000000000E+00 -0.46976914812E+02  0.46976914812E+02  0.00000000000E+00 0.  1.
          2    1    1    2  502    0 -0.15718356014E+02 -0.24192124676E+02  0.48241909619E+02  0.56210385658E+02  0.00000000000E+00 0.  1.
         -2    1    1    2    0  502  0.15718356014E+02  0.24192124676E+02 -0.38152750122E+02  0.47832603463E+02  0.00000000000E+00 0.  1.
</event>
<event>
 4    1  0.3196713E+003  0.2479120E+02  0.7546771E-02  0.1471153E+00
          2   -1    0    0  501    0  0.00000000000E+00  0.00000000000E+00  0.24972689362E+04  0.24972689362E+04  0.00000000000E+00 0. -1.
         -2   -1    0    0    0  501 -0.00000000000E+00 -0.00000000000E+00 -0.29934823817E+00  0.29934823817E+00  0.00000000000E+00 0.  1.
          2    1    1    2  502    0  0.16223096286E+02 -0.18746059435E+02  0.17751197123E+04  0.17752928199E+04  0.00000000000E+00 0. -1.
         -2    1    1    2    0  502 -0.16223096286E+02  0.18746059435E+02  0.72184987567E+03  0.72227546449E+03  0.00000000000E+00 0.  1.
</event>
<event>
 4    1  0.3196713E+003  0.2306525E+02  0.7546771E-02  0.1491680E+00
          2   -1    0    0  501    0  0.00000000000E+00  0.00000000000E+00  0.31438305000E+02  0.31438305000E+02  0.00000000000E+00 0.  1.
         -2   -1    0    0    0  501 -0.00000000000E+00 -0.00000000000E+00 -0.43283442501E+03  0.43283442501E+03  0.00000000000E+00 0. -1.
          2    1    1    2  502    0 -0.91124265548E+00 -0.23047246821E+02  0.26855227487E+02  0.35400694804E+02  0.00000000000E+00 0.  1.
         -2    1    1    2    0  502  0.91124265548E+00  0.23047246821E+02 -0.42825134750E+03  0.42887203521E+03  0.00000000000E+00 0. -1.
</event>
<event>
 4    1  0.3196713E+003  0.2065964E+02  0.7546771E-02  0.1524180E+00
          2   -1    0    0  501    0  0.00000000000E+00  0.00000000000E+00  0.14064889962E+04  0.14064889962E+04  0.00000000000E+00 0.  1.
         -2   -1    0    0    0  501 -0.00000000000E+00 -0.00000000000E+00 -0.68291529972E+01  0.68291529972E+01  0.00000000000E+00 0.  1.
          2    1    1    2  502    0  0.90500555436E+01  0.18571950531E+02  0.13906097642E+04  0.13907632211E+04  0.00000000000E+00 0.  1.
         -2    1    1    2    0  502 -0.90500555436E+01 -0.18571950531E+02  0.90500790009E+01  0.22554928104E+02  0.00000000000E+00 0.  1.
</event>
<event>
 4    1  0.3196713E+003  0.2294337E+02  0.7546771E-02  0.1493211E+00
          2   -1    0    0  501    0  0.00000000000E+00  0.00000000000E+00  0.19902838863E+03  0.19902838863E+03  0.00000000000E+00 0.  1.
         -2   -1    0    0    0  501 -0.00000000000E+00 -0.00000000000E+00 -0.37544330389E+03  0.37544330389E+03  0.00000000000E+00 0.  1.
          2    1    1    2  502    0 -0.14746097118E+02  0.17576992333E+02  0.19801487312E+03  0.19933962982E+03  0.00000000000E+00 0.  1.
         -2    1    1    2    0  502  0.14746097118E+02 -0.17576992333E+02 -0.37442978838E+03  0.37513206270E+03  0.00000000000E+00 0.  1.
</event>
<event>
 4    1  0.3196713E+003  0.3277197E+02  0.7546771E-02  0.1396942E+00
          2   -1    0    0  501    0  0.00000000000E+00  0.00000000000E+00  0.11525680074E+03  0.11525680074E+03  0.00000000000E+00 0. -1.
         -2   -1    0    0    0  501 -0.00000000000E+00 -0.00000000000E+00 -0.12580102034E+03  0.12580102034E+03  0.00000000000E+00 0. -1.
          2    1    1    2  502    0  0.10434827470E+02  0.31066317308E+02  0.11070701650E+03  0.11545581491E+03  0.00000000000E+00 0. -1.
         -2    1    1    2    0  502 -0.10434827470E+02 -0.31066317308E+02 -0.12125123611E+03  0.12560200616E+03  0.00000000000E+00 0. -1.
</event>
<event>
 4    1  0.3196713E+003  0.2053783E+02  0.7546771E-02  0.1525967E+00
          2   -1    0    0  501    0  0.00000000000E+00  0.00000000000E+00  0.10143273431E+03  0.10143273431E+03  0.00000000000E+00 0. -1.
         -2   -1    0    0    0  501 -0.00000000000E+00 -0.00000000000E+00 -0.54666270567E+01  0.54666270567E+01  0.00000000000E+00 0. -1.
          2    1    1    2  502    0 -0.16272878193E+01 -0.20473263087E+02  0.74129898420E+02  0.76922327102E+02  0.00000000000E+00 0. -1.
         -2    1    1    2    0  502  0.16272878193E+01  0.20473263087E+02  0.21836208833E+02  0.29977034264E+02  0.00000000000E+00 0. -1.
</event>
<event>
 4    1  0.3196713E+003  0.2013487E+02  0.7546771E-02  0.1531984E+00
          2   -1    0    0  501    0  0.00000000000E+00  0.00000000000E+00  0.11376394517E+04  0.11376394517E+04  0.00000000000E+00 0.  1.
         -2   -1    0    0    0  501 -0.00000000000E+00 -0.00000000000E+00 -0.44887365446E+00  0.44887365446E+00  0.00000000000E+00 0. -1.
          2    1    1    2  502    0  0.39109978987E+01  0.19751382820E+02  0.82692771641E+03  0.82717281218E+03  0.00000000000E+00 0.  1.
         -2    1    1    2    0  502 -0.39109978987E+01 -0.19751382820E+02  0.31026286166E+03  0.31091551321E+03  0.00000000000E+00 0. -1.
</event>
<event>
 4    1  0.3196713E+003  0.2378932E+02  0.7546771E-02  0.1482818E+00
          2   -1    0    0  501    0  0.00000000000E+00  0.00000000000E+00  0.26504509274E+03  0.26504509274E+03  0.00000000000E+00 0.  1.
         -2   -1    0    0    0  501 -0.00000000000E+00 -0.00000000000E+00 -0.22746136367E+02  0.22746136367E+02  0.00000000000E+00 0.  1.
          2    1    1    2  502    0  0.17657077130E+02 -0.15942373331E+02  0.25812479318E+03  0.25921871170E+03  0.00000000000E+00 0.  1.
         -2    1    1    2    0  502 -0.17657077130E+02  0.15942373331E+02 -0.15825836810E+02  0.28572517406E+02  0.00000000000E+00 0.  1.
</event>
<event>
 4    1  0.3196713E+003  0.4339392E+02  0.7546771E-02  0.1329668E+00
          2   -1    0    0  501    0  0.00000000000E+00  0.00000000000E+00  0.13735829641E+04  0.13735829641E+04  0.00000000000E+00 0. -1.
         -2   -1    0    0    0  501 -0.00000000000E+00 -0.00000000000E+00 -0.18023693487E+03  0.18023693487E+03  0.00000000000E+00 0. -1.
          2    1    1    2  502    0 -0.23752649344E+02 -0.36315887896E+02  0.13706227174E+04  0.13713094711E+04  0.00000000000E+00 0. -1.
         -2    1    1    2    0  502  0.23752649344E+02  0.36315887896E+02 -0.17727668824E+03  0.18251042781E+03  0.00000000000E+00 0. -1.
</event>
<event>
 4    1  0.3196713E+003  0.2014839E+02  0.7546771E-02  0.1531779E+00
          2   -1    0    0  501    0  0.00000000000E+00  0.00000000000E+00  0.51254353559E+02  0.51254353559E+02  0.00000000000E+00 0.  1.
         -2   -1    0    0    0  501 -0.00000000000E+00 -0.00000000000E+00 -0.24471560083E+02  0.24471560083E+02  0.00000000000E+00 0.  1.
          2    1    1    2  502    0 -0.97293949237E+01 -0.17643592325E+02  0.44529867416E+02  0.48876032652E+02  0.00000000000E+00 0.  1.
         -2    1    1    2    0  502  0.97293949237E+01  0.17643592325E+02 -0.17747073941E+02  0.26849880990E+02  0.00000000000E+00 0.  1.
</event>
<event>
 4    1  0.3196713E+003  0.2009303E+02  0.7546771E-02  0.1532618E+00
          2   -1    0    0  501    0  0.00000000000E+00  0.00000000000E+00  0.35896742630E+03  0.35896742630E+03  0.00000000000E+00 0.  1.
         -2   -1    0    0    0  501 -0.00000000000E+00 -0.00000000000E+00 -0.82714879844E+01  0.82714879844E+01  0.00000000000E+00 0. -1.
          2    1    1    2  502    0 -0.16704714035E+02  0.11166133834E+02  0.34602786992E+03  0.34661075687E+03  0.00000000000E+00 0.  1.
         -2    1    1    2    0  502  0.16704714035E+02 -0.11166133834E+02  0.46680683946E+01  0.20628157415E+02  0.00000000000E+00 0. -1.
</event>
<event>
 4    1  0.3196713E+003  0.2551280E+02  0.7546771E-02  0.1463148E+00
          2   -1    0    0  501    0  0.00000000000E+00  0.00000000000E+00  0.12911995625E+03  0.12911995625E+03  0.00000000000E+00 0. -1.
         -2   -1    0    0    0  501 -0.00000000000E+00 -0.00000000000E+00 -0.61265403512E+02  0.61265403512E+02  0.00000000000E+00 0. -1.
          2    1    1    2  502    0 -0.15788267710E+02 -0.20040803255E+02  0.12511955101E+03  0.12769418639E+03  0.00000000000E+00 0. -1.
         -2    1    1    2    0  502  0.15788267710E+02  0.20040803255E+02 -0.57264998270E+02  0.62691173375E+02  0.00000000000E+00 0. -1.
</event>
<event>
 4    1  0.3196713E+003  0.3269841E+02  0.7546771E-02  0.1397509E+00
          2   -1    0    0  501    0  0.00000000000E+00  0.00000000000E+00  0.48577124032E+02  0.48577124032E+02  0.00000000000E+00 0.  1.
         -2   -1    0    0    0  501 -0.00000000000E+00 -0.00000000000E+00 -0.12887604903E+03  0.12887604903E+03  0.00000000000E+00 0.  1.
          2    1    1    2  502    0  0.28029115903E+02 -0.16839084413E+02  0.40646078451E+02  0.52165983127E+02  0.00000000000E+00 0.  1.
         -2    1    1    2    0  502 -0.28029115903E+02  0.16839084413E+02 -0.12094500345E+03  0.12528718994E+03  0.00000000000E+00 0.  1.
</event>
<event>
 4    1  0.3196713E+003  0.2324695E+02  0.7546771E-02  0.1489420E+00
          2   -1    0    0  501    0  0.00000000000E+00  0.00000000000E+00  0.14099048943E+03  0.14099048943E+03  0.00000000000E+00 0.  1.
         -2   -1    0    0    0  501 -0.00000000000E+00 -0.00000000000E+00 -0.84884156829E+01  0.84884156829E+01  0.00000000000E+00 0.  1.
          2    1    1    2  502    0  0.13398495854E+02  0.18997392188E+02  0.12160063653E+03  0.12380280855E+03  0.00000000000E+00 0.  1.
         -2    1    1    2    0  502 -0.13398495854E+02 -0.18997392188E+02  0.10901437215E+02  0.25676096558E+02  0.00000000000E+00 0.  1.
</event>
<event>
 4    1  0.3196713E+003  0.2148648E+02  0.7546771E-02  0.1512431E+00
          2   -1    0    0  501    0  0.00000000000E+00  0.00000000000E+00  0.85042391288E+03  0.85042391288E+03  0.00000000000E+00 0. -1.
         -2   -1    0    0    0  501 -0.00000000000E+00 -0.00000000000E+00 -0.60208870716E+02  0.60208870716E+02  0.00000000000E+00 0.  1.
          2    1    1    2  502    0 -0.16466953530E+02 -0.13802476963E+02  0.84836660038E+03  0.84863864959E+03  0.00000000000E+00 0. -1.
         -2    1    1    2    0  502  0.16466953530E+02  0.13802476963E+02 -0.58151558216E+02  0.61994134011E+02  0.00000000000E+00 0.  1.
</event>
<event>
 4    1  0.3196713E+003  0.2737186E+02  0.7546771E-02  0.1443908E+00
          2   -1    0    0  501    0  0.00000000000E+00  0.00000000000E+00  0.64476826398E+03  0.64476826398E+03  0.00000000000E+00 0. -1.
         -2   -1    0    0    0  501 -0.00000000000E+00 -0.00000000000E+00 -0.51055407578E+01  0.51055407578E+01  0.00000000000E+00 0.  1.
          2    1    1    2  502    0  0.39014761226E+01  0.27092378998E+02  0.60540723757E+03  0.60602569403E+03  0.00000000000E+00 0. -1.
         -2    1    1    2    0  502 -0.39014761226E+01 -0.27092378998E+02  0.34255485643E+02  0.43848110704E+02  0.00000000000E+00 0.  1.
</event>
<event>
 4    1  0.3196713E+003  0.2391534E+02  0.7546771E-02  0.1481313E+00
          2   -1    0    0  501    0  0.00000000000E+00  0.00000000000E+00  0.96191652918E+03  0.96191652918E+03  0.00000000000E+00 0. -1.
         -2   -1    0    0    0  501 -0.00000000000E+00 -0.00000000000E+00 -0.14612042906E+02  0.14612042906E+02  0.00000000000E+00 0. -1.
          2    1    1    2  502    0 -0.20571621063E+02  0.12196394341E+02  0.95187922972E+03  0.95217961100E+03  0.00000000000E+00 0. -1.
         -2    1    1    2    0  502  0.20571621063E+02 -0.12196394341E+02 -0.45747434523E+01  0.24348961081E+02  0.00000000000E+00 0. -1.
</event>
<event>
 4    1  0.3196713E+003  0.2206337E+02  0.7546771E-02  0.1504607E+00
          2   -1    0    0  501    0  0.00000000000E+00  0.00000000000E+00  0.77700521803E+02  0.77700521803E+02  0.00000000000E+00 0.  1.
         -2   -1    0    0    0  501 -0.00000000000E+00 -0.00000000000E+00 -0.85938119157E+02  0.85938119157E+02  0.00000000000E+00 0. -1.
          2    1    1    2  502    0 -0.14351540519E+02  0.16757854321E+02  0.74661732398E+02  0.77853494985E+02  0.00000000000E+00 0.  1.
         -2    1    1    2    0  502  0.14351540519E+02 -0.16757854321E+02 -0.82899329752E+02  0.85785145976E+02  0.00000000000E+00 0. -1.
</event>
<event>
 4    1  0.3196713E+003  0.2599299E+02  0.7546771E-02  0.1457995E+00
          2   -1    0    0  501    0  0.00000000000E+00  0.00000000000E+00  0.50341690900E+03  0.50341690900E+03  0.00000000000E+00 0. -1.
         -2   -1    0    0    0  501 -0.00000000000E+00 -0.00000000000E+00 -0.35058418238E+02  0.35058418238E+02  0.00000000000E+00 0.  1.
          2    1    1    2  502    0  0.16586145183E+02 -0.20013380909E+02  0.49821316878E+03  0.49889076677E+03  0.00000000000E+00 0. -1.
         -2    1    1    2    0  502 -0.16586145183E+02  0.20013380909E+02 -0.29854678018E+02  0.39584560462E+02  0.00000000000E+00 0.  1.
</event>
<event>
 4    1  0.3196713E+003  0.2463006E+02  0.7546771E-02  0.1472985E+00
          2   -1    0    0  501    0  0.00000000000E+00  0.00000000000E+00  0.21709708128E+03  0.21709708128E+03  0.00000000000E+00 0. -1.
         -2   -1    0    0    0  501 -0.00000000000E+00 -0.00000000000E+00 -0.49279400849E+01  0.49279400849E+01  0.00000000000E+00 0. -1.
          2    1    1    2  502    0 -0.30806365638E+01  0.24436641561E+02  0.17913070965E+03  0.18081606929E+03  0.00000000000E+00 0. -1.
         -2    1    1    2    0  502  0.30806365638E+01 -0.24436641561E+02  0.33038431542E+02  0.41208952075E+02  0.00000000000E+00 0. -1.
</event>
<event>
 4    1  0.3196713E+003  0.2178650E+02  0.7546771E-02  0.1508325E+00
          2   -1    0    0  501    0  0.00000000000E+00  0.00000000000E+00  0.64379938311E+03  0.64379938311E+03  0.00000000000E+00 0. -1.
         -2   -1    0    0    0  501 -0.00000000000E+00 -0.00000000000E+00 -0.11275448167E+02  0.11275448167E+02  0.00000000000E+00 0.  1.
          2    1    1    2  502    0  0.12404856704E+02 -0.17910082610E+02  0.63291004683E+03  0.63328491132E+03  0.00000000000E+00 0. -1.
         -2    1    1    2    0  502 -0.12404856704E+02  0.17910082610E+02 -0.38611189364E+00  0.21789919948E+02  0.00000000000E+00 0.  1.
</event>
<event>
 4    1  0.3196713E+003  0.2482670E+02  0.7546771E-02  0.1470752E+00
          2   -1    0    0  501    0  0.00000000000E+00  0.00000000000E+00  0.11665019715E+04  0.11665019715E+04  0.00000000000E+00 0. -1.
         -2   -1    0    0    0  501 -0.00000000000E+00 -0.00000000000E+00 -0.36539209643E+02  0.36539209643E+02  0.00000000000E+00 0. -1.
          2    1    1    2  502    0  0.37164673617E+01  0.24546949678E+02  0.11621368896E+04  0.11624020453E+04  0.00000000000E+00 0. -1.
         -2    1    1    2    0  502 -0.37164673617E+01 -0.24546949678E+02 -0.32174127700E+02  0.40639135835E+02  0.00000000000E+00 0. -1.
</event>
<event>
 4    1  0.3196713E+003  0.2048978E+02  0.7546771E-02  0.1526676E+00
          2   -1    0    0  501    0  0.00000000000E+00  0.00000000000E+00  0.17890202218E+03  0.17890202218E+03  0.00000000000E+00 0.  1.
         -2   -1    0    0    0  501 -0.00000000000E+00 -0.00000000000E+00 -0.72687217700E+01  0.72687217700E+01  0.00000000000E+00 0. -1.
          2    1    1    2  502    0 -0.18342461708E+02  0.91315425341E+01  0.16241577150E+03  0.16370312703E+03  0.00000000000E+00 0.  1.
         -2    1    1    2    0  502  0.18342461708E+02 -0.91315425341E+01  0.92175289153E+01  0.22467616916E+02  0.00000000000E+00 0. -1.
</event>
<event>
 4    1  0.3196713E+003  0.2909828E+02  0.7546771E-02  0.1427597E+00
          2   -1    0    0  501    0  0.00000000000E+00  0.00000000000E+00  0.51605675627E+03  0.51605675627E+03  0.00000000000E+00 0.  1.
         -2   -1    0    0    0  501 -0.00000000000E+00 -0.00000000000E+00 -0.17556750482E+01  0.17556750482E+01  0.00000000000E+00 0. -1.
          2    1    1    2  502    0 -0.88515408383E+01 -0.27719311862E+02  0.32339731290E+03  0.32470376040E+03  0.00000000000E+00 0.  1.
         -2    1    1    2    0  502  0.88515408383E+01  0.27719311862E+02  0.19090376832E+03  0.19310867092E+03  0.00000000000E+00 0. -1.
</event>
<event>
 4    1  0.3196713E+003  0.2077809E+02  0.7546771E-02  0.1522457E+00
          2   -1    0    0  501    0  0.00000000000E+00  0.00000000000E+00  0.78802141856E+02  0.78802141856E+02  0.00000000000E+00 0. -1.
         -2   -1    0    0    0  501 -0.00000000000E+00 -0.00000000000E+00 -0.54988548003E+01  0.54988548003E+01  0.00000000000E+00 0. -1.
          2    1    1    2  502    0 -0.19952744782E+02  0.57980283848E+01  0.39206819016E+02  0.44372331637E+02  0.00000000000E+00 0. -1.
         -2    1    1    2    0  502  0.19952744782E+02 -0.57980283848E+01  0.34096468040E+02  0.39928665020E+02  0.00000000000E+00 0. -1.
</event>
<event>
 4    1  0.3196713E+003  0.2756245E+02  0.7546771E-02  0.1442039E+00
          2   -1    0    0  501    0  0.00000000000E+00  0.00000000000E+00  0.13657544916E+04  0.13657544916E+04  0.00000000000E+00 0.  1.
         -2   -1    0    0    0  501 -0.00000000000E+00 -0.00000000000E+00 -0.11475525801E+01  0.11475525801E+01  0.00000000000E+00 0. -1.
          2    1    1    2  502    0  0.14065763523E+01  0.27526533717E+02  0.11729054840E+04  0.11732292883E+04  0.00000000000E+00 0.  1.
         -2    1    1    2    0  502 -0.14065763523E+01 -0.27526533717E+02  0.19170145502E+03  0.19367275589E+03  0.00000000000E+00 0. -1.
</event>
<event>
 4    1  0.3196713E+003  0.2224323E+02  0.7546771E-02  0.1502226E+00
          2   -1    0    0  501    0  0.00000000000E+00  0.00000000000E+00  0.32177713481E+02  0.32177713481E+02  0.00000000000E+00 0.  1.
         -2   -1    0    0    0  501 -0.00000000000E+00 -0.00000000000E+00 -0.95821152669E+02  0.95821152669E+02  0.00000000000E+00 0.  1.
          2    1    1    2  502    0  0.43007617003E+01  0.21823488253E+02  0.26818508521E+02  0.34842410796E+02  0.00000000000E+00 0.  1.
         -2    1    1    2    0  502 -0.43007617003E+01 -0.21823488253E+02 -0.90461947709E+02  0.93156455354E+02  0.00000000000E+00 0.  1.
</event>
<event>
 4    1  0.3196713E+003  0.2951378E+02  0.7546771E-02  0.1423869E+00
          2   -1    0    0  501    0  0.00000000000E+00  0.00000000000E+00  0.53775564378E+03  0.53775564378E+03  0.00000000000E+00 0.  1.
         -2   -1    0    0    0  501 -0.00000000000E+00 -0.00000000000E+00 -0.24086560874E+01  0.24086560874E+01  0.00000000000E+00 0. -1.
          2    1    1    2  502    0 -0.11580823013E+02 -0.27146778311E+02  0.42223597377E+03  0.42326620534E+03  0.00000000000E+00 0.  1.
         -2    1    1    2    0  502  0.11580823013E+02  0.27146778311E+02  0.11311101392E+03  0.11689809453E+03  0.00000000000E+00 0. -1.
</event>
<event>
 4    1  0.3196713E+003  0.2058850E+02  0.7546771E-02  0.1525222E+00
          2   -1    0    0  501    0  0.00000000000E+00  0.00000000000E+00  0.88899293972E+03  0.88899293972E+03  0.00000000000E+00 0.  1.
         -2   -1    0    0    0  501 -0.00000000000E+00 -0.00000000000E+00 -0.54464418718E+01  0.54464418718E+01  0.00000000000E+00 0. -1.
          2    1    1    2  502    0 -0.19729907811E+02  0.58836303872E+01  0.86896839824E+03  0.86921226608E+03  0.00000000000E+00 0.  1.
         -2    1    1    2    0  502  0.19729907811E+02 -0.58836303872E+01  0.14578099610E+02  0.25227115511E+02  0.00000000000E+00 0. -1.
</event>
<event>
 4    1  0.3196713E+003  0.2282669E+02  0.7546771E-02  0.1494686E+00
          2   -1    0    0  501    0  0.00000000000E+00  0.00000000000E+00  0.68870173401E+03  0.68870173401E+03  0.00000000000E+00 0. -1.
         -2   -1    0    0    0  501 -0.00000000000E+00 -0.00000000000E+00 -0.19116323092E+01  0.19116323092E+01  0.00000000000E+00 0. -1.
          2    1    1    2  502    0 -0.21960430513E+02 -0.62287635953E+01  0.61180809438E+03  0.61223378080E+03  0.00000000000E+00 0. -1.
         -2    1    1    2    0  502  0.21960430513E+02  0.62287635953E+01  0.74982007323E+02  0.78379585521E+02  0.00000000000E+00 0. -1.
</event>
<event>
 4    1  0.3196713E+003  0.4279204E+02  0.7546771E-02  0.1332858E+00
          2   -1    0    0  501    0  0.00000000000E+00  0.00000000000E+00  0.13677762719E+03  0.13677762719E+03  0.00000000000E+00 0. -1.
         -2   -1    0    0    0  501 -0.00000000000E+00 -0.00000000000E+00 -0.10310825208E+03  0.10310825208E+03  0.00000000000E+00 0. -1.
          2    1    1    2  502    0 -0.23569463263E+02 -0.35716086754E+02  0.12872012912E+03  0.13564671058E+03  0.00000000000E+00 0. -1.
         -2    1    1    2    0  502  0.23569463263E+02  0.35716086754E+02 -0.95050754006E+02  0.10423916869E+03  0.00000000000E+00 0. -1.
</event>
<event>
 4    1  0.3196713E+003  0.2085909E+02  0.7546771E-02  0.1521286E+00
          2   -1    0    0  501    0  0.00000000000E+00  0.00000000000E+00  0.12047437930E+02  0.12047437930E+02  0.00000000000E+00 0. -1.
         -2   -1    0    0    0  501 -0.00000000000E+00 -0.00000000000E+00 -0.18865148907E+03  0.18865148907E+03  0.00000000000E+00 0. -1.
          2    1    1    2  502    0  0.19086269278E+02  0.84152213802E+01  0.19321004035E+01  0.20948380314E+02  0.00000000000E+00 0. -1.
         -2    1    1    2    0  502 -0.19086269278E+02 -0.84152213802E+01 -0.17853615154E+03  0.17975054669E+03  0.00000000000E+00 0. -1.
</event>
<event>
 4    1  0.3196713E+003  0.4826441E+02  0.7546771E-02  0.1305878E+00
          2   -1    0    0  501    0  0.00000000000E+00  0.00000000000E+00  0.16263843797E+04  0.16263843797E+04  0.00000000000E+00 0.  1.
         -2   -1    0    0    0  501 -0.00000000000E+00 -0.00000000000E+00 -0.46445032485E+01  0.46445032485E+01  0.00000000000E+00 0. -1.
          2    1    1    2  502    0  0.24327760176E+02 -0.41684689343E+02  0.14890800180E+04  0.14898619914E+04  0.00000000000E+00 0.  1.
         -2    1    1    2    0  502 -0.24327760176E+02  0.41684689343E+02  0.13265985842E+03  0.14116689158E+03  0.00000000000E+00 0. -1.
</event>
<event>
 4    1  0.3196713E+003  0.3023782E+02  0.7546771E-02  0.1417541E+00
          2   -1    0    0  501    0  0.00000000000E+00  0.00000000000E+00  0.38822770292E+03  0.38822770292E+03  0.00000000000E+00 0. -1.
         -2   -1    0    0    0  501 -0.00000000000E+00 -0.00000000000E+00 -0.95755476719E+01  0.95755476719E+01  0.00000000000E+00 0.  1.
          2    1    1    2  502    0 -0.14828314047E+02 -0.26352356050E+02  0.36204414480E+03  0.36330467703E+03  0.00000000000E+00 0. -1.
         -2    1    1    2    0  502  0.14828314047E+02  0.26352356050E+02  0.16608010448E+02  0.34498573564E+02  0.00000000000E+00 0.  1.
</event>
<event>
 4    1  0.3196713E+003  0.2501392E+02  0.7546771E-02  0.1468648E+00
          2   -1    0    0  501    0  0.00000000000E+00  0.00000000000E+00  0.13431284397E+04  0.13431284397E+04  0.00000000000E+00 0.  1.
         -2   -1    0    0    0  501 -0.00000000000E+00 -0.00000000000E+00 -0.67837092346E+00  0.67837092346E+00  0.00000000000E+00 0. -1.
          2    1    1    2  502    0 -0.20779585327E+02 -0.13924973010E+02  0.10472999257E+04  0.10475986017E+04  0.00000000000E+00 0.  1.
         -2    1    1    2    0  502  0.20779585327E+02  0.13924973010E+02  0.29515014312E+03  0.29620820891E+03  0.00000000000E+00 0. -1.
</event>
<event>
 4    1  0.3196713E+003  0.2660666E+02  0.7546771E-02  0.1451600E+00
          2   -1    0    0  501    0  0.00000000000E+00  0.00000000000E+00  0.18611773163E+03  0.18611773163E+03  0.00000000000E+00 0. -1.
         -2   -1    0    0    0  501 -0.00000000000E+00 -0.00000000000E+00 -0.42508194411E+02  0.42508194411E+02  0.00000000000E+00 0. -1.
          2    1    1    2  502    0 -0.13936803375E+02 -0.22664501832E+02  0.18088360888E+03  0.18282995951E+03  0.00000000000E+00 0. -1.
         -2    1    1    2    0  502  0.13936803375E+02  0.22664501832E+02 -0.37274071667E+02  0.45795966529E+02  0.00000000000E+00 0. -1.
</event>
<event>
 4    1  0.3196713E+003  0.2301219E+02  0.7546771E-02  0.1492345E+00
          2   -1    0    0  501    0  0.00000000000E+00  0.00000000000E+00  0.16469823485E+04  0.16469823485E+04  0.00000000000E+00 0.  1.
         -2   -1    0    0    0  501 -0.00000000000E+00 -0.00000000000E+00 -0.24025313853E+02  0.24025313853E+02  0.00000000000E+00 0. -1.
          2    1    1    2  502    0  0.17062337766E+02 -0.15441424095E+02  0.16413726853E+04  0.16415339939E+04  0.00000000000E+00 0.  1.
         -2    1    1    2    0  502 -0.17062337766E+02  0.15441424095E+02 -0.18415650626E+02  0.29473668521E+02  0.00000000000E+00 0. -1.
</event>
<event>
 4    1  0.3196713E+003  0.2018764E+02  0.7546771E-02  0.1531186E+00
          2   -1    0    0  501    0  0.00000000000E+00  0.00000000000E+00  0.36386768280E+03  0.36386768280E+03  0.00000000000E+00 0.  1.
         -2   -1    0    0    0  501 -0.00000000000E+00 -0.00000000000E+00 -0.11482451757E+01  0.11482451757E+01  0.00000000000E+00 0. -1.
          2    1    1    2  502    0 -0.20021770825E+02 -0.25825012561E+01  0.20997185743E+03  0.21094008991E+03  0.00000000000E+00 0.  1.
         -2    1    1    2    0  502  0.20021770825E+02  0.25825012561E+01  0.15274758019E+03  0.15407583806E+03  0.00000000000E+00 0. -1.
</event>
<event>
 4    1  0.3196713E+003  0.3041737E+02  0.7546771E-02  0.1416004E+00
          2   -1    0    0  501    0  0.00000000000E+00  0.00000000000E+00  0.15775031775E+04  0.15775031775E+04  0.00000000000E+00 0.  1.
         -2   -1    0    0    0  501 -0.00000000000E+00 -0.00000000000E+00 -0.65187400494E+00  0.65187400494E+00  0.00000000000E+00 0.  1.
          2    1    1    2  502    0 -0.67931303650E+01 -0.29649091146E+02  0.53855218192E+03  0.53941048180E+03  0.00000000000E+00 0.  1.
         -2    1    1    2    0  502  0.67931303650E+01  0.29649091146E+02  0.10382991215E+04  0.10387445697E+04  0.00000000000E+00 0.  1.
</event>
<event>
 4    1  0.3196713E+003  0.4495824E+02  0.7546771E-02  0.1321648E+00
          2   -1    0    0  501    0  0.00000000000E+00  0.00000000000E+00  0.10815901979E+04  0.10815901979E+04  0.00000000000E+00 0. -1.
         -2   -1    0    0    0  501 -0.00000000000E+00 -0.00000000000E+00 -0.22546301854E+01  0.22546301854E+01  0.00000000000E+00 0.  1.
          2    1    1    2  502    0 -0.38743790944E+02 -0.22807050626E+02  0.76385696862E+03  0.76517887543E+03  0.00000000000E+00 0. -1.
         -2    1    1    2    0  502  0.38743790944E+02  0.22807050626E+02  0.31547859907E+03  0.31866595263E+03  0.00000000000E+00 0.  1.
</event>
<event>
 4    1  0.3196713E+003  0.2128915E+02  0.7546771E-02  0.1515176E+00
          2   -1    0    0  501    0  0.00000000000E+00  0.00000000000E+00  0.18131091254E+04  0.18131091254E+04  0.00000000000E+00 0. -1.
         -2   -1    0    0    0  501 -0.00000000000E+00 -0.00000000000E+00 -0.25849106952E+00  0.25849106952E+00  0.00000000000E+00 0.  1.
          2    1    1    2  502    0  0.20523823852E+02 -0.56568878789E+01  0.10710186101E+04  0.10712301765E+04  0.00000000000E+00 0. -1.
         -2    1    1    2    0  502 -0.20523823852E+02  0.56568878789E+01  0.74183202418E+03  0.74213743998E+03  0.00000000000E+00 0.  1.
</event>
<event>
 4    1  0.3196713E+003  0.2387254E+02  0.7546771E-02  0.1481823E+00
          2   -1    0    0  501    0  0.00000000000E+00  0.00000000000E+00  0.21224210677E+02  0.21224210677E+02  0.00000000000E+00 0.  1.
         -2   -1    0    0    0  501 -0.00000000000E+00 -0.00000000000E+00 -0.28504908802E+02  0.28504908802E+02  0.00000000000E+00 0.  1.
          2    1    1    2  502    0  0.14069841716E+02 -0.19285685221E+02  0.23483782100E+01  0.23987767311E+02  0.00000000000E+00 0.  1.
         -2    1    1    2    0  502 -0.14069841716E+02  0.19285685221E+02 -0.96290763344E+01  0.25741352168E+02  0.00000000000E+00 0.  1.
</event>
<event>
 4    1  0.3196713E+003  0.3273417E+02  0.7546771E-02  0.1397233E+00
          2   -1    0    0  501    0  0.00000000000E+00  0.00000000000E+00  0.24816243600E+03  0.24816243600E+03  0.00000000000E+00 0. -1.
         -2   -1    0    0    0  501 -0.00000000000E+00 -0.00000000000E+00 -0.38147319223E+02  0.38147319223E+02  0.00000000000E+00 0. -1.
          2    1    1    2  502    0  0.12739793342E+02  0.30153328674E+02  0.23981746183E+03  0.24204119601E+03  0.00000000000E+00 0. -1.
         -2    1    1    2    0  502 -0.12739793342E+02 -0.30153328674E+02 -0.29802345054E+02  0.44268559218E+02  0.00000000000E+00 0. -1.
</event>
<event>
 4    1  0.3196713E+003  0.7435203E+02  0.7546771E-02  0.1217604E+00
          2   -1    0    0  501    0  0.00000000000E+00  0.00000000000E+00  0.51783003035E+03  0.51783003035E+03  0.00000000000E+00 0. -1.
         -2   -1    0    0    0  501 -0.00000000000E+00 -0.00000000000E+00 -0.36224637055E+02  0.36224637055E+02  0.00000000000E+00 0. -1.
          2    1    1    2  502    0  0.63453374849E+02  0.38754263441E+02  0.47345459346E+03  0.47925721255E+03  0.00000000000E+00 0. -1.
         -2    1    1    2    0  502 -0.63453374849E+02 -0.38754263441E+02  0.81507998354E+01  0.74797454853E+02  0.00000000000E+00 0. -1.
</event>
<event>
 4    1  0.3196713E+003  0.2582868E+02  0.7546771E-02  0.1459743E+00
          2   -1    0    0  501    0  0.00000000000E+00  0.00000000000E+00  0.12159233150E+03  0.12159233150E+03  0.00000000000E+00 0. -1.
         -2   -1    0    0    0  501 -0.00000000000E+00 -0.00000000000E+00 -0.15941715141E+02  0.15941715141E+02  0.00000000000E+00 0.  1.
          2    1    1    2  502    0 -0.25813535140E+02  0.88443081076E+00  0.10851546282E+03  0.11154696986E+03  0.00000000000E+00 0. -1.
         -2    1    1    2    0  502  0.25813535140E+02 -0.88443081076E+00 -0.28648464607E+01  0.25987076780E+02  0.00000000000E+00 0.  1.
</event>
<event>
 4    1  0.3196713E+003  0.2212359E+02  0.7546771E-02  0.1503807E+00
          2   -1    0    0  501    0  0.00000000000E+00  0.00000000000E+00  0.52828609502E+03  0.52828609502E+03  0.00000000000E+00 0. -1.
         -2   -1    0    0    0  501 -0.00000000000E+00 -0.00000000000E+00 -0.16736769517E+01  0.16736769517E+01  0.00000000000E+00 0.  1.
          2    1    1    2  502    0  0.21507842472E+02 -0.51832498647E+01  0.44035414169E+03  0.44090954114E+03  0.00000000000E+00 0. -1.
         -2    1    1    2    0  502 -0.21507842472E+02  0.51832498647E+01  0.86258276376E+02  0.89050230827E+02  0.00000000000E+00 0.  1.
</event>
<event>
 4    1  0.3196713E+003  0.2757908E+02  0.7546771E-02  0.1441876E+00
          2   -1    0    0  501    0  0.00000000000E+00  0.00000000000E+00  0.76924575094E+01  0.76924575094E+01  0.00000000000E+00 0. -1.
         -2   -1    0    0    0  501 -0.00000000000E+00 -0.00000000000E+00 -0.41204619373E+03  0.41204619373E+03  0.00000000000E+00 0. -1.
          2    1    1    2  502    0 -0.16639913956E+02  0.21993609738E+02 -0.19212859271E+02  0.33611598699E+02  0.00000000000E+00 0. -1.
         -2    1    1    2    0  502  0.16639913956E+02 -0.21993609738E+02 -0.38514087695E+03  0.38612705254E+03  0.00000000000E+00 0. -1.
</event>
<event>
 4    1  0.3196713E+003  0.2204822E+02  0.7546771E-02  0.1504808E+00
          2   -1    0    0  501    0  0.00000000000E+00  0.00000000000E+00  0.20389484742E+03  0.20389484742E+03  0.00000000000E+00 0.  1.
         -2   -1    0    0    0  501 -0.00000000000E+00 -0.00000000000E+00 -0.27713986139E+02  0.27713986139E+02  0.00000000000E+00 0. -1.
          2    1    1    2  502    0 -0.21168224067E+02 -0.61668688899E+01  0.19880160980E+03  0.20002050905E+03  0.00000000000E+00 0.  1.
         -2    1    1    2    0  502  0.21168224067E+02  0.61668688899E+01 -0.22620748515E+02  0.31588324511E+02  0.00000000000E+00 0. -1.
</event>
<event>
 4    1  0.3196713E+003  0.2251133E+02  0.7546771E-02  0.1498727E+00
          2   -1    0    0  501    0  0.00000000000E+00  0.00000000000E+00  0.11358614912E+03  0.11358614912E+03  0.00000000000E+00 0.  1.
         -2   -1    0    0    0  501 -0.00000000000E+00 -0.00000000000E+00 -0.10006043836E+02  0.10006043836E+02  0.00000000000E+00 0.  1.
          2    1    1    2  502    0 -0.16551924146E+02 -0.15257578849E+02  0.97790745485E+02  0.10034834233E+03  0.00000000000E+00 0.  1.
         -2    1    1    2    0  502  0.16551924146E+02  0.15257578849E+02  0.57893598001E+01  0.23243850631E+02  0.00000000000E+00 0.  1.
</event>
<event>
 4    1  0.3196713E+003  0.2025061E+02  0.7546771E-02  0.1530239E+00
          2   -1    0    0  501    0  0.00000000000E+00  0.00000000000E+00  0.13913953181E+04  0.13913953181E+04  0.00000000000E+00 0.  1.
         -2   -1    0    0    0  501 -0.00000000000E+00 -0.00000000000E+00 -0.32764900452E+00  0.32764900452E+00  0.00000000000E+00 0.  1.
          2    1    1    2  502    0  0.17098798370E+02  0.10849813501E+02  0.91609802431E+03  0.91632181983E+03  0.00000000000E+00 0.  1.
         -2    1    1    2    0  502 -0.17098798370E+02 -0.10849813501E+02  0.47496964476E+03  0.47540114725E+03  0.00000000000E+00 0.  1.
</event>
<event>
 4    1  0.3196713E+003  0.2853533E+02  0.7546771E-02  0.1432766E+00
          2   -1    0    0  501    0  0.00000000000E+00  0.00000000000E+00  0.15217930406E+02  0.15217930406E+02  0.00000000000E+00 0.  1.
         -2   -1    0    0    0  501 -0.00000000000E+00 -0.00000000000E+00 -0.30290289325E+03  0.30290289325E+03  0.00000000000E+00 0.  1.
          2    1    1    2  502    0 -0.19999623871E+02 -0.20353873992E+02  0.48700905303E+00  0.28539487019E+02  0.00000000000E+00 0.  1.
         -2    1    1    2    0  502  0.19999623871E+02  0.20353873992E+02 -0.28817197189E+03  0.28958133663E+03  0.00000000000E+00 0.  1.
</event>
<event>
 4    1  0.3196713E+003  0.2272259E+02  0.7546771E-02  0.1496011E+00
          2   -1    0    0  501    0  0.00000000000E+00  0.00000000000E+00  0.11536081794E+04  0.11536081794E+04  0.00000000000E+00 0. -1.
         -2   -1    0    0    0  501 -0.00000000000E+00 -0.00000000000E+00 -0.57931503535E+00  0.57931503535E+00  0.00000000000E+00 0.  1.
          2    1    1    2  502    0 -0.18495571860E+02 -0.13199620961E+02  0.85172313102E+03  0.85202617805E+03  0.00000000000E+00 0. -1.
         -2    1    1    2    0  502  0.18495571860E+02  0.13199620961E+02  0.30130573332E+03  0.30216131636E+03  0.00000000000E+00 0.  1.
</event>
<event>
 4    1  0.3196713E+003  0.3137858E+02  0.7546771E-02  0.1407983E+00
          2   -1    0    0  501    0  0.00000000000E+00  0.00000000000E+00  0.19890025648E+04  0.19890025648E+04  0.00000000000E+00 0. -1.
         -2   -1    0    0    0  501 -0.00000000000E+00 -0.00000000000E+00 -0.64004038830E+00  0.64004038830E+00  0.00000000000E+00 0. -1.
          2    1    1    2  502    0 -0.24753896879E+02 -0.19283674324E+02  0.14677044717E+04  0.14680398604E+04  0.00000000000E+00 0. -1.
         -2    1    1    2    0  502  0.24753896879E+02  0.19283674324E+02  0.52065805272E+03  0.52160274478E+03  0.00000000000E+00 0. -1.
</event>
<event>
 4    1  0.3196713E+003  0.3543830E+02  0.7546771E-02  0.1377508E+00
          2   -1    0    0  501    0  0.00000000000E+00  0.00000000000E+00  0.51679096337E+03  0.51679096337E+03  0.00000000000E+00 0.  1.
         -2   -1    0    0    0  501 -0.00000000000E+00 -0.00000000000E+00 -0.49545432847E+02  0.49545432847E+02  0.00000000000E+00 0. -1.
          2    1    1    2  502    0  0.34695297729E+02 -0.72186695167E+01  0.50975914372E+03  0.51098948862E+03  0.00000000000E+00 0.  1.
         -2    1    1    2    0  502 -0.34695297729E+02  0.72186695167E+01 -0.42513613194E+02  0.55346907600E+02  0.00000000000E+00 0. -1.
</event>
<event>
 4    1  0.3196713E+003  0.2345811E+02  0.7546771E-02  0.1486824E+00
          2   -1    0    0  501    0  0.00000000000E+00  0.00000000000E+00  0.27775873501E+02  0.27775873501E+02  0.00000000000E+00 0. -1.
         -2   -1    0    0    0  501 -0.00000000000E+00 -0.00000000000E+00 -0.20951178504E+02  0.20951178504E+02  0.00000000000E+00 0.  1.
          2    1    1    2  502    0  0.23203165002E+02  0.34490862533E+01  0.90945652194E+01  0.25159375562E+02  0.00000000000E+00 0. -1.
         -2    1    1    2    0  502 -0.23203165002E+02 -0.34490862533E+01 -0.22698702231E+01  0.23567676443E+02  0.00000000000E+00 0.  1.
</event>
<event>
 4    1  0.3196713E+003  0.2010234E+02  0.7546771E-02  0.1532477E+00
          2   -1    0    0  501    0  0.00000000000E+00  0.00000000000E+00  0.20758177624E+02  0.20758177624E+02  0.00000000000E+00 0.  1.
         -2   -1    0    0    0  501 -0.00000000000E+00 -0.00000000000E+00 -0.38058037236E+02  0.38058037236E+02  0.00000000000E+00 0. -1.
          2    1    1    2  502    0  0.19544039487E+02  0.47047236461E+01  0.11903920230E+02  0.23362517435E+02  0.00000000000E+00 0.  1.
         -2    1    1    2    0  502 -0.19544039487E+02 -0.47047236461E+01 -0.29203779842E+02  0.35453697425E+02  0.00000000000E+00 0. -1.
</event>
<event>
 4    1  0.3196713E+003  0.2245143E+02  0.7546771E-02  0.1499504E+00
          2   -1    0    0  501    0  0.00000000000E+00  0.00000000000E+00  0.67577201997E+03  0.67577201997E+03  0.00000000000E+00 0.  1.
         -2   -1    0    0    0  501 -0.00000000000E+00 -0.00000000000E+00 -0.78967282141E+00  0.78967282141E+00  0.00000000000E+00 0. -1.
          2    1    1    2  502    0  0.22447537756E+02  0.41789620307E+00  0.41712463512E+03  0.41772841393E+03  0.00000000000E+00 0.  1.
         -2    1    1    2    0  502 -0.22447537756E+02 -0.41789620307E+00  0.25785771204E+03  0.25883327886E+03  0.00000000000E+00 0. -1.
</event>
<event>
 4    1  0.3196713E+003  0.2229108E+02  0.7546771E-02  0.1501597E+00
          2   -1    0    0  501    0  0.00000000000E+00  0.00000000000E+00  0.16843165066E+03  0.16843165066E+03  0.00000000000E+00 0.  1.
         -2   -1    0    0    0  501 -0.00000000000E+00 -0.00000000000E+00 -0.24045061293E+02  0.24045061293E+02  0.00000000000E+00 0.  1.
          2    1    1    2  502    0 -0.21874923115E+02  0.42871754845E+01  0.16233473645E+03  0.16385804464E+03  0.00000000000E+00 0.  1.
         -2    1    1    2    0  502  0.21874923115E+02 -0.42871754845E+01 -0.17948147084E+02  0.28618667311E+02  0.00000000000E+00 0.  1.
</event>
<event>
 4    1  0.3196713E+003  0.3800535E+02  0.7546771E-02  0.1360588E+00
          2   -1    0    0  501    0  0.00000000000E+00  0.00000000000E+00  0.12468331004E+02  0.12468331004E+02  0.00000000000E+00 0. -1.
         -2   -1    0    0    0  501 -0.00000000000E+00 -0.00000000000E+00 -0.12877732594E+04  0.12877732594E+04  0.00000000000E+00 0. -1.
          2    1    1    2  502    0  0.17400951582E+01 -0.37965494388E+02 -0.17462579852E+02  0.41825212377E+02  0.00000000000E+00 0. -1.
         -2    1    1    2    0  502 -0.17400951582E+01  0.37965494388E+02 -0.12578423486E+04  0.12584163780E+04  0.00000000000E+00 0. -1.
</event>
<event>
 4    1  0.3196713E+003  0.3496119E+02  0.7546771E-02  0.1380836E+00
          2   -1    0    0  501    0  0.00000000000E+00  0.00000000000E+00  0.67157449757E+03  0.67157449757E+03  0.00000000000E+00 0.  1.
         -2   -1    0    0    0  501 -0.00000000000E+00 -0.00000000000E+00 -0.73650360182E+02  0.73650360182E+02  0.00000000000E+00 0.  1.
          2    1    1    2  502    0 -0.24083056891E+02 -0.25343461200E+02  0.66694174738E+03  0.66785745414E+03  0.00000000000E+00 0.  1.
         -2    1    1    2    0  502  0.24083056891E+02  0.25343461200E+02 -0.69017609983E+02  0.77367403618E+02  0.00000000000E+00 0.  1.
</event>
<event>
 4    1  0.3196713E+003  0.2212986E+02  0.7546771E-02  0.1503723E+00
          2   -1    0    0  501    0  0.00000000000E+00  0.00000000000E+00  0.74136783171E+03  0.74136783171E+03  0.00000000000E+00 0.  1.
         -2   -1    0    0    0  501 -0.00000000000E+00 -0.00000000000E+00 -0.20181091354E+01  0.20181091354E+01  0.00000000000E+00 0.  1.
          2    1    1    2  502    0 -0.10542025295E+02 -0.19457551162E+02  0.67452547300E+03  0.67488839397E+03  0.00000000000E+00 0.  1.
         -2    1    1    2    0  502  0.10542025295E+02  0.19457551162E+02  0.64824249577E+02  0.68497546874E+02  0.00000000000E+00 0.  1.
</event>
<event>
 4    1  0.3196713E+003  0.2335917E+02  0.7546771E-02  0.1488037E+00
          2   -1    0    0  501    0  0.00000000000E+00  0.00000000000E+00  0.43492889862E+02  0.43492889862E+02  0.00000000000E+00 0.  1.
         -2   -1    0    0    0  501 -0.00000000000E+00 -0.00000000000E+00 -0.23062341810E+02  0.23062341810E+02  0.00000000000E+00 0. -1.
          2    1    1    2  502    0  0.80898878890E+01 -0.21913555528E+02 -0.12256551416E+02  0.26379409670E+02  0.00000000000E+00 0. -1.
         -2    1    1    2    0  502 -0.80898878890E+01  0.21913555528E+02  0.32687099468E+02  0.40175822002E+02  0.00000000000E+00 0.  1.
</event>
<event>
 4    1  0.3196713E+003  0.5711279E+02  0.7546771E-02  0.1269971E+00
          2   -1    0    0  501    0  0.00000000000E+00  0.00000000000E+00  0.10319432917E+03  0.10319432917E+03  0.00000000000E+00 0.  1.
         -2   -1    0    0    0  501 -0.00000000000E+00 -0.00000000000E+00 -0.29397754945E+03  0.29397754945E+03  0.00000000000E+00 0. -1.
          2    1    1    2  502    0  0.53957713112E+02  0.18719937303E+02  0.92214634168E+02  0.10846847289E+03  0.00000000000E+00 0.  1.
         -2    1    1    2    0  502 -0.53957713112E+02 -0.18719937303E+02 -0.28299785445E+03  0.28870340573E+03  0.00000000000E+00 0. -1.
</event>
<event>
 4    1  0.3196713E+003  0.8160997E+02  0.7546771E-02  0.1200159E+00
          2   -1    0    0  501    0  0.00000000000E+00  0.00000000000E+00  0.15871567171E+04  0.15871567171E+04  0.00000000000E+00 0.  1.
         -2   -1    0    0    0  501 -0.00000000000E+00 -0.00000000000E+00 -0.87236239667E+01  0.87236239667E+01  0.00000000000E+00 0.  1.
          2    1    1    2  502    0  0.81207199928E+02 -0.80979830639E+01  0.13640507739E+04  0.13664899197E+04  0.00000000000E+00 0.  1.
         -2    1    1    2    0  502 -0.81207199928E+02  0.80979830639E+01  0.21438231919E+03  0.22939042140E+03  0.00000000000E+00 0.  1.
</event>
<event>
 4    1  0.3196713E+003  0.2205662E+02  0.7546771E-02  0.1504697E+00
          2   -1    0    0  501    0  0.00000000000E+00  0.00000000000E+00  0.60448928947E+03  0.60448928947E+03  0.00000000000E+00 0. -1.
         -2   -1    0    0    0  501 -0.00000000000E+00 -0.00000000000E+00 -0.21684477229E+02  0.21684477229E+02  0.00000000000E+00 0. -1.
          2    1    1    2  502    0 -0.21107446626E+02  0.64007791491E+01  0.59862437155E+03  0.59903057726E+03  0.00000000000E+00 0. -1.
         -2    1    1    2    0  502  0.21107446626E+02 -0.64007791491E+01 -0.15819559303E+02  0.27143189446E+02  0.00000000000E+00 0. -1.
</event>
<event>
 4    1  0.3196713E+003  0.2345254E+02  0.7546771E-02  0.1486892E+00
          2   -1    0    0  501    0  0.00000000000E+00  0.00000000000E+00  0.20416500328E+02  0.20416500328E+02  0.00000000000E+00 0.  1.
         -2   -1    0    0    0  501 -0.00000000000E+00 -0.00000000000E+00 -0.17482911672E+03  0.17482911672E+03  0.00000000000E+00 0.  1.
          2    1    1    2  502    0 -0.23375584970E+02  0.18982871165E+01  0.12580483920E+02  0.26613719062E+02  0.00000000000E+00 0.  1.
         -2    1    1    2    0  502  0.23375584970E+02 -0.18982871165E+01 -0.16699310032E+03  0.16863189799E+03  0.00000000000E+00 0.  1.
</event>
<event>
 4    1  0.3196713E+003  0.2200408E+02  0.7546771E-02  0.1505397E+00
          2   -1    0    0  501    0  0.00000000000E+00  0.00000000000E+00  0.92590454233E+02  0.92590454233E+02  0.00000000000E+00 0. -1.
         -2   -1    0    0    0  501 -0.00000000000E+00 -0.00000000000E+00 -0.52306475825E+01  0.52306475825E+01  0.00000000000E+00 0. -1.
          2    1    1    2  502    0  0.15470541243E+02 -0.15647423025E+02  0.44476730451E+02  0.49622162843E+02  0.00000000000E+00 0. -1.
         -2    1    1    2    0  502 -0.15470541243E+02  0.15647423025E+02  0.42883076200E+02  0.48198938973E+02  0.00000000000E+00 0. -1.
</event>
<event>
 4    1  0.3196713E+003  0.2029499E+02  0.7546771E-02  0.1529573E+00
          2   -1    0    0  501    0  0.00000000000E+00  0.00000000000E+00  0.49710134593E+03  0.49710134593E+03  0.00000000000E+00 0. -1.
         -2   -1    0    0    0  501 -0.00000000000E+00 -0.00000000000E+00 -0.15728835886E+01  0.15728835886E+01  0.00000000000E+00 0. -1.
          2    1    1    2  502    0 -0.19947112534E+02  0.37415611910E+01  0.41928419115E+03  0.41977508207E+03  0.00000000000E+00 0. -1.
         -2    1    1    2    0  502  0.19947112534E+02 -0.37415611910E+01  0.76244271190E+02  0.78899147447E+02  0.00000000000E+00 0. -1.
</event>
<event>
 4    1  0.3196713E+003  0.2267754E+02  0.7546771E-02  0.1496588E+00
          2   -1    0    0  501    0  0.00000000000E+00  0.00000000000E+00  0.64058040127E+03  0.64058040127E+03  0.00000000000E+00 0. -1.
         -2   -1    0    0    0  501 -0.00000000000E+00 -0.00000000000E+00 -0.10045947140E+02  0.10045947140E+02  0.00000000000E+00 0.  1.
          2    1    1    2  502    0 -0.13300078029E+02 -0.18367869563E+02  0.62731110911E+03  0.62772087612E+03  0.00000000000E+00 0. -1.
         -2    1    1    2    0  502  0.13300078029E+02  0.18367869563E+02  0.32233450263E+01  0.22905472294E+02  0.00000000000E+00 0.  1.
</event>
<event>
 4    1  0.3196713E+003  0.2018466E+02  0.7546771E-02  0.1531231E+00
          2   -1    0    0  501    0  0.00000000000E+00  0.00000000000E+00  0.24163505760E+02  0.24163505760E+02  0.00000000000E+00 0. -1.
         -2   -1    0    0    0  501 -0.00000000000E+00 -0.00000000000E+00 -0.74361547024E+02  0.74361547024E+02  0.00000000000E+00 0. -1.
          2    1    1    2  502    0 -0.19170483818E+02  0.63176862055E+01  0.18219987238E+02  0.27191699905E+02  0.00000000000E+00 0. -1.
         -2    1    1    2    0  502  0.19170483818E+02 -0.63176862055E+01 -0.68418028502E+02  0.71333352879E+02  0.00000000000E+00 0. -1.
</event>
<event>
 4    1  0.3196713E+003  0.2838380E+02  0.7546771E-02  0.1434182E+00
          2   -1    0    0  501    0  0.00000000000E+00  0.00000000000E+00  0.47494144966E+03  0.47494144966E+03  0.00000000000E+00 0. -1.
         -2   -1    0    0    0  501 -0.00000000000E+00 -0.00000000000E+00 -0.11210343567E+02  0.11210343567E+02  0.00000000000E+00 0.  1.
          2    1    1    2  502    0  0.21923936980E+02 -0.18027237996E+02  0.45579702781E+03  0.45667994360E+03  0.00000000000E+00 0. -1.
         -2    1    1    2    0  502 -0.21923936980E+02  0.18027237996E+02  0.79340782819E+01  0.29471849630E+02  0.00000000000E+00 0.  1.
</event>
<event>
 4    1  0.3196713E+003  0.2093270E+02  0.7546771E-02  0.1520228E+00
          2   -1    0    0  501    0  0.00000000000E+00  0.00000000000E+00  0.71162569105E+02  0.71162569105E+02  0.00000000000E+00 0.  1.
         -2   -1    0    0    0  501 -0.00000000000E+00 -0.00000000000E+00 -0.23969529547E+02  0.23969529547E+02  0.00000000000E+00 0. -1.
          2    1    1    2  502    0 -0.65476464886E+01  0.19882307302E+02  0.64600404789E+02  0.67907216973E+02  0.00000000000E+00 0.  1.
         -2    1    1    2    0  502  0.65476464886E+01 -0.19882307302E+02 -0.17407365230E+02  0.27224881679E+02  0.00000000000E+00 0. -1.
</event>
<event>
 4    1  0.3196713E+003  0.5643920E+02  0.7546771E-02  0.1272436E+00
          2   -1    0    0  501    0  0.00000000000E+00  0.00000000000E+00  0.64961213295E+03  0.64961213295E+03  0.00000000000E+00 0.  1.
         -2   -1    0    0    0  501 -0.00000000000E+00 -0.00000000000E+00 -0.87958229390E+01  0.87958229390E+01  0.00000000000E+00 0. -1.
          2    1    1    2  502    0  0.14773545633E+02 -0.54471325346E+02  0.53940125071E+03  0.54234591563E+03  0.00000000000E+00 0.  1.
         -2    1    1    2    0  502 -0.14773545633E+02  0.54471325346E+02  0.10141505930E+03  0.11606204026E+03  0.00000000000E+00 0. -1.
</event>
<event>
 4    1  0.3196713E+003  0.2987656E+02  0.7546771E-02  0.1420672E+00
          2   -1    0    0  501    0  0.00000000000E+00  0.00000000000E+00  0.11159355620E+04  0.11159355620E+04  0.00000000000E+00 0. -1.
         -2   -1    0    0    0  501 -0.00000000000E+00 -0.00000000000E+00 -0.15471565731E+01  0.15471565731E+01  0.00000000000E+00 0.  1.
          2    1    1    2  502    0  0.23810597154E+02  0.18046176790E+02  0.94551066598E+03  0.94598257305E+03  0.00000000000E+00 0. -1.
         -2    1    1    2    0  502 -0.23810597154E+02 -0.18046176790E+02  0.16887773945E+03  0.17150014552E+03  0.00000000000E+00 0.  1.
</event>
<event>
 4    1  0.3196713E+003  0.3503409E+02  0.7546771E-02  0.1380324E+00
          2   -1    0    0  501    0  0.00000000000E+00  0.00000000000E+00  0.12440663413E+04  0.12440663413E+04  0.00000000000E+00 0.  1.
         -2   -1    0    0    0  501 -0.00000000000E+00 -0.00000000000E+00 -0.12935680007E+03  0.12935680007E+03  0.00000000000E+00 0. -1.
          2    1    1    2  502    0 -0.10423250105E+02 -0.33447620219E+02  0.12414425838E+04  0.12419368246E+04  0.00000000000E+00 0.  1.
         -2    1    1    2    0  502  0.10423250105E+02  0.33447620219E+02 -0.12673304252E+03  0.13148631681E+03  0.00000000000E+00 0. -1.
</event>
<event>
 4    1  0.3196713E+003  0.2910111E+02  0.7546771E-02  0.1427572E+00
          2   -1    0    0  501    0  0.00000000000E+00  0.00000000000E+00  0.44760446132E+03  0.44760446132E+03  0.00000000000E+00 0.  1.
         -2   -1    0    0    0  501 -0.00000000000E+00 -0.00000000000E+00 -0.29566589079E+02  0.29566589079E+02  0.00000000000E+00 0. -1.
          2    1    1    2  502    0 -0.21444016466E+02  0.19673050120E+02  0.43984452123E+03  0.44080616784E+03  0.00000000000E+00 0.  1.
         -2    1    1    2    0  502  0.21444016466E+02 -0.19673050120E+02 -0.21806648995E+02  0.36364882560E+02  0.00000000000E+00 0. -1.
</event>
<event>
 4    1  0.3196713E+003  0.2503544E+02  0.7546771E-02  0.1468407E+00
          2   -1    0    0  501    0  0.00000000000E+00  0.00000000000E+00  0.14794475099E+04  0.14794475099E+04  0.00000000000E+00 0.  1.
         -2   -1    0    0    0  501 -0.00000000000E+00 -0.00000000000E+00 -0.53836037527E+00  0.53836037527E+00  0.00000000000E+00 0. -1.
          2    1    1    2  502    0 -0.24118329200E+02 -0.67141225640E+01  0.10810291907E+04  0.10813190484E+04  0.00000000000E+00 0.  1.
         -2    1    1    2    0  502  0.24118329200E+02  0.67141225640E+01  0.39787995881E+03  0.39866682188E+03  0.00000000000E+00 0. -1.
</event>
<event>
 4    1  0.3196713E+003  0.2735042E+02  0.7546771E-02  0.1444119E+00
          2   -1    0    0  501    0  0.00000000000E+00  0.00000000000E+00  0.51759174378E+02  0.51759174378E+02  0.00000000000E+00 0.  1.
         -2   -1    0    0    0  501 -0.00000000000E+00 -0.00000000000E+00 -0.72104421829E+02  0.72104421829E+02  0.00000000000E+00 0. -1.
          2    1    1    2  502    0  0.25071315075E+02 -0.10930450310E+02  0.45205714205E+02  0.52835614696E+02  0.00000000000E+00 0.  1.
         -2    1    1    2    0  502 -0.25071315075E+02  0.10930450310E+02 -0.65550961656E+02  0.71027981511E+02  0.00000000000E+00 0. -1.
</event>
<event>
 4    1  0.3196713E+003  0.2030381E+02  0.7546771E-02  0.1529441E+00
          2   -1    0    0  501    0  0.00000000000E+00  0.00000000000E+00  0.77689999216E+02  0.77689999216E+02  0.00000000000E+00 0. -1.
         -2   -1    0    0    0  501 -0.00000000000E+00 -0.00000000000E+00 -0.81679321169E+02  0.81679321169E+02  0.00000000000E+00 0.  1.
          2    1    1    2  502    0  0.15026590830E+02  0.13654531525E+02  0.75058190583E+02  0.77755878470E+02  0.00000000000E+00 0. -1.
         -2    1    1    2    0  502 -0.15026590830E+02 -0.13654531525E+02 -0.79047512536E+02  0.81613441915E+02  0.00000000000E+00 0.  1.
</event>
<event>
 4    1  0.3196713E+003  0.2343491E+02  0.7546771E-02  0.1487108E+00
          2   -1    0    0  501    0  0.00000000000E+00  0.00000000000E+00  0.12523292792E+03  0.12523292792E+03  0.00000000000E+00 0.  1.
         -2   -1    0    0    0  501 -0.00000000000E+00 -0.00000000000E+00 -0.22148042254E+03  0.22148042254E+03  0.00000000000E+00 0.  1.
          2    1    1    2  502    0  0.20613569238E+02 -0.11147895310E+02  0.12350808698E+03  0.12571174311E+03  0.00000000000E+00 0.  1.
         -2    1    1    2    0  502 -0.20613569238E+02  0.11147895310E+02 -0.21975558160E+03  0.22100160735E+03  0.00000000000E+00 0.  1.
</event>
<event>
 4    1  0.3196713E+003  0.2424710E+02  0.7546771E-02  0.1477405E+00
          2   -1    0    0  501    0  0.00000000000E+00  0.00000000000E+00  0.11371907054E+03  0.11371907054E+03  0.00000000000E+00 0. -1.
         -2   -1    0    0    0  501 -0.00000000000E+00 -0.00000000000E+00 -0.44036100590E+02  0.44036100590E+02  0.00000000000E+00 0. -1.
          2    1    1    2  502    0 -0.19528931398E+02 -0.14371594623E+02  0.10894434093E+03  0.11160999648E+03  0.00000000000E+00 0. -1.
         -2    1    1    2    0  502  0.19528931398E+02  0.14371594623E+02 -0.39261370972E+02  0.46145174657E+02  0.00000000000E+00 0. -1.
</event>
<event>
 4    1  0.3196713E+003  0.7163611E+02  0.7546771E-02  0.1224721E+00
          2   -1    0    0  501    0  0.00000000000E+00  0.00000000000E+00  0.70442683975E+03  0.70442683975E+03  0.00000000000E+00 0. -1.
         -2   -1    0    0    0  501 -0.00000000000E+00 -0.00000000000E+00 -0.13831513990E+03  0.13831513990E+03  0.00000000000E+00 0. -1.
          2    1    1    2  502    0 -0.70140499563E+02  0.14561677469E+02  0.69318006810E+03  0.69687182390E+03  0.00000000000E+00 0. -1.
         -2    1    1    2    0  502  0.70140499563E+02 -0.14561677469E+02 -0.12706836826E+03  0.14587015576E+03  0.00000000000E+00 0. -1.
</event>
<event>
 4    1  0.3196713E+003  0.4240987E+02  0.7546771E-02  0.1334915E+00
          2   -1    0    0  501    0  0.00000000000E+00  0.00000000000E+00  0.17137147697E+03  0.17137147697E+03  0.00000000000E+00 0.  1.
         -2   -1    0    0    0  501 -0.00000000000E+00 -0.00000000000E+00 -0.17929557457E+02  0.17929557457E+02  0.00000000000E+00 0.  1.
          2    1    1    2  502    0  0.21189725104E+01  0.42356902321E+02  0.13766856379E+03  0.14405287458E+03  0.00000000000E+00 0.  1.
         -2    1    1    2    0  502 -0.21189725104E+01 -0.42356902321E+02  0.15773355722E+02  0.45248159846E+02  0.00000000000E+00 0.  1.
</event>
<event>
 4    1  0.3196713E+003  0.3854208E+02  0.7546771E-02  0.1357248E+00
          2   -1    0    0  501    0  0.00000000000E+00  0.00000000000E+00  0.32649261699E+04  0.32649261699E+04  0.00000000000E+00 0. -1.
         -2   -1    0    0    0  501 -0.00000000000E+00 -0.00000000000E+00 -0.65655302390E+00  0.65655302390E+00  0.00000000000E+00 0. -1.
          2    1    1    2  502    0  0.84612758080E+01  0.37601842267E+02  0.25368394994E+04  0.25371322665E+04  0.00000000000E+00 0. -1.
         -2    1    1    2    0  502 -0.84612758080E+01 -0.37601842267E+02  0.72743011747E+03  0.72845045647E+03  0.00000000000E+00 0. -1.
</event>
<event>
 4    1  0.3196713E+003  0.2716290E+02  0.7546771E-02  0.1445979E+00
          2   -1    0    0  501    0  0.00000000000E+00  0.00000000000E+00  0.12769026230E+01  0.12769026230E+01  0.00000000000E+00 0. -1.
         -2   -1    0    0    0  501 -0.00000000000E+00 -0.00000000000E+00 -0.11524610726E+04  0.11524610726E+04  0.00000000000E+00 0. -1.
          2    1    1    2  502    0 -0.18201038827E+02  0.20162963046E+02 -0.16824792155E+03  0.17042648268E+03  0.00000000000E+00 0. -1.
         -2    1    1    2    0  502  0.18201038827E+02 -0.20162963046E+02 -0.98293624842E+03  0.98331149253E+03  0.00000000000E+00 0. -1.
</event>
<event>
 4    1  0.3196713E+003  0.2001597E+02  0.7546771E-02  0.1533792E+00
          2   -1    0    0  501    0  0.00000000000E+00  0.00000000000E+00  0.12890084507E+03  0.12890084507E+03  0.00000000000E+00 0.  1.
         -2   -1    0    0    0  501 -0.00000000000E+00 -0.00000000000E+00 -0.36710616218E+01  0.36710616218E+01  0.00000000000E+00 0.  1.
          2    1    1    2  502    0  0.17113266477E+02 -0.10381470469E+02  0.36657636111E+02  0.41766267536E+02  0.00000000000E+00 0.  1.
         -2    1    1    2    0  502 -0.17113266477E+02  0.10381470469E+02  0.88572147334E+02  0.90805639153E+02  0.00000000000E+00 0.  1.
</event>
<event>
 4    1  0.3196713E+003  0.2608252E+02  0.7546771E-02  0.1457049E+00
          2   -1    0    0  501    0  0.00000000000E+00  0.00000000000E+00  0.65317508927E+03  0.65317508927E+03  0.00000000000E+00 0.  1.
         -2   -1    0    0    0  501 -0.00000000000E+00 -0.00000000000E+00 -0.34637849460E+01  0.34637849460E+01  0.00000000000E+00 0. -1.
          2    1    1    2  502    0  0.24102442686E+02 -0.99684524070E+01  0.59941204657E+03  0.59997924911E+03  0.00000000000E+00 0.  1.
         -2    1    1    2    0  502 -0.24102442686E+02  0.99684524070E+01  0.50299257754E+02  0.56659625108E+02  0.00000000000E+00 0. -1.
</event>
<event>
 4    1  0.3196713E+003  0.5381698E+02  0.7546771E-02  0.1282421E+00
          2   -1    0    0  501    0  0.00000000000E+00  0.00000000000E+00  0.12789276400E+04  0.12789276400E+04  0.00000000000E+00 0.  1.
         -2   -1    0    0    0  501 -0.00000000000E+00 -0.00000000000E+00 -0.43842874151E+02  0.43842874151E+02  0.00000000000E+00 0. -1.
          2    1    1    2  502    0 -0.42530139274E+02 -0.32976577353E+02  0.12616199876E+04  0.12627673026E+04  0.00000000000E+00 0.  1.
         -2    1    1    2    0  502  0.42530139274E+02  0.32976577353E+02 -0.26535221766E+02  0.60003211537E+02  0.00000000000E+00 0. -1.
</event>
<event>
 4    1  0.3196713E+003  0.2247963E+02  0.7546771E-02  0.1499138E+00
          2   -1    0    0  501    0  0.00000000000E+00  0.00000000000E+00  0.11969055446E+03  0.11969055446E+03  0.00000000000E+00 0.  1.
         -2   -1    0    0    0  501 -0.00000000000E+00 -0.00000000000E+00 -0.80006568013E+01  0.80006568013E+01  0.00000000000E+00 0. -1.
          2    1    1    2  502    0  0.11338094854E+02  0.19410855404E+02  0.99721938888E+02  0.10222425739E+03  0.00000000000E+00 0.  1.
         -2    1    1    2    0  502 -0.11338094854E+02 -0.19410855404E+02  0.11967958765E+02  0.25466953871E+02  0.00000000000E+00 0. -1.
</event>
<event>
 4    1  0.3196713E+003  0.2116664E+02  0.7546771E-02  0.1516899E+00
          2   -1    0    0  501    0  0.00000000000E+00  0.00000000000E+00  0.16484782524E+03  0.16484782524E+03  0.00000000000E+00 0.  1.
         -2   -1    0    0    0  501 -0.00000000000E+00 -0.00000000000E+00 -0.11332601903E+03  0.11332601903E+03  0.00000000000E+00 0.  1.
          2    1    1    2  502    0  0.14215852493E+02 -0.15682349268E+02  0.16316989165E+03  0.16453704775E+03  0.00000000000E+00 0.  1.
         -2    1    1    2    0  502 -0.14215852493E+02  0.15682349268E+02 -0.11164808544E+03  0.11363679652E+03  0.00000000000E+00 0.  1.
</event>
<event>
 4    1  0.3196713E+003  0.4679730E+02  0.7546771E-02  0.1312689E+00
          2   -1    0    0  501    0  0.00000000000E+00  0.00000000000E+00  0.18836123487E+03  0.18836123487E+03  0.00000000000E+00 0.  1.
         -2   -1    0    0    0  501 -0.00000000000E+00 -0.00000000000E+00 -0.12106038066E+02  0.12106038066E+02  0.00000000000E+00 0.  1.
          2    1    1    2  502    0  0.22951798924E+02  0.40782371185E+02  0.10807618131E+03  0.11777286546E+03  0.00000000000E+00 0.  1.
         -2    1    1    2    0  502 -0.22951798924E+02 -0.40782371185E+02  0.68179015491E+02  0.82694407469E+02  0.00000000000E+00 0.  1.
</event>
<event>
 4    1  0.3196713E+003  0.2354777E+02  0.7546771E-02  0.1485732E+00
          2   -1    0    0  501    0  0.00000000000E+00  0.00000000000E+00  0.19002434764E+03  0.19002434764E+03  0.00000000000E+00 0. -1.
         -2   -1    0    0    0  501 -0.00000000000E+00 -0.00000000000E+00 -0.61674323577E+01  0.61674323577E+01  0.00000000000E+00 0. -1.
          2    1    1    2  502    0  0.23206755694E+02  0.39929938860E+01  0.16313175266E+03  0.16482252952E+03  0.00000000000E+00 0. -1.
         -2    1    1    2    0  502 -0.23206755694E+02 -0.39929938860E+01  0.20725162619E+02  0.31369250478E+02  0.00000000000E+00 0. -1.
</event>
<event>
 4    1  0.3196713E+003  0.2349783E+02  0.7546771E-02  0.1486340E+00
          2   -1    0    0  501    0  0.00000000000E+00  0.00000000000E+00  0.10943597771E+04  0.10943597771E+04  0.00000000000E+00 0.  1.
         -2   -1    0    0    0  501 -0.00000000000E+00 -0.00000000000E+00 -0.37523036764E+01  0.37523036764E+01  0.00000000000E+00 0.  1.
          2    1    1    2  502    0  0.21274173087E+02  0.99778459583E+01  0.10561143601E+04  0.10563757331E+04  0.00000000000E+00 0.  1.
         -2    1    1    2    0  502 -0.21274173087E+02 -0.99778459583E+01  0.34493113253E+02  0.41736347616E+02  0.00000000000E+00 0.  1.
</event>
<event>
 4    1  0.3196713E+003  0.3715980E+02  0.7546771E-02  0.1365984E+00
          2   -1    0    0  501    0  0.00000000000E+00  0.00000000000E+00  0.31230445345E+03  0.31230445345E+03  0.00000000000E+00 0.  1.
         -2   -1    0    0    0  501 -0.00000000000E+00 -0.00000000000E+00 -0.45350110498E+01  0.45350110498E+01  0.00000000000E+00 0.  1.
          2    1    1    2  502    0 -0.43236537307E+01 -0.36907385269E+02  0.12881957535E+03  0.13407211515E+03  0.00000000000E+00 0.  1.
         -2    1    1    2    0  502  0.43236537307E+01  0.36907385269E+02  0.17894986706E+03  0.18276734935E+03  0.00000000000E+00 0.  1.
</event>
<event>
 4    1  0.3196713E+003  0.2470151E+02  0.7546771E-02  0.1472170E+00
          2   -1    0    0  501    0  0.00000000000E+00  0.00000000000E+00  0.15078102680E+04  0.15078102680E+04  0.00000000000E+00 0. -1.
         -2   -1    0    0    0  501 -0.00000000000E+00 -0.00000000000E+00 -0.31903507598E+01  0.31903507598E+01  0.00000000000E+00 0.  1.
          2    1    1    2  502    0  0.86488289143E+01 -0.23137903306E+02  0.14582716611E+04  0.14584808543E+04  0.00000000000E+00 0. -1.
         -2    1    1    2    0  502 -0.86488289143E+01  0.23137903306E+02  0.46348256141E+02  0.52519764454E+02  0.00000000000E+00 0.  1.
</event>
<event>
 4    1  0.3196713E+003  0.2106139E+02  0.7546771E-02  0.1518390E+00
          2   -1    0    0  501    0  0.00000000000E+00  0.00000000000E+00  0.99155691749E+03  0.99155691749E+03  0.00000000000E+00 0.  1.
         -2   -1    0    0    0  501 -0.00000000000E+00 -0.00000000000E+00 -0.55400465761E+00  0.55400465761E+00  0.00000000000E+00 0. -1.
          2    1    1    2  502    0 -0.35316176821E+01 -0.20763179520E+02  0.71314462560E+03  0.71345556201E+03  0.00000000000E+00 0.  1.
         -2    1    1    2    0  502  0.35316176821E+01  0.20763179520E+02  0.27785828724E+03  0.27865536014E+03  0.00000000000E+00 0. -1.
</event>
<event>
 4    1  0.3196713E+003  0.2217647E+02  0.7546771E-02  0.1503107E+00
          2   -1    0    0  501    0  0.00000000000E+00  0.00000000000E+00  0.96759308046E+03  0.96759308046E+03  0.00000000000E+00 0.  1.
         -2   -1    0    0    0  501 -0.00000000000E+00 -0.00000000000E+00 -0.90788672793E+01  0.90788672793E+01  0.00000000000E+00 0.  1.
          2    1    1    2  502    0 -0.31158411594E+01  0.21956483240E+02  0.95372683058E+03  0.95398462408E+03  0.00000000000E+00 0.  1.
         -2    1    1    2    0  502  0.31158411594E+01 -0.21956483240E+02  0.47873825996E+01  0.22687323653E+02  0.00000000000E+00 0.  1.
</event>
<event>
 4    1  0.3196713E+003  0.2138132E+02  0.7546771E-02  0.1513890E+00
          2   -1    0    0  501    0  0.00000000000E+00  0.00000000000E+00  0.29129724650E+03  0.29129724650E+03  0.00000000000E+00 0.  1.
         -2   -1    0    0    0  501 -0.00000000000E+00 -0.00000000000E+00 -0.38767162794E+02  0.38767162794E+02  0.00000000000E+00 0.  1.
          2    1    1    2  502    0 -0.85364427860E+01  0.19603319732E+02  0.28792226733E+03  0.28871507239E+03  0.00000000000E+00 0.  1.
         -2    1    1    2    0  502  0.85364427860E+01 -0.19603319732E+02 -0.35392183630E+02  0.41349336899E+02  0.00000000000E+00 0.  1.
</event>
<event>
 4    1  0.3196713E+003  0.5011156E+02  0.7546771E-02  0.1297689E+00
          2   -1    0    0  501    0  0.00000000000E+00  0.00000000000E+00  0.19751104646E+03  0.19751104646E+03  0.00000000000E+00 0. -1.
         -2   -1    0    0    0  501 -0.00000000000E+00 -0.00000000000E+00 -0.33326071488E+02  0.33326071488E+02  0.00000000000E+00 0. -1.
          2    1    1    2  502    0  0.26699381924E+02  0.42406499946E+02  0.17286277788E+03  0.17997974389E+03  0.00000000000E+00 0. -1.
         -2    1    1    2    0  502 -0.26699381924E+02 -0.42406499946E+02 -0.86778029109E+01  0.50857374059E+02  0.00000000000E+00 0. -1.
</event>
<event>
 4    1  0.3196713E+003  0.8771307E+02  0.7546771E-02  0.1186991E+00
          2   -1    0    0  501    0  0.00000000000E+00  0.00000000000E+00  0.61497079184E+03  0.61497079184E+03  0.00000000000E+00 0.  1.
         -2   -1    0    0    0  501 -0.00000000000E+00 -0.00000000000E+00 -0.13209619918E+02  0.13209619918E+02  0.00000000000E+00 0.  1.
          2    1    1    2  502    0  0.73621822693E+02  0.47680293820E+02  0.37313918951E+03  0.38330984587E+03  0.00000000000E+00 0.  1.
         -2    1    1    2    0  502 -0.73621822693E+02 -0.47680293820E+02  0.22862198242E+03  0.24487056589E+03  0.00000000000E+00 0.  1.
</event>
<event>
 4    1  0.3196713E+003  0.4108241E+02  0.7546771E-02  0.1342257E+00
          2   -1    0    0  501    0  0.00000000000E+00  0.00000000000E+00  0.20288559057E+04  0.20288559057E+04  0.00000000000E+00 0.  1.
         -2   -1    0    0    0  501 -0.00000000000E+00 -0.00000000000E+00 -0.41600826009E+01  0.41600826009E+01  0.00000000000E+00 0. -1.
          2    1    1    2  502    0  0.40754714240E+02  0.51786132218E+01  0.19215589412E+04  0.19219980566E+04  0.00000000000E+00 0.  1.
         -2    1    1    2    0  502 -0.40754714240E+02 -0.51786132218E+01  0.10313688184E+03  0.11101793172E+03  0.00000000000E+00 0. -1.
</event>
<event>
 4    1  0.3196713E+003  0.2615525E+02  0.7546771E-02  0.1456283E+00
          2   -1    0    0  501    0  0.00000000000E+00  0.00000000000E+00  0.79856983629E+03  0.79856983629E+03  0.00000000000E+00 0.  1.
         -2   -1    0    0    0  501 -0.00000000000E+00 -0.00000000000E+00 -0.10824341982E+02  0.10824341982E+02  0.00000000000E+00 0.  1.
          2    1    1    2  502    0  0.26128960105E+02  0.11723367864E+01  0.78222566817E+03  0.78266282196E+03  0.00000000000E+00 0.  1.
         -2    1    1    2    0  502 -0.26128960105E+02 -0.11723367864E+01  0.55198261357E+01  0.26731356312E+02  0.00000000000E+00 0.  1.
</event>
<event>
 4    1  0.3196713E+003  0.3816291E+02  0.7546771E-02  0.1359601E+00
          2   -1    0    0  501    0  0.00000000000E+00  0.00000000000E+00  0.20826530342E+01  0.20826530342E+01  0.00000000000E+00 0.  1.
         -2   -1    0    0    0  501 -0.00000000000E+00 -0.00000000000E+00 -0.11745787307E+04  0.11745787307E+04  0.00000000000E+00 0.  1.
          2    1    1    2  502    0 -0.37769219292E+02 -0.54675441079E+01 -0.21200587059E+03  0.21541331697E+03  0.00000000000E+00 0.  1.
         -2    1    1    2    0  502  0.37769219292E+02  0.54675441079E+01 -0.96049020711E+03  0.96124806679E+03  0.00000000000E+00 0.  1.
</event>
<event>
 4    1  0.3196713E+003  0.2463535E+02  0.7546771E-02  0.1472924E+00
          2   -1    0    0  501    0  0.00000000000E+00  0.00000000000E+00  0.10991829030E+03  0.10991829030E+03  0.00000000000E+00 0. -1.
         -2   -1    0    0    0  501 -0.00000000000E+00 -0.00000000000E+00 -0.83006693290E+01  0.83006693290E+01  0.00000000000E+00 0. -1.
          2    1    1    2  502    0  0.19590591329E+02 -0.14936839475E+02  0.85012078874E+02  0.88509626575E+02  0.00000000000E+00 0. -1.
         -2    1    1    2    0  502 -0.19590591329E+02  0.14936839475E+02  0.16605542096E+02  0.29709333052E+02  0.00000000000E+00 0. -1.
</event>
<event>
 4    1  0.3196713E+003  0.3395705E+02  0.7546771E-02  0.1388047E+00
          2   -1    0    0  501    0  0.00000000000E+00  0.00000000000E+00  0.97711447396E+03  0.97711447396E+03  0.00000000000E+00 0. -1.
         -2   -1    0    0    0  501 -0.00000000000E+00 -0.00000000000E+00 -0.18495477752E+01  0.18495477752E+01  0.00000000000E+00 0. -1.
          2    1    1    2  502    0  0.30480355825E+02 -0.14967596077E+02  0.78211952296E+03  0.78285632731E+03  0.00000000000E+00 0. -1.
         -2    1    1    2    0  502 -0.30480355825E+02  0.14967596077E+02  0.19314540323E+03  0.19610769442E+03  0.00000000000E+00 0. -1.
</event>
<event>
 4    1  0.3196713E+003  0.2461744E+02  0.7546771E-02  0.1473129E+00
          2   -1    0    0  501    0  0.00000000000E+00  0.00000000000E+00  0.17613497478E+04  0.17613497478E+04  0.00000000000E+00 0. -1.
         -2   -1    0    0    0  501 -0.00000000000E+00 -0.00000000000E+00 -0.91288615105E+02  0.91288615105E+02  0.00000000000E+00 0.  1.
          2    1    1    2  502    0  0.65929125748E+01  0.23718174638E+02  0.17596024619E+04  0.17597746567E+04  0.00000000000E+00 0. -1.
         -2    1    1    2    0  502 -0.65929125748E+01 -0.23718174638E+02 -0.89541329197E+02  0.92863706251E+02  0.00000000000E+00 0.  1.
</event>
<event>
 4    1  0.3196713E+003  0.2674989E+02  0.7546771E-02  0.1450137E+00
          2   -1    0    0  501    0  0.00000000000E+00  0.00000000000E+00  0.47082332863E+03  0.47082332863E+03  0.00000000000E+00 0.  1.
         -2   -1    0    0    0  501 -0.00000000000E+00 -0.00000000000E+00 -0.17260808862E+01  0.17260808862E+01  0.00000000000E+00 0. -1.
          2    1    1    2  502    0 -0.21676724376E+02  0.15674045139E+02  0.15286802962E+03  0.15519081981E+03  0.00000000000E+00 0. -1.
         -2    1    1    2    0  502  0.21676724376E+02 -0.15674045139E+02  0.31622921812E+03  0.31735858971E+03  0.00000000000E+00 0.  1.
</event>
<event>
 4    1  0.3196713E+003  0.3675387E+02  0.7546771E-02  0.1368635E+00
          2   -1    0    0  501    0  0.00000000000E+00  0.00000000000E+00  0.64511478737E+02  0.64511478737E+02  0.00000000000E+00 0.  1.
         -2   -1    0    0    0  501 -0.00000000000E+00 -0.00000000000E+00 -0.12168348720E+03  0.12168348720E+03  0.00000000000E+00 0.  1.
          2    1    1    2  502    0 -0.36371874904E+02  0.52852417330E+01  0.56123352560E+02  0.67087090910E+02  0.00000000000E+00 0.  1.
         -2    1    1    2    0  502  0.36371874904E+02 -0.52852417330E+01 -0.11329536102E+03  0.11910787502E+03  0.00000000000E+00 0.  1.
</event>
<event>
 4    1  0.3196713E+003  0.2257804E+02  0.7546771E-02  0.1497866E+00
          2   -1    0    0  501    0  0.00000000000E+00  0.00000000000E+00  0.37303339684E+01  0.37303339684E+01  0.00000000000E+00 0.  1.
         -2   -1    0    0    0  501 -0.00000000000E+00 -0.00000000000E+00 -0.81545112506E+03  0.81545112506E+03  0.00000000000E+00 0. -1.
          2    1    1    2  502    0  0.22441894396E+02 -0.24757798966E+01 -0.32162299016E+02  0.39296075990E+02  0.00000000000E+00 0.  1.
         -2    1    1    2    0  502 -0.22441894396E+02  0.24757798966E+01 -0.77955849207E+03  0.77988538303E+03  0.00000000000E+00 0. -1.
</event>
<event>
 4    1  0.3196713E+003  0.2181465E+02  0.7546771E-02  0.1507944E+00
          2   -1    0    0  501    0  0.00000000000E+00  0.00000000000E+00  0.46219886388E+03  0.46219886388E+03  0.00000000000E+00 0. -1.
         -2   -1    0    0    0  501 -0.00000000000E+00 -0.00000000000E+00 -0.37365393124E+01  0.37365393124E+01  0.00000000000E+00 0.  1.
          2    1    1    2  502    0 -0.59022646528E+01 -0.21001002571E+02  0.42752096925E+03  0.42807716359E+03  0.00000000000E+00 0. -1.
         -2    1    1    2    0  502  0.59022646528E+01  0.21001002571E+02  0.30941355313E+02  0.37858239600E+02  0.00000000000E+00 0.  1.
</event>
<event>
 4    1  0.3196713E+003  0.3197661E+02  0.7546771E-02  0.1403163E+00
          2   -1    0    0  501    0  0.00000000000E+00  0.00000000000E+00  0.20219351560E+04  0.20219351560E+04  0.00000000000E+00 0.  1.
         -2   -1    0    0    0  501 -0.00000000000E+00 -0.00000000000E+00 -0.18252924029E+03  0.18252924029E+03  0.00000000000E+00 0.  1.
          2    1    1    2  502    0  0.14752052155E+02  0.28370417731E+02  0.20204072051E+04  0.20206602332E+04  0.00000000000E+00 0.  1.
         -2    1    1    2    0  502 -0.14752052155E+02 -0.28370417731E+02 -0.18100128933E+03  0.18380416313E+03  0.00000000000E+00 0.  1.
</event>
<event>
 4    1  0.3196713E+003  0.3111136E+02  0.7546771E-02  0.1410178E+00
          2   -1    0    0  501    0  0.00000000000E+00  0.00000000000E+00  0.39221415735E+02  0.39221415735E+02  0.00000000000E+00 0.  1.
         -2   -1    0    0    0  501 -0.00000000000E+00 -0.00000000000E+00 -0.31322723320E+02  0.31322723320E+02  0.00000000000E+00 0. -1.
          2    1    1    2  502    0  0.12804766129E+02  0.28354092784E+02  0.20194763588E+02  0.37091037861E+02  0.00000000000E+00 0.  1.
         -2    1    1    2    0  502 -0.12804766129E+02 -0.28354092784E+02 -0.12296071173E+02  0.33453101194E+02  0.00000000000E+00 0. -1.
</event>
<event>
 4    1  0.3196713E+003  0.2245283E+02  0.7546771E-02  0.1499486E+00
          2   -1    0    0  501    0  0.00000000000E+00  0.00000000000E+00  0.39459434504E+01  0.39459434504E+01  0.00000000000E+00 0.  1.
         -2   -1    0    0    0  501 -0.00000000000E+00 -0.00000000000E+00 -0.12824901419E+03  0.12824901419E+03  0.00000000000E+00 0.  1.
          2    1    1    2  502    0  0.19904715851E+02  0.10389022074E+02 -0.58065562274E+02  0.62255433618E+02  0.00000000000E+00 0.  1.
         -2    1    1    2    0  502 -0.19904715851E+02 -0.10389022074E+02 -0.66237508465E+02  0.69939524022E+02  0.00000000000E+00 0.  1.
</event>
<event>
 4    1  0.3196713E+003  0.2316039E+02  0.7546771E-02  0.1490494E+00
          2   -1    0    0  501    0  0.00000000000E+00  0.00000000000E+00  0.17203269594E+04  0.17203269594E+04  0.00000000000E+00 0. -1.
         -2   -1    0    0    0  501 -0.00000000000E+00 -0.00000000000E+00 -0.31220464103E+00  0.31220464103E+00  0.00000000000E+00 0. -1.
          2    1    1    2  502    0  0.78835201513E-01  0.23160242711E+02  0.82914888315E+03  0.82947228614E+03  0.00000000000E+00 0. -1.
         -2    1    1    2    0  502 -0.78835201513E-01 -0.23160242711E+02  0.89086587165E+03  0.89116687793E+03  0.00000000000E+00 0. -1.
</event>
<event>
 4    1  0.3196713E+003  0.2472007E+02  0.7546771E-02  0.1471959E+00
          2   -1    0    0  501    0  0.00000000000E+00  0.00000000000E+00  0.98069193351E+03  0.98069193351E+03  0.00000000000E+00 0. -1.
         -2   -1    0    0    0  501 -0.00000000000E+00 -0.00000000000E+00 -0.16783137551E+02  0.16783137551E+02  0.00000000000E+00 0. -1.
          2    1    1    2  502    0 -0.13017523891E+02 -0.21014898085E+02  0.97134597048E+03  0.97166047374E+03  0.00000000000E+00 0. -1.
         -2    1    1    2    0  502  0.13017523891E+02  0.21014898085E+02 -0.74371745207E+01  0.25814597317E+02  0.00000000000E+00 0. -1.
</event>
<event>
 4    1  0.3196713E+003  0.4057389E+02  0.7546771E-02  0.1345155E+00
          2   -1    0    0  501    0  0.00000000000E+00  0.00000000000E+00  0.22665875512E+04  0.22665875512E+04  0.00000000000E+00 0.  1.
         -2   -1    0    0    0  501 -0.00000000000E+00 -0.00000000000E+00 -0.25507904012E+01  0.25507904012E+01  0.00000000000E+00 0.  1.
          2    1    1    2  502    0 -0.21200937715E+02  0.34594235752E+02  0.20915591197E+04  0.20919526267E+04  0.00000000000E+00 0.  1.
         -2    1    1    2    0  502  0.21200937715E+02 -0.34594235752E+02  0.17247764111E+03  0.17718571497E+03  0.00000000000E+00 0.  1.
</event>
<event>
 4    1  0.3196713E+003  0.3004267E+02  0.7546771E-02  0.1419226E+00
          2   -1    0    0  501    0  0.00000000000E+00  0.00000000000E+00  0.68385931091E+03  0.68385931091E+03  0.00000000000E+00 0.  1.
         -2   -1    0    0    0  501 -0.00000000000E+00 -0.00000000000E+00 -0.90155630520E+02  0.90155630520E+02  0.00000000000E+00 0.  1.
          2    1    1    2  502    0 -0.13345836990E+02  0.26915621650E+02  0.68101612648E+03  0.68167846275E+03  0.00000000000E+00 0.  1.
         -2    1    1    2    0  502  0.13345836990E+02 -0.26915621650E+02 -0.87312446086E+02  0.92336478682E+02  0.00000000000E+00 0.  1.
</event>
<event>
 4    1  0.3196713E+003  0.4194287E+02  0.7546771E-02  0.1337462E+00
          2   -1    0    0  501    0  0.00000000000E+00  0.00000000000E+00  0.28324066204E+03  0.28324066204E+03  0.00000000000E+00 0. -1.
         -2   -1    0    0    0  501 -0.00000000000E+00 -0.00000000000E+00 -0.16417616905E+02  0.16417616905E+02  0.00000000000E+00 0.  1.
          2    1    1    2  502    0  0.39091147744E+02 -0.15201518265E+02  0.25154756456E+03  0.25502035453E+03  0.00000000000E+00 0. -1.
         -2    1    1    2    0  502 -0.39091147744E+02  0.15201518265E+02  0.15275480581E+02  0.44637924420E+02  0.00000000000E+00 0.  1.
</event>
<event>
 4    1  0.3196713E+003  0.2144922E+02  0.7546771E-02  0.1512947E+00
          2   -1    0    0  501    0  0.00000000000E+00  0.00000000000E+00  0.58371270609E+02  0.58371270609E+02  0.00000000000E+00 0. -1.
         -2   -1    0    0    0  501 -0.00000000000E+00 -0.00000000000E+00 -0.31924166044E+02  0.31924166044E+02  0.00000000000E+00 0. -1.
          2    1    1    2  502    0  0.10873699130E+02 -0.18488696044E+02  0.52403590543E+02  0.56623365460E+02  0.00000000000E+00 0. -1.
         -2    1    1    2    0  502 -0.10873699130E+02  0.18488696044E+02 -0.25956485977E+02  0.33672071194E+02  0.00000000000E+00 0. -1.
</event>
<event>
 4    1  0.3196713E+003  0.2535432E+02  0.7546771E-02  0.1464878E+00
          2   -1    0    0  501    0  0.00000000000E+00  0.00000000000E+00  0.11827930716E+04  0.11827930716E+04  0.00000000000E+00 0. -1.
         -2   -1    0    0    0  501 -0.00000000000E+00 -0.00000000000E+00 -0.29168383820E+01  0.29168383820E+01  0.00000000000E+00 0. -1.
          2    1    1    2  502    0  0.23417897266E+02 -0.97182058743E+01  0.11247149837E+04  0.11250007271E+04  0.00000000000E+00 0. -1.
         -2    1    1    2    0  502 -0.23417897266E+02  0.97182058743E+01  0.55161249617E+02  0.60709182972E+02  0.00000000000E+00 0. -1.
</event>
<event>
 4    1  0.3196713E+003  0.3340854E+02  0.7546771E-02  0.1392111E+00
          2   -1    0    0  501    0  0.00000000000E+00  0.00000000000E+00  0.29126676851E+03  0.29126676851E+03  0.00000000000E+00 0. -1.
         -2   -1    0    0    0  501 -0.00000000000E+00 -0.00000000000E+00 -0.73880254547E+02  0.73880254547E+02  0.00000000000E+00 0. -1.
          2    1    1    2  502    0 -0.21304257397E+02 -0.25734390860E+02  0.28646890841E+03  0.28841041199E+03  0.00000000000E+00 0. -1.
         -2    1    1    2    0  502  0.21304257397E+02  0.25734390860E+02 -0.69082394447E+02  0.76736611071E+02  0.00000000000E+00 0. -1.
</event>
<event>
 4    1  0.3196713E+003  0.5817657E+02  0.7546771E-02  0.1266157E+00
          2   -1    0    0  501    0  0.00000000000E+00  0.00000000000E+00  0.79132643930E+03  0.79132643930E+03  0.00000000000E+00 0. -1.
         -2   -1    0    0    0  501 -0.00000000000E+00 -0.00000000000E+00 -0.64488851271E+02  0.64488851271E+02  0.00000000000E+00 0. -1.
          2    1    1    2  502    0 -0.12512761855E+02 -0.56815000208E+02  0.77689323502E+03  0.77906842580E+03  0.00000000000E+00 0. -1.
         -2    1    1    2    0  502  0.12512761855E+02  0.56815000208E+02 -0.50055646986E+02  0.76746864777E+02  0.00000000000E+00 0. -1.
</event>
<event>
 4    1  0.3196713E+003  0.2492668E+02  0.7546771E-02  0.1469625E+00
          2   -1    0    0  501    0  0.00000000000E+00  0.00000000000E+00  0.17323575399E+01  0.17323575399E+01  0.00000000000E+00 0.  1.
         -2   -1    0    0    0  501 -0.00000000000E+00 -0.00000000000E+00 -0.68516444949E+03  0.68516444949E+03  0.00000000000E+00 0.  1.
          2    1    1    2  502    0  0.85707591251E+01  0.23406867878E+02 -0.10463107278E+03  0.10755928954E+03  0.00000000000E+00 0.  1.
         -2    1    1    2    0  502 -0.85707591251E+01 -0.23406867878E+02 -0.57880101917E+03  0.57933751749E+03  0.00000000000E+00 0.  1.
</event>
<event>
 4    1  0.3196713E+003  0.2622656E+02  0.7546771E-02  0.1455536E+00
          2   -1    0    0  501    0  0.00000000000E+00  0.00000000000E+00  0.22544570442E+04  0.22544570442E+04  0.00000000000E+00 0.  1.
         -2   -1    0    0    0  501 -0.00000000000E+00 -0.00000000000E+00 -0.43780504222E+00  0.43780504222E+00  0.00000000000E+00 0. -1.
          2    1    1    2  502    0  0.25837776794E+02 -0.44990668765E+01  0.17477378097E+04  0.17479345766E+04  0.00000000000E+00 0.  1.
         -2    1    1    2    0  502 -0.25837776794E+02  0.44990668765E+01  0.50628142936E+03  0.50696027264E+03  0.00000000000E+00 0. -1.
</event>
<event>
 4    1  0.3196713E+003  0.2397294E+02  0.7546771E-02  0.1480629E+00
          2   -1    0    0  501    0  0.00000000000E+00  0.00000000000E+00  0.34377000079E+02  0.34377000079E+02  0.00000000000E+00 0.  1.
         -2   -1    0    0    0  501 -0.00000000000E+00 -0.00000000000E+00 -0.42547502952E+02  0.42547502952E+02  0.00000000000E+00 0.  1.
          2    1    1    2  502    0  0.11304650811E+02 -0.21140170000E+02  0.25882821172E+02  0.35279205623E+02  0.00000000000E+00 0.  1.
         -2    1    1    2    0  502 -0.11304650811E+02  0.21140170000E+02 -0.34053324045E+02  0.41645297407E+02  0.00000000000E+00 0.  1.
</event>
<event>
 4    1  0.3196713E+003  0.5335843E+02  0.7546771E-02  0.1284233E+00
          2   -1    0    0  501    0  0.00000000000E+00  0.00000000000E+00  0.93758124066E+03  0.93758124066E+03  0.00000000000E+00 0.  1.
         -2   -1    0    0    0  501 -0.00000000000E+00 -0.00000000000E+00 -0.42094563774E+01  0.42094563774E+01  0.00000000000E+00 0.  1.
          2    1    1    2  502    0 -0.49748364233E+02 -0.19292992091E+02  0.21813121263E+03  0.22456256413E+03  0.00000000000E+00 0.  1.
         -2    1    1    2    0  502  0.49748364233E+02  0.19292992091E+02  0.71524057166E+03  0.71722813291E+03  0.00000000000E+00 0.  1.
</event>
<event>
 4    1  0.3196713E+003  0.2343364E+02  0.7546771E-02  0.1487123E+00
          2   -1    0    0  501    0  0.00000000000E+00  0.00000000000E+00  0.66546998432E+03  0.66546998432E+03  0.00000000000E+00 0.  1.
         -2   -1    0    0    0  501 -0.00000000000E+00 -0.00000000000E+00 -0.58892538972E+02  0.58892538972E+02  0.00000000000E+00 0.  1.
          2    1    1    2  502    0 -0.63858578361E+01 -0.22546761190E+02  0.66292364541E+03  0.66333769324E+03  0.00000000000E+00 0.  1.
         -2    1    1    2    0  502  0.63858578361E+01  0.22546761190E+02 -0.56346200070E+02  0.61024830051E+02  0.00000000000E+00 0.  1.
</event>
<event>
 4    1  0.3196713E+003  0.2197563E+02  0.7546771E-02  0.1505778E+00
          2   -1    0    0  501    0  0.00000000000E+00  0.00000000000E+00  0.16206743821E+04  0.16206743821E+04  0.00000000000E+00 0. -1.
         -2   -1    0    0    0  501 -0.00000000000E+00 -0.00000000000E+00 -0.89243015873E+00  0.89243015873E+00  0.00000000000E+00 0. -1.
          2    1    1    2  502    0  0.10718638700E+02 -0.19184350237E+02  0.14716128115E+04  0.14717768838E+04  0.00000000000E+00 0. -1.
         -2    1    1    2    0  502 -0.10718638700E+02  0.19184350237E+02  0.14816914042E+03  0.14978992850E+03  0.00000000000E+00 0. -1.
</event>
<event>
 4    1  0.3196713E+003  0.2155758E+02  0.7546771E-02  0.1511451E+00
          2   -1    0    0  501    0  0.00000000000E+00  0.00000000000E+00  0.40349559493E+03  0.40349559493E+03  0.00000000000E+00 0.  1.
         -2   -1    0    0    0  501 -0.00000000000E+00 -0.00000000000E+00 -0.23441031854E+01  0.23441031854E+01  0.00000000000E+00 0.  1.
          2    1    1    2  502    0  0.21331594261E+02 -0.31132657241E+01  0.34529860813E+03  0.34597089201E+03  0.00000000000E+00 0.  1.
         -2    1    1    2    0  502 -0.21331594261E+02  0.31132657241E+01  0.55852883613E+02  0.59868806110E+02  0.00000000000E+00 0.  1.
</event>
<event>
 4    1  0.3196713E+003  0.5548801E+02  0.7546771E-02  0.1275985E+00
          2   -1    0    0  501    0  0.00000000000E+00  0.00000000000E+00  0.19478197369E+03  0.19478197369E+03  0.00000000000E+00 0.  1.
         -2   -1    0    0    0  501 -0.00000000000E+00 -0.00000000000E+00 -0.20960839485E+02  0.20960839485E+02  0.00000000000E+00 0.  1.
          2    1    1    2  502    0 -0.66694780395E+01 -0.55085723058E+02  0.14039992868E+03  0.15096707852E+03  0.00000000000E+00 0.  1.
         -2    1    1    2    0  502  0.66694780395E+01  0.55085723058E+02  0.33421205527E+02  0.64775734662E+02  0.00000000000E+00 0.  1.
</event>
<event>
 4    1  0.3196713E+003  0.3655746E+02  0.7546771E-02  0.1369932E+00
          2   -1    0    0  501    0  0.00000000000E+00  0.00000000000E+00  0.96471795078E+03  0.96471795078E+03  0.00000000000E+00 0. -1.
         -2   -1    0    0    0  501 -0.00000000000E+00 -0.00000000000E+00 -0.13211082091E+02  0.13211082091E+02  0.00000000000E+00 0.  1.
          2    1    1    2  502    0 -0.19607904609E+02  0.30854136975E+02  0.93837154366E+03  0.93908338375E+03  0.00000000000E+00 0. -1.
         -2    1    1    2    0  502  0.19607904609E+02 -0.30854136975E+02  0.13135325027E+02  0.38845649115E+02  0.00000000000E+00 0.  1.
</event>
<event>
 4    1  0.3196713E+003  0.3421557E+02  0.7546771E-02  0.1386163E+00
          2   -1    0    0  501    0  0.00000000000E+00  0.00000000000E+00  0.40131668302E+02  0.40131668302E+02  0.00000000000E+00 0. -1.
         -2   -1    0    0    0  501 -0.00000000000E+00 -0.00000000000E+00 -0.22376778278E+03  0.22376778278E+03  0.00000000000E+00 0.  1.
          2    1    1    2  502    0  0.14276806380E+01 -0.34185770329E+02  0.31230596084E+02  0.46325536119E+02  0.00000000000E+00 0. -1.
         -2    1    1    2    0  502 -0.14276806380E+01  0.34185770329E+02 -0.21486671056E+03  0.21757391496E+03  0.00000000000E+00 0.  1.
</event>
<event>
 4    1  0.3196713E+003  0.2215751E+02  0.7546771E-02  0.1503357E+00
          2   -1    0    0  501    0  0.00000000000E+00  0.00000000000E+00  0.20201815188E+03  0.20201815188E+03  0.00000000000E+00 0. -1.
         -2   -1    0    0    0  501 -0.00000000000E+00 -0.00000000000E+00 -0.87840128759E+01  0.87840128759E+01  0.00000000000E+00 0.  1.
          2    1    1    2  502    0  0.11405830053E+02 -0.18996373984E+02  0.18625957651E+03  0.18757287924E+03  0.00000000000E+00 0. -1.
         -2    1    1    2    0  502 -0.11405830053E+02  0.18996373984E+02  0.69745624950E+01  0.23229285519E+02  0.00000000000E+00 0.  1.
</event>
<event>
 4    1  0.3196713E+003  0.2844786E+02  0.7546771E-02  0.1433582E+00
          2   -1    0    0  501    0  0.00000000000E+00  0.00000000000E+00  0.34963439458E+03  0.34963439458E+03  0.00000000000E+00 0. -1.
         -2   -1    0    0    0  501 -0.00000000000E+00 -0.00000000000E+00 -0.23146947928E+01  0.23146947928E+01  0.00000000000E+00 0.  1.
          2    1    1    2  502    0  0.47377059304E+01 -0.28050564526E+02  0.17285605744E+03  0.17518132498E+03  0.00000000000E+00 0. -1.
         -2    1    1    2    0  502 -0.47377059304E+01  0.28050564526E+02  0.17446364235E+03  0.17676776440E+03  0.00000000000E+00 0.  1.
</event>
<event>
 4    1  0.3196713E+003  0.2899196E+02  0.7546771E-02  0.1428563E+00
          2   -1    0    0  501    0  0.00000000000E+00  0.00000000000E+00  0.77784005137E+03  0.77784005137E+03  0.00000000000E+00 0. -1.
         -2   -1    0    0    0  501 -0.00000000000E+00 -0.00000000000E+00 -0.41389147789E+02  0.41389147789E+02  0.00000000000E+00 0. -1.
          2    1    1    2  502    0 -0.24227050917E+02  0.15924320580E+02  0.77245751768E+03  0.77300139107E+03  0.00000000000E+00 0. -1.
         -2    1    1    2    0  502  0.24227050917E+02 -0.15924320580E+02 -0.36006614096E+02  0.46227808089E+02  0.00000000000E+00 0. -1.
</event>
<event>
 4    1  0.3196713E+003  0.2472133E+02  0.7546771E-02  0.1471945E+00
          2   -1    0    0  501    0  0.00000000000E+00  0.00000000000E+00  0.92654055741E+02  0.92654055741E+02  0.00000000000E+00 0. -1.
         -2   -1    0    0    0  501 -0.00000000000E+00 -0.00000000000E+00 -0.99046446532E+02  0.99046446532E+02  0.00000000000E+00 0. -1.
          2    1    1    2  502    0 -0.15685936457E+02  0.19107475666E+02  0.89407509195E+02  0.92762314165E+02  0.00000000000E+00 0. -1.
         -2    1    1    2    0  502  0.15685936457E+02 -0.19107475666E+02 -0.95799899986E+02  0.98938188108E+02  0.00000000000E+00 0. -1.
</event>
<event>
 4    1  0.3196713E+003  0.2215646E+02  0.7546771E-02  0.1503371E+00
          2   -1    0    0  501    0  0.00000000000E+00  0.00000000000E+00  0.14675880165E+04  0.14675880165E+04  0.00000000000E+00 0. -1.
         -2   -1    0    0    0  501 -0.00000000000E+00 -0.00000000000E+00 -0.27720182980E+01  0.27720182980E+01  0.00000000000E+00 0. -1.
          2    1    1    2  502    0 -0.16773269878E+02  0.14476395554E+02  0.14218052777E+04  0.14219779029E+04  0.00000000000E+00 0. -1.
         -2    1    1    2    0  502  0.16773269878E+02 -0.14476395554E+02  0.43010720569E+02  0.48382131975E+02  0.00000000000E+00 0. -1.
</event>
<event>
 4    1  0.3196713E+003  0.2686142E+02  0.7546771E-02  0.1449005E+00
          2   -1    0    0  501    0  0.00000000000E+00  0.00000000000E+00  0.60249935517E+03  0.60249935517E+03  0.00000000000E+00 0. -1.
         -2   -1    0    0    0  501 -0.00000000000E+00 -0.00000000000E+00 -0.35467604676E+01  0.35467604676E+01  0.00000000000E+00 0. -1.
          2    1    1    2  502    0 -0.12638102315E+02 -0.23702625527E+02  0.54609086013E+03  0.54675109840E+03  0.00000000000E+00 0. -1.
         -2    1    1    2    0  502  0.12638102315E+02  0.23702625527E+02  0.52861734580E+02  0.59295017243E+02  0.00000000000E+00 0. -1.
</event>
<event>
 4    1  0.3196713E+003  0.2726278E+02  0.7546771E-02  0.1444986E+00
          2   -1    0    0  501    0  0.00000000000E+00  0.00000000000E+00  0.26592549313E+01  0.26592549313E+01  0.00000000000E+00 0. -1.
         -2   -1    0    0    0  501 -0.00000000000E+00 -0.00000000000E+00 -0.43256414282E+03  0.43256414282E+03  0.00000000000E+00 0.  1.
          2    1    1    2  502    0 -0.87895868236E+01 -0.25807026223E+02 -0.85504562248E+02  0.89745694070E+02  0.00000000000E+00 0. -1.
         -2    1    1    2    0  502  0.87895868236E+01  0.25807026223E+02 -0.34440032564E+03  0.34547770368E+03  0.00000000000E+00 0.  1.
</event>
<event>
 4    1  0.3196713E+003  0.3286224E+02  0.7546771E-02  0.1396249E+00
          2   -1    0    0  501    0  0.00000000000E+00  0.00000000000E+00  0.16485026316E+03  0.16485026316E+03  0.00000000000E+00 0.  1.
         -2   -1    0    0    0  501 -0.00000000000E+00 -0.00000000000E+00 -0.27835821956E+03  0.27835821956E+03  0.00000000000E+00 0. -1.
          2    1    1    2  502    0 -0.28844961153E+02 -0.15744679272E+02  0.16222709151E+03  0.16552207082E+03  0.00000000000E+00 0.  1.
         -2    1    1    2    0  502  0.28844961153E+02  0.15744679272E+02 -0.27573504791E+03  0.27768641190E+03  0.00000000000E+00 0. -1.
</event>
<event>
 4    1  0.3196713E+003  0.2145814E+02  0.7546771E-02  0.1512823E+00
          2   -1    0    0  501    0  0.00000000000E+00  0.00000000000E+00  0.17616313040E+03  0.17616313040E+03  0.00000000000E+00 0. -1.
         -2   -1    0    0    0  501 -0.00000000000E+00 -0.00000000000E+00 -0.31809643781E+01  0.31809643781E+01  0.00000000000E+00 0.  1.
          2    1    1    2  502    0  0.19620012072E+02  0.86894733537E+01  0.12435621532E+03  0.12619397810E+03  0.00000000000E+00 0. -1.
         -2    1    1    2    0  502 -0.19620012072E+02 -0.86894733537E+01  0.48625950700E+02  0.53150116673E+02  0.00000000000E+00 0.  1.
</event>
<event>
 4    1  0.3196713E+003  0.2355850E+02  0.7546771E-02  0.1485602E+00
          2   -1    0    0  501    0  0.00000000000E+00  0.00000000000E+00  0.94819353284E+02  0.94819353284E+02  0.00000000000E+00 0. -1.
         -2   -1    0    0    0  501 -0.00000000000E+00 -0.00000000000E+00 -0.29364539663E+03  0.29364539663E+03  0.00000000000E+00 0.  1.
          2    1    1    2  502    0 -0.33570383480E+00  0.23556105147E+02  0.92873781895E+02  0.95815145725E+02  0.00000000000E+00 0. -1.
         -2    1    1    2    0  502  0.33570383480E+00 -0.23556105147E+02 -0.29169982524E+03  0.29264960419E+03  0.00000000000E+00 0.  1.
</event>
<event>
 4    1  0.3196713E+003  0.2546007E+02  0.7546771E-02  0.1463722E+00
          2   -1    0    0  501    0  0.00000000000E+00  0.00000000000E+00  0.10659542951E+04  0.10659542951E+04  0.00000000000E+00 0. -1.
         -2   -1    0    0    0  501 -0.00000000000E+00 -0.00000000000E+00 -0.23111919924E+02  0.23111919924E+02  0.00000000000E+00 0.  1.
          2    1    1    2  502    0 -0.12631761073E+02 -0.22105510035E+02  0.10587428206E+04  0.10590489012E+04  0.00000000000E+00 0. -1.
         -2    1    1    2    0  502  0.12631761073E+02  0.22105510035E+02 -0.15900445455E+02  0.30017313793E+02  0.00000000000E+00 0.  1.
</event>
<event>
 4    1  0.3196713E+003  0.1000234E+03  0.7546771E-02  0.1163767E+00
          2   -1    0    0  501    0  0.00000000000E+00  0.00000000000E+00  0.80210858740E+03  0.80210858740E+03  0.00000000000E+00 0. -1.
         -2   -1    0    0    0  501 -0.00000000000E+00 -0.00000000000E+00 -0.44281147657E+02  0.44281147657E+02  0.00000000000E+00 0.  1.
          2    1    1    2  502    0 -0.12837195308E+01 -0.10001518201E+03  0.73758803862E+03  0.74433916952E+03  0.00000000000E+00 0. -1.
         -2    1    1    2    0  502  0.12837195308E+01  0.10001518201E+03  0.20239401123E+02  0.10205056554E+03  0.00000000000E+00 0.  1.
</event>
<event>
 4    1  0.3196713E+003  0.2994264E+02  0.7546771E-02  0.1420096E+00
          2   -1    0    0  501    0  0.00000000000E+00  0.00000000000E+00  0.11419855049E+04  0.11419855049E+04  0.00000000000E+00 0.  1.
         -2   -1    0    0    0  501 -0.00000000000E+00 -0.00000000000E+00 -0.31242471980E+03  0.31242471980E+03  0.00000000000E+00 0. -1.
          2    1    1    2  502    0  0.29506179298E+02  0.50938348038E+01  0.11410712353E+04  0.11414640274E+04  0.00000000000E+00 0.  1.
         -2    1    1    2    0  502 -0.29506179298E+02 -0.50938348038E+01 -0.31151045025E+03  0.31294619727E+03  0.00000000000E+00 0. -1.
</event>
<event>
 4    1  0.3196713E+003  0.2738023E+02  0.7546771E-02  0.1443826E+00
          2   -1    0    0  501    0  0.00000000000E+00  0.00000000000E+00  0.76573980551E+01  0.76573980551E+01  0.00000000000E+00 0.  1.
         -2   -1    0    0    0  501 -0.00000000000E+00 -0.00000000000E+00 -0.41937900472E+03  0.41937900472E+03  0.00000000000E+00 0.  1.
          2    1    1    2  502    0 -0.58793974688E+01  0.26741531776E+02 -0.18919047230E+02  0.33280732931E+02  0.00000000000E+00 0.  1.
         -2    1    1    2    0  502  0.58793974688E+01 -0.26741531776E+02 -0.39280255943E+03  0.39375566984E+03  0.00000000000E+00 0.  1.
</event>
<event>
 4    1  0.3196713E+003  0.2729985E+02  0.7546771E-02  0.1444619E+00
          2   -1    0    0  501    0  0.00000000000E+00  0.00000000000E+00  0.23182924681E+02  0.23182924681E+02  0.00000000000E+00 0. -1.
         -2   -1    0    0    0  501 -0.00000000000E+00 -0.00000000000E+00 -0.58989572654E+02  0.58989572654E+02  0.00000000000E+00 0. -1.
          2    1    1    2  502    0 -0.77670850396E+01 -0.26171632186E+02  0.98116065112E+01  0.29009473687E+02  0.00000000000E+00 0. -1.
         -2    1    1    2    0  502  0.77670850396E+01  0.26171632186E+02 -0.45618254484E+02  0.53163023648E+02  0.00000000000E+00 0. -1.
</event>
<event>
 4    1  0.3196713E+003  0.2958988E+02  0.7546771E-02  0.1423194E+00
          2   -1    0    0  501    0  0.00000000000E+00  0.00000000000E+00  0.18528679698E+04  0.18528679698E+04  0.00000000000E+00 0.  1.
         -2   -1    0    0    0  501 -0.00000000000E+00 -0.00000000000E+00 -0.78337978509E+02  0.78337978509E+02  0.00000000000E+00 0. -1.
          2    1    1    2  502    0  0.16827918597E+02 -0.24338902743E+02  0.18499512507E+04  0.18501878799E+04  0.00000000000E+00 0.  1.
         -2    1    1    2    0  502 -0.16827918597E+02  0.24338902743E+02 -0.75421259422E+02  0.81018068379E+02  0.00000000000E+00 0. -1.
</event>
<event>
 4    1  0.3196713E+003  0.2451055E+02  0.7546771E-02  0.1474354E+00
          2   -1    0    0  501    0  0.00000000000E+00  0.00000000000E+00  0.11760880301E+02  0.11760880301E+02  0.00000000000E+00 0.  1.
         -2   -1    0    0    0  501 -0.00000000000E+00 -0.00000000000E+00 -0.64502404438E+02  0.64502404438E+02  0.00000000000E+00 0. -1.
          2    1    1    2  502    0  0.24338016597E+02  0.29030822812E+01 -0.89773977871E+01  0.26102885083E+02  0.00000000000E+00 0.  1.
         -2    1    1    2    0  502 -0.24338016597E+02 -0.29030822812E+01 -0.43764126349E+02  0.50160399657E+02  0.00000000000E+00 0. -1.
</event>
<event>
 4    1  0.3196713E+003  0.2261871E+02  0.7546771E-02  0.1497342E+00
          2   -1    0    0  501    0  0.00000000000E+00  0.00000000000E+00  0.52308092942E+03  0.52308092942E+03  0.00000000000E+00 0. -1.
         -2   -1    0    0    0  501 -0.00000000000E+00 -0.00000000000E+00 -0.98134321119E+00  0.98134321119E+00  0.00000000000E+00 0. -1.
          2    1    1    2  502    0  0.87138733337E+01 -0.20872812986E+02  0.27619997052E+03  0.27712457420E+03  0.00000000000E+00 0. -1.
         -2    1    1    2    0  502 -0.87138733337E+01  0.20872812986E+02  0.24589961568E+03  0.24693769843E+03  0.00000000000E+00 0. -1.
</event>
<event>
 4    1  0.3196713E+003  0.2454866E+02  0.7546771E-02  0.1473916E+00
          2   -1    0    0  501    0  0.00000000000E+00  0.00000000000E+00  0.60819254118E+03  0.60819254118E+03  0.00000000000E+00 0.  1.
         -2   -1    0    0    0  501 -0.00000000000E+00 -0.00000000000E+00 -0.33657655098E+02  0.33657655098E+02  0.00000000000E+00 0. -1.
          2    1    1    2  502    0  0.19965495355E+02  0.14283410024E+02  0.60343331192E+03  0.60393244551E+03  0.00000000000E+00 0.  1.
         -2    1    1    2    0  502 -0.19965495355E+02 -0.14283410024E+02 -0.28898425842E+02  0.37917750762E+02  0.00000000000E+00 0. -1.
</event>
<event>
 4    1  0.3196713E+003  0.2970102E+02  0.7546771E-02  0.1422213E+00
          2   -1    0    0  501    0  0.00000000000E+00  0.00000000000E+00  0.56642875542E+01  0.56642875542E+01  0.00000000000E+00 0. -1.
         -2   -1    0    0    0  501 -0.00000000000E+00 -0.00000000000E+00 -0.20721655359E+03  0.20721655359E+03  0.00000000000E+00 0. -1.
          2    1    1    2  502    0  0.29165091685E+02 -0.56167389223E+01 -0.47723930308E+02  0.56211421021E+02  0.00000000000E+00 0. -1.
         -2    1    1    2    0  502 -0.29165091685E+02  0.56167389223E+01 -0.15382833572E+03  0.15666942012E+03  0.00000000000E+00 0. -1.
</event>
<event>
 4    1  0.3196713E+003  0.5504098E+02  0.7546771E-02  0.1277681E+00
          2   -1    0    0  501    0  0.00000000000E+00  0.00000000000E+00  0.69395424441E+02  0.69395424441E+02  0.00000000000E+00 0.  1.
         -2   -1    0    0    0  501 -0.00000000000E+00 -0.00000000000E+00 -0.54604610906E+02  0.54604610906E+02  0.00000000000E+00 0.  1.
          2    1    1    2  502    0 -0.51851254670E+02 -0.18465018203E+02  0.35158098117E+02  0.65311571496E+02  0.00000000000E+00 0.  1.
         -2    1    1    2    0  502  0.51851254670E+02  0.18465018203E+02 -0.20367284581E+02  0.58688463852E+02  0.00000000000E+00 0.  1.
</event>
<event>
 4    1  0.3196713E+003  0.3680332E+02  0.7546771E-02  0.1368310E+00
          2   -1    0    0  501    0  0.00000000000E+00  0.00000000000E+00  0.24671922099E+04  0.24671922099E+04  0.00000000000E+00 0. -1.
         -2   -1    0    0    0  501 -0.00000000000E+00 -0.00000000000E+00 -0.39824675786E+03  0.39824675786E+03  0.00000000000E+00 0.  1.
          2    1    1    2  502    0  0.54115491265E+01 -0.36403292985E+02  0.24662043400E+04  0.24664789339E+04  0.00000000000E+00 0. -1.
         -2    1    1    2    0  502 -0.54115491265E+01  0.36403292985E+02 -0.39725888794E+03  0.39896003390E+03  0.00000000000E+00 0.  1.
</event>
<event>
 4    1  0.3196713E+003  0.2146134E+02  0.7546771E-02  0.1512779E+00
          2   -1    0    0  501    0  0.00000000000E+00  0.00000000000E+00  0.16589617532E+02  0.16589617532E+02  0.00000000000E+00 0.  1.
         -2   -1    0    0    0  501 -0.00000000000E+00 -0.00000000000E+00 -0.43394443468E+02  0.43394443468E+02  0.00000000000E+00 0.  1.
          2    1    1    2  502    0 -0.10432811321E+01  0.21435971518E+02  0.45978356243E+01  0.21948334854E+02  0.00000000000E+00 0.  1.
         -2    1    1    2    0  502  0.10432811321E+01 -0.21435971518E+02 -0.31402661560E+02  0.38035726147E+02  0.00000000000E+00 0.  1.
</event>
<event>
 4    1  0.3196713E+003  0.2252060E+02  0.7546771E-02  0.1498607E+00
          2   -1    0    0  501    0  0.00000000000E+00  0.00000000000E+00  0.33233731306E+03  0.33233731306E+03  0.00000000000E+00 0.  1.
         -2   -1    0    0    0  501 -0.00000000000E+00 -0.00000000000E+00 -0.33557302522E+01  0.33557302522E+01  0.00000000000E+00 0. -1.
          2    1    1    2  502    0 -0.47550415090E+01  0.22012885466E+02  0.28842789918E+03  0.28930577348E+03  0.00000000000E+00 0.  1.
         -2    1    1    2    0  502  0.47550415090E+01 -0.22012885466E+02  0.40553683630E+02  0.46387269829E+02  0.00000000000E+00 0. -1.
</event>
<event>
 4    1  0.3196713E+003  0.6306354E+02  0.7546771E-02  0.1249764E+00
          2   -1    0    0  501    0  0.00000000000E+00  0.00000000000E+00  0.24391375203E+03  0.24391375203E+03  0.00000000000E+00 0. -1.
         -2   -1    0    0    0  501 -0.00000000000E+00 -0.00000000000E+00 -0.17840963352E+02  0.17840963352E+02  0.00000000000E+00 0. -1.
          2    1    1    2  502    0  0.34676365751E+02 -0.52674047903E+02  0.74634692812E+02  0.97710506269E+02  0.00000000000E+00 0. -1.
         -2    1    1    2    0  502 -0.34676365751E+02  0.52674047903E+02  0.15143809587E+03  0.16404420912E+03  0.00000000000E+00 0. -1.
</event>
<event>
 4    1  0.3196713E+003  0.3497980E+02  0.7546771E-02  0.1380705E+00
          2   -1    0    0  501    0  0.00000000000E+00  0.00000000000E+00  0.76295853433E+01  0.76295853433E+01  0.00000000000E+00 0. -1.
         -2   -1    0    0    0  501 -0.00000000000E+00 -0.00000000000E+00 -0.18014878259E+03  0.18014878259E+03  0.00000000000E+00 0. -1.
          2    1    1    2  502    0  0.27137410969E+02 -0.22071408865E+02 -0.55152669909E+02  0.65310054061E+02  0.00000000000E+00 0. -1.
         -2    1    1    2    0  502 -0.27137410969E+02  0.22071408865E+02 -0.11736652733E+03  0.12246831387E+03  0.00000000000E+00 0. -1.
</event>
<event>
 4    1  0.3196713E+003  0.2028640E+02  0.7546771E-02  0.1529702E+00
          2   -1    0    0  501    0  0.00000000000E+00  0.00000000000E+00  0.76390133245E+01  0.76390133245E+01  0.00000000000E+00 0. -1.
         -2   -1    0    0    0  501 -0.00000000000E+00 -0.00000000000E+00 -0.74253366674E+02  0.74253366674E+02  0.00000000000E+00 0.  1.
          2    1    1    2  502    0  0.20116094931E+02  0.26230942378E+01 -0.11855583164E+02  0.23496654035E+02  0.00000000000E+00 0. -1.
         -2    1    1    2    0  502 -0.20116094931E+02 -0.26230942378E+01 -0.54758770186E+02  0.58395725964E+02  0.00000000000E+00 0.  1.
</event>
<event>
 4    1  0.3196713E+003  0.2144841E+02  0.7546771E-02  0.1512958E+00
          2   -1    0    0  501    0  0.00000000000E+00  0.00000000000E+00  0.81501218654E+03  0.81501218654E+03  0.00000000000E+00 0. -1.
         -2   -1    0    0    0  501 -0.00000000000E+00 -0.00000000000E+00 -0.17095686143E+02  0.17095686143E+02  0.00000000000E+00 0. -1.
          2    1    1    2  502    0  0.10510557368E+02  0.18696593160E+02  0.80808607742E+03  0.80837067174E+03  0.00000000000E+00 0. -1.
         -2    1    1    2    0  502 -0.10510557368E+02 -0.18696593160E+02 -0.10169577019E+02  0.23737200946E+02  0.00000000000E+00 0. -1.
</event>
<event>
 4    1  0.3196713E+003  0.2912531E+02  0.7546771E-02  0.1427353E+00
          2   -1    0    0  501    0  0.00000000000E+00  0.00000000000E+00  0.73206934883E+03  0.73206934883E+03  0.00000000000E+00 0.  1.
         -2   -1    0    0    0  501 -0.00000000000E+00 -0.00000000000E+00 -0.12037780883E+01  0.12037780883E+01  0.00000000000E+00 0.  1.
          2    1    1    2  502    0  0.20355272481E+02  0.20831381927E+02  0.43634416782E+03  0.43731512251E+03  0.00000000000E+00 0.  1.
         -2    1    1    2    0  502 -0.20355272481E+02 -0.20831381927E+02  0.29452140293E+03  0.29595800441E+03  0.00000000000E+00 0.  1.
</event>
<event>
 4    1  0.3196713E+003  0.2185758E+02  0.7546771E-02  0.1507364E+00
          2   -1    0    0  501    0  0.00000000000E+00  0.00000000000E+00  0.27848693371E+03  0.27848693371E+03  0.00000000000E+00 0. -1.
         -2   -1    0    0    0  501 -0.00000000000E+00 -0.00000000000E+00 -0.27371853117E+02  0.27371853117E+02  0.00000000000E+00 0.  1.
          2    1    1    2  502    0 -0.95557938914E+01 -0.19658095774E+02  0.27361695770E+03  0.27448860353E+03  0.00000000000E+00 0. -1.
         -2    1    1    2    0  502  0.95557938914E+01  0.19658095774E+02 -0.22501877111E+02  0.31370183294E+02  0.00000000000E+00 0.  1.
</event>
<event>
 4    1  0.3196713E+003  0.2300255E+02  0.7546771E-02  0.1492466E+00
          2   -1    0    0  501    0  0.00000000000E+00  0.00000000000E+00  0.22355720698E+03  0.22355720698E+03  0.00000000000E+00 0.  1.
         -2   -1    0    0    0  501 -0.00000000000E+00 -0.00000000000E+00 -0.56009188686E+01  0.56009188686E+01  0.00000000000E+00 0. -1.
          2    1    1    2  502    0  0.75053375893E+01  0.21743669455E+02  0.19604502700E+03  0.19738989302E+03  0.00000000000E+00 0.  1.
         -2    1    1    2    0  502 -0.75053375893E+01 -0.21743669455E+02  0.21911261107E+02  0.31768232828E+02  0.00000000000E+00 0. -1.
</event>
<event>
 4    1  0.3196713E+003  0.2108402E+02  0.7546771E-02  0.1518069E+00
          2   -1    0    0  501    0  0.00000000000E+00  0.00000000000E+00  0.20234958501E+02  0.20234958501E+02  0.00000000000E+00 0.  1.
         -2   -1    0    0    0  501 -0.00000000000E+00 -0.00000000000E+00 -0.11725775306E+04  0.11725775306E+04  0.00000000000E+00 0.  1.
          2    1    1    2  502    0  0.12417153679E+02 -0.17039662450E+02  0.14621588671E+02  0.25657877097E+02  0.00000000000E+00 0.  1.
         -2    1    1    2    0  502 -0.12417153679E+02  0.17039662450E+02 -0.11669641608E+04  0.11671546120E+04  0.00000000000E+00 0.  1.
</event>
<event>
 4    1  0.3196713E+003  0.2256155E+02  0.7546771E-02  0.1498078E+00
          2   -1    0    0  501    0  0.00000000000E+00  0.00000000000E+00  0.52159215114E+02  0.52159215114E+02  0.00000000000E+00 0. -1.
         -2   -1    0    0    0  501 -0.00000000000E+00 -0.00000000000E+00 -0.20367381163E+02  0.20367381163E+02  0.00000000000E+00 0. -1.
          2    1    1    2  502    0  0.21901505168E+02 -0.54173443069E+01  0.42067112928E+02  0.47735369885E+02  0.00000000000E+00 0. -1.
         -2    1    1    2    0  502 -0.21901505168E+02  0.54173443069E+01 -0.10275278977E+02  0.24791226392E+02  0.00000000000E+00 0. -1.
</event>
<event>
 4    1  0.3196713E+003  0.2481108E+02  0.7546771E-02  0.1470928E+00
          2   -1    0    0  501    0  0.00000000000E+00  0.00000000000E+00  0.82544366223E+03  0.82544366223E+03  0.00000000000E+00 0. -1.
         -2   -1    0    0    0  501 -0.00000000000E+00 -0.00000000000E+00 -0.31743345690E+01  0.31743345690E+01  0.00000000000E+00 0. -1.
          2    1    1    2  502    0 -0.11336239273E+02 -0.22069873329E+02  0.77352199392E+03  0.77391980509E+03  0.00000000000E+00 0. -1.
         -2    1    1    2    0  502  0.11336239273E+02  0.22069873329E+02  0.48747333743E+02  0.54698191713E+02  0.00000000000E+00 0. -1.
</event>
<event>
 4    1  0.3196713E+003  0.4629329E+02  0.7546771E-02  0.1315096E+00
          2   -1    0    0  501    0  0.00000000000E+00  0.00000000000E+00  0.81560425231E+02  0.81560425231E+02  0.00000000000E+00 0. -1.
         -2   -1    0    0    0  501 -0.00000000000E+00 -0.00000000000E+00 -0.51465395854E+03  0.51465395854E+03  0.00000000000E+00 0.  1.
          2    1    1    2  502    0 -0.33445814689E+02 -0.32006965730E+02  0.73850748021E+02  0.87160778787E+02  0.00000000000E+00 0. -1.
         -2    1    1    2    0  502  0.33445814689E+02  0.32006965730E+02 -0.50694428133E+03  0.50905360498E+03  0.00000000000E+00 0.  1.
</event>
<event>
 4    1  0.3196713E+003  0.5044025E+02  0.7546771E-02  0.1296275E+00
          2   -1    0    0  501    0  0.00000000000E+00  0.00000000000E+00  0.10185453169E+03  0.10185453169E+03  0.00000000000E+00 0. -1.
         -2   -1    0    0    0  501 -0.00000000000E+00 -0.00000000000E+00 -0.70233092515E+02  0.70233092515E+02  0.00000000000E+00 0.  1.
          2    1    1    2  502    0  0.33163961670E+02 -0.38004876872E+02  0.84878886284E+02  0.98735223485E+02  0.00000000000E+00 0. -1.
         -2    1    1    2    0  502 -0.33163961670E+02  0.38004876872E+02 -0.53257447105E+02  0.73352400723E+02  0.00000000000E+00 0.  1.
</event>
<event>
 4    1  0.3196713E+003  0.4466304E+02  0.7546771E-02  0.1323133E+00
          2   -1    0    0  501    0  0.00000000000E+00  0.00000000000E+00  0.36898539878E+03  0.36898539878E+03  0.00000000000E+00 0.  1.
         -2   -1    0    0    0  501 -0.00000000000E+00 -0.00000000000E+00 -0.58456986476E+01  0.58456986476E+01  0.00000000000E+00 0.  1.
          2    1    1    2  502    0  0.39951926880E+02 -0.19965690059E+02  0.13017757938E+03  0.13762625990E+03  0.00000000000E+00 0.  1.
         -2    1    1    2    0  502 -0.39951926880E+02  0.19965690059E+02  0.23296212074E+03  0.23720483752E+03  0.00000000000E+00 0.  1.
</event>
<event>
 4    1  0.3196713E+003  0.2483428E+02  0.7546771E-02  0.1470666E+00
          2   -1    0    0  501    0  0.00000000000E+00  0.00000000000E+00  0.13828776744E+04  0.13828776744E+04  0.00000000000E+00 0. -1.
         -2   -1    0    0    0  501 -0.00000000000E+00 -0.00000000000E+00 -0.32255753460E+03  0.32255753460E+03  0.00000000000E+00 0. -1.
          2    1    1    2  502    0 -0.46743823994E+00  0.24829881626E+02  0.13822879656E+04  0.13825110348E+04  0.00000000000E+00 0. -1.
         -2    1    1    2    0  502  0.46743823994E+00 -0.24829881626E+02 -0.32196782572E+03  0.32292417426E+03  0.00000000000E+00 0. -1.
</event>
<event>
 4    1  0.3196713E+003  0.2334577E+02  0.7546771E-02  0.1488201E+00
          2   -1    0    0  501    0  0.00000000000E+00  0.00000000000E+00  0.42273365353E+03  0.42273365353E+03  0.00000000000E+00 0. -1.
         -2   -1    0    0    0  501 -0.00000000000E+00 -0.00000000000E+00 -0.18932000595E+02  0.18932000595E+02  0.00000000000E+00 0.  1.
          2    1    1    2  502    0 -0.22720236496E+02  0.53680331759E+01  0.41508161868E+03  0.41573762771E+03  0.00000000000E+00 0. -1.
         -2    1    1    2    0  502  0.22720236496E+02 -0.53680331759E+01 -0.11279965746E+02  0.25928026416E+02  0.00000000000E+00 0.  1.
</event>
<event>
 4    1  0.3196713E+003  0.2029361E+02  0.7546771E-02  0.1529594E+00
          2   -1    0    0  501    0  0.00000000000E+00  0.00000000000E+00  0.38168528565E+03  0.38168528565E+03  0.00000000000E+00 0. -1.
         -2   -1    0    0    0  501 -0.00000000000E+00 -0.00000000000E+00 -0.28029337649E+02  0.28029337649E+02  0.00000000000E+00 0.  1.
          2    1    1    2  502    0 -0.19070847834E+02  0.69378315120E+01  0.37770363506E+03  0.37824841927E+03  0.00000000000E+00 0. -1.
         -2    1    1    2    0  502  0.19070847834E+02 -0.69378315120E+01 -0.24047687058E+02  0.31466204030E+02  0.00000000000E+00 0.  1.
</event>
<event>
 4    1  0.3196713E+003  0.3105893E+02  0.7546771E-02  0.1410612E+00
          2   -1    0    0  501    0  0.00000000000E+00  0.00000000000E+00  0.82325701686E+01  0.82325701686E+01  0.00000000000E+00 0. -1.
         -2   -1    0    0    0  501 -0.00000000000E+00 -0.00000000000E+00 -0.35960277218E+03  0.35960277218E+03  0.00000000000E+00 0.  1.
          2    1    1    2  502    0  0.15092812061E+02  0.27145244859E+02 -0.24676220292E+02  0.39668288875E+02  0.00000000000E+00 0. -1.
         -2    1    1    2    0  502 -0.15092812061E+02 -0.27145244859E+02 -0.32669398172E+03  0.32816705348E+03  0.00000000000E+00 0.  1.
</event>
<event>
 4    1  0.3196713E+003  0.2531136E+02  0.7546771E-02  0.1465350E+00
          2   -1    0    0  501    0  0.00000000000E+00  0.00000000000E+00  0.97147733428E+03  0.97147733428E+03  0.00000000000E+00 0. -1.
         -2   -1    0    0    0  501 -0.00000000000E+00 -0.00000000000E+00 -0.14293838439E+03  0.14293838439E+03  0.00000000000E+00 0. -1.
          2    1    1    2  502    0 -0.24476875002E+02 -0.64457319458E+01  0.97019045324E+03  0.97052057187E+03  0.00000000000E+00 0. -1.
         -2    1    1    2    0  502  0.24476875002E+02  0.64457319458E+01 -0.14165150335E+03  0.14389514680E+03  0.00000000000E+00 0. -1.
</event>
<event>
 4    1  0.3196713E+003  0.2644943E+02  0.7546771E-02  0.1453218E+00
          2   -1    0    0  501    0  0.00000000000E+00  0.00000000000E+00  0.75410823280E+02  0.75410823280E+02  0.00000000000E+00 0.  1.
         -2   -1    0    0    0  501 -0.00000000000E+00 -0.00000000000E+00 -0.60273888823E+02  0.60273888823E+02  0.00000000000E+00 0.  1.
          2    1    1    2  502    0 -0.13059396046E+02  0.23000534339E+02  0.69971965401E+02  0.74804066380E+02  0.00000000000E+00 0.  1.
         -2    1    1    2    0  502  0.13059396046E+02 -0.23000534339E+02 -0.54835030944E+02  0.60880645723E+02  0.00000000000E+00 0.  1.
</event>
<event>
 4    1  0.3196713E+003  0.2101938E+02  0.7546771E-02  0.1518988E+00
          2   -1    0    0  501    0  0.00000000000E+00  0.00000000000E+00  0.10926480601E+04  0.10926480601E+04  0.00000000000E+00 0.  1.
         -2   -1    0    0    0  501 -0.00000000000E+00 -0.00000000000E+00 -0.21426500546E+02  0.21426500546E+02  0.00000000000E+00 0. -1.
          2    1    1    2  502    0  0.18395042127E+02 -0.10170389444E+02  0.10873669382E+04  0.10875700771E+04  0.00000000000E+00 0.  1.
         -2    1    1    2    0  502 -0.18395042127E+02  0.10170389444E+02 -0.16145378624E+02  0.26504483530E+02  0.00000000000E+00 0. -1.
</event>
<event>
 4    1  0.3196713E+003  0.2164783E+02  0.7546771E-02  0.1510213E+00
          2   -1    0    0  501    0  0.00000000000E+00  0.00000000000E+00  0.40942279254E+03  0.40942279254E+03  0.00000000000E+00 0. -1.
         -2   -1    0    0    0  501 -0.00000000000E+00 -0.00000000000E+00 -0.17989173736E+01  0.17989173736E+01  0.00000000000E+00 0.  1.
          2    1    1    2  502    0  0.20206635135E+02 -0.77666287603E+01  0.32781487815E+03  0.32852887690E+03  0.00000000000E+00 0. -1.
         -2    1    1    2    0  502 -0.20206635135E+02  0.77666287603E+01  0.79808997020E+02  0.82692833010E+02  0.00000000000E+00 0.  1.
</event>
<event>
 4    1  0.3196713E+003  0.2072222E+02  0.7546771E-02  0.1523268E+00
          2   -1    0    0  501    0  0.00000000000E+00  0.00000000000E+00  0.10784365949E+02  0.10784365949E+02  0.00000000000E+00 0.  1.
         -2   -1    0    0    0  501 -0.00000000000E+00 -0.00000000000E+00 -0.57212954575E+02  0.57212954575E+02  0.00000000000E+00 0. -1.
          2    1    1    2  502    0 -0.17790021075E+02 -0.10626651357E+02 -0.44674666631E+01  0.21198321332E+02  0.00000000000E+00 0.  1.
         -2    1    1    2    0  502  0.17790021075E+02  0.10626651357E+02 -0.41961121963E+02  0.46798999192E+02  0.00000000000E+00 0. -1.
</event>
<event>
 4    1  0.3196713E+003  0.2680821E+02  0.7546771E-02  0.1449544E+00
          2   -1    0    0  501    0  0.00000000000E+00  0.00000000000E+00  0.12547165533E+04  0.12547165533E+04  0.00000000000E+00 0. -1.
         -2   -1    0    0    0  501 -0.00000000000E+00 -0.00000000000E+00 -0.71236729349E+00  0.71236729349E+00  0.00000000000E+00 0. -1.
          2    1    1    2  502    0  0.25902407747E+02 -0.69097951221E+01  0.90486387420E+03  0.90526090760E+03  0.00000000000E+00 0. -1.
         -2    1    1    2    0  502 -0.25902407747E+02  0.69097951221E+01  0.34914031177E+03  0.35016801296E+03  0.00000000000E+00 0. -1.
</event>
<event>
 4    1  0.3196713E+003  0.2095700E+02  0.7546771E-02  0.1519880E+00
          2   -1    0    0  501    0  0.00000000000E+00  0.00000000000E+00  0.50914882113E+02  0.50914882113E+02  0.00000000000E+00 0. -1.
         -2   -1    0    0    0  501 -0.00000000000E+00 -0.00000000000E+00 -0.25180275745E+03  0.25180275745E+03  0.00000000000E+00 0. -1.
          2    1    1    2  502    0  0.20301986471E+02  0.51985773628E+01  0.48299718277E+02  0.52650343275E+02  0.00000000000E+00 0. -1.
         -2    1    1    2    0  502 -0.20301986471E+02 -0.51985773628E+01 -0.24918759362E+03  0.25006729629E+03  0.00000000000E+00 0. -1.
</event>
<event>
 4    1  0.3196713E+003  0.2127741E+02  0.7546771E-02  0.1515341E+00
          2   -1    0    0  501    0  0.00000000000E+00  0.00000000000E+00  0.12125077345E+04  0.12125077345E+04  0.00000000000E+00 0.  1.
         -2   -1    0    0    0  501 -0.00000000000E+00 -0.00000000000E+00 -0.23932476600E+03  0.23932476600E+03  0.00000000000E+00 0. -1.
          2    1    1    2  502    0  0.12289753027E+02  0.17369228587E+02  0.12119412457E+04  0.12121280094E+04  0.00000000000E+00 0.  1.
         -2    1    1    2    0  502 -0.12289753027E+02 -0.17369228587E+02 -0.23875827719E+03  0.23970449111E+03  0.00000000000E+00 0. -1.
</event>
<event>
 4    1  0.3196713E+003  0.2978143E+02  0.7546771E-02  0.1421506E+00
          2   -1    0    0  501    0  0.00000000000E+00  0.00000000000E+00  0.54413465702E+03  0.54413465702E+03  0.00000000000E+00 0.  1.
         -2   -1    0    0    0  501 -0.00000000000E+00 -0.00000000000E+00 -0.20739855229E+01  0.20739855229E+01  0.00000000000E+00 0. -1.
          2    1    1    2  502    0  0.12219981430E+01 -0.29756347323E+02  0.39739205149E+03  0.39850643166E+03  0.00000000000E+00 0.  1.
         -2    1    1    2    0  502 -0.12219981430E+01  0.29756347323E+02  0.14466862000E+03  0.14770221088E+03  0.00000000000E+00 0. -1.
</event>
<event>
 4    1  0.3196713E+003  0.2791237E+02  0.7546771E-02  0.1438652E+00
          2   -1    0    0  501    0  0.00000000000E+00  0.00000000000E+00  0.22008431248E+03  0.22008431248E+03  0.00000000000E+00 0. -1.
         -2   -1    0    0    0  501 -0.00000000000E+00 -0.00000000000E+00 -0.22810367453E+02  0.22810367453E+02  0.00000000000E+00 0.  1.
          2    1    1    2  502    0 -0.22219166656E+02 -0.16894048521E+02  0.21026333513E+03  0.21210792146E+03  0.00000000000E+00 0. -1.
         -2    1    1    2    0  502  0.22219166656E+02  0.16894048521E+02 -0.12989390106E+02  0.30786758479E+02  0.00000000000E+00 0.  1.
</event>
<event>
 4    1  0.3196713E+003  0.2064791E+02  0.7546771E-02  0.1524352E+00
          2   -1    0    0  501    0  0.00000000000E+00  0.00000000000E+00  0.72818474228E+03  0.72818474228E+03  0.00000000000E+00 0. -1.
         -2   -1    0    0    0  501 -0.00000000000E+00 -0.00000000000E+00 -0.60011491786E+00  0.60011491786E+00  0.00000000000E+00 0. -1.
          2    1    1    2  502    0 -0.13851290783E+02 -0.15312676884E+02  0.42070030016E+03  0.42120669378E+03  0.00000000000E+00 0. -1.
         -2    1    1    2    0  502  0.13851290783E+02  0.15312676884E+02  0.30688432721E+03  0.30757816343E+03  0.00000000000E+00 0. -1.
</event>
<event>
 4    1  0.3196713E+003  0.3192527E+02  0.7546771E-02  0.1403572E+00
          2   -1    0    0  501    0  0.00000000000E+00  0.00000000000E+00  0.26367014503E+03  0.26367014503E+03  0.00000000000E+00 0. -1.
         -2   -1    0    0    0  501 -0.00000000000E+00 -0.00000000000E+00 -0.40133014046E+01  0.40133014046E+01  0.00000000000E+00 0. -1.
          2    1    1    2  502    0  0.92334873412E+00 -0.31911896101E+02  0.10414496369E+03  0.10892839458E+03  0.00000000000E+00 0. -1.
         -2    1    1    2    0  502 -0.92334873412E+00  0.31911896101E+02  0.15551187994E+03  0.15875505185E+03  0.00000000000E+00 0. -1.
</event>
<event>
 4    1  0.3196713E+003  0.3572699E+02  0.7546771E-02  0.1375523E+00
          2   -1    0    0  501    0  0.00000000000E+00  0.00000000000E+00  0.10962368672E+04  0.10962368672E+04  0.00000000000E+00 0.  1.
         -2   -1    0    0    0  501 -0.00000000000E+00 -0.00000000000E+00 -0.13390593322E+01  0.13390593322E+01  0.00000000000E+00 0. -1.
          2    1    1    2  502    0  0.35639683704E+02  0.24962080925E+01  0.74566824892E+03  0.74652364702E+03  0.00000000000E+00 0.  1.
         -2    1    1    2    0  502 -0.35639683704E+02 -0.24962080925E+01  0.34922955894E+03  0.35105227951E+03  0.00000000000E+00 0. -1.
</event>
<event>
 4    1  0.3196713E+003  0.3680866E+02  0.7546771E-02  0.1368275E+00
          2   -1    0    0  501    0  0.00000000000E+00  0.00000000000E+00  0.12742356327E+03  0.12742356327E+03  0.00000000000E+00 0.  1.
         -2   -1    0    0    0  501 -0.00000000000E+00 -0.00000000000E+00 -0.13986289216E+02  0.13986289216E+02  0.00000000000E+00 0.  1.
          2    1    1    2  502    0  0.21720244752E+02  0.29717139478E+02  0.91339886555E+02  0.98477674053E+02  0.00000000000E+00 0.  1.
         -2    1    1    2    0  502 -0.21720244752E+02 -0.29717139478E+02  0.22097387499E+02  0.42932178435E+02  0.00000000000E+00 0.  1.
</event>
<event>
 4    1  0.3196713E+003  0.2377993E+02  0.7546771E-02  0.1482930E+00
          2   -1    0    0  501    0  0.00000000000E+00  0.00000000000E+00  0.38256414828E+03  0.38256414828E+03  0.00000000000E+00 0.  1.
         -2   -1    0    0    0  501 -0.00000000000E+00 -0.00000000000E+00 -0.26454107457E+01  0.26454107457E+01  0.00000000000E+00 0.  1.
          2    1    1    2  502    0 -0.26269845311E+01  0.23634377402E+02  0.31789914530E+03  0.31878731377E+03  0.00000000000E+00 0.  1.
         -2    1    1    2    0  502  0.26269845311E+01 -0.23634377402E+02  0.62019592233E+02  0.66422245247E+02  0.00000000000E+00 0.  1.
</event>
<event>
 4    1  0.3196713E+003  0.2982361E+02  0.7546771E-02  0.1421136E+00
          2   -1    0    0  501    0  0.00000000000E+00  0.00000000000E+00  0.13164976489E+03  0.13164976489E+03  0.00000000000E+00 0. -1.
         -2   -1    0    0    0  501 -0.00000000000E+00 -0.00000000000E+00 -0.32352398607E+03  0.32352398607E+03  0.00000000000E+00 0. -1.
          2    1    1    2  502    0  0.23344396391E+02  0.18560352720E+02  0.12926087411E+03  0.13265677937E+03  0.00000000000E+00 0. -1.
         -2    1    1    2    0  502 -0.23344396391E+02 -0.18560352720E+02 -0.32113509529E+03  0.32251697159E+03  0.00000000000E+00 0. -1.
</event>
<event>
 4    1  0.3196713E+003  0.4561412E+02  0.7546771E-02  0.1318397E+00
          2   -1    0    0  501    0  0.00000000000E+00  0.00000000000E+00  0.34426115501E+02  0.34426115501E+02  0.00000000000E+00 0. -1.
         -2   -1    0    0    0  501 -0.00000000000E+00 -0.00000000000E+00 -0.66938290571E+02  0.66938290571E+02  0.00000000000E+00 0. -1.
          2    1    1    2  502    0  0.29841375351E+02 -0.34498412999E+02 -0.46245516308E+00  0.45616466841E+02  0.00000000000E+00 0. -1.
         -2    1    1    2    0  502 -0.29841375351E+02  0.34498412999E+02 -0.32049719907E+02  0.55747939230E+02  0.00000000000E+00 0. -1.
</event>
<event>
 4    1  0.3196713E+003  0.2376759E+02  0.7546771E-02  0.1483078E+00
          2   -1    0    0  501    0  0.00000000000E+00  0.00000000000E+00  0.43589840044E+02  0.43589840044E+02  0.00000000000E+00 0.  1.
         -2   -1    0    0    0  501 -0.00000000000E+00 -0.00000000000E+00 -0.87171103769E+02  0.87171103769E+02  0.00000000000E+00 0.  1.
          2    1    1    2  502    0 -0.52415161102E+01  0.23182425260E+02  0.38534456798E+02  0.45274746745E+02  0.00000000000E+00 0.  1.
         -2    1    1    2    0  502  0.52415161102E+01 -0.23182425260E+02 -0.82115720523E+02  0.85486197068E+02  0.00000000000E+00 0.  1.
</event>
<event>
 4    1  0.3196713E+003  0.2208127E+02  0.7546771E-02  0.1504369E+00
          2   -1    0    0  501    0  0.00000000000E+00  0.00000000000E+00  0.71564578162E+03  0.71564578162E+03  0.00000000000E+00 0. -1.
         -2   -1    0    0    0  501 -0.00000000000E+00 -0.00000000000E+00 -0.25163954905E+01  0.25163954905E+01  0.00000000000E+00 0.  1.
          2    1    1    2  502    0 -0.74225852523E+01 -0.20796337941E+02  0.66320572867E+03  0.66357322202E+03  0.00000000000E+00 0. -1.
         -2    1    1    2    0  502  0.74225852523E+01  0.20796337941E+02  0.49923657465E+02  0.54588955095E+02  0.00000000000E+00 0.  1.
</event>
<event>
 4    1  0.3196713E+003  0.2230909E+02  0.7546771E-02  0.1501361E+00
          2   -1    0    0  501    0  0.00000000000E+00  0.00000000000E+00  0.10951926050E+02  0.10951926050E+02  0.00000000000E+00 0. -1.
         -2   -1    0    0    0  501 -0.00000000000E+00 -0.00000000000E+00 -0.50161772244E+02  0.50161772244E+02  0.00000000000E+00 0. -1.
          2    1    1    2  502    0 -0.17200337899E+02 -0.14207180531E+02 -0.10233484290E+02  0.24544241752E+02  0.00000000000E+00 0. -1.
         -2    1    1    2    0  502  0.17200337899E+02  0.14207180531E+02 -0.28976361905E+02  0.36569456542E+02  0.00000000000E+00 0. -1.
</event>
<event>
 4    1  0.3196713E+003  0.2664634E+02  0.7546771E-02  0.1451193E+00
          2   -1    0    0  501    0  0.00000000000E+00  0.00000000000E+00  0.85277093426E+03  0.85277093426E+03  0.00000000000E+00 0.  1.
         -2   -1    0    0    0  501 -0.00000000000E+00 -0.00000000000E+00 -0.12161315865E+01  0.12161315865E+01  0.00000000000E+00 0. -1.
          2    1    1    2  502    0 -0.24762899473E+02  0.98400408110E+01  0.66556383100E+03  0.66609702050E+03  0.00000000000E+00 0.  1.
         -2    1    1    2    0  502  0.24762899473E+02 -0.98400408110E+01  0.18599097168E+03  0.18789004534E+03  0.00000000000E+00 0. -1.
</event>
<event>
 4    1  0.3196713E+003  0.2237701E+02  0.7546771E-02  0.1500473E+00
          2   -1    0    0  501    0  0.00000000000E+00  0.00000000000E+00  0.40713935866E+03  0.40713935866E+03  0.00000000000E+00 0.  1.
         -2   -1    0    0    0  501 -0.00000000000E+00 -0.00000000000E+00 -0.60576650434E+01  0.60576650434E+01  0.00000000000E+00 0.  1.
          2    1    1    2  502    0  0.11054124278E+02  0.19456021356E+02  0.38497814783E+03  0.38562793562E+03  0.00000000000E+00 0.  1.
         -2    1    1    2    0  502 -0.11054124278E+02 -0.19456021356E+02  0.16103545795E+02  0.27569088083E+02  0.00000000000E+00 0.  1.
</event>
<event>
 4    1  0.3196713E+003  0.2285918E+02  0.7546771E-02  0.1494274E+00
          2   -1    0    0  501    0  0.00000000000E+00  0.00000000000E+00  0.35449756854E+03  0.35449756854E+03  0.00000000000E+00 0.  1.
         -2   -1    0    0    0  501 -0.00000000000E+00 -0.00000000000E+00 -0.49397671898E+02  0.49397671898E+02  0.00000000000E+00 0.  1.
          2    1    1    2  502    0  0.24721373762E+01  0.22725114604E+02  0.35146167053E+03  0.35220427048E+03  0.00000000000E+00 0.  1.
         -2    1    1    2    0  502 -0.24721373762E+01 -0.22725114604E+02 -0.46361773885E+02  0.51690969954E+02  0.00000000000E+00 0.  1.
</event>
<event>
 4    1  0.3196713E+003  0.2386414E+02  0.7546771E-02  0.1481923E+00
          2   -1    0    0  501    0  0.00000000000E+00  0.00000000000E+00  0.16966251328E+03  0.16966251328E+03  0.00000000000E+00 0. -1.
         -2   -1    0    0    0  501 -0.00000000000E+00 -0.00000000000E+00 -0.39138036495E+02  0.39138036495E+02  0.00000000000E+00 0. -1.
          2    1    1    2  502    0  0.12218267259E+02  0.20499052044E+02  0.16508526309E+03  0.16680120287E+03  0.00000000000E+00 0. -1.
         -2    1    1    2    0  502 -0.12218267259E+02 -0.20499052044E+02 -0.34560786311E+02  0.41999346899E+02  0.00000000000E+00 0. -1.
</event>
<event>
 4    1  0.3196713E+003  0.2750588E+02  0.7546771E-02  0.1442592E+00
          2   -1    0    0  501    0  0.00000000000E+00  0.00000000000E+00  0.39398586562E+01  0.39398586562E+01  0.00000000000E+00 0.  1.
         -2   -1    0    0    0  501 -0.00000000000E+00 -0.00000000000E+00 -0.11214445816E+04  0.11214445816E+04  0.00000000000E+00 0. -1.
          2    1    1    2  502    0 -0.26273819702E+02  0.81400259810E+01 -0.46496907752E+02  0.54023476889E+02  0.00000000000E+00 0.  1.
         -2    1    1    2    0  502  0.26273819702E+02 -0.81400259810E+01 -0.10710078152E+04  0.10713609634E+04  0.00000000000E+00 0. -1.
</event>
<event>
 4    1  0.3196713E+003  0.3017472E+02  0.7546771E-02  0.1418084E+00
          2   -1    0    0  501    0  0.00000000000E+00  0.00000000000E+00  0.11914994837E+04  0.11914994837E+04  0.00000000000E+00 0. -1.
         -2   -1    0    0    0  501 -0.00000000000E+00 -0.00000000000E+00 -0.10003978947E+03  0.10003978947E+03  0.00000000000E+00 0. -1.
          2    1    1    2  502    0 -0.15466173260E+02 -0.25909669870E+02  0.11890283336E+04  0.11894111533E+04  0.00000000000E+00 0. -1.
         -2    1    1    2    0  502  0.15466173260E+02  0.25909669870E+02 -0.97568639299E+02  0.10212811994E+03  0.00000000000E+00 0. -1.
</event>
<event>
 4    1  0.3196713E+003  0.3279159E+02  0.7546771E-02  0.1396791E+00
          2   -1    0    0  501    0  0.00000000000E+00  0.00000000000E+00  0.12664155978E+04  0.12664155978E+04  0.00000000000E+00 0. -1.
         -2   -1    0    0    0  501 -0.00000000000E+00 -0.00000000000E+00 -0.22682870797E+03  0.22682870797E+03  0.00000000000E+00 0.  1.
          2    1    1    2  502    0 -0.29043299993E+02  0.15224164132E+02  0.12650168850E+04  0.12654418231E+04  0.00000000000E+00 0. -1.
         -2    1    1    2    0  502  0.29043299993E+02 -0.15224164132E+02 -0.22542999508E+03  0.22780248271E+03  0.00000000000E+00 0.  1.
</event>
<event>
 4    1  0.3196713E+003  0.2268519E+02  0.7546771E-02  0.1496490E+00
          2   -1    0    0  501    0  0.00000000000E+00  0.00000000000E+00  0.16459905097E+02  0.16459905097E+02  0.00000000000E+00 0.  1.
         -2   -1    0    0    0  501 -0.00000000000E+00 -0.00000000000E+00 -0.86001286843E+02  0.86001286843E+02  0.00000000000E+00 0. -1.
          2    1    1    2  502    0 -0.22439007231E+02 -0.33329766148E+01  0.61002728015E+01  0.23491085689E+02  0.00000000000E+00 0.  1.
         -2    1    1    2    0  502  0.22439007231E+02  0.33329766148E+01 -0.75641654548E+02  0.78970106251E+02  0.00000000000E+00 0. -1.
</event>
<event>
 4    1  0.3196713E+003  0.9796459E+02  0.7546771E-02  0.1167382E+00
          2   -1    0    0  501    0  0.00000000000E+00  0.00000000000E+00  0.82135830516E+03  0.82135830516E+03  0.00000000000E+00 0.  1.
         -2   -1    0    0    0  501 -0.00000000000E+00 -0.00000000000E+00 -0.51390936424E+02  0.51390936424E+02  0.00000000000E+00 0.  1.
          2    1    1    2  502    0  0.97832203634E+02  0.50913036266E+01  0.76855607412E+03  0.77477448364E+03  0.00000000000E+00 0.  1.
         -2    1    1    2    0  502 -0.97832203634E+02 -0.50913036266E+01  0.14112946139E+01  0.97974757938E+02  0.00000000000E+00 0.  1.
</event>
<event>
 4    1  0.3196713E+003  0.3648890E+02  0.7546771E-02  0.1370387E+00
          2   -1    0    0  501    0  0.00000000000E+00  0.00000000000E+00  0.19016585152E+03  0.19016585152E+03  0.00000000000E+00 0.  1.
         -2   -1    0    0    0  501 -0.00000000000E+00 -0.00000000000E+00 -0.57859080650E+02  0.57859080650E+02  0.00000000000E+00 0.  1.
          2    1    1    2  502    0  0.32328258383E+02  0.16921106747E+02  0.18242067921E+03  0.18603425584E+03  0.00000000000E+00 0.  1.
         -2    1    1    2    0  502 -0.32328258383E+02 -0.16921106747E+02 -0.50113908334E+02  0.61990676333E+02  0.00000000000E+00 0.  1.
</event>
<event>
 4    1  0.3196713E+003  0.2079801E+02  0.7546771E-02  0.1522168E+00
          2   -1    0    0  501    0  0.00000000000E+00  0.00000000000E+00  0.55480681491E+02  0.55480681491E+02  0.00000000000E+00 0.  1.
         -2   -1    0    0    0  501 -0.00000000000E+00 -0.00000000000E+00 -0.78093879165E+01  0.78093879165E+01  0.00000000000E+00 0.  1.
          2    1    1    2  502    0  0.30300203264E+01 -0.20576105050E+02  0.25119405968E+02  0.32611986728E+02  0.00000000000E+00 0.  1.
         -2    1    1    2    0  502 -0.30300203264E+01  0.20576105050E+02  0.22551887606E+02  0.30678082679E+02  0.00000000000E+00 0.  1.
</event>
<event>
 4    1  0.3196713E+003  0.2607131E+02  0.7546771E-02  0.1457167E+00
          2   -1    0    0  501    0  0.00000000000E+00  0.00000000000E+00  0.42916637402E+02  0.42916637402E+02  0.00000000000E+00 0. -1.
         -2   -1    0    0    0  501 -0.00000000000E+00 -0.00000000000E+00 -0.15848042537E+02  0.15848042537E+02  0.00000000000E+00 0.  1.
          2    1    1    2  502    0  0.26007997118E+02 -0.18157036405E+01  0.12793792006E+02  0.29041243219E+02  0.00000000000E+00 0. -1.
         -2    1    1    2    0  502 -0.26007997118E+02  0.18157036405E+01  0.14274802860E+02  0.29723436720E+02  0.00000000000E+00 0.  1.
</event>
<event>
 4    1  0.3196713E+003  0.2824838E+02  0.7546771E-02  0.1435455E+00
          2   -1    0    0  501    0  0.00000000000E+00  0.00000000000E+00  0.19759974656E+03  0.19759974656E+03  0.00000000000E+00 0.  1.
         -2   -1    0    0    0  501 -0.00000000000E+00 -0.00000000000E+00 -0.12953841000E+02  0.12953841000E+02  0.00000000000E+00 0. -1.
          2    1    1    2  502    0 -0.14757006861E+02  0.24087377918E+02  0.17966165419E+03  0.18186885663E+03  0.00000000000E+00 0.  1.
         -2    1    1    2    0  502  0.14757006861E+02 -0.24087377918E+02  0.49842513653E+01  0.28684730923E+02  0.00000000000E+00 0. -1.
</event>
<event>
 4    1  0.3196713E+003  0.2566683E+02  0.7546771E-02  0.1461480E+00
          2   -1    0    0  501    0  0.00000000000E+00  0.00000000000E+00  0.17729396954E+03  0.17729396954E+03  0.00000000000E+00 0. -1.
         -2   -1    0    0    0  501 -0.00000000000E+00 -0.00000000000E+00 -0.46174890626E+01  0.46174890626E+01  0.00000000000E+00 0. -1.
          2    1    1    2  502    0 -0.14217379385E+02  0.21369419568E+02  0.12653208474E+03  0.12910907961E+03  0.00000000000E+00 0. -1.
         -2    1    1    2    0  502  0.14217379385E+02 -0.21369419568E+02  0.46144395737E+02  0.52802378992E+02  0.00000000000E+00 0. -1.
</event>
<event>
 4    1  0.3196713E+003  0.2179885E+02  0.7546771E-02  0.1508158E+00
          2   -1    0    0  501    0  0.00000000000E+00  0.00000000000E+00  0.35330889768E+03  0.35330889768E+03  0.00000000000E+00 0.  1.
         -2   -1    0    0    0  501 -0.00000000000E+00 -0.00000000000E+00 -0.31761500576E+01  0.31761500576E+01  0.00000000000E+00 0.  1.
          2    1    1    2  502    0 -0.21554791073E+02  0.32528231461E+01  0.31040642578E+03  0.31117091612E+03  0.00000000000E+00 0.  1.
         -2    1    1    2    0  502  0.21554791073E+02 -0.32528231461E+01  0.39726321839E+02  0.45314131609E+02  0.00000000000E+00 0.  1.
</event>
<event>
 4    1  0.3196713E+003  0.2149106E+02  0.7546771E-02  0.1512368E+00
          2   -1    0    0  501    0  0.00000000000E+00  0.00000000000E+00  0.39867460547E+00  0.39867460547E+00  0.00000000000E+00 0.  1.
         -2   -1    0    0    0  501 -0.00000000000E+00 -0.00000000000E+00 -0.12571550267E+04  0.12571550267E+04  0.00000000000E+00 0. -1.
          2    1    1    2  502    0  0.11404910572E+02 -0.18215207787E+02 -0.45223945563E+03  0.45274981061E+03  0.00000000000E+00 0.  1.
         -2    1    1    2    0  502 -0.11404910572E+02  0.18215207787E+02 -0.80451689645E+03  0.80480389068E+03  0.00000000000E+00 0. -1.
</event>
<event>
 4    1  0.3196713E+003  0.2017212E+02  0.7546771E-02  0.1531421E+00
          2   -1    0    0  501    0  0.00000000000E+00  0.00000000000E+00  0.20758830215E+03  0.20758830215E+03  0.00000000000E+00 0. -1.
         -2   -1    0    0    0  501 -0.00000000000E+00 -0.00000000000E+00 -0.44828231548E+02  0.44828231548E+02  0.00000000000E+00 0.  1.
          2    1    1    2  502    0  0.19429445147E+02  0.54232049643E+01  0.20479811160E+03  0.20578916639E+03  0.00000000000E+00 0. -1.
         -2    1    1    2    0  502 -0.19429445147E+02 -0.54232049643E+01 -0.42038040997E+02  0.46627367303E+02  0.00000000000E+00 0.  1.
</event>
<event>
 4    1  0.3196713E+003  0.2229501E+02  0.7546771E-02  0.1501546E+00
          2   -1    0    0  501    0  0.00000000000E+00  0.00000000000E+00  0.35691945038E+03  0.35691945038E+03  0.00000000000E+00 0.  1.
         -2   -1    0    0    0  501 -0.00000000000E+00 -0.00000000000E+00 -0.28899032299E+01  0.28899032299E+01  0.00000000000E+00 0.  1.
          2    1    1    2  502    0 -0.15477832986E+02  0.16046925178E+02  0.47521529101E+02  0.52491550269E+02  0.00000000000E+00 0.  1.
         -2    1    1    2    0  502  0.15477832986E+02 -0.16046925178E+02  0.30650801805E+03  0.30731780334E+03  0.00000000000E+00 0.  1.
</event>
<event>
 4    1  0.3196713E+003  0.3231999E+02  0.7546771E-02  0.1400451E+00
          2   -1    0    0  501    0  0.00000000000E+00  0.00000000000E+00  0.34935774583E+02  0.34935774583E+02  0.00000000000E+00 0.  1.
         -2   -1    0    0    0  501 -0.00000000000E+00 -0.00000000000E+00 -0.43837614416E+03  0.43837614416E+03  0.00000000000E+00 0.  1.
          2    1    1    2  502    0 -0.10265294339E+01 -0.32303679448E+02  0.26722528830E+02  0.41936559416E+02  0.00000000000E+00 0.  1.
         -2    1    1    2    0  502  0.10265294339E+01  0.32303679448E+02 -0.43016289840E+03  0.43137535932E+03  0.00000000000E+00 0.  1.
</event>
<event>
 4    1  0.3196713E+003  0.3719037E+02  0.7546771E-02  0.1365786E+00
          2   -1    0    0  501    0  0.00000000000E+00  0.00000000000E+00  0.13052603073E+04  0.13052603073E+04  0.00000000000E+00 0. -1.
         -2   -1    0    0    0  501 -0.00000000000E+00 -0.00000000000E+00 -0.13948299258E+01  0.13948299258E+01  0.00000000000E+00 0. -1.
          2    1    1    2  502    0  0.12440716218E+02 -0.35047837704E+02  0.33166902375E+03  0.33374760473E+03  0.00000000000E+00 0. -1.
         -2    1    1    2    0  502 -0.12440716218E+02  0.35047837704E+02  0.97219645364E+03  0.97290753251E+03  0.00000000000E+00 0. -1.
</event>
<event>
 4    1  0.3196713E+003  0.2584799E+02  0.7546771E-02  0.1459536E+00
          2   -1    0    0  501    0  0.00000000000E+00  0.00000000000E+00  0.18634637052E+04  0.18634637052E+04  0.00000000000E+00 0.  1.
         -2   -1    0    0    0  501 -0.00000000000E+00 -0.00000000000E+00 -0.78752504880E+00  0.78752504880E+00  0.00000000000E+00 0. -1.
          2    1    1    2  502    0 -0.16832656473E+02  0.19615819497E+02  0.16193015805E+04  0.16195078657E+04  0.00000000000E+00 0.  1.
         -2    1    1    2    0  502  0.16832656473E+02 -0.19615819497E+02  0.24337459969E+03  0.24474336451E+03  0.00000000000E+00 0. -1.
</event>
<event>
 4    1  0.3196713E+003  0.2003108E+02  0.7546771E-02  0.1533561E+00
          2   -1    0    0  501    0  0.00000000000E+00  0.00000000000E+00  0.32612527372E+03  0.32612527372E+03  0.00000000000E+00 0. -1.
         -2   -1    0    0    0  501 -0.00000000000E+00 -0.00000000000E+00 -0.15460564512E+01  0.15460564512E+01  0.00000000000E+00 0.  1.
          2    1    1    2  502    0 -0.19544260285E+02  0.43893239479E+01  0.23632610283E+03  0.23717350432E+03  0.00000000000E+00 0. -1.
         -2    1    1    2    0  502  0.19544260285E+02 -0.43893239479E+01  0.88253114446E+02  0.90497825854E+02  0.00000000000E+00 0.  1.
</event>
<event>
 4    1  0.3196713E+003  0.3114515E+02  0.7546771E-02  0.1409899E+00
          2   -1    0    0  501    0  0.00000000000E+00  0.00000000000E+00  0.49059220510E+01  0.49059220510E+01  0.00000000000E+00 0. -1.
         -2   -1    0    0    0  501 -0.00000000000E+00 -0.00000000000E+00 -0.41023460440E+03  0.41023460440E+03  0.00000000000E+00 0. -1.
          2    1    1    2  502    0 -0.39649345485E+01 -0.30891740645E+02 -0.53268359749E+02  0.61705255015E+02  0.00000000000E+00 0. -1.
         -2    1    1    2    0  502  0.39649345485E+01  0.30891740645E+02 -0.35206032260E+03  0.35343527144E+03  0.00000000000E+00 0. -1.
</event>
<event>
 4    1  0.3196713E+003  0.2811553E+02  0.7546771E-02  0.1436713E+00
          2   -1    0    0  501    0  0.00000000000E+00  0.00000000000E+00  0.15867346261E+03  0.15867346261E+03  0.00000000000E+00 0.  1.
         -2   -1    0    0    0  501 -0.00000000000E+00 -0.00000000000E+00 -0.82572441328E+02  0.82572441328E+02  0.00000000000E+00 0. -1.
          2    1    1    2  502    0 -0.25187053215E+02  0.12493802976E+02  0.15497810173E+03  0.15750776101E+03  0.00000000000E+00 0.  1.
         -2    1    1    2    0  502  0.25187053215E+02 -0.12493802976E+02 -0.78877080444E+02  0.83738142932E+02  0.00000000000E+00 0. -1.
</event>
<event>
 4    1  0.3196713E+003  0.3179127E+02  0.7546771E-02  0.1404644E+00
          2   -1    0    0  501    0  0.00000000000E+00  0.00000000000E+00  0.20627575152E+04  0.20627575152E+04  0.00000000000E+00 0. -1.
         -2   -1    0    0    0  501 -0.00000000000E+00 -0.00000000000E+00 -0.85809784042E+00  0.85809784042E+00  0.00000000000E+00 0. -1.
          2    1    1    2  502    0  0.19170172224E+02  0.25361175222E+02  0.17067697217E+04  0.17070657772E+04  0.00000000000E+00 0. -1.
         -2    1    1    2    0  502 -0.19170172224E+02 -0.25361175222E+02  0.35512969562E+03  0.35654983582E+03  0.00000000000E+00 0. -1.
</event>
<event>
 4    1  0.3196713E+003  0.2637531E+02  0.7546771E-02  0.1453986E+00
          2   -1    0    0  501    0  0.00000000000E+00  0.00000000000E+00  0.66357887860E+03  0.66357887860E+03  0.00000000000E+00 0.  1.
         -2   -1    0    0    0  501 -0.00000000000E+00 -0.00000000000E+00 -0.27704841887E+01  0.27704841887E+01  0.00000000000E+00 0. -1.
          2    1    1    2  502    0  0.20702352365E+02 -0.16342256731E+02  0.59308529320E+03  0.59367147628E+03  0.00000000000E+00 0.  1.
         -2    1    1    2    0  502 -0.20702352365E+02  0.16342256731E+02  0.67723101214E+02  0.72677886503E+02  0.00000000000E+00 0. -1.
</event>
<event>
 4    1  0.3196713E+003  0.2360180E+02  0.7546771E-02  0.1485077E+00
          2   -1    0    0  501    0  0.00000000000E+00  0.00000000000E+00  0.15589275064E+04  0.15589275064E+04  0.00000000000E+00 0. -1.
         -2   -1    0    0    0  501 -0.00000000000E+00 -0.00000000000E+00 -0.65500928766E+00  0.65500928766E+00  0.00000000000E+00 0. -1.
          2    1    1    2  502    0  0.20098513968E+02 -0.12373134791E+02  0.13048291847E+04  0.13050426223E+04  0.00000000000E+00 0. -1.
         -2    1    1    2    0  502 -0.20098513968E+02  0.12373134791E+02  0.25344331239E+03  0.25453989338E+03  0.00000000000E+00 0. -1.
</event>
<event>
 4    1  0.3196713E+003  0.2530278E+02  0.7546771E-02  0.1465445E+00
          2   -1    0    0  501    0  0.00000000000E+00  0.00000000000E+00  0.16355259893E+04  0.16355259893E+04  0.00000000000E+00 0. -1.
         -2   -1    0    0    0  501 -0.00000000000E+00 -0.00000000000E+00 -0.22120536105E+02  0.22120536105E+02  0.00000000000E+00 0.  1.
          2    1    1    2  502    0  0.16540283717E+02 -0.19148094314E+02  0.16281596888E+04  0.16283562886E+04  0.00000000000E+00 0. -1.
         -2    1    1    2    0  502 -0.16540283717E+02  0.19148094314E+02 -0.14754235610E+02  0.29290236765E+02  0.00000000000E+00 0.  1.
</event>
<event>
 4    1  0.3196713E+003  0.2276468E+02  0.7546771E-02  0.1495474E+00
          2   -1    0    0  501    0  0.00000000000E+00  0.00000000000E+00  0.53978140234E+01  0.53978140234E+01  0.00000000000E+00 0.  1.
         -2   -1    0    0    0  501 -0.00000000000E+00 -0.00000000000E+00 -0.41513209992E+03  0.41513209992E+03  0.00000000000E+00 0. -1.
          2    1    1    2  502    0 -0.99381164716E+01  0.20480833560E+02 -0.20512587749E+02  0.30643057264E+02  0.00000000000E+00 0.  1.
         -2    1    1    2    0  502  0.99381164716E+01 -0.20480833560E+02 -0.38922169815E+03  0.38988685668E+03  0.00000000000E+00 0. -1.
</event>
<event>
 4    1  0.3196713E+003  0.3303528E+02  0.7546771E-02  0.1394928E+00
          2   -1    0    0  501    0  0.00000000000E+00  0.00000000000E+00  0.16399449893E+04  0.16399449893E+04  0.00000000000E+00 0. -1.
         -2   -1    0    0    0  501 -0.00000000000E+00 -0.00000000000E+00 -0.19716594305E+02  0.19716594305E+02  0.00000000000E+00 0.  1.
          2    1    1    2  502    0 -0.30967772336E+01  0.32889808346E+02  0.16258207170E+04  0.16261563066E+04  0.00000000000E+00 0. -1.
         -2    1    1    2    0  502  0.30967772336E+01 -0.32889808346E+02 -0.55923220372E+01  0.33505277018E+02  0.00000000000E+00 0.  1.
</event>
<event>
 4    1  0.3196713E+003  0.4209202E+02  0.7546771E-02  0.1336644E+00
          2   -1    0    0  501    0  0.00000000000E+00  0.00000000000E+00  0.18131766355E+04  0.18131766355E+04  0.00000000000E+00 0.  1.
         -2   -1    0    0    0  501 -0.00000000000E+00 -0.00000000000E+00 -0.34383304712E+01  0.34383304712E+01  0.00000000000E+00 0.  1.
          2    1    1    2  502    0 -0.13912887926E+02  0.39726181316E+02  0.16733467028E+04  0.16738760187E+04  0.00000000000E+00 0.  1.
         -2    1    1    2    0  502  0.13912887926E+02 -0.39726181316E+02  0.13639160218E+03  0.14273894730E+03  0.00000000000E+00 0.  1.
</event>
<event>
 4    1  0.3196713E+003  0.2506869E+02  0.7546771E-02  0.1468036E+00
          2   -1    0    0  501    0  0.00000000000E+00  0.00000000000E+00  0.10646076747E+04  0.10646076747E+04  0.00000000000E+00 0. -1.
         -2   -1    0    0    0  501 -0.00000000000E+00 -0.00000000000E+00 -0.59906860761E+00  0.59906860761E+00  0.00000000000E+00 0. -1.
          2    1    1    2  502    0  0.71472666958E+01 -0.24028228656E+02  0.59643622682E+03  0.59696282284E+03  0.00000000000E+00 0. -1.
         -2    1    1    2    0  502 -0.71472666958E+01  0.24028228656E+02  0.46757237930E+03  0.46824392049E+03  0.00000000000E+00 0. -1.
</event>
<event>
 4    1  0.3196713E+003  0.3075010E+02  0.7546771E-02  0.1413188E+00
          2   -1    0    0  501    0  0.00000000000E+00  0.00000000000E+00  0.59736162592E+03  0.59736162592E+03  0.00000000000E+00 0. -1.
         -2   -1    0    0    0  501 -0.00000000000E+00 -0.00000000000E+00 -0.23767688635E+03  0.23767688635E+03  0.00000000000E+00 0. -1.
          2    1    1    2  502    0  0.30745166695E+02  0.55072700457E+00  0.59596898171E+03  0.59676175794E+03  0.00000000000E+00 0. -1.
         -2    1    1    2    0  502 -0.30745166695E+02 -0.55072700457E+00 -0.23628424213E+03  0.23827675433E+03  0.00000000000E+00 0. -1.
</event>
<event>
 4    1  0.3196713E+003  0.3193511E+02  0.7546771E-02  0.1403494E+00
          2   -1    0    0  501    0  0.00000000000E+00  0.00000000000E+00  0.42105658965E+03  0.42105658965E+03  0.00000000000E+00 0. -1.
         -2   -1    0    0    0  501 -0.00000000000E+00 -0.00000000000E+00 -0.36888498930E+03  0.36888498930E+03  0.00000000000E+00 0.  1.
          2    1    1    2  502    0 -0.31910713611E+02 -0.12479171760E+01  0.41975775192E+03  0.42097080806E+03  0.00000000000E+00 0. -1.
         -2    1    1    2    0  502  0.31910713611E+02  0.12479171760E+01 -0.36758615157E+03  0.36897077088E+03  0.00000000000E+00 0.  1.
</event>
<event>
 4    1  0.3196713E+003  0.2416004E+02  0.7546771E-02  0.1478424E+00
          2   -1    0    0  501    0  0.00000000000E+00  0.00000000000E+00  0.65440348547E+03  0.65440348547E+03  0.00000000000E+00 0.  1.
         -2   -1    0    0    0  501 -0.00000000000E+00 -0.00000000000E+00 -0.99402202897E+00  0.99402202897E+00  0.00000000000E+00 0.  1.
          2    1    1    2  502    0  0.16611889381E+02 -0.17542876304E+02  0.43170502946E+03  0.43238054980E+03  0.00000000000E+00 0.  1.
         -2    1    1    2    0  502 -0.16611889381E+02  0.17542876304E+02  0.22170443398E+03  0.22301695770E+03  0.00000000000E+00 0.  1.
</event>
<event>
 4    1  0.3196713E+003  0.2174913E+02  0.7546771E-02  0.1508832E+00
          2   -1    0    0  501    0  0.00000000000E+00  0.00000000000E+00  0.35532214203E+01  0.35532214203E+01  0.00000000000E+00 0.  1.
         -2   -1    0    0    0  501 -0.00000000000E+00 -0.00000000000E+00 -0.21815426650E+03  0.21815426650E+03  0.00000000000E+00 0.  1.
          2    1    1    2  502    0  0.21202391042E+02  0.48459348881E+01 -0.38093305964E+02  0.43864842757E+02  0.00000000000E+00 0.  1.
         -2    1    1    2    0  502 -0.21202391042E+02 -0.48459348881E+01 -0.17650773912E+03  0.17784264516E+03  0.00000000000E+00 0.  1.
</event>
<event>
 4    1  0.3196713E+003  0.6125223E+02  0.7546771E-02  0.1255636E+00
          2   -1    0    0  501    0  0.00000000000E+00  0.00000000000E+00  0.26114217714E+03  0.26114217714E+03  0.00000000000E+00 0. -1.
         -2   -1    0    0    0  501 -0.00000000000E+00 -0.00000000000E+00 -0.26425900409E+02  0.26425900409E+02  0.00000000000E+00 0.  1.
          2    1    1    2  502    0  0.87836115663E+01 -0.60619167315E+02  0.21448721234E+03  0.22306187378E+03  0.00000000000E+00 0. -1.
         -2    1    1    2    0  502 -0.87836115663E+01  0.60619167315E+02  0.20229064392E+02  0.64506203766E+02  0.00000000000E+00 0.  1.
</event>
<event>
 4    1  0.3196713E+003  0.2121037E+02  0.7546771E-02  0.1516282E+00
          2   -1    0    0  501    0  0.00000000000E+00  0.00000000000E+00  0.88164690834E+03  0.88164690834E+03  0.00000000000E+00 0. -1.
         -2   -1    0    0    0  501 -0.00000000000E+00 -0.00000000000E+00 -0.52379435629E+01  0.52379435629E+01  0.00000000000E+00 0. -1.
          2    1    1    2  502    0 -0.97817703810E+01 -0.18820121314E+02  0.85949382143E+03  0.85975549378E+03  0.00000000000E+00 0. -1.
         -2    1    1    2    0  502  0.97817703810E+01  0.18820121314E+02  0.16915143348E+02  0.27129358129E+02  0.00000000000E+00 0. -1.
</event>
<event>
 4    1  0.3196713E+003  0.2505252E+02  0.7546771E-02  0.1468217E+00
          2   -1    0    0  501    0  0.00000000000E+00  0.00000000000E+00  0.29018413048E+02  0.29018413048E+02  0.00000000000E+00 0.  1.
         -2   -1    0    0    0  501 -0.00000000000E+00 -0.00000000000E+00 -0.89720250338E+02  0.89720250338E+02  0.00000000000E+00 0.  1.
          2    1    1    2  502    0  0.19489773472E+02 -0.15740952820E+02  0.21369700868E+02  0.32928604296E+02  0.00000000000E+00 0.  1.
         -2    1    1    2    0  502 -0.19489773472E+02  0.15740952820E+02 -0.82071538157E+02  0.85810059091E+02  0.00000000000E+00 0.  1.
</event>
<event>
 4    1  0.3196713E+003  0.3511992E+02  0.7546771E-02  0.1379722E+00
          2   -1    0    0  501    0  0.00000000000E+00  0.00000000000E+00  0.25961034021E+03  0.25961034021E+03  0.00000000000E+00 0. -1.
         -2   -1    0    0    0  501 -0.00000000000E+00 -0.00000000000E+00 -0.47527159575E+01  0.47527159575E+01  0.00000000000E+00 0. -1.
          2    1    1    2  502    0  0.74265329071E+01 -0.34325706758E+02  0.12491384196E+03  0.12975698613E+03  0.00000000000E+00 0. -1.
         -2    1    1    2    0  502 -0.74265329071E+01  0.34325706758E+02  0.12994378229E+03  0.13460607004E+03  0.00000000000E+00 0. -1.
</event>
<event>
 4    1  0.3196713E+003  0.2031451E+02  0.7546771E-02  0.1529281E+00
          2   -1    0    0  501    0  0.00000000000E+00  0.00000000000E+00  0.23497778062E+02  0.23497778062E+02  0.00000000000E+00 0.  1.
         -2   -1    0    0    0  501 -0.00000000000E+00 -0.00000000000E+00 -0.82604128691E+03  0.82604128691E+03  0.00000000000E+00 0. -1.
          2    1    1    2  502    0 -0.39943531196E+01  0.19917945451E+02  0.18958000009E+02  0.27786420643E+02  0.00000000000E+00 0.  1.
         -2    1    1    2    0  502  0.39943531196E+01 -0.19917945451E+02 -0.82150150886E+03  0.82175264433E+03  0.00000000000E+00 0. -1.
</event>
<event>
 4    1  0.3196713E+003  0.2111494E+02  0.7546771E-02  0.1517630E+00
          2   -1    0    0  501    0  0.00000000000E+00  0.00000000000E+00  0.14997948234E+04  0.14997948234E+04  0.00000000000E+00 0.  1.
         -2   -1    0    0    0  501 -0.00000000000E+00 -0.00000000000E+00 -0.15937796066E+02  0.15937796066E+02  0.00000000000E+00 0. -1.
          2    1    1    2  502    0 -0.10161930223E+02 -0.18508806554E+02  0.14926937885E+04  0.14928431220E+04  0.00000000000E+00 0.  1.
         -2    1    1    2    0  502  0.10161930223E+02  0.18508806554E+02 -0.88367611561E+01  0.22889497453E+02  0.00000000000E+00 0. -1.
</event>
<event>
 4    1  0.3196713E+003  0.2536142E+02  0.7546771E-02  0.1464801E+00
          2   -1    0    0  501    0  0.00000000000E+00  0.00000000000E+00  0.16016423568E+04  0.16016423568E+04  0.00000000000E+00 0.  1.
         -2   -1    0    0    0  501 -0.00000000000E+00 -0.00000000000E+00 -0.24100949614E+01  0.24100949614E+01  0.00000000000E+00 0. -1.
          2    1    1    2  502    0 -0.22793911572E+02 -0.11119309987E+02  0.15317796540E+04  0.15319895919E+04  0.00000000000E+00 0.  1.
         -2    1    1    2    0  502  0.22793911572E+02  0.11119309987E+02  0.67452607899E+02  0.72062859863E+02  0.00000000000E+00 0. -1.
</event>
<event>
 4    1  0.3196713E+003  0.2686029E+02  0.7546771E-02  0.1449017E+00
          2   -1    0    0  501    0  0.00000000000E+00  0.00000000000E+00  0.40506576141E+03  0.40506576141E+03  0.00000000000E+00 0. -1.
         -2   -1    0    0    0  501 -0.00000000000E+00 -0.00000000000E+00 -0.49697383836E+01  0.49697383836E+01  0.00000000000E+00 0.  1.
          2    1    1    2  502    0 -0.25913890301E+02 -0.70672245161E+01  0.36426768761E+03  0.36525665444E+03  0.00000000000E+00 0. -1.
         -2    1    1    2    0  502  0.25913890301E+02  0.70672245161E+01  0.35828335417E+02  0.44778845359E+02  0.00000000000E+00 0.  1.
</event>
<event>
 4    1  0.3196713E+003  0.4284020E+02  0.7546771E-02  0.1332601E+00
          2   -1    0    0  501    0  0.00000000000E+00  0.00000000000E+00  0.45512074127E+03  0.45512074127E+03  0.00000000000E+00 0. -1.
         -2   -1    0    0    0  501 -0.00000000000E+00 -0.00000000000E+00 -0.28698191590E+02  0.28698191590E+02  0.00000000000E+00 0.  1.
          2    1    1    2  502    0  0.42708918964E+02  0.33513095733E+01  0.43748173776E+03  0.43957428713E+03  0.00000000000E+00 0. -1.
         -2    1    1    2    0  502 -0.42708918964E+02 -0.33513095733E+01 -0.11059188076E+02  0.44244645731E+02  0.00000000000E+00 0.  1.
</event>
<event>
 4    1  0.3196713E+003  0.2031412E+02  0.7546771E-02  0.1529287E+00
          2   -1    0    0  501    0  0.00000000000E+00  0.00000000000E+00  0.86291302327E+02  0.86291302327E+02  0.00000000000E+00 0. -1.
         -2   -1    0    0    0  501 -0.00000000000E+00 -0.00000000000E+00 -0.22825483374E+02  0.22825483374E+02  0.00000000000E+00 0. -1.
          2    1    1    2  502    0 -0.19963883379E+02  0.37558953481E+01  0.80240444422E+02  0.82771929484E+02  0.00000000000E+00 0. -1.
         -2    1    1    2    0  502  0.19963883379E+02 -0.37558953481E+01 -0.16774625470E+02  0.26344856217E+02  0.00000000000E+00 0. -1.
</event>
<event>
 4    1  0.3196713E+003  0.2945272E+02  0.7546771E-02  0.1424413E+00
          2   -1    0    0  501    0  0.00000000000E+00  0.00000000000E+00  0.22348940821E+02  0.22348940821E+02  0.00000000000E+00 0.  1.
         -2   -1    0    0    0  501 -0.00000000000E+00 -0.00000000000E+00 -0.88485375036E+02  0.88485375036E+02  0.00000000000E+00 0.  1.
          2    1    1    2  502    0  0.22351005687E+02  0.19180601464E+02  0.84519806796E+01  0.30641457295E+02  0.00000000000E+00 0.  1.
         -2    1    1    2    0  502 -0.22351005687E+02 -0.19180601464E+02 -0.74588414895E+02  0.80192858562E+02  0.00000000000E+00 0.  1.
</event>
<event>
 4    1  0.3196713E+003  0.5738101E+02  0.7546771E-02  0.1269000E+00
          2   -1    0    0  501    0  0.00000000000E+00  0.00000000000E+00  0.20641482418E+04  0.20641482418E+04  0.00000000000E+00 0.  1.
         -2   -1    0    0    0  501 -0.00000000000E+00 -0.00000000000E+00 -0.36459299015E+02  0.36459299015E+02  0.00000000000E+00 0. -1.
          2    1    1    2  502    0  0.11567324808E+02 -0.56203000730E+02  0.20409154080E+04  0.20417218917E+04  0.00000000000E+00 0.  1.
         -2    1    1    2    0  502 -0.11567324808E+02  0.56203000730E+02 -0.13226465211E+02  0.58885649154E+02  0.00000000000E+00 0. -1.
</event>
<event>
 4    1  0.3196713E+003  0.2335004E+02  0.7546771E-02  0.1488149E+00
          2   -1    0    0  501    0  0.00000000000E+00  0.00000000000E+00  0.20599111762E+02  0.20599111762E+02  0.00000000000E+00 0.  1.
         -2   -1    0    0    0  501 -0.00000000000E+00 -0.00000000000E+00 -0.69313259723E+02  0.69313259723E+02  0.00000000000E+00 0. -1.
          2    1    1    2  502    0  0.23350027677E+02 -0.18798818615E-01  0.10988171164E+02  0.25806279303E+02  0.00000000000E+00 0.  1.
         -2    1    1    2    0  502 -0.23350027677E+02  0.18798818615E-01 -0.59702319126E+02  0.64106092182E+02  0.00000000000E+00 0. -1.
</event>
<event>
 4    1  0.3196713E+003  0.2042174E+02  0.7546771E-02  0.1527683E+00
          2   -1    0    0  501    0  0.00000000000E+00  0.00000000000E+00  0.14612917096E+02  0.14612917096E+02  0.00000000000E+00 0.  1.
         -2   -1    0    0    0  501 -0.00000000000E+00 -0.00000000000E+00 -0.57015429264E+02  0.57015429264E+02  0.00000000000E+00 0. -1.
          2    1    1    2  502    0  0.10615268625E+02  0.17446016675E+02  0.41090034369E+01  0.20831018579E+02  0.00000000000E+00 0.  1.
         -2    1    1    2    0  502 -0.10615268625E+02 -0.17446016675E+02 -0.46511515605E+02  0.50797327781E+02  0.00000000000E+00 0. -1.
</event>
<event>
 4    1  0.3196713E+003  0.3545645E+02  0.7546771E-02  0.1377382E+00
          2   -1    0    0  501    0  0.00000000000E+00  0.00000000000E+00  0.69099303567E+03  0.69099303567E+03  0.00000000000E+00 0. -1.
         -2   -1    0    0    0  501 -0.00000000000E+00 -0.00000000000E+00 -0.23186669091E+01  0.23186669091E+01  0.00000000000E+00 0.  1.
          2    1    1    2  502    0  0.33352391835E+02 -0.12032368595E+02  0.50520397033E+03  0.50644665225E+03  0.00000000000E+00 0. -1.
         -2    1    1    2    0  502 -0.33352391835E+02  0.12032368595E+02  0.18347039843E+03  0.18686505033E+03  0.00000000000E+00 0.  1.
</event>
<event>
 4    1  0.3196713E+003  0.2352381E+02  0.7546771E-02  0.1486023E+00
          2   -1    0    0  501    0  0.00000000000E+00  0.00000000000E+00  0.29857912866E+03  0.29857912866E+03  0.00000000000E+00 0. -1.
         -2   -1    0    0    0  501 -0.00000000000E+00 -0.00000000000E+00 -0.30391192392E+02  0.30391192392E+02  0.00000000000E+00 0. -1.
          2    1    1    2  502    0 -0.22787716234E+02 -0.58386443734E+01  0.29348484790E+03  0.29442609552E+03  0.00000000000E+00 0. -1.
         -2    1    1    2    0  502  0.22787716234E+02  0.58386443734E+01 -0.25296911631E+02  0.34544225528E+02  0.00000000000E+00 0. -1.
</event>
<event>
 4    1  0.3196713E+003  0.3403496E+02  0.7546771E-02  0.1387478E+00
          2   -1    0    0  501    0  0.00000000000E+00  0.00000000000E+00  0.69017552018E+03  0.69017552018E+03  0.00000000000E+00 0.  1.
         -2   -1    0    0    0  501 -0.00000000000E+00 -0.00000000000E+00 -0.23070683845E+01  0.23070683845E+01  0.00000000000E+00 0. -1.
          2    1    1    2  502    0 -0.28096530215E+02 -0.19208428411E+02  0.52467884411E+03  0.52578157840E+03  0.00000000000E+00 0.  1.
         -2    1    1    2    0  502  0.28096530215E+02  0.19208428411E+02  0.16318960769E+03  0.16670101017E+03  0.00000000000E+00 0. -1.
</event>
<event>
 4    1  0.3196713E+003  0.2629267E+02  0.7546771E-02  0.1454846E+00
          2   -1    0    0  501    0  0.00000000000E+00  0.00000000000E+00  0.11933647512E+02  0.11933647512E+02  0.00000000000E+00 0.  1.
         -2   -1    0    0    0  501 -0.00000000000E+00 -0.00000000000E+00 -0.98007166772E+02  0.98007166772E+02  0.00000000000E+00 0.  1.
          2    1    1    2  502    0  0.84221978817E+00 -0.26279175240E+02 -0.78844466433E+01  0.27449387686E+02  0.00000000000E+00 0.  1.
         -2    1    1    2    0  502 -0.84221978817E+00  0.26279175240E+02 -0.78189072617E+02  0.82491426598E+02  0.00000000000E+00 0.  1.
</event>
<event>
 4    1  0.3196713E+003  0.3351899E+02  0.7546771E-02  0.1391285E+00
          2   -1    0    0  501    0  0.00000000000E+00  0.00000000000E+00  0.49969168893E+03  0.49969168893E+03  0.00000000000E+00 0. -1.
         -2   -1    0    0    0  501 -0.00000000000E+00 -0.00000000000E+00 -0.31290361350E+01  0.31290361350E+01  0.00000000000E+00 0.  1.
          2    1    1    2  502    0 -0.33509336732E+02 -0.80444038166E+00  0.38165442795E+03  0.38312351160E+03  0.00000000000E+00 0. -1.
         -2    1    1    2    0  502  0.33509336732E+02  0.80444038166E+00  0.11490822485E+03  0.11969721346E+03  0.00000000000E+00 0.  1.
</event>
<event>
 4    1  0.3196713E+003  0.2824957E+02  0.7546771E-02  0.1435444E+00
          2   -1    0    0  501    0  0.00000000000E+00  0.00000000000E+00  0.60838252895E+03  0.60838252895E+03  0.00000000000E+00 0. -1.
         -2   -1    0    0    0  501 -0.00000000000E+00 -0.00000000000E+00 -0.16554417365E+01  0.16554417365E+01  0.00000000000E+00 0. -1.
          2    1    1    2  502    0 -0.16499869475E+02  0.22930170586E+02  0.44234668291E+03  0.44324781590E+03  0.00000000000E+00 0. -1.
         -2    1    1    2    0  502  0.16499869475E+02 -0.22930170586E+02  0.16438040431E+03  0.16679015480E+03  0.00000000000E+00 0. -1.
</event>
<event>
 4    1  0.3196713E+003  0.3012069E+02  0.7546771E-02  0.1418550E+00
          2   -1    0    0  501    0  0.00000000000E+00  0.00000000000E+00  0.16119648036E+04  0.16119648036E+04  0.00000000000E+00 0.  1.
         -2   -1    0    0    0  501 -0.00000000000E+00 -0.00000000000E+00 -0.55546311296E+01  0.55546311296E+01  0.00000000000E+00 0.  1.
          2    1    1    2  502    0  0.11947068405E+02 -0.27650022799E+02  0.15698966735E+04  0.15701856011E+04  0.00000000000E+00 0.  1.
         -2    1    1    2    0  502 -0.11947068405E+02  0.27650022799E+02  0.36513498890E+02  0.47333833623E+02  0.00000000000E+00 0.  1.
</event>
<event>
 4    1  0.3196713E+003  0.2699138E+02  0.7546771E-02  0.1447695E+00
          2   -1    0    0  501    0  0.00000000000E+00  0.00000000000E+00  0.10796023229E+04  0.10796023229E+04  0.00000000000E+00 0.  1.
         -2   -1    0    0    0  501 -0.00000000000E+00 -0.00000000000E+00 -0.81619974400E+00  0.81619974400E+00  0.00000000000E+00 0. -1.
          2    1    1    2  502    0  0.74601805680E+01  0.25939939178E+02  0.76422652551E+03  0.76470302539E+03  0.00000000000E+00 0.  1.
         -2    1    1    2    0  502 -0.74601805680E+01 -0.25939939178E+02  0.31455959759E+03  0.31571549721E+03  0.00000000000E+00 0. -1.
</event>
<event>
 4    1  0.3196713E+003  0.2259752E+02  0.7546771E-02  0.1497615E+00
          2   -1    0    0  501    0  0.00000000000E+00  0.00000000000E+00  0.10346298270E+04  0.10346298270E+04  0.00000000000E+00 0.  1.
         -2   -1    0    0    0  501 -0.00000000000E+00 -0.00000000000E+00 -0.15515535141E+01  0.15515535141E+01  0.00000000000E+00 0. -1.
          2    1    1    2  502    0 -0.22401637030E+02  0.29689054594E+01  0.94436273481E+03  0.94463306244E+03  0.00000000000E+00 0.  1.
         -2    1    1    2    0  502  0.22401637030E+02 -0.29689054594E+01  0.88715538686E+02  0.91548318093E+02  0.00000000000E+00 0. -1.
</event>
<event>
 4    1  0.3196713E+003  0.3171297E+02  0.7546771E-02  0.1405273E+00
          2   -1    0    0  501    0  0.00000000000E+00  0.00000000000E+00  0.21038690370E+03  0.21038690370E+03  0.00000000000E+00 0.  1.
         -2   -1    0    0    0  501 -0.00000000000E+00 -0.00000000000E+00 -0.63980960654E+01  0.63980960654E+01  0.00000000000E+00 0.  1.
          2    1    1    2  502    0  0.17554141588E+02  0.26411451375E+02  0.15649931744E+03  0.15968014594E+03  0.00000000000E+00 0.  1.
         -2    1    1    2    0  502 -0.17554141588E+02 -0.26411451375E+02  0.47489490194E+02  0.57104853817E+02  0.00000000000E+00 0.  1.
</event>
<event>
 4    1  0.3196713E+003  0.2805774E+02  0.7546771E-02  0.1437263E+00
          2   -1    0    0  501    0  0.00000000000E+00  0.00000000000E+00  0.56203623663E+02  0.56203623663E+02  0.00000000000E+00 0.  1.
         -2   -1    0    0    0  501 -0.00000000000E+00 -0.00000000000E+00 -0.23210897434E+02  0.23210897434E+02  0.00000000000E+00 0.  1.
          2    1    1    2  502    0 -0.18611901828E+02 -0.20996048446E+02  0.41500557925E+02  0.50095241771E+02  0.00000000000E+00 0.  1.
         -2    1    1    2    0  502  0.18611901828E+02  0.20996048446E+02 -0.85078316966E+01  0.29319279326E+02  0.00000000000E+00 0.  1.
</event>
<event>
 4    1  0.3196713E+003  0.2873772E+02  0.7546771E-02  0.1430892E+00
          2   -1    0    0  501    0  0.00000000000E+00  0.00000000000E+00  0.17646597904E+04  0.17646597904E+04  0.00000000000E+00 0. -1.
         -2   -1    0    0    0  501 -0.00000000000E+00 -0.00000000000E+00 -0.10358142162E+01  0.10358142162E+01  0.00000000000E+00 0.  1.
          2    1    1    2  502    0  0.27373169282E+02 -0.87502122883E+01  0.15354675203E+04  0.15357364235E+04  0.00000000000E+00 0. -1.
         -2    1    1    2    0  502 -0.27373169282E+02  0.87502122883E+01  0.22815645586E+03  0.22995918108E+03  0.00000000000E+00 0.  1.
</event>
<event>
 4    1  0.3196713E+003  0.2126507E+02  0.7546771E-02  0.1515514E+00
          2   -1    0    0  501    0  0.00000000000E+00  0.00000000000E+00  0.97218970300E+03  0.97218970300E+03  0.00000000000E+00 0. -1.
         -2   -1    0    0    0  501 -0.00000000000E+00 -0.00000000000E+00 -0.66225151649E+00  0.66225151649E+00  0.00000000000E+00 0. -1.
          2    1    1    2  502    0 -0.16239763632E+02  0.13728550819E+02  0.75114039474E+03  0.75144134544E+03  0.00000000000E+00 0. -1.
         -2    1    1    2    0  502  0.16239763632E+02 -0.13728550819E+02  0.22038705675E+03  0.22141060908E+03  0.00000000000E+00 0. -1.
</event>
<event>
 4    1  0.3196713E+003  0.3478793E+02  0.7546771E-02  0.1382060E+00
          2   -1    0    0  501    0  0.00000000000E+00  0.00000000000E+00  0.31268189368E+03  0.31268189368E+03  0.00000000000E+00 0.  1.
         -2   -1    0    0    0  501 -0.00000000000E+00 -0.00000000000E+00 -0.83451183091E+02  0.83451183091E+02  0.00000000000E+00 0.  1.
          2    1    1    2  502    0  0.34593191161E+02  0.36757936697E+01  0.30803429518E+03  0.30999246336E+03  0.00000000000E+00 0.  1.
         -2    1    1    2    0  502 -0.34593191161E+02 -0.36757936697E+01 -0.78803584592E+02  0.86140613408E+02  0.00000000000E+00 0.  1.
</event>
<event>
 4    1  0.3196713E+003  0.2639037E+02  0.7546771E-02  0.1453830E+00
          2   -1    0    0  501    0  0.00000000000E+00  0.00000000000E+00  0.34024185971E+03  0.34024185971E+03  0.00000000000E+00 0. -1.
         -2   -1    0    0    0  501 -0.00000000000E+00 -0.00000000000E+00 -0.30563707062E+02  0.30563707062E+02  0.00000000000E+00 0. -1.
          2    1    1    2  502    0 -0.26373801266E+02  0.93505545222E+00  0.33392582240E+03  0.33496702314E+03  0.00000000000E+00 0. -1.
         -2    1    1    2    0  502  0.26373801266E+02 -0.93505545222E+00 -0.24247669750E+02  0.35838543640E+02  0.00000000000E+00 0. -1.
</event>
<event>
 4    1  0.3196713E+003  0.2381585E+02  0.7546771E-02  0.1482500E+00
          2   -1    0    0  501    0  0.00000000000E+00  0.00000000000E+00  0.11005418835E+02  0.11005418835E+02  0.00000000000E+00 0.  1.
         -2   -1    0    0    0  501 -0.00000000000E+00 -0.00000000000E+00 -0.85556014675E+02  0.85556014675E+02  0.00000000000E+00 0.  1.
          2    1    1    2  502    0  0.13720548570E+02 -0.19466409610E+02 -0.68311029022E+01  0.24776168450E+02  0.00000000000E+00 0.  1.
         -2    1    1    2    0  502 -0.13720548570E+02  0.19466409610E+02 -0.67719492938E+02  0.71785265061E+02  0.00000000000E+00 0.  1.
</event>
<event>
 4    1  0.3196713E+003  0.3064044E+02  0.7546771E-02  0.1414111E+00
          2   -1    0    0  501    0  0.00000000000E+00  0.00000000000E+00  0.38200277826E+03  0.38200277826E+03  0.00000000000E+00 0. -1.
         -2   -1    0    0    0  501 -0.00000000000E+00 -0.00000000000E+00 -0.36856846775E+01  0.36856846775E+01  0.00000000000E+00 0. -1.
          2    1    1    2  502    0 -0.30191878984E+02  0.52236703624E+01  0.30047248923E+03  0.30203071545E+03  0.00000000000E+00 0. -1.
         -2    1    1    2    0  502  0.30191878984E+02 -0.52236703624E+01  0.77844604355E+02  0.83657747495E+02  0.00000000000E+00 0. -1.
</event>
<event>
 4    1  0.3196713E+003  0.3530339E+02  0.7546771E-02  0.1378443E+00
          2   -1    0    0  501    0  0.00000000000E+00  0.00000000000E+00  0.16657063948E+04  0.16657063948E+04  0.00000000000E+00 0.  1.
         -2   -1    0    0    0  501 -0.00000000000E+00 -0.00000000000E+00 -0.25092667917E+01  0.25092667917E+01  0.00000000000E+00 0. -1.
          2    1    1    2  502    0 -0.73019282896E+01 -0.34539997417E+02  0.15303667688E+04  0.15307739143E+04  0.00000000000E+00 0.  1.
         -2    1    1    2    0  502  0.73019282896E+01  0.34539997417E+02  0.13283035924E+03  0.13744174735E+03  0.00000000000E+00 0. -1.
</event>
<event>
 4    1  0.3196713E+003  0.2639991E+02  0.7546771E-02  0.1453731E+00
          2   -1    0    0  501    0  0.00000000000E+00  0.00000000000E+00  0.68821864248E+03  0.68821864248E+03  0.00000000000E+00 0. -1.
         -2   -1    0    0    0  501 -0.00000000000E+00 -0.00000000000E+00 -0.15870333913E+02  0.15870333913E+02  0.00000000000E+00 0.  1.
          2    1    1    2  502    0 -0.14688935510E+02  0.21936049610E+02  0.67680143446E+03  0.67731612766E+03  0.00000000000E+00 0. -1.
         -2    1    1    2    0  502  0.14688935510E+02 -0.21936049610E+02 -0.44531258971E+01  0.26772848731E+02  0.00000000000E+00 0.  1.
</event>
<event>
 4    1  0.3196713E+003  0.2165086E+02  0.7546771E-02  0.1510172E+00
          2   -1    0    0  501    0  0.00000000000E+00  0.00000000000E+00  0.51360467631E+03  0.51360467631E+03  0.00000000000E+00 0. -1.
         -2   -1    0    0    0  501 -0.00000000000E+00 -0.00000000000E+00 -0.98607619507E+00  0.98607619507E+00  0.00000000000E+00 0.  1.
          2    1    1    2  502    0  0.18389480773E+02 -0.11427450004E+02  0.32650278549E+03  0.32721984743E+03  0.00000000000E+00 0. -1.
         -2    1    1    2    0  502 -0.18389480773E+02  0.11427450004E+02  0.18611581463E+03  0.18737090508E+03  0.00000000000E+00 0.  1.
</event>
<event>
 4    1  0.3196713E+003  0.2716269E+02  0.7546771E-02  0.1445981E+00
          2   -1    0    0  501    0  0.00000000000E+00  0.00000000000E+00  0.76557051209E+01  0.76557051209E+01  0.00000000000E+00 0.  1.
         -2   -1    0    0    0  501 -0.00000000000E+00 -0.00000000000E+00 -0.99834917353E+02  0.99834917353E+02  0.00000000000E+00 0.  1.
          2    1    1    2  502    0 -0.84603957152E+01 -0.25811495470E+02 -0.36082938273E+02  0.45164034679E+02  0.00000000000E+00 0.  1.
         -2    1    1    2    0  502  0.84603957152E+01  0.25811495470E+02 -0.56096273958E+02  0.62326587794E+02  0.00000000000E+00 0.  1.
</event>
<event>
 4    1  0.3196713E+003  0.3829782E+02  0.7546771E-02  0.1358760E+00
          2   -1    0    0  501    0  0.00000000000E+00  0.00000000000E+00  0.38231232195E+03  0.38231232195E+03  0.00000000000E+00 0. -1.
         -2   -1    0    0    0  501 -0.00000000000E+00 -0.00000000000E+00 -0.94638433978E+01  0.94638433978E+01  0.00000000000E+00 0.  1.
          2    1    1    2  502    0 -0.35295302017E+02 -0.14864886660E+02  0.33747668831E+03  0.33964280995E+03  0.00000000000E+00 0. -1.
         -2    1    1    2    0  502  0.35295302017E+02  0.14864886660E+02  0.35371790244E+02  0.52133355397E+02  0.00000000000E+00 0.  1.
</event>
<event>
 4    1  0.3196713E+003  0.3485668E+02  0.7546771E-02  0.1381574E+00
          2   -1    0    0  501    0  0.00000000000E+00  0.00000000000E+00  0.63692088542E+03  0.63692088542E+03  0.00000000000E+00 0. -1.
         -2   -1    0    0    0  501 -0.00000000000E+00 -0.00000000000E+00 -0.43000392315E+01  0.43000392315E+01  0.00000000000E+00 0. -1.
          2    1    1    2  502    0 -0.29256671414E+02  0.18948233770E+02  0.55545592096E+03  0.55654853204E+03  0.00000000000E+00 0. -1.
         -2    1    1    2    0  502  0.29256671414E+02 -0.18948233770E+02  0.77164925228E+02  0.84672392612E+02  0.00000000000E+00 0. -1.
</event>
<event>
 4    1  0.3196713E+003  0.2409551E+02  0.7546771E-02  0.1479182E+00
          2   -1    0    0  501    0  0.00000000000E+00  0.00000000000E+00  0.48980119399E+03  0.48980119399E+03  0.00000000000E+00 0. -1.
         -2   -1    0    0    0  501 -0.00000000000E+00 -0.00000000000E+00 -0.14956817413E+01  0.14956817413E+01  0.00000000000E+00 0. -1.
          2    1    1    2  502    0  0.79568192330E+01 -0.22743851273E+02  0.35604403221E+03  0.35685844059E+03  0.00000000000E+00 0. -1.
         -2    1    1    2    0  502 -0.79568192330E+01  0.22743851273E+02  0.13226148004E+03  0.13443843515E+03  0.00000000000E+00 0. -1.
</event>
<event>
 4    1  0.3196713E+003  0.3831184E+02  0.7546771E-02  0.1358673E+00
          2   -1    0    0  501    0  0.00000000000E+00  0.00000000000E+00  0.82807762205E+03  0.82807762205E+03  0.00000000000E+00 0. -1.
         -2   -1    0    0    0  501 -0.00000000000E+00 -0.00000000000E+00 -0.26171423521E+01  0.26171423521E+01  0.00000000000E+00 0. -1.
          2    1    1    2  502    0  0.27554231322E+02 -0.26618812776E+02  0.64868304437E+03  0.64981342623E+03  0.00000000000E+00 0. -1.
         -2    1    1    2    0  502 -0.27554231322E+02  0.26618812776E+02  0.17677743533E+03  0.18088133817E+03  0.00000000000E+00 0. -1.
</event>
<event>
 4    1  0.3196713E+003  0.2617102E+02  0.7546771E-02  0.1456118E+00
          2   -1    0    0  501    0  0.00000000000E+00  0.00000000000E+00  0.37201456257E+02  0.37201456257E+02  0.00000000000E+00 0. -1.
         -2   -1    0    0    0  501 -0.00000000000E+00 -0.00000000000E+00 -0.30854665189E+02  0.30854665189E+02  0.00000000000E+00 0.  1.
          2    1    1    2  502    0  0.26104697409E+02 -0.18620142192E+01  0.24783057711E+02  0.36043338819E+02  0.00000000000E+00 0. -1.
         -2    1    1    2    0  502 -0.26104697409E+02  0.18620142192E+01 -0.18436266643E+02  0.32012782626E+02  0.00000000000E+00 0.  1.
</event>
<event>
 4    1  0.3196713E+003  0.2173400E+02  0.7546771E-02  0.1509038E+00
          2   -1    0    0  501    0  0.00000000000E+00  0.00000000000E+00  0.19591148773E+03  0.19591148773E+03  0.00000000000E+00 0. -1.
         -2   -1    0    0    0  501 -0.00000000000E+00 -0.00000000000E+00 -0.26580068975E+01  0.26580068975E+01  0.00000000000E+00 0. -1.
          2    1    1    2  502    0  0.19120593944E+02 -0.10332933379E+02  0.12688550381E+03  0.12873343661E+03  0.00000000000E+00 0. -1.
         -2    1    1    2    0  502 -0.19120593944E+02  0.10332933379E+02  0.66367977023E+02  0.69836058015E+02  0.00000000000E+00 0. -1.
</event>
<event>
 4    1  0.3196713E+003  0.2959664E+02  0.7546771E-02  0.1423134E+00
          2   -1    0    0  501    0  0.00000000000E+00  0.00000000000E+00  0.65425443505E+03  0.65425443505E+03  0.00000000000E+00 0. -1.
         -2   -1    0    0    0  501 -0.00000000000E+00 -0.00000000000E+00 -0.16875492582E+01  0.16875492582E+01  0.00000000000E+00 0.  1.
          2    1    1    2  502    0  0.20602813768E+02  0.21248184090E+02  0.47536386589E+03  0.47628433341E+03  0.00000000000E+00 0. -1.
         -2    1    1    2    0  502 -0.20602813768E+02 -0.21248184090E+02  0.17720301990E+03  0.17965765089E+03  0.00000000000E+00 0.  1.
</event>
<event>
 4    1  0.3196713E+003  0.2696609E+02  0.7546771E-02  0.1447949E+00
          2   -1    0    0  501    0  0.00000000000E+00  0.00000000000E+00  0.87367574596E+03  0.87367574596E+03  0.00000000000E+00 0. -1.
         -2   -1    0    0    0  501 -0.00000000000E+00 -0.00000000000E+00 -0.88906087190E+00  0.88906087190E+00  0.00000000000E+00 0.  1.
          2    1    1    2  502    0  0.26499102639E+02 -0.49966724812E+01  0.32591376320E+03  0.32702744567E+03  0.00000000000E+00 0. -1.
         -2    1    1    2    0  502 -0.26499102639E+02  0.49966724812E+01  0.54687292189E+03  0.54753736116E+03  0.00000000000E+00 0.  1.
</event>
<event>
 4    1  0.3196713E+003  0.2282619E+02  0.7546771E-02  0.1494692E+00
          2   -1    0    0  501    0  0.00000000000E+00  0.00000000000E+00  0.52352421492E+03  0.52352421492E+03  0.00000000000E+00 0.  1.
         -2   -1    0    0    0  501 -0.00000000000E+00 -0.00000000000E+00 -0.60407579514E+01  0.60407579514E+01  0.00000000000E+00 0.  1.
          2    1    1    2  502    0  0.22625582179E+02  0.30195742813E+01  0.50073105257E+03  0.50125105667E+03  0.00000000000E+00 0.  1.
         -2    1    1    2    0  502 -0.22625582179E+02 -0.30195742813E+01  0.16752404391E+02  0.28313916201E+02  0.00000000000E+00 0.  1.
</event>
<event>
 4    1  0.3196713E+003  0.2079471E+02  0.7546771E-02  0.1522216E+00
          2   -1    0    0  501    0  0.00000000000E+00  0.00000000000E+00  0.16072493657E+03  0.16072493657E+03  0.00000000000E+00 0. -1.
         -2   -1    0    0    0  501 -0.00000000000E+00 -0.00000000000E+00 -0.10702464754E+02  0.10702464754E+02  0.00000000000E+00 0. -1.
          2    1    1    2  502    0  0.37809681017E+01 -0.20448090303E+02  0.14917292268E+03  0.15061534111E+03  0.00000000000E+00 0. -1.
         -2    1    1    2    0  502 -0.37809681017E+01  0.20448090303E+02  0.84954914140E+00  0.20812060219E+02  0.00000000000E+00 0. -1.
</event>
<event>
 4    1  0.3196713E+003  0.2295129E+02  0.7546771E-02  0.1493111E+00
          2   -1    0    0  501    0  0.00000000000E+00  0.00000000000E+00  0.82101853851E+03  0.82101853851E+03  0.00000000000E+00 0.  1.
         -2   -1    0    0    0  501 -0.00000000000E+00 -0.00000000000E+00 -0.59634969383E+02  0.59634969383E+02  0.00000000000E+00 0. -1.
          2    1    1    2  502    0 -0.97449715941E+01  0.20779736723E+02  0.81864345794E+03  0.81896512328E+03  0.00000000000E+00 0.  1.
         -2    1    1    2    0  502  0.97449715941E+01 -0.20779736723E+02 -0.57259888809E+02  0.61688384612E+02  0.00000000000E+00 0. -1.
</event>
<event>
 4    1  0.3196713E+003  0.2072517E+02  0.7546771E-02  0.1523225E+00
          2   -1    0    0  501    0  0.00000000000E+00  0.00000000000E+00  0.26208567311E+02  0.26208567311E+02  0.00000000000E+00 0.  1.
         -2   -1    0    0    0  501 -0.00000000000E+00 -0.00000000000E+00 -0.30667010955E+03  0.30667010955E+03  0.00000000000E+00 0.  1.
          2    1    1    2  502    0 -0.20088100015E+02  0.50991282135E+01  0.21700089876E+02  0.30007112013E+02  0.00000000000E+00 0.  1.
         -2    1    1    2    0  502  0.20088100015E+02 -0.50991282135E+01 -0.30216163211E+03  0.30287156485E+03  0.00000000000E+00 0.  1.
</event>
<event>
 4    1  0.3196713E+003  0.2041777E+02  0.7546771E-02  0.1527742E+00
          2   -1    0    0  501    0  0.00000000000E+00  0.00000000000E+00  0.27221597537E+02  0.27221597537E+02  0.00000000000E+00 0.  1.
         -2   -1    0    0    0  501 -0.00000000000E+00 -0.00000000000E+00 -0.27956750755E+03  0.27956750755E+03  0.00000000000E+00 0.  1.
          2    1    1    2  502    0 -0.67992070601E+01  0.19252429668E+02  0.22961006981E+02  0.30726098131E+02  0.00000000000E+00 0.  1.
         -2    1    1    2    0  502  0.67992070601E+01 -0.19252429668E+02 -0.27530691699E+03  0.27606300695E+03  0.00000000000E+00 0.  1.
</event>
<event>
 4    1  0.3196713E+003  0.2559329E+02  0.7546771E-02  0.1462275E+00
          2   -1    0    0  501    0  0.00000000000E+00  0.00000000000E+00  0.99620139306E+03  0.99620139306E+03  0.00000000000E+00 0. -1.
         -2   -1    0    0    0  501 -0.00000000000E+00 -0.00000000000E+00 -0.42796049493E+01  0.42796049493E+01  0.00000000000E+00 0. -1.
          2    1    1    2  502    0 -0.23460836136E+02 -0.10227685228E+02  0.95617156344E+03  0.95651402244E+03  0.00000000000E+00 0. -1.
         -2    1    1    2    0  502  0.23460836136E+02  0.10227685228E+02  0.35750224666E+02  0.43966975572E+02  0.00000000000E+00 0. -1.
</event>
<event>
 4    1  0.3196713E+003  0.3265722E+02  0.7546771E-02  0.1397827E+00
          2   -1    0    0  501    0  0.00000000000E+00  0.00000000000E+00  0.99490253938E+03  0.99490253938E+03  0.00000000000E+00 0.  1.
         -2   -1    0    0    0  501 -0.00000000000E+00 -0.00000000000E+00 -0.14466666100E+01  0.14466666100E+01  0.00000000000E+00 0.  1.
          2    1    1    2  502    0 -0.20333732454E+02  0.25554495858E+02  0.24318900359E+03  0.24537193076E+03  0.00000000000E+00 0.  1.
         -2    1    1    2    0  502  0.20333732454E+02 -0.25554495858E+02  0.75026686918E+03  0.75097727524E+03  0.00000000000E+00 0.  1.
</event>
<event>
 4    1  0.3196713E+003  0.2267780E+02  0.7546771E-02  0.1496584E+00
          2   -1    0    0  501    0  0.00000000000E+00  0.00000000000E+00  0.52768235950E+02  0.52768235950E+02  0.00000000000E+00 0. -1.
         -2   -1    0    0    0  501 -0.00000000000E+00 -0.00000000000E+00 -0.11035285671E+02  0.11035285671E+02  0.00000000000E+00 0.  1.
          2    1    1    2  502    0 -0.62255618463E+01  0.21806539350E+02  0.31770481787E+02  0.39033912073E+02  0.00000000000E+00 0. -1.
         -2    1    1    2    0  502  0.62255618463E+01 -0.21806539350E+02  0.99624684915E+01  0.24769609548E+02  0.00000000000E+00 0.  1.
</event>
<event>
 4    1  0.3196713E+003  0.2287763E+02  0.7546771E-02  0.1494040E+00
          2   -1    0    0  501    0  0.00000000000E+00  0.00000000000E+00  0.13528479927E+01  0.13528479927E+01  0.00000000000E+00 0.  1.
         -2   -1    0    0    0  501 -0.00000000000E+00 -0.00000000000E+00 -0.45054329165E+03  0.45054329165E+03  0.00000000000E+00 0. -1.
          2    1    1    2  502    0 -0.34504017664E+01 -0.22615927235E+02 -0.30953204155E+03  0.31037633638E+03  0.00000000000E+00 0. -1.
         -2    1    1    2    0  502  0.34504017664E+01  0.22615927235E+02 -0.13965840210E+03  0.14151980326E+03  0.00000000000E+00 0.  1.
</event>
<event>
 4    1  0.3196713E+003  0.2170781E+02  0.7546771E-02  0.1509395E+00
          2   -1    0    0  501    0  0.00000000000E+00  0.00000000000E+00  0.21274424033E+03  0.21274424033E+03  0.00000000000E+00 0.  1.
         -2   -1    0    0    0  501 -0.00000000000E+00 -0.00000000000E+00 -0.47966188540E+01  0.47966188540E+01  0.00000000000E+00 0. -1.
          2    1    1    2  502    0  0.69158687309E+01 -0.20576675959E+02  0.18377128874E+03  0.18504895407E+03  0.00000000000E+00 0.  1.
         -2    1    1    2    0  502 -0.69158687309E+01  0.20576675959E+02  0.24176332727E+02  0.32491905114E+02  0.00000000000E+00 0. -1.
</event>
<event>
 4    1  0.3196713E+003  0.3691497E+02  0.7546771E-02  0.1367578E+00
          2   -1    0    0  501    0  0.00000000000E+00  0.00000000000E+00  0.15505356254E+03  0.15505356254E+03  0.00000000000E+00 0. -1.
         -2   -1    0    0    0  501 -0.00000000000E+00 -0.00000000000E+00 -0.28240839508E+02  0.28240839508E+02  0.00000000000E+00 0. -1.
          2    1    1    2  502    0  0.12025871035E+02 -0.34901192320E+02  0.13946777858E+03  0.14427049616E+03  0.00000000000E+00 0. -1.
         -2    1    1    2    0  502 -0.12025871035E+02  0.34901192320E+02 -0.12655055553E+02  0.39023905885E+02  0.00000000000E+00 0. -1.
</event>
<event>
 4    1  0.3196713E+003  0.2786083E+02  0.7546771E-02  0.1439147E+00
          2   -1    0    0  501    0  0.00000000000E+00  0.00000000000E+00  0.53967769560E+03  0.53967769560E+03  0.00000000000E+00 0.  1.
         -2   -1    0    0    0  501 -0.00000000000E+00 -0.00000000000E+00 -0.30338124468E+01  0.30338124468E+01  0.00000000000E+00 0. -1.
          2    1    1    2  502    0 -0.16431463964E+02 -0.22499617606E+02  0.46510735800E+03  0.46594106952E+03  0.00000000000E+00 0.  1.
         -2    1    1    2    0  502  0.16431463964E+02  0.22499617606E+02  0.71536525147E+02  0.76770438519E+02  0.00000000000E+00 0. -1.
</event>
<event>
 4    1  0.3196713E+003  0.2041582E+02  0.7546771E-02  0.1527771E+00
          2   -1    0    0  501    0  0.00000000000E+00  0.00000000000E+00  0.46641299806E+02  0.46641299806E+02  0.00000000000E+00 0.  1.
         -2   -1    0    0    0  501 -0.00000000000E+00 -0.00000000000E+00 -0.40355540470E+02  0.40355540470E+02  0.00000000000E+00 0. -1.
          2    1    1    2  502    0  0.12388051894E+02  0.16227811238E+02  0.41524118992E+02  0.46271569515E+02  0.00000000000E+00 0.  1.
         -2    1    1    2    0  502 -0.12388051894E+02 -0.16227811238E+02 -0.35238359656E+02  0.40725270761E+02  0.00000000000E+00 0. -1.
</event>
<event>
 4    1  0.3196713E+003  0.3969244E+02  0.7546771E-02  0.1350298E+00
          2   -1    0    0  501    0  0.00000000000E+00  0.00000000000E+00  0.49139630629E+02  0.49139630629E+02  0.00000000000E+00 0.  1.
         -2   -1    0    0    0  501 -0.00000000000E+00 -0.00000000000E+00 -0.74493728210E+03  0.74493728210E+03  0.00000000000E+00 0.  1.
          2    1    1    2  502    0  0.33182579689E+02 -0.21780860174E+02  0.40501561452E+02  0.56708605561E+02  0.00000000000E+00 0.  1.
         -2    1    1    2    0  502 -0.33182579689E+02  0.21780860174E+02 -0.73629921292E+03  0.73736830716E+03  0.00000000000E+00 0.  1.
</event>
<event>
 4    1  0.3196713E+003  0.5085711E+02  0.7546771E-02  0.1294498E+00
          2   -1    0    0  501    0  0.00000000000E+00  0.00000000000E+00  0.81475853165E+03  0.81475853165E+03  0.00000000000E+00 0.  1.
         -2   -1    0    0    0  501 -0.00000000000E+00 -0.00000000000E+00 -0.22607722500E+02  0.22607722500E+02  0.00000000000E+00 0. -1.
          2    1    1    2  502    0 -0.16182318611E+02  0.48213882950E+02  0.78425216623E+03  0.78589942498E+03  0.00000000000E+00 0.  1.
         -2    1    1    2    0  502  0.16182318611E+02 -0.48213882950E+02  0.78986429176E+01  0.51466829168E+02  0.00000000000E+00 0. -1.
</event>
<event>
 4    1  0.3196713E+003  0.2163321E+02  0.7546771E-02  0.1510413E+00
          2   -1    0    0  501    0  0.00000000000E+00  0.00000000000E+00  0.33929744782E+02  0.33929744782E+02  0.00000000000E+00 0.  1.
         -2   -1    0    0    0  501 -0.00000000000E+00 -0.00000000000E+00 -0.21125608405E+02  0.21125608405E+02  0.00000000000E+00 0. -1.
          2    1    1    2  502    0 -0.80272126735E+01 -0.20088797586E+02  0.22619855691E+02  0.31299421772E+02  0.00000000000E+00 0.  1.
         -2    1    1    2    0  502  0.80272126735E+01  0.20088797586E+02 -0.98157193136E+01  0.23755931415E+02  0.00000000000E+00 0. -1.
</event>
<event>
 4    1  0.3196713E+003  0.2500996E+02  0.7546771E-02  0.1468692E+00
          2   -1    0    0  501    0  0.00000000000E+00  0.00000000000E+00  0.11611048000E+03  0.11611048000E+03  0.00000000000E+00 0. -1.
         -2   -1    0    0    0  501 -0.00000000000E+00 -0.00000000000E+00 -0.24135010925E+03  0.24135010925E+03  0.00000000000E+00 0. -1.
          2    1    1    2  502    0 -0.19618653632E+02 -0.15511494055E+02  0.11410453432E+03  0.11681328165E+03  0.00000000000E+00 0. -1.
         -2    1    1    2    0  502  0.19618653632E+02  0.15511494055E+02 -0.23934416357E+03  0.24064730760E+03  0.00000000000E+00 0. -1.
</event>
<event>
 4    1  0.3196713E+003  0.2085052E+02  0.7546771E-02  0.1521410E+00
          2   -1    0    0  501    0  0.00000000000E+00  0.00000000000E+00  0.12846011127E+01  0.12846011127E+01  0.00000000000E+00 0. -1.
         -2   -1    0    0    0  501 -0.00000000000E+00 -0.00000000000E+00 -0.78691051170E+03  0.78691051170E+03  0.00000000000E+00 0. -1.
          2    1    1    2  502    0  0.19547136916E+02 -0.72562923135E+01 -0.95294391875E+02  0.97548785039E+02  0.00000000000E+00 0. -1.
         -2    1    1    2    0  502 -0.19547136916E+02  0.72562923135E+01 -0.69033151871E+03  0.69064632777E+03  0.00000000000E+00 0. -1.
</event>
<event>
 4    1  0.3196713E+003  0.3237333E+02  0.7546771E-02  0.1400034E+00
          2   -1    0    0  501    0  0.00000000000E+00  0.00000000000E+00  0.70124076254E+03  0.70124076254E+03  0.00000000000E+00 0.  1.
         -2   -1    0    0    0  501 -0.00000000000E+00 -0.00000000000E+00 -0.33759978157E+01  0.33759978157E+01  0.00000000000E+00 0.  1.
          2    1    1    2  502    0 -0.31319706879E+02 -0.81919936094E+01  0.61194044806E+03  0.61279616902E+03  0.00000000000E+00 0.  1.
         -2    1    1    2    0  502  0.31319706879E+02  0.81919936094E+01  0.85924316661E+02  0.91820591329E+02  0.00000000000E+00 0.  1.
</event>
<event>
 4    1  0.3196713E+003  0.3545474E+02  0.7546771E-02  0.1377394E+00
          2   -1    0    0  501    0  0.00000000000E+00  0.00000000000E+00  0.25071054819E+03  0.25071054819E+03  0.00000000000E+00 0. -1.
         -2   -1    0    0    0  501 -0.00000000000E+00 -0.00000000000E+00 -0.81783094791E+01  0.81783094791E+01  0.00000000000E+00 0. -1.
          2    1    1    2  502    0  0.27305739125E+02 -0.22614936897E+02  0.20178497960E+03  0.20487610098E+03  0.00000000000E+00 0. -1.
         -2    1    1    2    0  502 -0.27305739125E+02  0.22614936897E+02  0.40747259104E+02  0.54012756683E+02  0.00000000000E+00 0. -1.
</event>
<event>
 4    1  0.3196713E+003  0.2693081E+02  0.7546771E-02  0.1448304E+00
          2   -1    0    0  501    0  0.00000000000E+00  0.00000000000E+00  0.16936091922E+04  0.16936091922E+04  0.00000000000E+00 0. -1.
         -2   -1    0    0    0  501 -0.00000000000E+00 -0.00000000000E+00 -0.50179909648E+01  0.50179909648E+01  0.00000000000E+00 0.  1.
          2    1    1    2  502    0  0.48532403609E+01 -0.26489894755E+02  0.16565606638E+04  0.16567795572E+04  0.00000000000E+00 0. -1.
         -2    1    1    2    0  502 -0.48532403609E+01  0.26489894755E+02  0.32030537419E+02  0.41847625900E+02  0.00000000000E+00 0.  1.
</event>
