<event>
 4    1  0.2243645E+005  0.2143505E+02  0.7546771E-02  0.1513143E+00
          2   -1    0    0  503    0  0.00000000000E+00  0.00000000000E+00  0.13375677216E+03  0.13375677216E+03  0.00000000000E+00 0. -1.
         21   -1    0    0  501  502 -0.00000000000E+00 -0.00000000000E+00 -0.57829052214E+01  0.57829052214E+01  0.00000000000E+00 0. -1.
          2    1    1    2  501    0 -0.17068977703E+02 -0.12965769799E+02  0.19530937159E+02  0.28998598115E+02  0.00000000000E+00 0. -1.
         21    1    1    2  503  502  0.17068977703E+02  0.12965769799E+02  0.10844292978E+03  0.11054107926E+03  0.00000000000E+00 0. -1.
</event>
<event>
 4    1  0.2243645E+005  0.2159295E+02  0.7546771E-02  0.1510965E+00
          2   -1    0    0  502    0  0.00000000000E+00  0.00000000000E+00  0.53913431839E+03  0.53913431839E+03  0.00000000000E+00 0.  1.
         21   -1    0    0  503  502 -0.00000000000E+00 -0.00000000000E+00 -0.61491285476E+02  0.61491285476E+02  0.00000000000E+00 0.  1.
          2    1    1    2  501    0 -0.21237750153E+02  0.39004342813E+01  0.53701501904E+03  0.53744896138E+03  0.00000000000E+00 0.  1.
         21    1    1    2  503  501  0.21237750153E+02 -0.39004342813E+01 -0.59371986124E+02  0.63176642484E+02  0.00000000000E+00 0.  1.
</event>
<event>
 4    1  0.2243645E+005  0.2745796E+02  0.7546771E-02  0.1443061E+00
          2   -1    0    0  502    0  0.00000000000E+00  0.00000000000E+00  0.67840662058E+03  0.67840662058E+03  0.00000000000E+00 0.  1.
         21   -1    0    0  503  502 -0.00000000000E+00 -0.00000000000E+00 -0.13035053412E+02  0.13035053412E+02  0.00000000000E+00 0.  1.
          2    1    1    2  501    0 -0.26570941394E+01  0.27329090979E+02  0.66334066691E+03  0.66390871341E+03  0.00000000000E+00 0.  1.
         21    1    1    2  503  501  0.26570941394E+01 -0.27329090979E+02  0.20309002654E+01  0.27532960591E+02  0.00000000000E+00 0.  1.
</event>
<event>
 4    1  0.2243645E+005  0.2195793E+02  0.7546771E-02  0.1506015E+00
          2   -1    0    0  502    0  0.00000000000E+00  0.00000000000E+00  0.46384044053E+03  0.46384044053E+03  0.00000000000E+00 0.  1.
         21   -1    0    0  503  502 -0.00000000000E+00 -0.00000000000E+00 -0.82754039730E+02  0.82754039730E+02  0.00000000000E+00 0.  1.
          2    1    1    2  501    0  0.15290032722E+02 -0.15759618057E+02  0.46211857010E+03  0.46263995017E+03  0.00000000000E+00 0.  1.
         21    1    1    2  503  501 -0.15290032722E+02  0.15759618057E+02 -0.81032169297E+02  0.83954530092E+02  0.00000000000E+00 0.  1.
</event>
<event>
 4    1  0.2243645E+005  0.2157938E+02  0.7546771E-02  0.1511151E+00
          2   -1    0    0  503    0  0.00000000000E+00  0.00000000000E+00  0.36391045046E+03  0.36391045046E+03  0.00000000000E+00 0.  1.
         21   -1    0    0  501  502 -0.00000000000E+00 -0.00000000000E+00 -0.16998811634E+02  0.16998811634E+02  0.00000000000E+00 0.  1.
          2    1    1    2  501    0 -0.10908470745E+02  0.18619204023E+02  0.35660174847E+03  0.35725407836E+03  0.00000000000E+00 0.  1.
         21    1    1    2  503  502  0.10908470745E+02 -0.18619204023E+02 -0.96901096464E+01  0.23655183732E+02  0.00000000000E+00 0.  1.
</event>
<event>
 4    1  0.2243645E+005  0.2213544E+02  0.7546771E-02  0.1503650E+00
          2   -1    0    0  502    0  0.00000000000E+00  0.00000000000E+00  0.11354521984E+04  0.11354521984E+04  0.00000000000E+00 0. -1.
         21   -1    0    0  503  502 -0.00000000000E+00 -0.00000000000E+00 -0.12604706667E+02  0.12604706667E+02  0.00000000000E+00 0. -1.
          2    1    1    2  501    0 -0.21971414077E+02  0.26897017453E+01  0.11255406000E+04  0.11257582422E+04  0.00000000000E+00 0. -1.
         21    1    1    2  503  501  0.21971414077E+02 -0.26897017453E+01 -0.26931083363E+01  0.22298662842E+02  0.00000000000E+00 0. -1.
</event>
<event>
 4    1  0.2243645E+005  0.2996781E+02  0.7546771E-02  0.1419876E+00
          2   -1    0    0  503    0  0.00000000000E+00  0.00000000000E+00  0.33054926387E+03  0.33054926387E+03  0.00000000000E+00 0.  1.
         21   -1    0    0  501  502 -0.00000000000E+00 -0.00000000000E+00 -0.20545367169E+02  0.20545367169E+02  0.00000000000E+00 0.  1.
          2    1    1    2  501    0 -0.29588848458E+02  0.47507555168E+01  0.31853074070E+03  0.31993734137E+03  0.00000000000E+00 0.  1.
         21    1    1    2  503  502  0.29588848458E+02 -0.47507555168E+01 -0.85268439983E+01  0.31157289671E+02  0.00000000000E+00 0.  1.
</event>
<event>
 4    1  0.2243645E+005  0.3379792E+02  0.7546771E-02  0.1389217E+00
          2   -1    0    0  503    0  0.00000000000E+00  0.00000000000E+00  0.21133873336E+03  0.21133873336E+03  0.00000000000E+00 0. -1.
         21   -1    0    0  501  502 -0.00000000000E+00 -0.00000000000E+00 -0.99810543839E+02  0.99810543839E+02  0.00000000000E+00 0.  1.
          2    1    1    2  501    0 -0.89809768906E+01  0.32582840203E+02  0.20706767036E+03  0.20980781570E+03  0.00000000000E+00 0. -1.
         21    1    1    2  503  502  0.89809768906E+01 -0.32582840203E+02 -0.95539480833E+02  0.10134146150E+03  0.00000000000E+00 0.  1.
</event>
<event>
 4    1  0.2243645E+005  0.2468221E+02  0.7546771E-02  0.1472390E+00
          2   -1    0    0  503    0  0.00000000000E+00  0.00000000000E+00  0.99265893297E+03  0.99265893297E+03  0.00000000000E+00 0.  1.
         21   -1    0    0  501  502 -0.00000000000E+00 -0.00000000000E+00 -0.58327733777E+01  0.58327733777E+01  0.00000000000E+00 0.  1.
          2    1    1    2  501    0  0.20166417702E+02 -0.14231205265E+02  0.96566410697E+03  0.96597949206E+03  0.00000000000E+00 0.  1.
         21    1    1    2  503  502 -0.20166417702E+02  0.14231205265E+02  0.21162052625E+02  0.32512214282E+02  0.00000000000E+00 0.  1.
</event>
<event>
 4    1  0.2243645E+005  0.2675658E+02  0.7546771E-02  0.1450069E+00
          2   -1    0    0  502    0  0.00000000000E+00  0.00000000000E+00  0.99211770975E+03  0.99211770975E+03  0.00000000000E+00 0.  1.
         21   -1    0    0  503  502 -0.00000000000E+00 -0.00000000000E+00 -0.72523710383E+00  0.72523710383E+00  0.00000000000E+00 0.  1.
          2    1    1    2  501    0  0.12736582280E+02  0.23530706045E+02  0.53083908421E+03  0.53151298006E+03  0.00000000000E+00 0.  1.
         21    1    1    2  503  501 -0.12736582280E+02 -0.23530706045E+02  0.46055338844E+03  0.46132996679E+03  0.00000000000E+00 0.  1.
</event>
<event>
 4    1  0.2243645E+005  0.3298669E+02  0.7546771E-02  0.1395298E+00
          2   -1    0    0  503    0  0.00000000000E+00  0.00000000000E+00  0.25471848683E+04  0.25471848683E+04  0.00000000000E+00 0.  1.
         21   -1    0    0  501  502 -0.00000000000E+00 -0.00000000000E+00 -0.10193912059E+01  0.10193912059E+01  0.00000000000E+00 0.  1.
          2    1    1    2  501    0 -0.32453566082E+02 -0.59066083790E+01  0.22441959745E+04  0.22444383917E+04  0.00000000000E+00 0.  1.
         21    1    1    2  503  502  0.32453566082E+02  0.59066083790E+01  0.30196950256E+03  0.30376586781E+03  0.00000000000E+00 0.  1.
</event>
<event>
 4    1  0.2243645E+005  0.2832381E+02  0.7546771E-02  0.1434745E+00
          2   -1    0    0  503    0  0.00000000000E+00  0.00000000000E+00  0.13590061241E+02  0.13590061241E+02  0.00000000000E+00 0. -1.
         21   -1    0    0  501  502 -0.00000000000E+00 -0.00000000000E+00 -0.15014320064E+03  0.15014320064E+03  0.00000000000E+00 0.  1.
          2    1    1    2  501    0 -0.23351722996E+01 -0.28227378947E+02 -0.45028399179E+01  0.28679496495E+02  0.00000000000E+00 0. -1.
         21    1    1    2  503  502  0.23351722996E+01  0.28227378947E+02 -0.13205029948E+03  0.13505376539E+03  0.00000000000E+00 0.  1.
</event>
<event>
 4    1  0.2243645E+005  0.2367355E+02  0.7546771E-02  0.1484209E+00
          2   -1    0    0  503    0  0.00000000000E+00  0.00000000000E+00  0.10473198773E+04  0.10473198773E+04  0.00000000000E+00 0. -1.
         21   -1    0    0  501  502 -0.00000000000E+00 -0.00000000000E+00 -0.83515002662E+00  0.83515002662E+00  0.00000000000E+00 0. -1.
          2    1    1    2  501    0 -0.71500174637E+01 -0.22567986476E+02  0.20911980517E+03  0.21045552898E+03  0.00000000000E+00 0. -1.
         21    1    1    2  503  502  0.71500174637E+01  0.22567986476E+02  0.83736492207E+03  0.83769949831E+03  0.00000000000E+00 0. -1.
</event>
<event>
 4    1  0.2243645E+005  0.2233374E+02  0.7546771E-02  0.1501038E+00
          2   -1    0    0  503    0  0.00000000000E+00  0.00000000000E+00  0.82194396958E+03  0.82194396958E+03  0.00000000000E+00 0.  1.
         21   -1    0    0  501  502 -0.00000000000E+00 -0.00000000000E+00 -0.20913135451E+01  0.20913135451E+01  0.00000000000E+00 0.  1.
          2    1    1    2  501    0  0.15239347186E+02 -0.16326605551E+02  0.75705554888E+03  0.75738490865E+03  0.00000000000E+00 0.  1.
         21    1    1    2  503  502 -0.15239347186E+02  0.16326605551E+02  0.62797107156E+02  0.66650374482E+02  0.00000000000E+00 0.  1.
</event>
<event>
 4    1  0.2243645E+005  0.2202705E+02  0.7546771E-02  0.1505091E+00
          2   -1    0    0  503    0  0.00000000000E+00  0.00000000000E+00  0.48169255206E+01  0.48169255206E+01  0.00000000000E+00 0.  1.
         21   -1    0    0  501  502 -0.00000000000E+00 -0.00000000000E+00 -0.10447535646E+03  0.10447535646E+03  0.00000000000E+00 0. -1.
          2    1    1    2  501    0 -0.12486037344E+02 -0.18146349889E+02 -0.39477487202E+02  0.45206892601E+02  0.00000000000E+00 0.  1.
         21    1    1    2  503  502  0.12486037344E+02  0.18146349889E+02 -0.60180943741E+02  0.64085389384E+02  0.00000000000E+00 0. -1.
</event>
<event>
 4    1  0.2243645E+005  0.3085819E+02  0.7546771E-02  0.1412282E+00
          2   -1    0    0  503    0  0.00000000000E+00  0.00000000000E+00  0.16021252703E+04  0.16021252703E+04  0.00000000000E+00 0.  1.
         21   -1    0    0  501  502 -0.00000000000E+00 -0.00000000000E+00 -0.10948800507E+01  0.10948800507E+01  0.00000000000E+00 0.  1.
          2    1    1    2  501    0 -0.24691883371E+02 -0.18507799483E+02  0.13425082614E+04  0.13428628596E+04  0.00000000000E+00 0.  1.
         21    1    1    2  503  502  0.24691883371E+02  0.18507799483E+02  0.25852212884E+03  0.26035729075E+03  0.00000000000E+00 0.  1.
</event>
<event>
 4    1  0.2243645E+005  0.2162889E+02  0.7546771E-02  0.1510472E+00
          2   -1    0    0  502    0  0.00000000000E+00  0.00000000000E+00  0.14924350946E+04  0.14924350946E+04  0.00000000000E+00 0.  1.
         21   -1    0    0  503  502 -0.00000000000E+00 -0.00000000000E+00 -0.40863173821E+00  0.40863173821E+00  0.00000000000E+00 0. -1.
          2    1    1    2  501    0 -0.12413502433E+02  0.17711968106E+02  0.11062494372E+04  0.11064608561E+04  0.00000000000E+00 0.  1.
         21    1    1    2  503  501  0.12413502433E+02 -0.17711968106E+02  0.38577702562E+03  0.38638287016E+03  0.00000000000E+00 0. -1.
</event>
<event>
 4    1  0.2243645E+005  0.2369946E+02  0.7546771E-02  0.1483897E+00
          2   -1    0    0  503    0  0.00000000000E+00  0.00000000000E+00  0.84280924122E+01  0.84280924122E+01  0.00000000000E+00 0.  1.
         21   -1    0    0  501  502 -0.00000000000E+00 -0.00000000000E+00 -0.22729162947E+03  0.22729162947E+03  0.00000000000E+00 0.  1.
          2    1    1    2  501    0 -0.77782609211E+01 -0.22386668567E+02 -0.10345340323E+02  0.25859047525E+02  0.00000000000E+00 0.  1.
         21    1    1    2  503  502  0.77782609211E+01  0.22386668567E+02 -0.20851819674E+03  0.20986067436E+03  0.00000000000E+00 0.  1.
</event>
<event>
 4    1  0.2243645E+005  0.2504401E+02  0.7546771E-02  0.1468312E+00
          2   -1    0    0  503    0  0.00000000000E+00  0.00000000000E+00  0.15247828178E+04  0.15247828178E+04  0.00000000000E+00 0.  1.
         21   -1    0    0  501  502 -0.00000000000E+00 -0.00000000000E+00 -0.11091719528E+01  0.11091719528E+01  0.00000000000E+00 0.  1.
          2    1    1    2  501    0 -0.10731330520E+02  0.22628319772E+02  0.13669967501E+04  0.13672261397E+04  0.00000000000E+00 0.  1.
         21    1    1    2  503  502  0.10731330520E+02 -0.22628319772E+02  0.15667689580E+03  0.15866585010E+03  0.00000000000E+00 0.  1.
</event>
<event>
 4    1  0.2243645E+005  0.2408822E+02  0.7546771E-02  0.1479267E+00
          2   -1    0    0  503    0  0.00000000000E+00  0.00000000000E+00  0.92804605603E+02  0.92804605603E+02  0.00000000000E+00 0. -1.
         21   -1    0    0  501  502 -0.00000000000E+00 -0.00000000000E+00 -0.11356396476E+03  0.11356396476E+03  0.00000000000E+00 0.  1.
          2    1    1    2  501    0  0.27161232776E+01 -0.23934597740E+02  0.89923973782E+02  0.93094378753E+02  0.00000000000E+00 0. -1.
         21    1    1    2  503  502 -0.27161232776E+01  0.23934597740E+02 -0.11068333294E+03  0.11327419162E+03  0.00000000000E+00 0.  1.
</event>
<event>
 4    1  0.2243645E+005  0.2322155E+02  0.7546771E-02  0.1489735E+00
          2   -1    0    0  502    0  0.00000000000E+00  0.00000000000E+00  0.50631769894E+02  0.50631769894E+02  0.00000000000E+00 0.  1.
         21   -1    0    0  503  502 -0.00000000000E+00 -0.00000000000E+00 -0.77266593835E+02  0.77266593835E+02  0.00000000000E+00 0.  1.
          2    1    1    2  501    0 -0.22468424807E+02 -0.58660354833E+01  0.46061131334E+02  0.51583605006E+02  0.00000000000E+00 0.  1.
         21    1    1    2  503  501  0.22468424807E+02  0.58660354833E+01 -0.72695955275E+02  0.76314758723E+02  0.00000000000E+00 0.  1.
</event>
<event>
 4    1  0.2243645E+005  0.2362564E+02  0.7546771E-02  0.1484788E+00
          2   -1    0    0  503    0  0.00000000000E+00  0.00000000000E+00  0.56884089999E+03  0.56884089999E+03  0.00000000000E+00 0. -1.
         21   -1    0    0  501  502 -0.00000000000E+00 -0.00000000000E+00 -0.69130989020E+01  0.69130989020E+01  0.00000000000E+00 0.  1.
          2    1    1    2  501    0 -0.21743409199E+02 -0.92409488155E+01  0.54762882179E+03  0.54813821016E+03  0.00000000000E+00 0. -1.
         21    1    1    2  503  502  0.21743409199E+02  0.92409488155E+01  0.14298979301E+02  0.27615788739E+02  0.00000000000E+00 0.  1.
</event>
<event>
 4    1  0.2243645E+005  0.2109632E+02  0.7546771E-02  0.1517894E+00
          2   -1    0    0  503    0  0.00000000000E+00  0.00000000000E+00  0.80736347801E+03  0.80736347801E+03  0.00000000000E+00 0.  1.
         21   -1    0    0  501  502 -0.00000000000E+00 -0.00000000000E+00 -0.97170847523E+00  0.97170847523E+00  0.00000000000E+00 0.  1.
          2    1    1    2  501    0 -0.83266675333E+01  0.19383528290E+02  0.66905892258E+03  0.66939143739E+03  0.00000000000E+00 0.  1.
         21    1    1    2  503  502  0.83266675333E+01 -0.19383528290E+02  0.13733284695E+03  0.13894374910E+03  0.00000000000E+00 0.  1.
</event>
<event>
 4    1  0.2243645E+005  0.7336902E+02  0.7546771E-02  0.1220139E+00
          2   -1    0    0  503    0  0.00000000000E+00  0.00000000000E+00  0.12193490784E+04  0.12193490784E+04  0.00000000000E+00 0.  1.
         21   -1    0    0  501  502 -0.00000000000E+00 -0.00000000000E+00 -0.86031068106E+02  0.86031068106E+02  0.00000000000E+00 0.  1.
          2    1    1    2  501    0 -0.68711403109E+02 -0.25724630769E+02  0.12023822403E+04  0.12046186390E+04  0.00000000000E+00 0.  1.
         21    1    1    2  503  502  0.68711403109E+02  0.25724630769E+02 -0.69064229979E+02  0.10076150757E+03  0.00000000000E+00 0.  1.
</event>
<event>
 4    1  0.2243645E+005  0.2083558E+02  0.7546771E-02  0.1521625E+00
          2   -1    0    0  503    0  0.00000000000E+00  0.00000000000E+00  0.31166288929E+03  0.31166288929E+03  0.00000000000E+00 0. -1.
         21   -1    0    0  501  502 -0.00000000000E+00 -0.00000000000E+00 -0.17023862387E+01  0.17023862387E+01  0.00000000000E+00 0.  1.
          2    1    1    2  501    0 -0.20573005907E+02  0.32974028323E+01  0.22178364737E+03  0.22276020219E+03  0.00000000000E+00 0. -1.
         21    1    1    2  503  502  0.20573005907E+02 -0.32974028323E+01  0.88176855681E+02  0.90605073342E+02  0.00000000000E+00 0.  1.
</event>
<event>
 4    1  0.2243645E+005  0.2682845E+02  0.7546771E-02  0.1449339E+00
          2   -1    0    0  502    0  0.00000000000E+00  0.00000000000E+00  0.97618774317E+02  0.97618774317E+02  0.00000000000E+00 0. -1.
         21   -1    0    0  503  502 -0.00000000000E+00 -0.00000000000E+00 -0.17337509599E+02  0.17337509599E+02  0.00000000000E+00 0. -1.
          2    1    1    2  501    0 -0.48025798170E+01  0.26395096226E+02  0.83715118160E+02  0.87908969316E+02  0.00000000000E+00 0. -1.
         21    1    1    2  503  501  0.48025798170E+01 -0.26395096226E+02 -0.34338534420E+01  0.27047314601E+02  0.00000000000E+00 0. -1.
</event>
<event>
 4    1  0.2243645E+005  0.3599069E+02  0.7546771E-02  0.1373729E+00
          2   -1    0    0  503    0  0.00000000000E+00  0.00000000000E+00  0.10859367360E+04  0.10859367360E+04  0.00000000000E+00 0. -1.
         21   -1    0    0  501  502 -0.00000000000E+00 -0.00000000000E+00 -0.84941864127E+01  0.84941864127E+01  0.00000000000E+00 0. -1.
          2    1    1    2  501    0 -0.14136266636E+02  0.33098268917E+02  0.10460617044E+04  0.10466806671E+04  0.00000000000E+00 0. -1.
         21    1    1    2  503  502  0.14136266636E+02 -0.33098268917E+02  0.31380845206E+02  0.47750255345E+02  0.00000000000E+00 0. -1.
</event>
<event>
 4    1  0.2243645E+005  0.3951520E+02  0.7546771E-02  0.1351350E+00
          2   -1    0    0  503    0  0.00000000000E+00  0.00000000000E+00  0.21065847124E+04  0.21065847124E+04  0.00000000000E+00 0.  1.
         21   -1    0    0  501  502 -0.00000000000E+00 -0.00000000000E+00 -0.30947576949E+01  0.30947576949E+01  0.00000000000E+00 0. -1.
          2    1    1    2  501    0 -0.45750230119E+01  0.39249457886E+02  0.19716296478E+04  0.19720255877E+04  0.00000000000E+00 0.  1.
         21    1    1    2  503  502  0.45750230119E+01 -0.39249457886E+02  0.13186030699E+03  0.13765388240E+03  0.00000000000E+00 0. -1.
</event>
<event>
 4    1  0.2243645E+005  0.2636065E+02  0.7546771E-02  0.1454138E+00
          2   -1    0    0  502    0  0.00000000000E+00  0.00000000000E+00  0.12765709675E+04  0.12765709675E+04  0.00000000000E+00 0. -1.
         21   -1    0    0  503  502 -0.00000000000E+00 -0.00000000000E+00 -0.22485032062E+01  0.22485032062E+01  0.00000000000E+00 0. -1.
          2    1    1    2  501    0  0.12544436830E+02 -0.23184493456E+02  0.11938193936E+04  0.11941103920E+04  0.00000000000E+00 0. -1.
         21    1    1    2  503  501 -0.12544436830E+02  0.23184493456E+02  0.80503070683E+02  0.84709078744E+02  0.00000000000E+00 0. -1.
</event>
<event>
 4    1  0.2243645E+005  0.2531459E+02  0.7546771E-02  0.1465315E+00
          2   -1    0    0  502    0  0.00000000000E+00  0.00000000000E+00  0.80218808738E+03  0.80218808738E+03  0.00000000000E+00 0. -1.
         21   -1    0    0  503  502 -0.00000000000E+00 -0.00000000000E+00 -0.14703160203E+01  0.14703160203E+01  0.00000000000E+00 0. -1.
          2    1    1    2  501    0  0.24974892035E+02 -0.41331722250E+01  0.67190776339E+03  0.67238446655E+03  0.00000000000E+00 0. -1.
         21    1    1    2  503  501 -0.24974892035E+02  0.41331722250E+01  0.12881000797E+03  0.13127393686E+03  0.00000000000E+00 0. -1.
</event>
<event>
 4    1  0.2243645E+005  0.2260905E+02  0.7546771E-02  0.1497467E+00
          2   -1    0    0  503    0  0.00000000000E+00  0.00000000000E+00  0.10429746415E+04  0.10429746415E+04  0.00000000000E+00 0. -1.
         21   -1    0    0  501  502 -0.00000000000E+00 -0.00000000000E+00 -0.63047585001E+00  0.63047585001E+00  0.00000000000E+00 0. -1.
          2    1    1    2  501    0 -0.19153459436E+02 -0.12013087037E+02  0.76738294285E+03  0.76771593070E+03  0.00000000000E+00 0. -1.
         21    1    1    2  503  502  0.19153459436E+02  0.12013087037E+02  0.27496122280E+03  0.27588918665E+03  0.00000000000E+00 0. -1.
</event>
<event>
 4    1  0.2243645E+005  0.2246069E+02  0.7546771E-02  0.1499384E+00
          2   -1    0    0  503    0  0.00000000000E+00  0.00000000000E+00  0.86416552656E+01  0.86416552656E+01  0.00000000000E+00 0.  1.
         21   -1    0    0  501  502 -0.00000000000E+00 -0.00000000000E+00 -0.77378169454E+02  0.77378169454E+02  0.00000000000E+00 0. -1.
          2    1    1    2  501    0  0.12253786943E+02  0.18823581415E+02 -0.13055574304E+02  0.25979425169E+02  0.00000000000E+00 0.  1.
         21    1    1    2  503  502 -0.12253786943E+02 -0.18823581415E+02 -0.55680939885E+02  0.60040399551E+02  0.00000000000E+00 0. -1.
</event>
<event>
 4    1  0.2243645E+005  0.3894766E+02  0.7546771E-02  0.1354765E+00
          2   -1    0    0  502    0  0.00000000000E+00  0.00000000000E+00  0.38729026101E+04  0.38729026101E+04  0.00000000000E+00 0. -1.
         21   -1    0    0  503  502 -0.00000000000E+00 -0.00000000000E+00 -0.44717280689E+00  0.44717280689E+00  0.00000000000E+00 0.  1.
          2    1    1    2  501    0 -0.63108946737E+01 -0.38432965738E+02  0.26184969894E+04  0.26187866281E+04  0.00000000000E+00 0. -1.
         21    1    1    2  503  501  0.63108946737E+01  0.38432965738E+02  0.12539584479E+04  0.12545631547E+04  0.00000000000E+00 0.  1.
</event>
<event>
 4    1  0.2243645E+005  0.2048525E+02  0.7546771E-02  0.1526743E+00
          2   -1    0    0  503    0  0.00000000000E+00  0.00000000000E+00  0.93317353917E+03  0.93317353917E+03  0.00000000000E+00 0. -1.
         21   -1    0    0  501  502 -0.00000000000E+00 -0.00000000000E+00 -0.92540915014E+00  0.92540915014E+00  0.00000000000E+00 0.  1.
          2    1    1    2  501    0 -0.18623031823E+02 -0.85339511075E+01  0.80098768711E+03  0.80124959939E+03  0.00000000000E+00 0. -1.
         21    1    1    2  503  502  0.18623031823E+02  0.85339511075E+01  0.13126044291E+03  0.13284934892E+03  0.00000000000E+00 0.  1.
</event>
<event>
 4    1  0.2243645E+005  0.2038076E+02  0.7546771E-02  0.1528293E+00
          2   -1    0    0  503    0  0.00000000000E+00  0.00000000000E+00  0.37043771465E+02  0.37043771465E+02  0.00000000000E+00 0.  1.
         21   -1    0    0  501  502 -0.00000000000E+00 -0.00000000000E+00 -0.28455858456E+02  0.28455858456E+02  0.00000000000E+00 0.  1.
          2    1    1    2  501    0  0.28906353400E-01 -0.20380738370E+02  0.29787278922E+02  0.36092344308E+02  0.00000000000E+00 0.  1.
         21    1    1    2  503  502 -0.28906353400E-01  0.20380738370E+02 -0.21199365912E+02  0.29407285613E+02  0.00000000000E+00 0.  1.
</event>
<event>
 4    1  0.2243645E+005  0.4151941E+02  0.7546771E-02  0.1339805E+00
          2   -1    0    0  502    0  0.00000000000E+00  0.00000000000E+00  0.85437100525E+03  0.85437100525E+03  0.00000000000E+00 0.  1.
         21   -1    0    0  503  502 -0.00000000000E+00 -0.00000000000E+00 -0.16067520134E+02  0.16067520134E+02  0.00000000000E+00 0. -1.
          2    1    1    2  501    0 -0.31175072075E+02 -0.27422188370E+02  0.82612803977E+03  0.82717071976E+03  0.00000000000E+00 0.  1.
         21    1    1    2  503  501  0.31175072075E+02  0.27422188370E+02  0.12175445342E+02  0.43267805620E+02  0.00000000000E+00 0. -1.
</event>
<event>
 4    1  0.2243645E+005  0.2092761E+02  0.7546771E-02  0.1520301E+00
          2   -1    0    0  502    0  0.00000000000E+00  0.00000000000E+00  0.30231105017E+03  0.30231105017E+03  0.00000000000E+00 0. -1.
         21   -1    0    0  503  502 -0.00000000000E+00 -0.00000000000E+00 -0.24414938225E+01  0.24414938225E+01  0.00000000000E+00 0.  1.
          2    1    1    2  501    0 -0.15531265696E+02 -0.14026571022E+02  0.24710072276E+03  0.24798534653E+03  0.00000000000E+00 0. -1.
         21    1    1    2  503  501  0.15531265696E+02  0.14026571022E+02  0.52768833594E+02  0.56767197462E+02  0.00000000000E+00 0.  1.
</event>
<event>
 4    1  0.2243645E+005  0.2160663E+02  0.7546771E-02  0.1510777E+00
          2   -1    0    0  503    0  0.00000000000E+00  0.00000000000E+00  0.12229019847E+03  0.12229019847E+03  0.00000000000E+00 0. -1.
         21   -1    0    0  501  502 -0.00000000000E+00 -0.00000000000E+00 -0.63394848727E+01  0.63394848727E+01  0.00000000000E+00 0.  1.
          2    1    1    2  501    0  0.53711602686E+01  0.20928378507E+02  0.98540494470E+02  0.10088149206E+03  0.00000000000E+00 0. -1.
         21    1    1    2  503  502 -0.53711602686E+01 -0.20928378507E+02  0.17410219130E+02  0.27748191287E+02  0.00000000000E+00 0.  1.
</event>
<event>
 4    1  0.2243645E+005  0.2176524E+02  0.7546771E-02  0.1508614E+00
          2   -1    0    0  502    0  0.00000000000E+00  0.00000000000E+00  0.11612110333E+04  0.11612110333E+04  0.00000000000E+00 0.  1.
         21   -1    0    0  503  502 -0.00000000000E+00 -0.00000000000E+00 -0.46611936294E+01  0.46611936294E+01  0.00000000000E+00 0. -1.
          2    1    1    2  501    0 -0.21751502882E+02 -0.77304192679E+00  0.11351170734E+04  0.11353257224E+04  0.00000000000E+00 0.  1.
         21    1    1    2  503  501  0.21751502882E+02  0.77304192679E+00  0.21432766189E+02  0.30546504513E+02  0.00000000000E+00 0. -1.
</event>
<event>
 4    1  0.2243645E+005  0.4553079E+02  0.7546771E-02  0.1318806E+00
          2   -1    0    0  503    0  0.00000000000E+00  0.00000000000E+00  0.46013659740E+03  0.46013659740E+03  0.00000000000E+00 0.  1.
         21   -1    0    0  501  502 -0.00000000000E+00 -0.00000000000E+00 -0.54979831585E+01  0.54979831585E+01  0.00000000000E+00 0. -1.
          2    1    1    2  501    0  0.44919811503E+02 -0.74339187132E+01  0.32624730836E+03  0.32940910556E+03  0.00000000000E+00 0.  1.
         21    1    1    2  503  502 -0.44919811503E+02  0.74339187132E+01  0.12839130588E+03  0.13622547500E+03  0.00000000000E+00 0. -1.
</event>
<event>
 4    1  0.2243645E+005  0.2006843E+02  0.7546771E-02  0.1532992E+00
          2   -1    0    0  503    0  0.00000000000E+00  0.00000000000E+00  0.51820636278E+01  0.51820636278E+01  0.00000000000E+00 0.  1.
         21   -1    0    0  501  502 -0.00000000000E+00 -0.00000000000E+00 -0.54944385092E+03  0.54944385092E+03  0.00000000000E+00 0. -1.
          2    1    1    2  501    0 -0.18965904419E+02  0.65602030084E+01 -0.15178215387E+02  0.25161876247E+02  0.00000000000E+00 0.  1.
         21    1    1    2  503  502  0.18965904419E+02 -0.65602030084E+01 -0.52908357190E+03  0.52946403830E+03  0.00000000000E+00 0. -1.
</event>
<event>
 4    1  0.2243645E+005  0.2511035E+02  0.7546771E-02  0.1467573E+00
          2   -1    0    0  503    0  0.00000000000E+00  0.00000000000E+00  0.25126451744E+01  0.25126451744E+01  0.00000000000E+00 0. -1.
         21   -1    0    0  501  502 -0.00000000000E+00 -0.00000000000E+00 -0.25594052168E+03  0.25594052168E+03  0.00000000000E+00 0.  1.
          2    1    1    2  501    0  0.11928437237E+02 -0.22096199106E+02 -0.10865557034E+03  0.11151933732E+03  0.00000000000E+00 0. -1.
         21    1    1    2  503  502 -0.11928437237E+02  0.22096199106E+02 -0.14477230617E+03  0.14693382954E+03  0.00000000000E+00 0.  1.
</event>
<event>
 4    1  0.2243645E+005  0.7378754E+02  0.7546771E-02  0.1219054E+00
          2   -1    0    0  502    0  0.00000000000E+00  0.00000000000E+00  0.76708786980E+03  0.76708786980E+03  0.00000000000E+00 0. -1.
         21   -1    0    0  503  502 -0.00000000000E+00 -0.00000000000E+00 -0.29764505460E+02  0.29764505460E+02  0.00000000000E+00 0. -1.
          2    1    1    2  501    0  0.66937367022E+02 -0.31048185206E+02  0.71635246891E+03  0.72014266685E+03  0.00000000000E+00 0. -1.
         21    1    1    2  503  501 -0.66937367022E+02  0.31048185206E+02  0.20970895427E+02  0.76709708404E+02  0.00000000000E+00 0. -1.
</event>
<event>
 4    1  0.2243645E+005  0.2068702E+02  0.7546771E-02  0.1523781E+00
          2   -1    0    0  502    0  0.00000000000E+00  0.00000000000E+00  0.83573566551E+02  0.83573566551E+02  0.00000000000E+00 0.  1.
         21   -1    0    0  503  502 -0.00000000000E+00 -0.00000000000E+00 -0.51271275362E+01  0.51271275362E+01  0.00000000000E+00 0.  1.
          2    1    1    2  501    0  0.20644891084E+02  0.13195314618E+01  0.37649313301E+02  0.42958392465E+02  0.00000000000E+00 0.  1.
         21    1    1    2  503  501 -0.20644891084E+02 -0.13195314618E+01  0.40797125713E+02  0.45742301622E+02  0.00000000000E+00 0.  1.
</event>
<event>
 4    1  0.2243645E+005  0.1519755E+03  0.7546771E-02  0.1095609E+00
          2   -1    0    0  503    0  0.00000000000E+00  0.00000000000E+00  0.33615343333E+03  0.33615343333E+03  0.00000000000E+00 0.  1.
         21   -1    0    0  501  502 -0.00000000000E+00 -0.00000000000E+00 -0.11076464912E+03  0.11076464912E+03  0.00000000000E+00 0.  1.
          2    1    1    2  501    0  0.13010212823E+03  0.78549263001E+02  0.25038769810E+03  0.29290023873E+03  0.00000000000E+00 0.  1.
         21    1    1    2  503  502 -0.13010212823E+03 -0.78549263001E+02 -0.24998913897E+02  0.15401784372E+03  0.00000000000E+00 0.  1.
</event>
<event>
 4    1  0.2243645E+005  0.2518414E+02  0.7546771E-02  0.1466754E+00
          2   -1    0    0  502    0  0.00000000000E+00  0.00000000000E+00  0.81440278378E+03  0.81440278378E+03  0.00000000000E+00 0. -1.
         21   -1    0    0  503  502 -0.00000000000E+00 -0.00000000000E+00 -0.12256178504E+01  0.12256178504E+01  0.00000000000E+00 0.  1.
          2    1    1    2  501    0  0.27412217309E+01  0.25034508760E+02  0.65282914205E+03  0.65331472479E+03  0.00000000000E+00 0. -1.
         21    1    1    2  503  501 -0.27412217309E+01 -0.25034508760E+02  0.16034802388E+03  0.16231367684E+03  0.00000000000E+00 0.  1.
</event>
<event>
 4    1  0.2243645E+005  0.2472906E+02  0.7546771E-02  0.1471857E+00
          2   -1    0    0  503    0  0.00000000000E+00  0.00000000000E+00  0.42421377984E+03  0.42421377984E+03  0.00000000000E+00 0. -1.
         21   -1    0    0  501  502 -0.00000000000E+00 -0.00000000000E+00 -0.34898260937E+01  0.34898260937E+01  0.00000000000E+00 0.  1.
          2    1    1    2  501    0 -0.16071211347E+02  0.18794753304E+02  0.37419632920E+03  0.37501255895E+03  0.00000000000E+00 0. -1.
         21    1    1    2  503  502  0.16071211347E+02 -0.18794753304E+02  0.46527624542E+02  0.52691046976E+02  0.00000000000E+00 0.  1.
</event>
<event>
 4    1  0.2243645E+005  0.3393518E+02  0.7546771E-02  0.1388208E+00
          2   -1    0    0  502    0  0.00000000000E+00  0.00000000000E+00  0.48481452461E+03  0.48481452461E+03  0.00000000000E+00 0. -1.
         21   -1    0    0  503  502 -0.00000000000E+00 -0.00000000000E+00 -0.38151559023E+03  0.38151559023E+03  0.00000000000E+00 0. -1.
          2    1    1    2  501    0  0.76466864377E+01  0.33062430498E+02  0.48346396651E+03  0.48465348760E+03  0.00000000000E+00 0. -1.
         21    1    1    2  503  501 -0.76466864377E+01 -0.33062430498E+02 -0.38016503213E+03  0.38167662724E+03  0.00000000000E+00 0. -1.
</event>
<event>
 4    1  0.2243645E+005  0.2571866E+02  0.7546771E-02  0.1460922E+00
          2   -1    0    0  503    0  0.00000000000E+00  0.00000000000E+00  0.31762137010E+02  0.31762137010E+02  0.00000000000E+00 0. -1.
         21   -1    0    0  501  502 -0.00000000000E+00 -0.00000000000E+00 -0.11944677156E+03  0.11944677156E+03  0.00000000000E+00 0. -1.
          2    1    1    2  501    0  0.64431312525E+01  0.24898500058E+02  0.24856045126E+02  0.35766915226E+02  0.00000000000E+00 0. -1.
         21    1    1    2  503  502 -0.64431312525E+01 -0.24898500058E+02 -0.11254067968E+03  0.11544199335E+03  0.00000000000E+00 0. -1.
</event>
<event>
 4    1  0.2243645E+005  0.2387319E+02  0.7546771E-02  0.1481815E+00
          2   -1    0    0  503    0  0.00000000000E+00  0.00000000000E+00  0.92530891240E+03  0.92530891240E+03  0.00000000000E+00 0. -1.
         21   -1    0    0  501  502 -0.00000000000E+00 -0.00000000000E+00 -0.21443136363E+01  0.21443136363E+01  0.00000000000E+00 0.  1.
          2    1    1    2  501    0  0.15869950925E+02  0.17834624388E+02  0.85308385844E+03  0.85341783359E+03  0.00000000000E+00 0. -1.
         21    1    1    2  503  502 -0.15869950925E+02 -0.17834624388E+02  0.70080740324E+02  0.74035392441E+02  0.00000000000E+00 0.  1.
</event>
<event>
 4    1  0.2243645E+005  0.2746941E+02  0.7546771E-02  0.1442949E+00
          2   -1    0    0  502    0  0.00000000000E+00  0.00000000000E+00  0.39375969074E+03  0.39375969074E+03  0.00000000000E+00 0.  1.
         21   -1    0    0  503  502 -0.00000000000E+00 -0.00000000000E+00 -0.16702906834E+02  0.16702906834E+02  0.00000000000E+00 0.  1.
          2    1    1    2  501    0 -0.27447678789E+02  0.10923593579E+01  0.38162808341E+03  0.38261542359E+03  0.00000000000E+00 0.  1.
         21    1    1    2  503  501  0.27447678789E+02 -0.10923593579E+01 -0.45712995041E+01  0.27847173986E+02  0.00000000000E+00 0.  1.
</event>
<event>
 4    1  0.2243645E+005  0.2054975E+02  0.7546771E-02  0.1525791E+00
          2   -1    0    0  503    0  0.00000000000E+00  0.00000000000E+00  0.19779933535E+03  0.19779933535E+03  0.00000000000E+00 0.  1.
         21   -1    0    0  501  502 -0.00000000000E+00 -0.00000000000E+00 -0.86830641782E+02  0.86830641782E+02  0.00000000000E+00 0.  1.
          2    1    1    2  501    0  0.25924364094E+01  0.20385567884E+02  0.19603885864E+03  0.19711297827E+03  0.00000000000E+00 0.  1.
         21    1    1    2  503  502 -0.25924364094E+01 -0.20385567884E+02 -0.85070165073E+02  0.87516998863E+02  0.00000000000E+00 0.  1.
</event>
<event>
 4    1  0.2243645E+005  0.5068029E+02  0.7546771E-02  0.1295250E+00
          2   -1    0    0  502    0  0.00000000000E+00  0.00000000000E+00  0.26655035489E+02  0.26655035489E+02  0.00000000000E+00 0. -1.
         21   -1    0    0  503  502 -0.00000000000E+00 -0.00000000000E+00 -0.35990045006E+03  0.35990045006E+03  0.00000000000E+00 0. -1.
          2    1    1    2  501    0 -0.20910086111E+01  0.50637135644E+02 -0.12309345543E+01  0.50695236690E+02  0.00000000000E+00 0. -1.
         21    1    1    2  503  501  0.20910086111E+01 -0.50637135644E+02 -0.33201448001E+03  0.33586024886E+03  0.00000000000E+00 0. -1.
</event>
<event>
 4    1  0.2243645E+005  0.2424284E+02  0.7546771E-02  0.1477455E+00
          2   -1    0    0  502    0  0.00000000000E+00  0.00000000000E+00  0.11721571714E+04  0.11721571714E+04  0.00000000000E+00 0.  1.
         21   -1    0    0  503  502 -0.00000000000E+00 -0.00000000000E+00 -0.91367539537E+00  0.91367539537E+00  0.00000000000E+00 0.  1.
          2    1    1    2  501    0 -0.21458098723E+02  0.11281188868E+02  0.97961969514E+03  0.97991962034E+03  0.00000000000E+00 0.  1.
         21    1    1    2  503  501  0.21458098723E+02 -0.11281188868E+02  0.19162380089E+03  0.19315122648E+03  0.00000000000E+00 0.  1.
</event>
<event>
 4    1  0.2243645E+005  0.2514560E+02  0.7546771E-02  0.1467181E+00
          2   -1    0    0  502    0  0.00000000000E+00  0.00000000000E+00  0.10105121584E+03  0.10105121584E+03  0.00000000000E+00 0.  1.
         21   -1    0    0  503  502 -0.00000000000E+00 -0.00000000000E+00 -0.74003716848E+02  0.74003716848E+02  0.00000000000E+00 0. -1.
          2    1    1    2  501    0 -0.18093058832E+02  0.17462603987E+02  0.97269149366E+02  0.10046685391E+03  0.00000000000E+00 0.  1.
         21    1    1    2  503  501  0.18093058832E+02 -0.17462603987E+02 -0.70221650370E+02  0.74588078783E+02  0.00000000000E+00 0. -1.
</event>
<event>
 4    1  0.2243645E+005  0.2238523E+02  0.7546771E-02  0.1500366E+00
          2   -1    0    0  503    0  0.00000000000E+00  0.00000000000E+00  0.88161350679E+03  0.88161350679E+03  0.00000000000E+00 0.  1.
         21   -1    0    0  501  502 -0.00000000000E+00 -0.00000000000E+00 -0.14040658431E+01  0.14040658431E+01  0.00000000000E+00 0.  1.
          2    1    1    2  501    0  0.22384693218E+02 -0.15485185927E+00  0.78072074634E+03  0.78104160083E+03  0.00000000000E+00 0.  1.
         21    1    1    2  503  502 -0.22384693218E+02  0.15485185927E+00  0.99488694613E+02  0.10197597180E+03  0.00000000000E+00 0.  1.
</event>
<event>
 4    1  0.2243645E+005  0.2956244E+02  0.7546771E-02  0.1423437E+00
          2   -1    0    0  503    0  0.00000000000E+00  0.00000000000E+00  0.68777253489E+03  0.68777253489E+03  0.00000000000E+00 0. -1.
         21   -1    0    0  501  502 -0.00000000000E+00 -0.00000000000E+00 -0.13143409239E+01  0.13143409239E+01  0.00000000000E+00 0. -1.
          2    1    1    2  501    0 -0.19771763811E+02 -0.21977605632E+02  0.40602679728E+03  0.40710158180E+03  0.00000000000E+00 0. -1.
         21    1    1    2  503  502  0.19771763811E+02  0.21977605632E+02  0.28043139669E+03  0.28198529402E+03  0.00000000000E+00 0. -1.
</event>
<event>
 4    1  0.2243645E+005  0.2241012E+02  0.7546771E-02  0.1500041E+00
          2   -1    0    0  502    0  0.00000000000E+00  0.00000000000E+00  0.59265290986E+02  0.59265290986E+02  0.00000000000E+00 0.  1.
         21   -1    0    0  503  502 -0.00000000000E+00 -0.00000000000E+00 -0.25946799294E+02  0.25946799294E+02  0.00000000000E+00 0. -1.
          2    1    1    2  501    0  0.17046157275E+02 -0.14547920030E+02  0.51622407747E+02  0.56276873018E+02  0.00000000000E+00 0.  1.
         21    1    1    2  503  501 -0.17046157275E+02  0.14547920030E+02 -0.18303916055E+02  0.28935217262E+02  0.00000000000E+00 0. -1.
</event>
<event>
 4    1  0.2243645E+005  0.5193408E+02  0.7546771E-02  0.1289998E+00
          2   -1    0    0  503    0  0.00000000000E+00  0.00000000000E+00  0.83945693420E+03  0.83945693420E+03  0.00000000000E+00 0. -1.
         21   -1    0    0  501  502 -0.00000000000E+00 -0.00000000000E+00 -0.30607725349E+02  0.30607725349E+02  0.00000000000E+00 0.  1.
          2    1    1    2  501    0  0.58363449454E+01 -0.51605090886E+02  0.81599083542E+03  0.81764184813E+03  0.00000000000E+00 0. -1.
         21    1    1    2  503  502 -0.58363449454E+01  0.51605090886E+02 -0.71416265616E+01  0.52422811424E+02  0.00000000000E+00 0.  1.
</event>
<event>
 4    1  0.2243645E+005  0.4291761E+02  0.7546771E-02  0.1332188E+00
          2   -1    0    0  503    0  0.00000000000E+00  0.00000000000E+00  0.13273811427E+04  0.13273811427E+04  0.00000000000E+00 0.  1.
         21   -1    0    0  501  502 -0.00000000000E+00 -0.00000000000E+00 -0.11684509494E+02  0.11684509494E+02  0.00000000000E+00 0. -1.
          2    1    1    2  501    0 -0.25495545271E+02  0.34523876173E+02  0.12863686558E+04  0.12870843949E+04  0.00000000000E+00 0.  1.
         21    1    1    2  503  502  0.25495545271E+02 -0.34523876173E+02  0.29327977378E+02  0.51981257312E+02  0.00000000000E+00 0. -1.
</event>
<event>
 4    1  0.2243645E+005  0.2117287E+02  0.7546771E-02  0.1516811E+00
          2   -1    0    0  503    0  0.00000000000E+00  0.00000000000E+00  0.71604945514E+03  0.71604945514E+03  0.00000000000E+00 0.  1.
         21   -1    0    0  501  502 -0.00000000000E+00 -0.00000000000E+00 -0.35899679477E+02  0.35899679477E+02  0.00000000000E+00 0.  1.
          2    1    1    2  501    0 -0.18613966884E+02 -0.10090127763E+02  0.71275669346E+03  0.71307110060E+03  0.00000000000E+00 0.  1.
         21    1    1    2  503  502  0.18613966884E+02  0.10090127763E+02 -0.32606917791E+02  0.38878034020E+02  0.00000000000E+00 0.  1.
</event>
<event>
 4    1  0.2243645E+005  0.2706415E+02  0.7546771E-02  0.1446965E+00
          2   -1    0    0  503    0  0.00000000000E+00  0.00000000000E+00  0.76976501806E+03  0.76976501806E+03  0.00000000000E+00 0.  1.
         21   -1    0    0  501  502 -0.00000000000E+00 -0.00000000000E+00 -0.23566284128E+01  0.23566284128E+01  0.00000000000E+00 0.  1.
          2    1    1    2  501    0 -0.11684606249E+02  0.24411849855E+02  0.68180335522E+03  0.68234029899E+03  0.00000000000E+00 0.  1.
         21    1    1    2  503  502  0.11684606249E+02 -0.24411849855E+02  0.85605034424E+02  0.89781347480E+02  0.00000000000E+00 0.  1.
</event>
<event>
 4    1  0.2243645E+005  0.4607610E+02  0.7546771E-02  0.1316145E+00
          2   -1    0    0  502    0  0.00000000000E+00  0.00000000000E+00  0.64823142877E+03  0.64823142877E+03  0.00000000000E+00 0.  1.
         21   -1    0    0  503  502 -0.00000000000E+00 -0.00000000000E+00 -0.29191758128E+02  0.29191758128E+02  0.00000000000E+00 0.  1.
          2    1    1    2  501    0  0.45787231341E+02 -0.51513531527E+01  0.62866600730E+03  0.63035224735E+03  0.00000000000E+00 0.  1.
         21    1    1    2  503  501 -0.45787231341E+02  0.51513531527E+01 -0.96263366600E+01  0.47070939556E+02  0.00000000000E+00 0.  1.
</event>
<event>
 4    1  0.2243645E+005  0.3216782E+02  0.7546771E-02  0.1401648E+00
          2   -1    0    0  502    0  0.00000000000E+00  0.00000000000E+00  0.94986250948E+03  0.94986250948E+03  0.00000000000E+00 0. -1.
         21   -1    0    0  503  502 -0.00000000000E+00 -0.00000000000E+00 -0.16046066255E+01  0.16046066255E+01  0.00000000000E+00 0.  1.
          2    1    1    2  501    0 -0.20050974152E+02  0.25154066537E+02  0.74370131054E+03  0.74439667378E+03  0.00000000000E+00 0. -1.
         21    1    1    2  503  501  0.20050974152E+02 -0.25154066537E+02  0.20455659232E+03  0.20707044233E+03  0.00000000000E+00 0.  1.
</event>
<event>
 4    1  0.2243645E+005  0.2434205E+02  0.7546771E-02  0.1476300E+00
          2   -1    0    0  502    0  0.00000000000E+00  0.00000000000E+00  0.30445934180E+02  0.30445934180E+02  0.00000000000E+00 0.  1.
         21   -1    0    0  503  502 -0.00000000000E+00 -0.00000000000E+00 -0.10197806862E+03  0.10197806862E+03  0.00000000000E+00 0.  1.
          2    1    1    2  501    0  0.14249014215E+01  0.24300311120E+02  0.23793683892E+02  0.34039313415E+02  0.00000000000E+00 0.  1.
         21    1    1    2  503  501 -0.14249014215E+01 -0.24300311120E+02 -0.95325818330E+02  0.98384689383E+02  0.00000000000E+00 0.  1.
</event>
<event>
 4    1  0.2243645E+005  0.2104036E+02  0.7546771E-02  0.1518689E+00
          2   -1    0    0  503    0  0.00000000000E+00  0.00000000000E+00  0.64253320991E+03  0.64253320991E+03  0.00000000000E+00 0.  1.
         21   -1    0    0  501  502 -0.00000000000E+00 -0.00000000000E+00 -0.97392701388E+00  0.97392701388E+00  0.00000000000E+00 0. -1.
          2    1    1    2  501    0 -0.21040355607E+02 -0.75557402973E-03  0.49481497789E+03  0.49526211132E+03  0.00000000000E+00 0.  1.
         21    1    1    2  503  502  0.21040355607E+02  0.75557402973E-03  0.14674430500E+03  0.14824502560E+03  0.00000000000E+00 0. -1.
</event>
<event>
 4    1  0.2243645E+005  0.2054107E+02  0.7546771E-02  0.1525919E+00
          2   -1    0    0  503    0  0.00000000000E+00  0.00000000000E+00  0.79221835087E+02  0.79221835087E+02  0.00000000000E+00 0. -1.
         21   -1    0    0  501  502 -0.00000000000E+00 -0.00000000000E+00 -0.53375876570E+01  0.53375876570E+01  0.00000000000E+00 0. -1.
          2    1    1    2  501    0  0.10363248252E+02 -0.17735235478E+02  0.34972162118E+02  0.40558446901E+02  0.00000000000E+00 0. -1.
         21    1    1    2  503  502 -0.10363248252E+02  0.17735235478E+02  0.38912085311E+02  0.44000975842E+02  0.00000000000E+00 0. -1.
</event>
<event>
 4    1  0.2243645E+005  0.2237265E+02  0.7546771E-02  0.1500530E+00
          2   -1    0    0  503    0  0.00000000000E+00  0.00000000000E+00  0.37526830661E+03  0.37526830661E+03  0.00000000000E+00 0. -1.
         21   -1    0    0  501  502 -0.00000000000E+00 -0.00000000000E+00 -0.13990020346E+01  0.13990020346E+01  0.00000000000E+00 0. -1.
          2    1    1    2  501    0 -0.50406591433E+01 -0.21797418023E+02  0.22759062886E+03  0.22868762543E+03  0.00000000000E+00 0. -1.
         21    1    1    2  503  502  0.50406591433E+01  0.21797418023E+02  0.14627867571E+03  0.14797968322E+03  0.00000000000E+00 0. -1.
</event>
<event>
 4    1  0.2243645E+005  0.3994745E+02  0.7546771E-02  0.1348794E+00
          2   -1    0    0  503    0  0.00000000000E+00  0.00000000000E+00  0.14996917308E+04  0.14996917308E+04  0.00000000000E+00 0.  1.
         21   -1    0    0  501  502 -0.00000000000E+00 -0.00000000000E+00 -0.79201317075E+01  0.79201317075E+01  0.00000000000E+00 0. -1.
          2    1    1    2  501    0 -0.42392457100E+00  0.39945204915E+02  0.14472284335E+04  0.14477796579E+04  0.00000000000E+00 0.  1.
         21    1    1    2  503  502  0.42392457100E+00 -0.39945204915E+02  0.44543165622E+02  0.59832204634E+02  0.00000000000E+00 0. -1.
</event>
<event>
 4    1  0.2243645E+005  0.2791512E+02  0.7546771E-02  0.1438626E+00
          2   -1    0    0  502    0  0.00000000000E+00  0.00000000000E+00  0.80770363065E+03  0.80770363065E+03  0.00000000000E+00 0.  1.
         21   -1    0    0  503  502 -0.00000000000E+00 -0.00000000000E+00 -0.36085454815E+01  0.36085454815E+01  0.00000000000E+00 0. -1.
          2    1    1    2  501    0  0.27010386733E+02 -0.70493158263E+01  0.74926665373E+03  0.74978648443E+03  0.00000000000E+00 0.  1.
         21    1    1    2  503  501 -0.27010386733E+02  0.70493158263E+01  0.54828431439E+02  0.61525691700E+02  0.00000000000E+00 0. -1.
</event>
<event>
 4    1  0.2243645E+005  0.2616385E+02  0.7546771E-02  0.1456193E+00
          2   -1    0    0  503    0  0.00000000000E+00  0.00000000000E+00  0.95839216472E+03  0.95839216472E+03  0.00000000000E+00 0. -1.
         21   -1    0    0  501  502 -0.00000000000E+00 -0.00000000000E+00 -0.76423033471E+01  0.76423033471E+01  0.00000000000E+00 0. -1.
          2    1    1    2  501    0  0.19960986614E+02 -0.16914666187E+02  0.93526666206E+03  0.93563255399E+03  0.00000000000E+00 0. -1.
         21    1    1    2  503  502 -0.19960986614E+02  0.16914666187E+02  0.15483199314E+02  0.30401914082E+02  0.00000000000E+00 0. -1.
</event>
<event>
 4    1  0.2243645E+005  0.2639761E+02  0.7546771E-02  0.1453755E+00
          2   -1    0    0  503    0  0.00000000000E+00  0.00000000000E+00  0.53702469132E+03  0.53702469132E+03  0.00000000000E+00 0. -1.
         21   -1    0    0  501  502 -0.00000000000E+00 -0.00000000000E+00 -0.14719101368E+02  0.14719101368E+02  0.00000000000E+00 0. -1.
          2    1    1    2  501    0 -0.15761970732E+02  0.21175321862E+02  0.52458425638E+03  0.52524801382E+03  0.00000000000E+00 0. -1.
         21    1    1    2  503  502  0.15761970732E+02 -0.21175321862E+02 -0.22786664277E+01  0.26495778872E+02  0.00000000000E+00 0. -1.
</event>
<event>
 4    1  0.2243645E+005  0.2001133E+02  0.7546771E-02  0.1533862E+00
          2   -1    0    0  503    0  0.00000000000E+00  0.00000000000E+00  0.94305157216E+02  0.94305157216E+02  0.00000000000E+00 0. -1.
         21   -1    0    0  501  502 -0.00000000000E+00 -0.00000000000E+00 -0.56294760349E+01  0.56294760349E+01  0.00000000000E+00 0. -1.
          2    1    1    2  501    0  0.19596636256E+02 -0.40527942704E+01  0.69105327182E+02  0.71944419790E+02  0.00000000000E+00 0. -1.
         21    1    1    2  503  502 -0.19596636256E+02  0.40527942704E+01  0.19570354000E+02  0.27990213462E+02  0.00000000000E+00 0. -1.
</event>
<event>
 4    1  0.2243645E+005  0.2173010E+02  0.7546771E-02  0.1509091E+00
          2   -1    0    0  503    0  0.00000000000E+00  0.00000000000E+00  0.51141433883E+03  0.51141433883E+03  0.00000000000E+00 0. -1.
         21   -1    0    0  501  502 -0.00000000000E+00 -0.00000000000E+00 -0.77129853101E+01  0.77129853101E+01  0.00000000000E+00 0.  1.
          2    1    1    2  501    0  0.93719210241E+01 -0.19605214487E+02  0.49538318030E+03  0.49585954933E+03  0.00000000000E+00 0. -1.
         21    1    1    2  503  502 -0.93719210241E+01  0.19605214487E+02  0.83181732177E+01  0.23267774807E+02  0.00000000000E+00 0.  1.
</event>
<event>
 4    1  0.2243645E+005  0.4897561E+02  0.7546771E-02  0.1302676E+00
          2   -1    0    0  502    0  0.00000000000E+00  0.00000000000E+00  0.13612957637E+04  0.13612957637E+04  0.00000000000E+00 0.  1.
         21   -1    0    0  503  502 -0.00000000000E+00 -0.00000000000E+00 -0.17813788513E+01  0.17813788513E+01  0.00000000000E+00 0.  1.
          2    1    1    2  501    0  0.45635796832E+02 -0.17775949147E+02  0.60868214497E+03  0.61064929700E+03  0.00000000000E+00 0.  1.
         21    1    1    2  503  501 -0.45635796832E+02  0.17775949147E+02  0.75083223989E+03  0.75242784556E+03  0.00000000000E+00 0.  1.
</event>
<event>
 4    1  0.2243645E+005  0.2213155E+02  0.7546771E-02  0.1503701E+00
          2   -1    0    0  503    0  0.00000000000E+00  0.00000000000E+00  0.54367257540E+03  0.54367257540E+03  0.00000000000E+00 0. -1.
         21   -1    0    0  501  502 -0.00000000000E+00 -0.00000000000E+00 -0.34839813955E+01  0.34839813955E+01  0.00000000000E+00 0.  1.
          2    1    1    2  501    0  0.11325487133E+01  0.22102555046E+02  0.50565945009E+03  0.50614354197E+03  0.00000000000E+00 0. -1.
         21    1    1    2  503  502 -0.11325487133E+01 -0.22102555046E+02  0.34529143915E+02  0.41013014832E+02  0.00000000000E+00 0.  1.
</event>
<event>
 4    1  0.2243645E+005  0.3595250E+02  0.7546771E-02  0.1373988E+00
          2   -1    0    0  503    0  0.00000000000E+00  0.00000000000E+00  0.48352982013E+01  0.48352982013E+01  0.00000000000E+00 0.  1.
         21   -1    0    0  501  502 -0.00000000000E+00 -0.00000000000E+00 -0.72356279827E+03  0.72356279827E+03  0.00000000000E+00 0.  1.
          2    1    1    2  501    0  0.33549771206E+02 -0.12922647898E+02 -0.70164133722E+02  0.78838998203E+02  0.00000000000E+00 0.  1.
         21    1    1    2  503  502 -0.33549771206E+02  0.12922647898E+02 -0.64856336635E+03  0.64955909827E+03  0.00000000000E+00 0.  1.
</event>
<event>
 4    1  0.2243645E+005  0.2353883E+02  0.7546771E-02  0.1485841E+00
          2   -1    0    0  503    0  0.00000000000E+00  0.00000000000E+00  0.86146604305E+03  0.86146604305E+03  0.00000000000E+00 0. -1.
         21   -1    0    0  501  502 -0.00000000000E+00 -0.00000000000E+00 -0.46945982405E+01  0.46945982405E+01  0.00000000000E+00 0. -1.
          2    1    1    2  501    0  0.64630673980E+01 -0.22634160393E+02  0.83070686178E+03  0.83104029184E+03  0.00000000000E+00 0. -1.
         21    1    1    2  503  502 -0.64630673980E+01  0.22634160393E+02  0.26064583030E+02  0.35120349448E+02  0.00000000000E+00 0. -1.
</event>
<event>
 4    1  0.2243645E+005  0.2481084E+02  0.7546771E-02  0.1470931E+00
          2   -1    0    0  502    0  0.00000000000E+00  0.00000000000E+00  0.12779961297E+04  0.12779961297E+04  0.00000000000E+00 0. -1.
         21   -1    0    0  503  502 -0.00000000000E+00 -0.00000000000E+00 -0.63669017709E+00  0.63669017709E+00  0.00000000000E+00 0.  1.
          2    1    1    2  501    0  0.12114400139E+02 -0.21652229107E+02  0.95413664084E+03  0.95445916995E+03  0.00000000000E+00 0. -1.
         21    1    1    2  503  501 -0.12114400139E+02  0.21652229107E+02  0.32322279872E+03  0.32417364996E+03  0.00000000000E+00 0.  1.
</event>
<event>
 4    1  0.2243645E+005  0.3730476E+02  0.7546771E-02  0.1365047E+00
          2   -1    0    0  503    0  0.00000000000E+00  0.00000000000E+00  0.88017196850E+02  0.88017196850E+02  0.00000000000E+00 0. -1.
         21   -1    0    0  501  502 -0.00000000000E+00 -0.00000000000E+00 -0.17959900789E+02  0.17959900789E+02  0.00000000000E+00 0.  1.
          2    1    1    2  501    0  0.23682681734E+02 -0.28823184659E+02  0.53357359744E+02  0.65104940111E+02  0.00000000000E+00 0. -1.
         21    1    1    2  503  502 -0.23682681734E+02  0.28823184659E+02  0.16699936317E+02  0.40872157528E+02  0.00000000000E+00 0.  1.
</event>
<event>
 4    1  0.2243645E+005  0.2416440E+02  0.7546771E-02  0.1478372E+00
          2   -1    0    0  503    0  0.00000000000E+00  0.00000000000E+00  0.24051232182E+04  0.24051232182E+04  0.00000000000E+00 0. -1.
         21   -1    0    0  501  502 -0.00000000000E+00 -0.00000000000E+00 -0.25893199382E+00  0.25893199382E+00  0.00000000000E+00 0.  1.
          2    1    1    2  501    0  0.23816668348E+02 -0.40846649644E+01  0.15028052765E+04  0.15029995400E+04  0.00000000000E+00 0. -1.
         21    1    1    2  503  502 -0.23816668348E+02  0.40846649644E+01  0.90205900974E+03  0.90238261022E+03  0.00000000000E+00 0.  1.
</event>
<event>
 4    1  0.2243645E+005  0.2154593E+02  0.7546771E-02  0.1511611E+00
          2   -1    0    0  503    0  0.00000000000E+00  0.00000000000E+00  0.29786575005E+02  0.29786575005E+02  0.00000000000E+00 0. -1.
         21   -1    0    0  501  502 -0.00000000000E+00 -0.00000000000E+00 -0.15703400090E+02  0.15703400090E+02  0.00000000000E+00 0.  1.
          2    1    1    2  501    0  0.17868878634E+02  0.12038704117E+02  0.50675635570E+01  0.22133852373E+02  0.00000000000E+00 0. -1.
         21    1    1    2  503  502 -0.17868878634E+02 -0.12038704117E+02  0.90156113588E+01  0.23356122722E+02  0.00000000000E+00 0.  1.
</event>
<event>
 4    1  0.2243645E+005  0.2026024E+02  0.7546771E-02  0.1530094E+00
          2   -1    0    0  502    0  0.00000000000E+00  0.00000000000E+00  0.25243133369E+03  0.25243133369E+03  0.00000000000E+00 0.  1.
         21   -1    0    0  503  502 -0.00000000000E+00 -0.00000000000E+00 -0.10137714577E+03  0.10137714577E+03  0.00000000000E+00 0.  1.
          2    1    1    2  501    0  0.74772081072E+01 -0.18829997247E+02  0.25100682103E+03  0.25182315549E+03  0.00000000000E+00 0.  1.
         21    1    1    2  503  501 -0.74772081072E+01  0.18829997247E+02 -0.99952633117E+02  0.10198532397E+03  0.00000000000E+00 0.  1.
</event>
<event>
 4    1  0.2243645E+005  0.2343903E+02  0.7546771E-02  0.1487058E+00
          2   -1    0    0  503    0  0.00000000000E+00  0.00000000000E+00  0.16756434631E+04  0.16756434631E+04  0.00000000000E+00 0. -1.
         21   -1    0    0  501  502 -0.00000000000E+00 -0.00000000000E+00 -0.55201702845E+02  0.55201702845E+02  0.00000000000E+00 0. -1.
          2    1    1    2  501    0 -0.22153249134E+02 -0.76564941841E+01  0.16730695736E+04  0.16732337513E+04  0.00000000000E+00 0. -1.
         21    1    1    2  503  502  0.22153249134E+02  0.76564941841E+01 -0.52627813393E+02  0.57611414606E+02  0.00000000000E+00 0. -1.
</event>
<event>
 4    1  0.2243645E+005  0.2128093E+02  0.7546771E-02  0.1515292E+00
          2   -1    0    0  503    0  0.00000000000E+00  0.00000000000E+00  0.72964063394E+03  0.72964063394E+03  0.00000000000E+00 0.  1.
         21   -1    0    0  501  502 -0.00000000000E+00 -0.00000000000E+00 -0.15949738422E+01  0.15949738422E+01  0.00000000000E+00 0.  1.
          2    1    1    2  501    0 -0.18403387718E+02 -0.10686123138E+02  0.64977802837E+03  0.65012642160E+03  0.00000000000E+00 0.  1.
         21    1    1    2  503  502  0.18403387718E+02  0.10686123138E+02  0.78267631731E+02  0.81109186187E+02  0.00000000000E+00 0.  1.
</event>
<event>
 4    1  0.2243645E+005  0.2095314E+02  0.7546771E-02  0.1519935E+00
          2   -1    0    0  503    0  0.00000000000E+00  0.00000000000E+00  0.29033350648E+03  0.29033350648E+03  0.00000000000E+00 0. -1.
         21   -1    0    0  501  502 -0.00000000000E+00 -0.00000000000E+00 -0.48399885598E+01  0.48399885598E+01  0.00000000000E+00 0. -1.
          2    1    1    2  501    0 -0.11720358530E+02 -0.17368568105E+02  0.26512520577E+03  0.26595189170E+03  0.00000000000E+00 0. -1.
         21    1    1    2  503  502  0.11720358530E+02  0.17368568105E+02  0.20368312148E+02  0.29221603341E+02  0.00000000000E+00 0. -1.
</event>
<event>
 4    1  0.2243645E+005  0.2206579E+02  0.7546771E-02  0.1504574E+00
          2   -1    0    0  502    0  0.00000000000E+00  0.00000000000E+00  0.43875873746E+02  0.43875873746E+02  0.00000000000E+00 0.  1.
         21   -1    0    0  503  502 -0.00000000000E+00 -0.00000000000E+00 -0.25790939285E+02  0.25790939285E+02  0.00000000000E+00 0.  1.
          2    1    1    2  501    0 -0.21711053816E+02 -0.39407334710E+01  0.35334766678E+02  0.41658672258E+02  0.00000000000E+00 0.  1.
         21    1    1    2  503  501  0.21711053816E+02  0.39407334710E+01 -0.17249832217E+02  0.28008140774E+02  0.00000000000E+00 0.  1.
</event>
<event>
 4    1  0.2243645E+005  0.2264759E+02  0.7546771E-02  0.1496971E+00
          2   -1    0    0  502    0  0.00000000000E+00  0.00000000000E+00  0.55886960774E+03  0.55886960774E+03  0.00000000000E+00 0. -1.
         21   -1    0    0  503  502 -0.00000000000E+00 -0.00000000000E+00 -0.12108640301E+02  0.12108640301E+02  0.00000000000E+00 0.  1.
          2    1    1    2  501    0  0.62194586312E+01  0.21776861474E+02  0.54783717537E+03  0.54830510127E+03  0.00000000000E+00 0. -1.
         21    1    1    2  503  501 -0.62194586312E+01 -0.21776861474E+02 -0.10762079242E+01  0.22673146778E+02  0.00000000000E+00 0.  1.
</event>
<event>
 4    1  0.2243645E+005  0.2024569E+02  0.7546771E-02  0.1530312E+00
          2   -1    0    0  503    0  0.00000000000E+00  0.00000000000E+00  0.27877672054E+03  0.27877672054E+03  0.00000000000E+00 0. -1.
         21   -1    0    0  501  502 -0.00000000000E+00 -0.00000000000E+00 -0.28792109705E+01  0.28792109705E+01  0.00000000000E+00 0.  1.
          2    1    1    2  501    0 -0.14065874534E+02  0.14561570543E+02  0.23646149881E+03  0.23732662848E+03  0.00000000000E+00 0. -1.
         21    1    1    2  503  502  0.14065874534E+02 -0.14561570543E+02  0.39436010754E+02  0.44329303032E+02  0.00000000000E+00 0.  1.
</event>
<event>
 4    1  0.2243645E+005  0.3499151E+02  0.7546771E-02  0.1380623E+00
          2   -1    0    0  502    0  0.00000000000E+00  0.00000000000E+00  0.98013659213E+03  0.98013659213E+03  0.00000000000E+00 0. -1.
         21   -1    0    0  503  502 -0.00000000000E+00 -0.00000000000E+00 -0.38220875795E+01  0.38220875795E+01  0.00000000000E+00 0.  1.
          2    1    1    2  501    0 -0.27538994734E+02 -0.21587257162E+02  0.89180756568E+03  0.89249377595E+03  0.00000000000E+00 0. -1.
         21    1    1    2  503  501  0.27538994734E+02  0.21587257162E+02  0.84506938871E+02  0.91464903761E+02  0.00000000000E+00 0.  1.
</event>
<event>
 4    1  0.2243645E+005  0.5219449E+02  0.7546771E-02  0.1288928E+00
          2   -1    0    0  503    0  0.00000000000E+00  0.00000000000E+00  0.26091749632E+04  0.26091749632E+04  0.00000000000E+00 0. -1.
         21   -1    0    0  501  502 -0.00000000000E+00 -0.00000000000E+00 -0.43020650389E+02  0.43020650389E+02  0.00000000000E+00 0.  1.
          2    1    1    2  501    0 -0.24320599743E+02  0.46181954696E+02  0.25929839492E+04  0.25935092106E+04  0.00000000000E+00 0. -1.
         21    1    1    2  503  502  0.24320599743E+02 -0.46181954696E+02 -0.26829636383E+02  0.58686403023E+02  0.00000000000E+00 0.  1.
</event>
<event>
 4    1  0.2243645E+005  0.2559424E+02  0.7546771E-02  0.1462264E+00
          2   -1    0    0  503    0  0.00000000000E+00  0.00000000000E+00  0.78054506301E+03  0.78054506301E+03  0.00000000000E+00 0. -1.
         21   -1    0    0  501  502 -0.00000000000E+00 -0.00000000000E+00 -0.18045161182E+02  0.18045161182E+02  0.00000000000E+00 0. -1.
          2    1    1    2  501    0 -0.23218534662E+02 -0.10768697710E+02  0.77114935061E+03  0.77157396674E+03  0.00000000000E+00 0. -1.
         21    1    1    2  503  502  0.23218534662E+02  0.10768697710E+02 -0.86494487867E+01  0.27016257449E+02  0.00000000000E+00 0. -1.
</event>
<event>
 4    1  0.2243645E+005  0.3984964E+02  0.7546771E-02  0.1349369E+00
          2   -1    0    0  503    0  0.00000000000E+00  0.00000000000E+00  0.22595498421E+02  0.22595498421E+02  0.00000000000E+00 0.  1.
         21   -1    0    0  501  502 -0.00000000000E+00 -0.00000000000E+00 -0.17750432535E+03  0.17750432535E+03  0.00000000000E+00 0. -1.
          2    1    1    2  501    0 -0.27581617212E+02 -0.28761927025E+02  0.30634298847E+00  0.39850820572E+02  0.00000000000E+00 0.  1.
         21    1    1    2  503  502  0.27581617212E+02  0.28761927025E+02 -0.15521516992E+03  0.16024900320E+03  0.00000000000E+00 0. -1.
</event>
<event>
 4    1  0.2243645E+005  0.2418450E+02  0.7546771E-02  0.1478137E+00
          2   -1    0    0  502    0  0.00000000000E+00  0.00000000000E+00  0.15992789556E+04  0.15992789556E+04  0.00000000000E+00 0. -1.
         21   -1    0    0  503  502 -0.00000000000E+00 -0.00000000000E+00 -0.90226469720E+01  0.90226469720E+01  0.00000000000E+00 0. -1.
          2    1    1    2  501    0  0.23411753076E+02  0.60646593155E+01  0.15828127684E+04  0.15829975206E+04  0.00000000000E+00 0. -1.
         21    1    1    2  503  501 -0.23411753076E+02 -0.60646593155E+01  0.74435402037E+01  0.25304081992E+02  0.00000000000E+00 0. -1.
</event>
<event>
 4    1  0.2243645E+005  0.3790989E+02  0.7546771E-02  0.1361189E+00
          2   -1    0    0  502    0  0.00000000000E+00  0.00000000000E+00  0.18801190632E+04  0.18801190632E+04  0.00000000000E+00 0. -1.
         21   -1    0    0  503  502 -0.00000000000E+00 -0.00000000000E+00 -0.71986137257E+01  0.71986137257E+01  0.00000000000E+00 0. -1.
          2    1    1    2  501    0 -0.24676714638E+02 -0.28778797380E+02  0.18286112577E+04  0.18290041802E+04  0.00000000000E+00 0. -1.
         21    1    1    2  503  501  0.24676714638E+02  0.28778797380E+02  0.44309191773E+02  0.58313496718E+02  0.00000000000E+00 0. -1.
</event>
<event>
 4    1  0.2243645E+005  0.2756542E+02  0.7546771E-02  0.1442010E+00
          2   -1    0    0  502    0  0.00000000000E+00  0.00000000000E+00  0.16568096107E+04  0.16568096107E+04  0.00000000000E+00 0. -1.
         21   -1    0    0  503  502 -0.00000000000E+00 -0.00000000000E+00 -0.59869413039E+01  0.59869413039E+01  0.00000000000E+00 0.  1.
          2    1    1    2  501    0 -0.13521703012E+02 -0.24021160897E+02  0.16243309810E+04  0.16245648613E+04  0.00000000000E+00 0. -1.
         21    1    1    2  503  501  0.13521703012E+02  0.24021160897E+02  0.26491688420E+02  0.38231690762E+02  0.00000000000E+00 0.  1.
</event>
<event>
 4    1  0.2243645E+005  0.2894927E+02  0.7546771E-02  0.1428952E+00
          2   -1    0    0  503    0  0.00000000000E+00  0.00000000000E+00  0.80803149248E+03  0.80803149248E+03  0.00000000000E+00 0.  1.
         21   -1    0    0  501  502 -0.00000000000E+00 -0.00000000000E+00 -0.11984491820E+02  0.11984491820E+02  0.00000000000E+00 0. -1.
          2    1    1    2  501    0  0.56141290521E+01  0.28399681247E+02  0.78988860617E+03  0.79041892088E+03  0.00000000000E+00 0.  1.
         21    1    1    2  503  502 -0.56141290521E+01 -0.28399681247E+02  0.61583944891E+01  0.29597063413E+02  0.00000000000E+00 0. -1.
</event>
<event>
 4    1  0.2243645E+005  0.2619222E+02  0.7546771E-02  0.1455896E+00
          2   -1    0    0  503    0  0.00000000000E+00  0.00000000000E+00  0.13250880654E+04  0.13250880654E+04  0.00000000000E+00 0. -1.
         21   -1    0    0  501  502 -0.00000000000E+00 -0.00000000000E+00 -0.13793630869E+01  0.13793630869E+01  0.00000000000E+00 0. -1.
          2    1    1    2  501    0  0.16978191222E+02 -0.19944258804E+02  0.11860452871E+04  0.11863344619E+04  0.00000000000E+00 0. -1.
         21    1    1    2  503  502 -0.16978191222E+02  0.19944258804E+02  0.13766341515E+03  0.14013296652E+03  0.00000000000E+00 0. -1.
</event>
<event>
 4    1  0.2243645E+005  0.2320799E+02  0.7546771E-02  0.1489903E+00
          2   -1    0    0  503    0  0.00000000000E+00  0.00000000000E+00  0.58309384847E+03  0.58309384847E+03  0.00000000000E+00 0.  1.
         21   -1    0    0  501  502 -0.00000000000E+00 -0.00000000000E+00 -0.25515862842E+01  0.25515862842E+01  0.00000000000E+00 0.  1.
          2    1    1    2  501    0  0.21993887310E+02  0.74080948964E+01  0.52416025700E+03  0.52467379005E+03  0.00000000000E+00 0.  1.
         21    1    1    2  503  502 -0.21993887310E+02 -0.74080948964E+01  0.56382005190E+02  0.60971644707E+02  0.00000000000E+00 0.  1.
</event>
<event>
 4    1  0.2243645E+005  0.2229044E+02  0.7546771E-02  0.1501606E+00
          2   -1    0    0  502    0  0.00000000000E+00  0.00000000000E+00  0.28992742624E+03  0.28992742624E+03  0.00000000000E+00 0. -1.
         21   -1    0    0  503  502 -0.00000000000E+00 -0.00000000000E+00 -0.89681985422E+01  0.89681985422E+01  0.00000000000E+00 0.  1.
          2    1    1    2  501    0 -0.11426343342E+02  0.19139029355E+02  0.27489193819E+03  0.27579420126E+03  0.00000000000E+00 0. -1.
         21    1    1    2  503  501  0.11426343342E+02 -0.19139029355E+02  0.60672895086E+01  0.23101423523E+02  0.00000000000E+00 0.  1.
</event>
<event>
 4    1  0.2243645E+005  0.2179971E+02  0.7546771E-02  0.1508146E+00
          2   -1    0    0  502    0  0.00000000000E+00  0.00000000000E+00  0.36074022546E+02  0.36074022546E+02  0.00000000000E+00 0.  1.
         21   -1    0    0  503  502 -0.00000000000E+00 -0.00000000000E+00 -0.16132969355E+02  0.16132969355E+02  0.00000000000E+00 0. -1.
          2    1    1    2  501    0  0.75573036045E+01 -0.20447850902E+02  0.21150367225E+02  0.30373762988E+02  0.00000000000E+00 0.  1.
         21    1    1    2  503  501 -0.75573036045E+01  0.20447850902E+02 -0.12093140338E+01  0.21833228912E+02  0.00000000000E+00 0. -1.
</event>
<event>
 4    1  0.2243645E+005  0.2340154E+02  0.7546771E-02  0.1487517E+00
          2   -1    0    0  502    0  0.00000000000E+00  0.00000000000E+00  0.53587221118E+01  0.53587221118E+01  0.00000000000E+00 0. -1.
         21   -1    0    0  503  502 -0.00000000000E+00 -0.00000000000E+00 -0.17614891750E+03  0.17614891750E+03  0.00000000000E+00 0. -1.
          2    1    1    2  501    0 -0.16477074486E+02 -0.16617409750E+02 -0.26591109018E+02  0.35422018141E+02  0.00000000000E+00 0. -1.
         21    1    1    2  503  501  0.16477074486E+02  0.16617409750E+02 -0.14419908637E+03  0.14608562147E+03  0.00000000000E+00 0. -1.
</event>
<event>
 4    1  0.2243645E+005  0.5226356E+02  0.7546771E-02  0.1288646E+00
          2   -1    0    0  503    0  0.00000000000E+00  0.00000000000E+00  0.12625106444E+03  0.12625106444E+03  0.00000000000E+00 0.  1.
         21   -1    0    0  501  502 -0.00000000000E+00 -0.00000000000E+00 -0.60752982924E+02  0.60752982924E+02  0.00000000000E+00 0. -1.
          2    1    1    2  501    0  0.50741517560E+02 -0.12521111695E+02  0.10777710820E+03  0.11978056977E+03  0.00000000000E+00 0.  1.
         21    1    1    2  503  502 -0.50741517560E+02  0.12521111695E+02 -0.42279026685E+02  0.67223477594E+02  0.00000000000E+00 0. -1.
</event>
<event>
 4    1  0.2243645E+005  0.2120952E+02  0.7546771E-02  0.1516294E+00
          2   -1    0    0  503    0  0.00000000000E+00  0.00000000000E+00  0.70866157278E+02  0.70866157278E+02  0.00000000000E+00 0. -1.
         21   -1    0    0  501  502 -0.00000000000E+00 -0.00000000000E+00 -0.53684153071E+03  0.53684153071E+03  0.00000000000E+00 0.  1.
          2    1    1    2  501    0  0.28870901368E+01 -0.21012097585E+02  0.69064381382E+02  0.72247714913E+02  0.00000000000E+00 0. -1.
         21    1    1    2  503  502 -0.28870901368E+01  0.21012097585E+02 -0.53503975482E+03  0.53545997308E+03  0.00000000000E+00 0.  1.
</event>
<event>
 4    1  0.2243645E+005  0.2132985E+02  0.7546771E-02  0.1514607E+00
          2   -1    0    0  502    0  0.00000000000E+00  0.00000000000E+00  0.21056658130E+02  0.21056658130E+02  0.00000000000E+00 0.  1.
         21   -1    0    0  503  502 -0.00000000000E+00 -0.00000000000E+00 -0.74279083066E+02  0.74279083066E+02  0.00000000000E+00 0.  1.
          2    1    1    2  501    0 -0.21325605374E+02  0.42546415601E+00  0.13529441574E+02  0.25258825262E+02  0.00000000000E+00 0.  1.
         21    1    1    2  503  501  0.21325605374E+02 -0.42546415601E+00 -0.66751866510E+02  0.70076915934E+02  0.00000000000E+00 0.  1.
</event>
<event>
 4    1  0.2243645E+005  0.3074658E+02  0.7546771E-02  0.1413217E+00
          2   -1    0    0  502    0  0.00000000000E+00  0.00000000000E+00  0.16649378084E+03  0.16649378084E+03  0.00000000000E+00 0.  1.
         21   -1    0    0  503  502 -0.00000000000E+00 -0.00000000000E+00 -0.83333262082E+01  0.83333262082E+01  0.00000000000E+00 0.  1.
          2    1    1    2  501    0  0.28961535628E+02 -0.10323825462E+02  0.12842355241E+03  0.13205287097E+03  0.00000000000E+00 0.  1.
         21    1    1    2  503  501 -0.28961535628E+02  0.10323825462E+02  0.29736902215E+02  0.42774236070E+02  0.00000000000E+00 0.  1.
</event>
<event>
 4    1  0.2243645E+005  0.2563561E+02  0.7546771E-02  0.1461817E+00
          2   -1    0    0  502    0  0.00000000000E+00  0.00000000000E+00  0.32320413448E+02  0.32320413448E+02  0.00000000000E+00 0. -1.
         21   -1    0    0  503  502 -0.00000000000E+00 -0.00000000000E+00 -0.36221120072E+02  0.36221120072E+02  0.00000000000E+00 0. -1.
          2    1    1    2  501    0  0.17302276673E+02 -0.18916017586E+02  0.20746905890E+02  0.32979063106E+02  0.00000000000E+00 0. -1.
         21    1    1    2  503  501 -0.17302276673E+02  0.18916017586E+02 -0.24647612514E+02  0.35562470415E+02  0.00000000000E+00 0. -1.
</event>
<event>
 4    1  0.2243645E+005  0.3559224E+02  0.7546771E-02  0.1376447E+00
          2   -1    0    0  502    0  0.00000000000E+00  0.00000000000E+00  0.84639963875E+03  0.84639963875E+03  0.00000000000E+00 0. -1.
         21   -1    0    0  503  502 -0.00000000000E+00 -0.00000000000E+00 -0.53004412714E+03  0.53004412714E+03  0.00000000000E+00 0. -1.
          2    1    1    2  501    0  0.32176229865E+02  0.15215041880E+02  0.84542727571E+03  0.84617615529E+03  0.00000000000E+00 0. -1.
         21    1    1    2  503  501 -0.32176229865E+02 -0.15215041880E+02 -0.52907176411E+03  0.53026761059E+03  0.00000000000E+00 0. -1.
</event>
<event>
 4    1  0.2243645E+005  0.2049931E+02  0.7546771E-02  0.1526535E+00
          2   -1    0    0  502    0  0.00000000000E+00  0.00000000000E+00  0.94451510216E+03  0.94451510216E+03  0.00000000000E+00 0. -1.
         21   -1    0    0  503  502 -0.00000000000E+00 -0.00000000000E+00 -0.34697042814E+01  0.34697042814E+01  0.00000000000E+00 0. -1.
          2    1    1    2  501    0 -0.20325430076E+02  0.26643263966E+01  0.91308382115E+03  0.91331390342E+03  0.00000000000E+00 0. -1.
         21    1    1    2  503  501  0.20325430076E+02 -0.26643263966E+01  0.27961576733E+02  0.34670903021E+02  0.00000000000E+00 0. -1.
</event>
<event>
 4    1  0.2243645E+005  0.2071092E+02  0.7546771E-02  0.1523433E+00
          2   -1    0    0  503    0  0.00000000000E+00  0.00000000000E+00  0.15740203406E+04  0.15740203406E+04  0.00000000000E+00 0. -1.
         21   -1    0    0  501  502 -0.00000000000E+00 -0.00000000000E+00 -0.28341589956E+00  0.28341589956E+00  0.00000000000E+00 0. -1.
          2    1    1    2  501    0 -0.19086947142E+02  0.80393071423E+01  0.63248360029E+03  0.63282260282E+03  0.00000000000E+00 0. -1.
         21    1    1    2  503  502  0.19086947142E+02 -0.80393071423E+01  0.94125332446E+03  0.94148115373E+03  0.00000000000E+00 0. -1.
</event>
<event>
 4    1  0.2243645E+005  0.2719539E+02  0.7546771E-02  0.1445655E+00
          2   -1    0    0  502    0  0.00000000000E+00  0.00000000000E+00  0.12935772820E+04  0.12935772820E+04  0.00000000000E+00 0.  1.
         21   -1    0    0  503  502 -0.00000000000E+00 -0.00000000000E+00 -0.63279950230E+00  0.63279950230E+00  0.00000000000E+00 0.  1.
          2    1    1    2  501    0 -0.21390546868E+02 -0.16793853289E+02  0.84748366731E+03  0.84791989914E+03  0.00000000000E+00 0.  1.
         21    1    1    2  503  501  0.21390546868E+02  0.16793853289E+02  0.44546081520E+03  0.44629018238E+03  0.00000000000E+00 0.  1.
</event>
<event>
 4    1  0.2243645E+005  0.2698993E+02  0.7546771E-02  0.1447709E+00
          2   -1    0    0  502    0  0.00000000000E+00  0.00000000000E+00  0.76989403814E+03  0.76989403814E+03  0.00000000000E+00 0.  1.
         21   -1    0    0  503  502 -0.00000000000E+00 -0.00000000000E+00 -0.44809924456E+01  0.44809924456E+01  0.00000000000E+00 0.  1.
          2    1    1    2  501    0  0.34684106971E+01  0.26766139124E+02  0.72659498718E+03  0.72709609507E+03  0.00000000000E+00 0.  1.
         21    1    1    2  503  501 -0.34684106971E+01 -0.26766139124E+02  0.38818058516E+02  0.47278935514E+02  0.00000000000E+00 0.  1.
</event>
<event>
 4    1  0.2243645E+005  0.2541473E+02  0.7546771E-02  0.1464217E+00
          2   -1    0    0  503    0  0.00000000000E+00  0.00000000000E+00  0.18991078162E+02  0.18991078162E+02  0.00000000000E+00 0. -1.
         21   -1    0    0  501  502 -0.00000000000E+00 -0.00000000000E+00 -0.35335382999E+02  0.35335382999E+02  0.00000000000E+00 0.  1.
          2    1    1    2  501    0 -0.11892883187E+01  0.25386883889E+02 -0.29136772846E+01  0.25581200043E+02  0.00000000000E+00 0. -1.
         21    1    1    2  503  502  0.11892883187E+01 -0.25386883889E+02 -0.13430627553E+02  0.28745261118E+02  0.00000000000E+00 0.  1.
</event>
<event>
 4    1  0.2243645E+005  0.2510756E+02  0.7546771E-02  0.1467604E+00
          2   -1    0    0  503    0  0.00000000000E+00  0.00000000000E+00  0.14649098627E+04  0.14649098627E+04  0.00000000000E+00 0.  1.
         21   -1    0    0  501  502 -0.00000000000E+00 -0.00000000000E+00 -0.11912852385E+01  0.11912852385E+01  0.00000000000E+00 0.  1.
          2    1    1    2  501    0 -0.24096438266E+02  0.70534721132E+01  0.13177364374E+04  0.13179756099E+04  0.00000000000E+00 0.  1.
         21    1    1    2  503  502  0.24096438266E+02 -0.70534721132E+01  0.14598214005E+03  0.14812553804E+03  0.00000000000E+00 0.  1.
</event>
<event>
 4    1  0.2243645E+005  0.2156144E+02  0.7546771E-02  0.1511398E+00
          2   -1    0    0  503    0  0.00000000000E+00  0.00000000000E+00  0.20451157322E+04  0.20451157322E+04  0.00000000000E+00 0. -1.
         21   -1    0    0  501  502 -0.00000000000E+00 -0.00000000000E+00 -0.25541663799E+00  0.25541663799E+00  0.00000000000E+00 0.  1.
          2    1    1    2  501    0 -0.11244890427E+02  0.18396958576E+02  0.13616216518E+04  0.13617923551E+04  0.00000000000E+00 0. -1.
         21    1    1    2  503  502  0.11244890427E+02 -0.18396958576E+02  0.68323866373E+03  0.68357879375E+03  0.00000000000E+00 0.  1.
</event>
<event>
 4    1  0.2243645E+005  0.2376948E+02  0.7546771E-02  0.1483055E+00
          2   -1    0    0  502    0  0.00000000000E+00  0.00000000000E+00  0.41373123927E+02  0.41373123927E+02  0.00000000000E+00 0. -1.
         21   -1    0    0  503  502 -0.00000000000E+00 -0.00000000000E+00 -0.54523457493E+02  0.54523457493E+02  0.00000000000E+00 0.  1.
          2    1    1    2  501    0 -0.25864873102E+01 -0.23628335198E+02  0.34936546842E+02  0.42255774115E+02  0.00000000000E+00 0. -1.
         21    1    1    2  503  501  0.25864873102E+01  0.23628335198E+02 -0.48086880408E+02  0.53640807304E+02  0.00000000000E+00 0.  1.
</event>
<event>
 4    1  0.2243645E+005  0.2420288E+02  0.7546771E-02  0.1477922E+00
          2   -1    0    0  503    0  0.00000000000E+00  0.00000000000E+00  0.85882638519E+02  0.85882638519E+02  0.00000000000E+00 0. -1.
         21   -1    0    0  501  502 -0.00000000000E+00 -0.00000000000E+00 -0.23059475982E+03  0.23059475982E+03  0.00000000000E+00 0. -1.
          2    1    1    2  501    0  0.67834164132E+00 -0.24193369069E+02  0.83524824375E+02  0.86960770127E+02  0.00000000000E+00 0. -1.
         21    1    1    2  503  502 -0.67834164132E+00  0.24193369069E+02 -0.22823694568E+03  0.22951662821E+03  0.00000000000E+00 0. -1.
</event>
<event>
 4    1  0.2243645E+005  0.2106859E+02  0.7546771E-02  0.1518288E+00
          2   -1    0    0  502    0  0.00000000000E+00  0.00000000000E+00  0.17648502996E+04  0.17648502996E+04  0.00000000000E+00 0.  1.
         21   -1    0    0  503  502 -0.00000000000E+00 -0.00000000000E+00 -0.48094076577E+00  0.48094076577E+00  0.00000000000E+00 0. -1.
          2    1    1    2  501    0  0.18412738186E+02 -0.10239957391E+02  0.14918224542E+04  0.14919712197E+04  0.00000000000E+00 0.  1.
         21    1    1    2  503  501 -0.18412738186E+02  0.10239957391E+02  0.27254690462E+03  0.27336002062E+03  0.00000000000E+00 0. -1.
</event>
<event>
 4    1  0.2243645E+005  0.4118820E+02  0.7546771E-02  0.1341660E+00
          2   -1    0    0  502    0  0.00000000000E+00  0.00000000000E+00  0.25725089300E+03  0.25725089300E+03  0.00000000000E+00 0.  1.
         21   -1    0    0  503  502 -0.00000000000E+00 -0.00000000000E+00 -0.69173922949E+01  0.69173922949E+01  0.00000000000E+00 0.  1.
          2    1    1    2  501    0 -0.26126673961E+02  0.31841247636E+02  0.96634410642E+02  0.10504607305E+03  0.00000000000E+00 0.  1.
         21    1    1    2  503  501  0.26126673961E+02 -0.31841247636E+02  0.15369909006E+03  0.15912221224E+03  0.00000000000E+00 0.  1.
</event>
<event>
 4    1  0.2243645E+005  0.2172746E+02  0.7546771E-02  0.1509127E+00
          2   -1    0    0  502    0  0.00000000000E+00  0.00000000000E+00  0.36295537884E+03  0.36295537884E+03  0.00000000000E+00 0.  1.
         21   -1    0    0  503  502 -0.00000000000E+00 -0.00000000000E+00 -0.21944325102E+01  0.21944325102E+01  0.00000000000E+00 0.  1.
          2    1    1    2  501    0 -0.10432586000E+01 -0.21702395153E+02  0.29689844889E+03  0.29769241055E+03  0.00000000000E+00 0.  1.
         21    1    1    2  503  501  0.10432586000E+01  0.21702395153E+02  0.63862497437E+02  0.67457400801E+02  0.00000000000E+00 0.  1.
</event>
<event>
 4    1  0.2243645E+005  0.2247566E+02  0.7546771E-02  0.1499189E+00
          2   -1    0    0  502    0  0.00000000000E+00  0.00000000000E+00  0.80750676556E+03  0.80750676556E+03  0.00000000000E+00 0.  1.
         21   -1    0    0  503  502 -0.00000000000E+00 -0.00000000000E+00 -0.72599071017E+02  0.72599071017E+02  0.00000000000E+00 0. -1.
          2    1    1    2  501    0  0.31785094028E+01  0.22249774780E+02  0.80560673199E+03  0.80592019581E+03  0.00000000000E+00 0.  1.
         21    1    1    2  503  501 -0.31785094028E+01 -0.22249774780E+02 -0.70699037444E+02  0.74185640762E+02  0.00000000000E+00 0. -1.
</event>
<event>
 4    1  0.2243645E+005  0.2500003E+02  0.7546771E-02  0.1468803E+00
          2   -1    0    0  503    0  0.00000000000E+00  0.00000000000E+00  0.25867237474E+04  0.25867237474E+04  0.00000000000E+00 0.  1.
         21   -1    0    0  501  502 -0.00000000000E+00 -0.00000000000E+00 -0.24804562843E+00  0.24804562843E+00  0.00000000000E+00 0.  1.
          2    1    1    2  501    0 -0.17462027655E+02 -0.17890760152E+02  0.15014404525E+04  0.15016485721E+04  0.00000000000E+00 0.  1.
         21    1    1    2  503  502  0.17462027655E+02  0.17890760152E+02  0.10850352492E+04  0.10853232209E+04  0.00000000000E+00 0.  1.
</event>
<event>
 4    1  0.2243645E+005  0.5599340E+02  0.7546771E-02  0.1274089E+00
          2   -1    0    0  502    0  0.00000000000E+00  0.00000000000E+00  0.14791214981E+04  0.14791214981E+04  0.00000000000E+00 0.  1.
         21   -1    0    0  503  502 -0.00000000000E+00 -0.00000000000E+00 -0.33366201813E+01  0.33366201813E+01  0.00000000000E+00 0. -1.
          2    1    1    2  501    0 -0.19587577403E+02 -0.52455577546E+02  0.11855377946E+04  0.11868593527E+04  0.00000000000E+00 0.  1.
         21    1    1    2  503  501  0.19587577403E+02  0.52455577546E+02  0.29024708336E+03  0.29559876556E+03  0.00000000000E+00 0. -1.
</event>
<event>
 4    1  0.2243645E+005  0.3605794E+02  0.7546771E-02  0.1373274E+00
          2   -1    0    0  502    0  0.00000000000E+00  0.00000000000E+00  0.98038707609E+01  0.98038707609E+01  0.00000000000E+00 0.  1.
         21   -1    0    0  503  502 -0.00000000000E+00 -0.00000000000E+00 -0.24600431747E+03  0.24600431747E+03  0.00000000000E+00 0.  1.
          2    1    1    2  501    0 -0.35997824016E+02  0.20813609484E+01 -0.31265724881E+02  0.47725474850E+02  0.00000000000E+00 0.  1.
         21    1    1    2  503  501  0.35997824016E+02 -0.20813609484E+01 -0.20493472183E+03  0.20808271339E+03  0.00000000000E+00 0.  1.
</event>
<event>
 4    1  0.2243645E+005  0.2390875E+02  0.7546771E-02  0.1481392E+00
          2   -1    0    0  502    0  0.00000000000E+00  0.00000000000E+00  0.52741480114E+03  0.52741480114E+03  0.00000000000E+00 0. -1.
         21   -1    0    0  503  502 -0.00000000000E+00 -0.00000000000E+00 -0.31213906921E+01  0.31213906921E+01  0.00000000000E+00 0.  1.
          2    1    1    2  501    0  0.22612505295E+02 -0.77655014237E+01  0.47646840537E+03  0.47706788796E+03  0.00000000000E+00 0. -1.
         21    1    1    2  503  501 -0.22612505295E+02  0.77655014237E+01  0.47825005074E+02  0.53468303867E+02  0.00000000000E+00 0.  1.
</event>
<event>
 4    1  0.2243645E+005  0.2112292E+02  0.7546771E-02  0.1517517E+00
          2   -1    0    0  502    0  0.00000000000E+00  0.00000000000E+00  0.82289537481E+03  0.82289537481E+03  0.00000000000E+00 0.  1.
         21   -1    0    0  503  502 -0.00000000000E+00 -0.00000000000E+00 -0.62068680363E+02  0.62068680363E+02  0.00000000000E+00 0.  1.
          2    1    1    2  501    0 -0.19541057463E+02 -0.80202829452E+01  0.82095847078E+03  0.82123016787E+03  0.00000000000E+00 0.  1.
         21    1    1    2  503  501  0.19541057463E+02  0.80202829452E+01 -0.60131776338E+02  0.63733887304E+02  0.00000000000E+00 0.  1.
</event>
<event>
 4    1  0.2243645E+005  0.5013564E+02  0.7546771E-02  0.1297585E+00
          2   -1    0    0  503    0  0.00000000000E+00  0.00000000000E+00  0.86400870418E+02  0.86400870418E+02  0.00000000000E+00 0. -1.
         21   -1    0    0  501  502 -0.00000000000E+00 -0.00000000000E+00 -0.29390994230E+02  0.29390994230E+02  0.00000000000E+00 0. -1.
          2    1    1    2  501    0  0.45577094858E+02  0.20888049815E+02  0.34343479984E+02  0.60770525900E+02  0.00000000000E+00 0. -1.
         21    1    1    2  503  502 -0.45577094858E+02 -0.20888049815E+02  0.22666396204E+02  0.55021338748E+02  0.00000000000E+00 0. -1.
</event>
<event>
 4    1  0.2243645E+005  0.4666526E+02  0.7546771E-02  0.1313316E+00
          2   -1    0    0  502    0  0.00000000000E+00  0.00000000000E+00  0.21122451382E+03  0.21122451382E+03  0.00000000000E+00 0. -1.
         21   -1    0    0  503  502 -0.00000000000E+00 -0.00000000000E+00 -0.16347848504E+02  0.16347848504E+02  0.00000000000E+00 0.  1.
          2    1    1    2  501    0 -0.45379335703E+02  0.10879428170E+02  0.16659176179E+03  0.17300422296E+03  0.00000000000E+00 0. -1.
         21    1    1    2  503  501  0.45379335703E+02 -0.10879428170E+02  0.28284903527E+02  0.54568139364E+02  0.00000000000E+00 0.  1.
</event>
<event>
 4    1  0.2243645E+005  0.2466883E+02  0.7546771E-02  0.1472542E+00
          2   -1    0    0  503    0  0.00000000000E+00  0.00000000000E+00  0.42762066980E+02  0.42762066980E+02  0.00000000000E+00 0.  1.
         21   -1    0    0  501  502 -0.00000000000E+00 -0.00000000000E+00 -0.11962627075E+03  0.11962627075E+03  0.00000000000E+00 0.  1.
          2    1    1    2  501    0  0.24518264674E+02  0.27213326883E+01  0.37779647154E+02  0.45120424348E+02  0.00000000000E+00 0.  1.
         21    1    1    2  503  502 -0.24518264674E+02 -0.27213326883E+01 -0.11464385092E+03  0.11726791338E+03  0.00000000000E+00 0.  1.
</event>
<event>
 4    1  0.2243645E+005  0.2306421E+02  0.7546771E-02  0.1491693E+00
          2   -1    0    0  502    0  0.00000000000E+00  0.00000000000E+00  0.36188169124E+03  0.36188169124E+03  0.00000000000E+00 0.  1.
         21   -1    0    0  503  502 -0.00000000000E+00 -0.00000000000E+00 -0.22935822289E+02  0.22935822289E+02  0.00000000000E+00 0.  1.
          2    1    1    2  501    0  0.19526831592E+02 -0.12274383647E+02  0.35561377759E+03  0.35636093565E+03  0.00000000000E+00 0.  1.
         21    1    1    2  503  501 -0.19526831592E+02  0.12274383647E+02 -0.16667908641E+02  0.28456577876E+02  0.00000000000E+00 0.  1.
</event>
<event>
 4    1  0.2243645E+005  0.2362257E+02  0.7546771E-02  0.1484825E+00
          2   -1    0    0  502    0  0.00000000000E+00  0.00000000000E+00  0.41011614972E+03  0.41011614972E+03  0.00000000000E+00 0. -1.
         21   -1    0    0  503  502 -0.00000000000E+00 -0.00000000000E+00 -0.16490143457E+01  0.16490143457E+01  0.00000000000E+00 0.  1.
          2    1    1    2  501    0  0.23567023910E+02 -0.16190090666E+01  0.29032815396E+03  0.29128759463E+03  0.00000000000E+00 0. -1.
         21    1    1    2  503  501 -0.23567023910E+02  0.16190090666E+01  0.11813898141E+03  0.12047756943E+03  0.00000000000E+00 0.  1.
</event>
<event>
 4    1  0.2243645E+005  0.4691011E+02  0.7546771E-02  0.1312155E+00
          2   -1    0    0  502    0  0.00000000000E+00  0.00000000000E+00  0.67173316292E+03  0.67173316292E+03  0.00000000000E+00 0.  1.
         21   -1    0    0  503  502 -0.00000000000E+00 -0.00000000000E+00 -0.34609757806E+02  0.34609757806E+02  0.00000000000E+00 0. -1.
          2    1    1    2  501    0 -0.46757611744E+02 -0.37794330634E+01  0.65460324495E+03  0.65628192621E+03  0.00000000000E+00 0.  1.
         21    1    1    2  503  501  0.46757611744E+02  0.37794330634E+01 -0.17479839843E+02  0.50060994509E+02  0.00000000000E+00 0. -1.
</event>
<event>
 4    1  0.2243645E+005  0.2063137E+02  0.7546771E-02  0.1524594E+00
          2   -1    0    0  502    0  0.00000000000E+00  0.00000000000E+00  0.45857464358E+02  0.45857464358E+02  0.00000000000E+00 0. -1.
         21   -1    0    0  503  502 -0.00000000000E+00 -0.00000000000E+00 -0.39157309855E+02  0.39157309855E+02  0.00000000000E+00 0.  1.
          2    1    1    2  501    0 -0.19508818016E+02  0.67126399219E+01  0.40479096465E+02  0.45433586318E+02  0.00000000000E+00 0. -1.
         21    1    1    2  503  501  0.19508818016E+02 -0.67126399219E+01 -0.33778941962E+02  0.39581187895E+02  0.00000000000E+00 0.  1.
</event>
<event>
 4    1  0.2243645E+005  0.2187150E+02  0.7546771E-02  0.1507177E+00
          2   -1    0    0  502    0  0.00000000000E+00  0.00000000000E+00  0.23858748686E+02  0.23858748686E+02  0.00000000000E+00 0. -1.
         21   -1    0    0  503  502 -0.00000000000E+00 -0.00000000000E+00 -0.30107035758E+02  0.30107035758E+02  0.00000000000E+00 0. -1.
          2    1    1    2  501    0 -0.21644398699E+02 -0.31436450694E+01  0.12471180186E+02  0.25177228493E+02  0.00000000000E+00 0. -1.
         21    1    1    2  503  501  0.21644398699E+02  0.31436450694E+01 -0.18719467258E+02  0.28788555951E+02  0.00000000000E+00 0. -1.
</event>
<event>
 4    1  0.2243645E+005  0.2530958E+02  0.7546771E-02  0.1465370E+00
          2   -1    0    0  502    0  0.00000000000E+00  0.00000000000E+00  0.33958283228E+03  0.33958283228E+03  0.00000000000E+00 0.  1.
         21   -1    0    0  503  502 -0.00000000000E+00 -0.00000000000E+00 -0.13731237807E+02  0.13731237807E+02  0.00000000000E+00 0. -1.
          2    1    1    2  501    0  0.12515786904E+02  0.21998405401E+02  0.32700042344E+03  0.32797843174E+03  0.00000000000E+00 0.  1.
         21    1    1    2  503  501 -0.12515786904E+02 -0.21998405401E+02 -0.11488289675E+01  0.25335638338E+02  0.00000000000E+00 0. -1.
</event>
<event>
 4    1  0.2243645E+005  0.3291219E+02  0.7546771E-02  0.1395867E+00
          2   -1    0    0  503    0  0.00000000000E+00  0.00000000000E+00  0.17981293722E+04  0.17981293722E+04  0.00000000000E+00 0.  1.
         21   -1    0    0  501  502 -0.00000000000E+00 -0.00000000000E+00 -0.52581244153E+01  0.52581244153E+01  0.00000000000E+00 0. -1.
          2    1    1    2  501    0  0.89386211884E+01 -0.31675117581E+02  0.17449061731E+04  0.17452165381E+04  0.00000000000E+00 0.  1.
         21    1    1    2  503  502 -0.89386211884E+01  0.31675117581E+02  0.47965074703E+02  0.58170958508E+02  0.00000000000E+00 0. -1.
</event>
<event>
 4    1  0.2243645E+005  0.2858284E+02  0.7546771E-02  0.1432325E+00
          2   -1    0    0  503    0  0.00000000000E+00  0.00000000000E+00  0.22190269629E+03  0.22190269629E+03  0.00000000000E+00 0.  1.
         21   -1    0    0  501  502 -0.00000000000E+00 -0.00000000000E+00 -0.51128756751E+01  0.51128756751E+01  0.00000000000E+00 0. -1.
          2    1    1    2  501    0  0.46028438771E+01 -0.28209799345E+02  0.16844859375E+03  0.17085639492E+03  0.00000000000E+00 0.  1.
         21    1    1    2  503  502 -0.46028438771E+01  0.28209799345E+02  0.48341226866E+02  0.56159177039E+02  0.00000000000E+00 0. -1.
</event>
<event>
 4    1  0.2243645E+005  0.2106566E+02  0.7546771E-02  0.1518329E+00
          2   -1    0    0  502    0  0.00000000000E+00  0.00000000000E+00  0.68357572916E+03  0.68357572916E+03  0.00000000000E+00 0.  1.
         21   -1    0    0  503  502 -0.00000000000E+00 -0.00000000000E+00 -0.17594284413E+01  0.17594284413E+01  0.00000000000E+00 0. -1.
          2    1    1    2  501    0 -0.20468008910E+02 -0.49822333403E+01  0.61311419894E+03  0.61347598402E+03  0.00000000000E+00 0.  1.
         21    1    1    2  503  501  0.20468008910E+02  0.49822333403E+01  0.68702101784E+02  0.71859173578E+02  0.00000000000E+00 0. -1.
</event>
<event>
 4    1  0.2243645E+005  0.2377325E+02  0.7546771E-02  0.1483010E+00
          2   -1    0    0  503    0  0.00000000000E+00  0.00000000000E+00  0.26347559389E+03  0.26347559389E+03  0.00000000000E+00 0. -1.
         21   -1    0    0  501  502 -0.00000000000E+00 -0.00000000000E+00 -0.50433417408E+01  0.50433417408E+01  0.00000000000E+00 0. -1.
          2    1    1    2  501    0 -0.20871979670E+02 -0.11381032095E+02  0.23099485599E+03  0.23221496705E+03  0.00000000000E+00 0. -1.
         21    1    1    2  503  502  0.20871979670E+02  0.11381032095E+02  0.27437396158E+02  0.36303968583E+02  0.00000000000E+00 0. -1.
</event>
<event>
 4    1  0.2243645E+005  0.2611147E+02  0.7546771E-02  0.1456744E+00
          2   -1    0    0  502    0  0.00000000000E+00  0.00000000000E+00  0.13931144100E+04  0.13931144100E+04  0.00000000000E+00 0. -1.
         21   -1    0    0  503  502 -0.00000000000E+00 -0.00000000000E+00 -0.16136211300E+03  0.16136211300E+03  0.00000000000E+00 0. -1.
          2    1    1    2  501    0 -0.42526860481E+01  0.25762828902E+02  0.13919348283E+04  0.13921797207E+04  0.00000000000E+00 0. -1.
         21    1    1    2  503  501  0.42526860481E+01 -0.25762828902E+02 -0.16018253128E+03  0.16229680225E+03  0.00000000000E+00 0. -1.
</event>
<event>
 4    1  0.2243645E+005  0.2429314E+02  0.7546771E-02  0.1476869E+00
          2   -1    0    0  502    0  0.00000000000E+00  0.00000000000E+00  0.87211975573E+02  0.87211975573E+02  0.00000000000E+00 0.  1.
         21   -1    0    0  503  502 -0.00000000000E+00 -0.00000000000E+00 -0.25987824890E+02  0.25987824890E+02  0.00000000000E+00 0.  1.
          2    1    1    2  501    0 -0.24190772281E+02 -0.22278325909E+01  0.79288378087E+02  0.82926495171E+02  0.00000000000E+00 0.  1.
         21    1    1    2  503  501  0.24190772281E+02  0.22278325909E+01 -0.18064227404E+02  0.30273305292E+02  0.00000000000E+00 0.  1.
</event>
<event>
 4    1  0.2243645E+005  0.2090464E+02  0.7546771E-02  0.1520631E+00
          2   -1    0    0  502    0  0.00000000000E+00  0.00000000000E+00  0.22513820300E+02  0.22513820300E+02  0.00000000000E+00 0.  1.
         21   -1    0    0  503  502 -0.00000000000E+00 -0.00000000000E+00 -0.10978184358E+03  0.10978184358E+03  0.00000000000E+00 0. -1.
          2    1    1    2  501    0  0.19243422798E+02 -0.81666690993E+01  0.16381815947E+02  0.26558759363E+02  0.00000000000E+00 0.  1.
         21    1    1    2  503  501 -0.19243422798E+02  0.81666690993E+01 -0.10364983923E+03  0.10573690452E+03  0.00000000000E+00 0. -1.
</event>
<event>
 4    1  0.2243645E+005  0.4007946E+02  0.7546771E-02  0.1348021E+00
          2   -1    0    0  502    0  0.00000000000E+00  0.00000000000E+00  0.29997260569E+04  0.29997260569E+04  0.00000000000E+00 0. -1.
         21   -1    0    0  503  502 -0.00000000000E+00 -0.00000000000E+00 -0.69046635536E+00  0.69046635536E+00  0.00000000000E+00 0.  1.
          2    1    1    2  501    0 -0.38572060057E+02  0.10888475489E+02  0.22102313607E+04  0.22105947233E+04  0.00000000000E+00 0. -1.
         21    1    1    2  503  501  0.38572060057E+02 -0.10888475489E+02  0.78880422982E+03  0.78982179996E+03  0.00000000000E+00 0.  1.
</event>
<event>
 4    1  0.2243645E+005  0.2356299E+02  0.7546771E-02  0.1485547E+00
          2   -1    0    0  502    0  0.00000000000E+00  0.00000000000E+00  0.18520675312E+04  0.18520675312E+04  0.00000000000E+00 0. -1.
         21   -1    0    0  503  502 -0.00000000000E+00 -0.00000000000E+00 -0.49183529534E+00  0.49183529534E+00  0.00000000000E+00 0. -1.
          2    1    1    2  501    0  0.18412909916E+02 -0.14703033797E+02  0.15046090468E+04  0.15047935400E+04  0.00000000000E+00 0. -1.
         21    1    1    2  503  501 -0.18412909916E+02  0.14703033797E+02  0.34696664908E+03  0.34776582643E+03  0.00000000000E+00 0. -1.
</event>
<event>
 4    1  0.2243645E+005  0.2193601E+02  0.7546771E-02  0.1506309E+00
          2   -1    0    0  503    0  0.00000000000E+00  0.00000000000E+00  0.29127706182E+03  0.29127706182E+03  0.00000000000E+00 0. -1.
         21   -1    0    0  501  502 -0.00000000000E+00 -0.00000000000E+00 -0.18718823731E+01  0.18718823731E+01  0.00000000000E+00 0. -1.
          2    1    1    2  501    0 -0.10154094584E+02 -0.19444357767E+02  0.19493889934E+03  0.19616922073E+03  0.00000000000E+00 0. -1.
         21    1    1    2  503  502  0.10154094584E+02  0.19444357767E+02  0.94466280107E+02  0.96979723464E+02  0.00000000000E+00 0. -1.
</event>
<event>
 4    1  0.2243645E+005  0.2016314E+02  0.7546771E-02  0.1531556E+00
          2   -1    0    0  503    0  0.00000000000E+00  0.00000000000E+00  0.59897255673E+01  0.59897255673E+01  0.00000000000E+00 0. -1.
         21   -1    0    0  501  502 -0.00000000000E+00 -0.00000000000E+00 -0.51803886078E+03  0.51803886078E+03  0.00000000000E+00 0.  1.
          2    1    1    2  501    0 -0.80216704858E+01 -0.18498789307E+02 -0.11777620265E+02  0.23350904529E+02  0.00000000000E+00 0. -1.
         21    1    1    2  503  502  0.80216704858E+01  0.18498789307E+02 -0.50027151495E+03  0.50067768182E+03  0.00000000000E+00 0.  1.
</event>
<event>
 4    1  0.2243645E+005  0.2513586E+02  0.7546771E-02  0.1467289E+00
          2   -1    0    0  503    0  0.00000000000E+00  0.00000000000E+00  0.14266976486E+04  0.14266976486E+04  0.00000000000E+00 0.  1.
         21   -1    0    0  501  502 -0.00000000000E+00 -0.00000000000E+00 -0.68114303671E+01  0.68114303671E+01  0.00000000000E+00 0.  1.
          2    1    1    2  501    0  0.14872712984E+02  0.20263607425E+02  0.14030060043E+04  0.14032311497E+04  0.00000000000E+00 0.  1.
         21    1    1    2  503  502 -0.14872712984E+02 -0.20263607425E+02  0.16880213891E+02  0.30277929228E+02  0.00000000000E+00 0.  1.
</event>
<event>
 4    1  0.2243645E+005  0.2685466E+02  0.7546771E-02  0.1449074E+00
          2   -1    0    0  503    0  0.00000000000E+00  0.00000000000E+00  0.62136160246E+01  0.62136160246E+01  0.00000000000E+00 0.  1.
         21   -1    0    0  501  502 -0.00000000000E+00 -0.00000000000E+00 -0.13749507924E+03  0.13749507924E+03  0.00000000000E+00 0. -1.
          2    1    1    2  501    0  0.62611460168E+01 -0.26114575044E+02 -0.94009355072E+02  0.97769789916E+02  0.00000000000E+00 0.  1.
         21    1    1    2  503  502 -0.62611460168E+01  0.26114575044E+02 -0.37272108145E+02  0.45938905350E+02  0.00000000000E+00 0. -1.
</event>
<event>
 4    1  0.2243645E+005  0.2011622E+02  0.7546771E-02  0.1532266E+00
          2   -1    0    0  502    0  0.00000000000E+00  0.00000000000E+00  0.10254635727E+03  0.10254635727E+03  0.00000000000E+00 0.  1.
         21   -1    0    0  503  502 -0.00000000000E+00 -0.00000000000E+00 -0.94651709351E+02  0.94651709351E+02  0.00000000000E+00 0. -1.
          2    1    1    2  501    0 -0.18610288928E+02 -0.76367304265E+01  0.10046912076E+03  0.10246319696E+03  0.00000000000E+00 0.  1.
         21    1    1    2  503  501  0.18610288928E+02  0.76367304265E+01 -0.92574472846E+02  0.94734869654E+02  0.00000000000E+00 0. -1.
</event>
<event>
 4    1  0.2243645E+005  0.7262001E+02  0.7546771E-02  0.1222102E+00
          2   -1    0    0  503    0  0.00000000000E+00  0.00000000000E+00  0.60031695572E+02  0.60031695572E+02  0.00000000000E+00 0.  1.
         21   -1    0    0  501  502 -0.00000000000E+00 -0.00000000000E+00 -0.24908371049E+03  0.24908371049E+03  0.00000000000E+00 0. -1.
          2    1    1    2  501    0 -0.55360292703E+02  0.46998980977E+02  0.29824788171E+02  0.78505950159E+02  0.00000000000E+00 0.  1.
         21    1    1    2  503  502  0.55360292703E+02 -0.46998980977E+02 -0.21887680309E+03  0.23060945590E+03  0.00000000000E+00 0. -1.
</event>
<event>
 4    1  0.2243645E+005  0.2927939E+02  0.7546771E-02  0.1425964E+00
          2   -1    0    0  503    0  0.00000000000E+00  0.00000000000E+00  0.15202508716E+02  0.15202508716E+02  0.00000000000E+00 0. -1.
         21   -1    0    0  501  502 -0.00000000000E+00 -0.00000000000E+00 -0.13181356150E+04  0.13181356150E+04  0.00000000000E+00 0.  1.
          2    1    1    2  501    0  0.68679811001E+01  0.28462497768E+02  0.78632401995E+00  0.29289951332E+02  0.00000000000E+00 0. -1.
         21    1    1    2  503  502 -0.68679811001E+01 -0.28462497768E+02 -0.13037194303E+04  0.13040481724E+04  0.00000000000E+00 0.  1.
</event>
<event>
 4    1  0.2243645E+005  0.2858029E+02  0.7546771E-02  0.1432349E+00
          2   -1    0    0  503    0  0.00000000000E+00  0.00000000000E+00  0.58350793601E+03  0.58350793601E+03  0.00000000000E+00 0. -1.
         21   -1    0    0  501  502 -0.00000000000E+00 -0.00000000000E+00 -0.17942208093E+01  0.17942208093E+01  0.00000000000E+00 0. -1.
          2    1    1    2  501    0  0.27910960879E+02 -0.61490949136E+01  0.42805732166E+03  0.42901037718E+03  0.00000000000E+00 0. -1.
         21    1    1    2  503  502 -0.27910960879E+02  0.61490949136E+01  0.15365639355E+03  0.15629177964E+03  0.00000000000E+00 0. -1.
</event>
<event>
 4    1  0.2243645E+005  0.2871573E+02  0.7546771E-02  0.1431095E+00
          2   -1    0    0  502    0  0.00000000000E+00  0.00000000000E+00  0.10103155945E+03  0.10103155945E+03  0.00000000000E+00 0.  1.
         21   -1    0    0  503  502 -0.00000000000E+00 -0.00000000000E+00 -0.12272798480E+02  0.12272798480E+02  0.00000000000E+00 0.  1.
          2    1    1    2  501    0  0.20989949364E+00  0.28714967333E+02  0.77167884235E+02  0.82337572007E+02  0.00000000000E+00 0.  1.
         21    1    1    2  503  501 -0.20989949364E+00 -0.28714967333E+02  0.11590876730E+02  0.30966785918E+02  0.00000000000E+00 0.  1.
</event>
<event>
 4    1  0.2243645E+005  0.2481306E+02  0.7546771E-02  0.1470906E+00
          2   -1    0    0  503    0  0.00000000000E+00  0.00000000000E+00  0.16468673193E+04  0.16468673193E+04  0.00000000000E+00 0.  1.
         21   -1    0    0  501  502 -0.00000000000E+00 -0.00000000000E+00 -0.74108150604E+01  0.74108150604E+01  0.00000000000E+00 0. -1.
          2    1    1    2  501    0 -0.22720250183E+02  0.99738767239E+01  0.16257339631E+04  0.16259233090E+04  0.00000000000E+00 0.  1.
         21    1    1    2  503  502  0.22720250183E+02 -0.99738767239E+01  0.13722541126E+02  0.28354825343E+02  0.00000000000E+00 0. -1.
</event>
<event>
 4    1  0.2243645E+005  0.2462846E+02  0.7546771E-02  0.1473003E+00
          2   -1    0    0  503    0  0.00000000000E+00  0.00000000000E+00  0.20994479455E+03  0.20994479455E+03  0.00000000000E+00 0.  1.
         21   -1    0    0  501  502 -0.00000000000E+00 -0.00000000000E+00 -0.48963366445E+01  0.48963366445E+01  0.00000000000E+00 0.  1.
          2    1    1    2  501    0 -0.18301960545E+02 -0.16480264682E+02  0.17130170843E+03  0.17306309888E+03  0.00000000000E+00 0.  1.
         21    1    1    2  503  502  0.18301960545E+02  0.16480264682E+02  0.33746749478E+02  0.41778032315E+02  0.00000000000E+00 0.  1.
</event>
<event>
 4    1  0.2243645E+005  0.2742838E+02  0.7546771E-02  0.1443352E+00
          2   -1    0    0  503    0  0.00000000000E+00  0.00000000000E+00  0.34711275542E+03  0.34711275542E+03  0.00000000000E+00 0. -1.
         21   -1    0    0  501  502 -0.00000000000E+00 -0.00000000000E+00 -0.29095341846E+02  0.29095341846E+02  0.00000000000E+00 0. -1.
          2    1    1    2  501    0  0.18689742285E+02  0.20075103781E+02  0.33997111263E+03  0.34107575945E+03  0.00000000000E+00 0. -1.
         21    1    1    2  503  502 -0.18689742285E+02 -0.20075103781E+02 -0.21953699056E+02  0.35132337821E+02  0.00000000000E+00 0. -1.
</event>
<event>
 4    1  0.2243645E+005  0.2722145E+02  0.7546771E-02  0.1445396E+00
          2   -1    0    0  503    0  0.00000000000E+00  0.00000000000E+00  0.18419498579E+04  0.18419498579E+04  0.00000000000E+00 0. -1.
         21   -1    0    0  501  502 -0.00000000000E+00 -0.00000000000E+00 -0.14838269542E+01  0.14838269542E+01  0.00000000000E+00 0.  1.
          2    1    1    2  501    0  0.48615777116E+00  0.27217106259E+02  0.17071439364E+04  0.17073609539E+04  0.00000000000E+00 0. -1.
         21    1    1    2  503  502 -0.48615777116E+00 -0.27217106259E+02  0.13332209452E+03  0.13607273096E+03  0.00000000000E+00 0.  1.
</event>
<event>
 4    1  0.2243645E+005  0.2957171E+02  0.7546771E-02  0.1423355E+00
          2   -1    0    0  502    0  0.00000000000E+00  0.00000000000E+00  0.87912396674E+01  0.87912396674E+01  0.00000000000E+00 0. -1.
         21   -1    0    0  503  502 -0.00000000000E+00 -0.00000000000E+00 -0.14793606079E+03  0.14793606079E+03  0.00000000000E+00 0. -1.
          2    1    1    2  501    0 -0.19851239829E+01 -0.29505000377E+02 -0.24720007929E+02  0.38543022151E+02  0.00000000000E+00 0. -1.
         21    1    1    2  503  501  0.19851239829E+01  0.29505000377E+02 -0.11442481319E+03  0.11818427831E+03  0.00000000000E+00 0. -1.
</event>
<event>
 4    1  0.2243645E+005  0.2104589E+02  0.7546771E-02  0.1518611E+00
          2   -1    0    0  503    0  0.00000000000E+00  0.00000000000E+00  0.38782817119E+02  0.38782817119E+02  0.00000000000E+00 0.  1.
         21   -1    0    0  501  502 -0.00000000000E+00 -0.00000000000E+00 -0.27881248938E+02  0.27881248938E+02  0.00000000000E+00 0.  1.
          2    1    1    2  501    0 -0.17986328378E+02  0.10928019196E+02  0.31061807477E+02  0.37520201170E+02  0.00000000000E+00 0.  1.
         21    1    1    2  503  502  0.17986328378E+02 -0.10928019196E+02 -0.20160239297E+02  0.29143864887E+02  0.00000000000E+00 0.  1.
</event>
<event>
 4    1  0.2243645E+005  0.2592734E+02  0.7546771E-02  0.1458691E+00
          2   -1    0    0  502    0  0.00000000000E+00  0.00000000000E+00  0.33186602810E+03  0.33186602810E+03  0.00000000000E+00 0. -1.
         21   -1    0    0  503  502 -0.00000000000E+00 -0.00000000000E+00 -0.27927700889E+01  0.27927700889E+01  0.00000000000E+00 0. -1.
          2    1    1    2  501    0  0.24273685809E+02  0.91112724558E+01  0.25223693376E+03  0.25356596353E+03  0.00000000000E+00 0. -1.
         21    1    1    2  503  501 -0.24273685809E+02 -0.91112724558E+01  0.76836324249E+02  0.81092834657E+02  0.00000000000E+00 0. -1.
</event>
<event>
 4    1  0.2243645E+005  0.2974425E+02  0.7546771E-02  0.1421832E+00
          2   -1    0    0  503    0  0.00000000000E+00  0.00000000000E+00  0.32512860553E+03  0.32512860553E+03  0.00000000000E+00 0. -1.
         21   -1    0    0  501  502 -0.00000000000E+00 -0.00000000000E+00 -0.11986605921E+03  0.11986605921E+03  0.00000000000E+00 0.  1.
          2    1    1    2  501    0 -0.10526630220E+02  0.27819250142E+02  0.32258859456E+03  0.32395697548E+03  0.00000000000E+00 0. -1.
         21    1    1    2  503  502  0.10526630220E+02 -0.27819250142E+02 -0.11732604825E+03  0.12103768926E+03  0.00000000000E+00 0.  1.
</event>
<event>
 4    1  0.2243645E+005  0.2259791E+02  0.7546771E-02  0.1497610E+00
          2   -1    0    0  503    0  0.00000000000E+00  0.00000000000E+00  0.17310779067E+03  0.17310779067E+03  0.00000000000E+00 0. -1.
         21   -1    0    0  501  502 -0.00000000000E+00 -0.00000000000E+00 -0.14111723787E+02  0.14111723787E+02  0.00000000000E+00 0. -1.
          2    1    1    2  501    0  0.20550351719E+02  0.93994006773E+01  0.16275047492E+03  0.16431184612E+03  0.00000000000E+00 0. -1.
         21    1    1    2  503  502 -0.20550351719E+02 -0.93994006773E+01 -0.37544080371E+01  0.22907668336E+02  0.00000000000E+00 0. -1.
</event>
<event>
 4    1  0.2243645E+005  0.2148051E+02  0.7546771E-02  0.1512514E+00
          2   -1    0    0  503    0  0.00000000000E+00  0.00000000000E+00  0.91203358720E+03  0.91203358720E+03  0.00000000000E+00 0.  1.
         21   -1    0    0  501  502 -0.00000000000E+00 -0.00000000000E+00 -0.24019094317E+02  0.24019094317E+02  0.00000000000E+00 0. -1.
          2    1    1    2  501    0 -0.38544097901E+00 -0.21477047005E+02  0.90707832085E+03  0.90733262494E+03  0.00000000000E+00 0.  1.
         21    1    1    2  503  502  0.38544097901E+00  0.21477047005E+02 -0.19063827973E+02  0.28720056577E+02  0.00000000000E+00 0. -1.
</event>
<event>
 4    1  0.2243645E+005  0.2244862E+02  0.7546771E-02  0.1499540E+00
          2   -1    0    0  502    0  0.00000000000E+00  0.00000000000E+00  0.61826052010E+02  0.61826052010E+02  0.00000000000E+00 0. -1.
         21   -1    0    0  503  502 -0.00000000000E+00 -0.00000000000E+00 -0.81893910648E+01  0.81893910648E+01  0.00000000000E+00 0. -1.
          2    1    1    2  501    0 -0.21341010689E+02  0.69643350142E+01  0.29216989753E+02  0.36845260070E+02  0.00000000000E+00 0. -1.
         21    1    1    2  503  501  0.21341010689E+02 -0.69643350142E+01  0.24419671192E+02  0.33170183005E+02  0.00000000000E+00 0. -1.
</event>
<event>
 4    1  0.2243645E+005  0.3079730E+02  0.7546771E-02  0.1412792E+00
          2   -1    0    0  502    0  0.00000000000E+00  0.00000000000E+00  0.28238347368E+03  0.28238347368E+03  0.00000000000E+00 0.  1.
         21   -1    0    0  503  502 -0.00000000000E+00 -0.00000000000E+00 -0.11678178986E+02  0.11678178986E+02  0.00000000000E+00 0. -1.
          2    1    1    2  501    0  0.24185928227E+02 -0.19066052213E+02  0.25945097589E+03  0.26127242939E+03  0.00000000000E+00 0.  1.
         21    1    1    2  503  501 -0.24185928227E+02  0.19066052213E+02  0.11254318809E+02  0.32789223276E+02  0.00000000000E+00 0. -1.
</event>
<event>
 4    1  0.2243645E+005  0.2505740E+02  0.7546771E-02  0.1468162E+00
          2   -1    0    0  502    0  0.00000000000E+00  0.00000000000E+00  0.13450079818E+04  0.13450079818E+04  0.00000000000E+00 0.  1.
         21   -1    0    0  503  502 -0.00000000000E+00 -0.00000000000E+00 -0.22496066131E+03  0.22496066131E+03  0.00000000000E+00 0. -1.
          2    1    1    2  501    0  0.20753064104E+01  0.24971310238E+02  0.13441930955E+04  0.13444266255E+04  0.00000000000E+00 0.  1.
         21    1    1    2  503  501 -0.20753064104E+01 -0.24971310238E+02 -0.22414577506E+03  0.22554201761E+03  0.00000000000E+00 0. -1.
</event>
<event>
 4    1  0.2243645E+005  0.2858173E+02  0.7546771E-02  0.1432335E+00
          2   -1    0    0  503    0  0.00000000000E+00  0.00000000000E+00  0.26349582479E+02  0.26349582479E+02  0.00000000000E+00 0. -1.
         21   -1    0    0  501  502 -0.00000000000E+00 -0.00000000000E+00 -0.88921457862E+02  0.88921457862E+02  0.00000000000E+00 0.  1.
          2    1    1    2  501    0  0.25235832406E+02  0.13418943245E+02  0.15229331970E+02  0.32385920201E+02  0.00000000000E+00 0. -1.
         21    1    1    2  503  502 -0.25235832406E+02 -0.13418943245E+02 -0.77801207353E+02  0.82885120140E+02  0.00000000000E+00 0.  1.
</event>
<event>
 4    1  0.2243645E+005  0.1202323E+03  0.7546771E-02  0.1132742E+00
          2   -1    0    0  503    0  0.00000000000E+00  0.00000000000E+00  0.13702069253E+04  0.13702069253E+04  0.00000000000E+00 0.  1.
         21   -1    0    0  501  502 -0.00000000000E+00 -0.00000000000E+00 -0.12967221163E+02  0.12967221163E+02  0.00000000000E+00 0.  1.
          2    1    1    2  501    0  0.14042130747E+02 -0.11940947191E+03  0.97720878796E+03  0.98457748232E+03  0.00000000000E+00 0.  1.
         21    1    1    2  503  502 -0.14042130747E+02  0.11940947191E+03  0.38003091614E+03  0.39859666411E+03  0.00000000000E+00 0.  1.
</event>
<event>
 4    1  0.2243645E+005  0.2440973E+02  0.7546771E-02  0.1475516E+00
          2   -1    0    0  503    0  0.00000000000E+00  0.00000000000E+00  0.20019163718E+03  0.20019163718E+03  0.00000000000E+00 0. -1.
         21   -1    0    0  501  502 -0.00000000000E+00 -0.00000000000E+00 -0.77482243299E+02  0.77482243299E+02  0.00000000000E+00 0. -1.
          2    1    1    2  501    0 -0.13581698592E+02 -0.20282313710E+02  0.19749895682E+03  0.19900169027E+03  0.00000000000E+00 0. -1.
         21    1    1    2  503  502  0.13581698592E+02  0.20282313710E+02 -0.74789562943E+02  0.78672190203E+02  0.00000000000E+00 0. -1.
</event>
<event>
 4    1  0.2243645E+005  0.2075792E+02  0.7546771E-02  0.1522749E+00
          2   -1    0    0  503    0  0.00000000000E+00  0.00000000000E+00  0.11057919863E+04  0.11057919863E+04  0.00000000000E+00 0. -1.
         21   -1    0    0  501  502 -0.00000000000E+00 -0.00000000000E+00 -0.13310088029E+01  0.13310088029E+01  0.00000000000E+00 0. -1.
          2    1    1    2  501    0 -0.15889483671E+02 -0.13357224611E+02  0.10177618905E+04  0.10179735542E+04  0.00000000000E+00 0. -1.
         21    1    1    2  503  502  0.15889483671E+02  0.13357224611E+02  0.86699086964E+02  0.89149440947E+02  0.00000000000E+00 0. -1.
</event>
<event>
 4    1  0.2243645E+005  0.2013352E+02  0.7546771E-02  0.1532004E+00
          2   -1    0    0  503    0  0.00000000000E+00  0.00000000000E+00  0.91717338385E+03  0.91717338385E+03  0.00000000000E+00 0. -1.
         21   -1    0    0  501  502 -0.00000000000E+00 -0.00000000000E+00 -0.51925162058E+00  0.51925162058E+00  0.00000000000E+00 0.  1.
          2    1    1    2  501    0 -0.17716368975E+02 -0.95649827731E+01  0.63535027226E+03  0.63566919627E+03  0.00000000000E+00 0. -1.
         21    1    1    2  503  502  0.17716368975E+02  0.95649827731E+01  0.28130385997E+03  0.28202343920E+03  0.00000000000E+00 0.  1.
</event>
<event>
 4    1  0.2243645E+005  0.2913667E+02  0.7546771E-02  0.1427250E+00
          2   -1    0    0  503    0  0.00000000000E+00  0.00000000000E+00  0.30400558399E+03  0.30400558399E+03  0.00000000000E+00 0. -1.
         21   -1    0    0  501  502 -0.00000000000E+00 -0.00000000000E+00 -0.64239758422E+01  0.64239758422E+01  0.00000000000E+00 0. -1.
          2    1    1    2  501    0 -0.28261110962E+02 -0.70890818161E+01  0.26549077831E+03  0.26708481582E+03  0.00000000000E+00 0. -1.
         21    1    1    2  503  502  0.28261110962E+02  0.70890818161E+01  0.32090829836E+02  0.43344744010E+02  0.00000000000E+00 0. -1.
</event>
<event>
 4    1  0.2243645E+005  0.2879519E+02  0.7546771E-02  0.1430363E+00
          2   -1    0    0  502    0  0.00000000000E+00  0.00000000000E+00  0.33034815525E+03  0.33034815525E+03  0.00000000000E+00 0.  1.
         21   -1    0    0  503  502 -0.00000000000E+00 -0.00000000000E+00 -0.52852178983E+01  0.52852178983E+01  0.00000000000E+00 0.  1.
          2    1    1    2  501    0 -0.28657389135E+02 -0.28137531436E+01  0.28413740452E+03  0.28559276567E+03  0.00000000000E+00 0.  1.
         21    1    1    2  503  501  0.28657389135E+02  0.28137531436E+01  0.40925532838E+02  0.50040607479E+02  0.00000000000E+00 0.  1.
</event>
<event>
 4    1  0.2243645E+005  0.4377351E+02  0.7546771E-02  0.1327687E+00
          2   -1    0    0  503    0  0.00000000000E+00  0.00000000000E+00  0.38339497878E+03  0.38339497878E+03  0.00000000000E+00 0. -1.
         21   -1    0    0  501  502 -0.00000000000E+00 -0.00000000000E+00 -0.52321276309E+01  0.52321276309E+01  0.00000000000E+00 0. -1.
          2    1    1    2  501    0  0.38982177115E+02 -0.19912565398E+02  0.23020608758E+03  0.23433088390E+03  0.00000000000E+00 0. -1.
         21    1    1    2  503  502 -0.38982177115E+02  0.19912565398E+02  0.14795676357E+03  0.15429622250E+03  0.00000000000E+00 0. -1.
</event>
<event>
 4    1  0.2243645E+005  0.3723877E+02  0.7546771E-02  0.1365473E+00
          2   -1    0    0  502    0  0.00000000000E+00  0.00000000000E+00  0.12924343909E+03  0.12924343909E+03  0.00000000000E+00 0. -1.
         21   -1    0    0  503  502 -0.00000000000E+00 -0.00000000000E+00 -0.63438831403E+02  0.63438831403E+02  0.00000000000E+00 0. -1.
          2    1    1    2  501    0  0.33635094001E+02  0.15981430555E+02  0.12071911546E+03  0.12633222276E+03  0.00000000000E+00 0. -1.
         21    1    1    2  503  501 -0.33635094001E+02 -0.15981430555E+02 -0.54914507767E+02  0.66350047734E+02  0.00000000000E+00 0. -1.
</event>
<event>
 4    1  0.2243645E+005  0.2102225E+02  0.7546771E-02  0.1518947E+00
          2   -1    0    0  503    0  0.00000000000E+00  0.00000000000E+00  0.63609113445E+03  0.63609113445E+03  0.00000000000E+00 0. -1.
         21   -1    0    0  501  502 -0.00000000000E+00 -0.00000000000E+00 -0.17533635397E+01  0.17533635397E+01  0.00000000000E+00 0.  1.
          2    1    1    2  501    0 -0.84408349532E+01 -0.19253236468E+02  0.56497622808E+03  0.56536720201E+03  0.00000000000E+00 0. -1.
         21    1    1    2  503  502  0.84408349532E+01  0.19253236468E+02  0.69361542826E+02  0.72477295978E+02  0.00000000000E+00 0.  1.
</event>
<event>
 4    1  0.2243645E+005  0.2532289E+02  0.7546771E-02  0.1465223E+00
          2   -1    0    0  503    0  0.00000000000E+00  0.00000000000E+00  0.90921623160E+00  0.90921623160E+00  0.00000000000E+00 0.  1.
         21   -1    0    0  501  502 -0.00000000000E+00 -0.00000000000E+00 -0.17830590507E+04  0.17830590507E+04  0.00000000000E+00 0.  1.
          2    1    1    2  501    0 -0.22490481585E+02  0.11637300361E+02 -0.19758538338E+03  0.19920148656E+03  0.00000000000E+00 0.  1.
         21    1    1    2  503  502  0.22490481585E+02 -0.11637300361E+02 -0.15845644511E+04  0.15847667804E+04  0.00000000000E+00 0.  1.
</event>
<event>
 4    1  0.2243645E+005  0.2262082E+02  0.7546771E-02  0.1497315E+00
          2   -1    0    0  502    0  0.00000000000E+00  0.00000000000E+00  0.36667816225E+03  0.36667816225E+03  0.00000000000E+00 0. -1.
         21   -1    0    0  503  502 -0.00000000000E+00 -0.00000000000E+00 -0.23041248652E+01  0.23041248652E+01  0.00000000000E+00 0. -1.
          2    1    1    2  501    0 -0.22571638495E+02 -0.14908567008E+01  0.29804165807E+03  0.29889886494E+03  0.00000000000E+00 0. -1.
         21    1    1    2  503  501  0.22571638495E+02  0.14908567008E+01  0.66332379310E+02  0.70083422169E+02  0.00000000000E+00 0. -1.
</event>
<event>
 4    1  0.2243645E+005  0.2874815E+02  0.7546771E-02  0.1430796E+00
          2   -1    0    0  503    0  0.00000000000E+00  0.00000000000E+00  0.11650399957E+03  0.11650399957E+03  0.00000000000E+00 0.  1.
         21   -1    0    0  501  502 -0.00000000000E+00 -0.00000000000E+00 -0.20083172087E+02  0.20083172087E+02  0.00000000000E+00 0.  1.
          2    1    1    2  501    0  0.27999338390E+02  0.65186769825E+01  0.10313386714E+03  0.10706563712E+03  0.00000000000E+00 0.  1.
         21    1    1    2  503  502 -0.27999338390E+02 -0.65186769825E+01 -0.67130396620E+01  0.29521534536E+02  0.00000000000E+00 0.  1.
</event>
<event>
 4    1  0.2243645E+005  0.3874094E+02  0.7546771E-02  0.1356026E+00
          2   -1    0    0  503    0  0.00000000000E+00  0.00000000000E+00  0.43555205822E+01  0.43555205822E+01  0.00000000000E+00 0. -1.
         21   -1    0    0  501  502 -0.00000000000E+00 -0.00000000000E+00 -0.38504750606E+03  0.38504750606E+03  0.00000000000E+00 0. -1.
          2    1    1    2  501    0 -0.31323278086E+02  0.22797203369E+02 -0.12723248351E+03  0.13299986877E+03  0.00000000000E+00 0. -1.
         21    1    1    2  503  502  0.31323278086E+02 -0.22797203369E+02 -0.25345950196E+03  0.25640315787E+03  0.00000000000E+00 0. -1.
</event>
<event>
 4    1  0.2243645E+005  0.2006987E+02  0.7546771E-02  0.1532970E+00
          2   -1    0    0  502    0  0.00000000000E+00  0.00000000000E+00  0.72859324343E+02  0.72859324343E+02  0.00000000000E+00 0.  1.
         21   -1    0    0  503  502 -0.00000000000E+00 -0.00000000000E+00 -0.28182254115E+02  0.28182254115E+02  0.00000000000E+00 0.  1.
          2    1    1    2  501    0 -0.19017708212E+02 -0.64130059557E+01  0.67633792968E+02  0.70548776192E+02  0.00000000000E+00 0.  1.
         21    1    1    2  503  501  0.19017708212E+02  0.64130059557E+01 -0.22956722740E+02  0.30492802265E+02  0.00000000000E+00 0.  1.
</event>
<event>
 4    1  0.2243645E+005  0.2478006E+02  0.7546771E-02  0.1471279E+00
          2   -1    0    0  503    0  0.00000000000E+00  0.00000000000E+00  0.68305748958E+03  0.68305748958E+03  0.00000000000E+00 0. -1.
         21   -1    0    0  501  502 -0.00000000000E+00 -0.00000000000E+00 -0.10473055326E+01  0.10473055326E+01  0.00000000000E+00 0. -1.
          2    1    1    2  501    0 -0.18153533316E+02  0.16867139898E+02  0.46973282833E+03  0.47038599171E+03  0.00000000000E+00 0. -1.
         21    1    1    2  503  502  0.18153533316E+02 -0.16867139898E+02  0.21227735572E+03  0.21371880341E+03  0.00000000000E+00 0. -1.
</event>
<event>
 4    1  0.2243645E+005  0.4313938E+02  0.7546771E-02  0.1331010E+00
          2   -1    0    0  503    0  0.00000000000E+00  0.00000000000E+00  0.13614582870E+04  0.13614582870E+04  0.00000000000E+00 0. -1.
         21   -1    0    0  501  502 -0.00000000000E+00 -0.00000000000E+00 -0.25326081581E+01  0.25326081581E+01  0.00000000000E+00 0.  1.
          2    1    1    2  501    0 -0.23963510325E+02  0.35871384797E+02  0.11421510783E+04  0.11429654815E+04  0.00000000000E+00 0. -1.
         21    1    1    2  503  502  0.23963510325E+02 -0.35871384797E+02  0.21677460053E+03  0.22102541372E+03  0.00000000000E+00 0.  1.
</event>
<event>
 4    1  0.2243645E+005  0.6616506E+02  0.7546771E-02  0.1240211E+00
          2   -1    0    0  502    0  0.00000000000E+00  0.00000000000E+00  0.78937240740E+02  0.78937240740E+02  0.00000000000E+00 0.  1.
         21   -1    0    0  503  502 -0.00000000000E+00 -0.00000000000E+00 -0.16627746707E+03  0.16627746707E+03  0.00000000000E+00 0. -1.
          2    1    1    2  501    0  0.48322334871E+02 -0.45196978281E+02  0.56423192709E+02  0.86956262389E+02  0.00000000000E+00 0.  1.
         21    1    1    2  503  501 -0.48322334871E+02  0.45196978281E+02 -0.14376341904E+03  0.15825844542E+03  0.00000000000E+00 0. -1.
</event>
<event>
 4    1  0.2243645E+005  0.2279592E+02  0.7546771E-02  0.1495077E+00
          2   -1    0    0  502    0  0.00000000000E+00  0.00000000000E+00  0.19442230006E+02  0.19442230006E+02  0.00000000000E+00 0. -1.
         21   -1    0    0  503  502 -0.00000000000E+00 -0.00000000000E+00 -0.64748054205E+02  0.64748054205E+02  0.00000000000E+00 0. -1.
          2    1    1    2  501    0  0.19720019776E+02 -0.11435672945E+02  0.96041221296E+01  0.24736470192E+02  0.00000000000E+00 0. -1.
         21    1    1    2  503  501 -0.19720019776E+02  0.11435672945E+02 -0.54909946329E+02  0.59453814020E+02  0.00000000000E+00 0. -1.
</event>
<event>
 4    1  0.2243645E+005  0.2312994E+02  0.7546771E-02  0.1490873E+00
          2   -1    0    0  502    0  0.00000000000E+00  0.00000000000E+00  0.72760430002E+03  0.72760430002E+03  0.00000000000E+00 0. -1.
         21   -1    0    0  503  502 -0.00000000000E+00 -0.00000000000E+00 -0.35507547140E+03  0.35507547140E+03  0.00000000000E+00 0. -1.
          2    1    1    2  501    0 -0.98524958309E+01  0.20926601687E+02  0.72704351257E+03  0.72741134408E+03  0.00000000000E+00 0. -1.
         21    1    1    2  503  501  0.98524958309E+01 -0.20926601687E+02 -0.35451468395E+03  0.35526842734E+03  0.00000000000E+00 0. -1.
</event>
<event>
 4    1  0.2243645E+005  0.2001735E+02  0.7546771E-02  0.1533771E+00
          2   -1    0    0  502    0  0.00000000000E+00  0.00000000000E+00  0.23634963861E+03  0.23634963861E+03  0.00000000000E+00 0. -1.
         21   -1    0    0  503  502 -0.00000000000E+00 -0.00000000000E+00 -0.31052773735E+01  0.31052773735E+01  0.00000000000E+00 0. -1.
          2    1    1    2  501    0 -0.23099913089E+01 -0.19883613152E+02  0.19729787903E+03  0.19831073396E+03  0.00000000000E+00 0. -1.
         21    1    1    2  503  501  0.23099913089E+01  0.19883613152E+02  0.35946482209E+02  0.41144182031E+02  0.00000000000E+00 0. -1.
</event>
<event>
 4    1  0.2243645E+005  0.2453475E+02  0.7546771E-02  0.1474076E+00
          2   -1    0    0  503    0  0.00000000000E+00  0.00000000000E+00  0.55133568748E+02  0.55133568748E+02  0.00000000000E+00 0. -1.
         21   -1    0    0  501  502 -0.00000000000E+00 -0.00000000000E+00 -0.28059249709E+03  0.28059249709E+03  0.00000000000E+00 0.  1.
          2    1    1    2  501    0 -0.11328751193E+02 -0.21762654970E+02  0.51835317421E+02  0.57348529947E+02  0.00000000000E+00 0. -1.
         21    1    1    2  503  502  0.11328751193E+02  0.21762654970E+02 -0.27729424576E+03  0.27837753589E+03  0.00000000000E+00 0.  1.
</event>
<event>
 4    1  0.2243645E+005  0.2500707E+02  0.7546771E-02  0.1468724E+00
          2   -1    0    0  503    0  0.00000000000E+00  0.00000000000E+00  0.56652763776E+03  0.56652763776E+03  0.00000000000E+00 0.  1.
         21   -1    0    0  501  502 -0.00000000000E+00 -0.00000000000E+00 -0.16743781455E+01  0.16743781455E+01  0.00000000000E+00 0. -1.
          2    1    1    2  501    0  0.24866330468E+02  0.26493618597E+01  0.44826687403E+03  0.44896385585E+03  0.00000000000E+00 0.  1.
         21    1    1    2  503  502 -0.24866330468E+02 -0.26493618597E+01  0.11658638559E+03  0.11923816006E+03  0.00000000000E+00 0. -1.
</event>
<event>
 4    1  0.2243645E+005  0.2713256E+02  0.7546771E-02  0.1446281E+00
          2   -1    0    0  503    0  0.00000000000E+00  0.00000000000E+00  0.97018523842E+03  0.97018523842E+03  0.00000000000E+00 0.  1.
         21   -1    0    0  501  502 -0.00000000000E+00 -0.00000000000E+00 -0.75922546627E+00  0.75922546627E+00  0.00000000000E+00 0.  1.
          2    1    1    2  501    0 -0.12408211825E+02  0.24129071933E+02  0.49621552923E+03  0.49695676600E+03  0.00000000000E+00 0.  1.
         21    1    1    2  503  502  0.12408211825E+02 -0.24129071933E+02  0.47321048373E+03  0.47398769789E+03  0.00000000000E+00 0.  1.
</event>
<event>
 4    1  0.2243645E+005  0.2911536E+02  0.7546771E-02  0.1427443E+00
          2   -1    0    0  502    0  0.00000000000E+00  0.00000000000E+00  0.17078462846E+04  0.17078462846E+04  0.00000000000E+00 0.  1.
         21   -1    0    0  503  502 -0.00000000000E+00 -0.00000000000E+00 -0.49113031321E+02  0.49113031321E+02  0.00000000000E+00 0.  1.
          2    1    1    2  501    0 -0.21555725371E+02 -0.19571785806E+02  0.17033958548E+04  0.17036446643E+04  0.00000000000E+00 0.  1.
         21    1    1    2  503  501  0.21555725371E+02  0.19571785806E+02 -0.44662601548E+02  0.53314651579E+02  0.00000000000E+00 0.  1.
</event>
<event>
 4    1  0.2243645E+005  0.2449731E+02  0.7546771E-02  0.1474506E+00
          2   -1    0    0  502    0  0.00000000000E+00  0.00000000000E+00  0.16980413342E+03  0.16980413342E+03  0.00000000000E+00 0. -1.
         21   -1    0    0  503  502 -0.00000000000E+00 -0.00000000000E+00 -0.39349658815E+01  0.39349658815E+01  0.00000000000E+00 0. -1.
          2    1    1    2  501    0  0.15870007935E+02  0.18661749729E+02  0.11065848254E+03  0.11333762752E+03  0.00000000000E+00 0. -1.
         21    1    1    2  503  501 -0.15870007935E+02 -0.18661749729E+02  0.55210684998E+02  0.60401471777E+02  0.00000000000E+00 0. -1.
</event>
<event>
 4    1  0.2243645E+005  0.5968621E+02  0.7546771E-02  0.1260902E+00
          2   -1    0    0  502    0  0.00000000000E+00  0.00000000000E+00  0.94631964152E+03  0.94631964152E+03  0.00000000000E+00 0. -1.
         21   -1    0    0  503  502 -0.00000000000E+00 -0.00000000000E+00 -0.75222651151E+01  0.75222651151E+01  0.00000000000E+00 0. -1.
          2    1    1    2  501    0 -0.58884601459E+02 -0.97492504630E+01  0.80648059530E+03  0.80868621527E+03  0.00000000000E+00 0. -1.
         21    1    1    2  503  501  0.58884601459E+02  0.97492504630E+01  0.13231678111E+03  0.14515569137E+03  0.00000000000E+00 0. -1.
</event>
<event>
 4    1  0.2243645E+005  0.2265545E+02  0.7546771E-02  0.1496871E+00
          2   -1    0    0  502    0  0.00000000000E+00  0.00000000000E+00  0.10600927673E+03  0.10600927673E+03  0.00000000000E+00 0. -1.
         21   -1    0    0  503  502 -0.00000000000E+00 -0.00000000000E+00 -0.26246742764E+02  0.26246742764E+02  0.00000000000E+00 0. -1.
          2    1    1    2  501    0 -0.22650946564E+02  0.45163488943E+00  0.99599285444E+02  0.10214346291E+03  0.00000000000E+00 0. -1.
         21    1    1    2  503  501  0.22650946564E+02 -0.45163488943E+00 -0.19836751482E+02  0.30112556579E+02  0.00000000000E+00 0. -1.
</event>
<event>
 4    1  0.2243645E+005  0.4012628E+02  0.7546771E-02  0.1347747E+00
          2   -1    0    0  502    0  0.00000000000E+00  0.00000000000E+00  0.98040534900E+03  0.98040534900E+03  0.00000000000E+00 0.  1.
         21   -1    0    0  503  502 -0.00000000000E+00 -0.00000000000E+00 -0.80888312766E+01  0.80888312766E+01  0.00000000000E+00 0. -1.
          2    1    1    2  501    0  0.33903966214E+02  0.21462517195E+02  0.92738753306E+03  0.92825522086E+03  0.00000000000E+00 0.  1.
         21    1    1    2  503  501 -0.33903966214E+02 -0.21462517195E+02  0.44928984665E+02  0.60238959423E+02  0.00000000000E+00 0. -1.
</event>
<event>
 4    1  0.2243645E+005  0.2330193E+02  0.7546771E-02  0.1488741E+00
          2   -1    0    0  502    0  0.00000000000E+00  0.00000000000E+00  0.25003220498E+03  0.25003220498E+03  0.00000000000E+00 0.  1.
         21   -1    0    0  503  502 -0.00000000000E+00 -0.00000000000E+00 -0.10095790255E+02  0.10095790255E+02  0.00000000000E+00 0.  1.
          2    1    1    2  501    0 -0.32163630312E+01  0.23078885308E+02  0.23519760443E+03  0.23634909153E+03  0.00000000000E+00 0.  1.
         21    1    1    2  503  501  0.32163630312E+01 -0.23078885308E+02  0.47388102932E+01  0.23778903701E+02  0.00000000000E+00 0.  1.
</event>
<event>
 4    1  0.2243645E+005  0.4341207E+02  0.7546771E-02  0.1329573E+00
          2   -1    0    0  502    0  0.00000000000E+00  0.00000000000E+00  0.12746163189E+04  0.12746163189E+04  0.00000000000E+00 0. -1.
         21   -1    0    0  503  502 -0.00000000000E+00 -0.00000000000E+00 -0.63431337873E+01  0.63431337873E+01  0.00000000000E+00 0.  1.
          2    1    1    2  501    0 -0.26915955124E+02 -0.34060811367E+02  0.11950237170E+04  0.11958119801E+04  0.00000000000E+00 0. -1.
         21    1    1    2  503  501  0.26915955124E+02  0.34060811367E+02  0.73249468056E+02  0.85147472550E+02  0.00000000000E+00 0.  1.
</event>
<event>
 4    1  0.2243645E+005  0.3426014E+02  0.7546771E-02  0.1385841E+00
          2   -1    0    0  503    0  0.00000000000E+00  0.00000000000E+00  0.68178069740E+03  0.68178069740E+03  0.00000000000E+00 0. -1.
         21   -1    0    0  501  502 -0.00000000000E+00 -0.00000000000E+00 -0.12657515859E+03  0.12657515859E+03  0.00000000000E+00 0. -1.
          2    1    1    2  501    0 -0.16701789652E+02 -0.29913326193E+02  0.67902258534E+03  0.67988633481E+03  0.00000000000E+00 0. -1.
         21    1    1    2  503  502  0.16701789652E+02  0.29913326193E+02 -0.12381704653E+03  0.12846952118E+03  0.00000000000E+00 0. -1.
</event>
<event>
 4    1  0.2243645E+005  0.4428532E+02  0.7546771E-02  0.1325052E+00
          2   -1    0    0  502    0  0.00000000000E+00  0.00000000000E+00  0.12283225275E+04  0.12283225275E+04  0.00000000000E+00 0. -1.
         21   -1    0    0  503  502 -0.00000000000E+00 -0.00000000000E+00 -0.43654689254E+02  0.43654689254E+02  0.00000000000E+00 0.  1.
          2    1    1    2  501    0 -0.41377195046E+02  0.15783442715E+02  0.12165837695E+04  0.12173895258E+04  0.00000000000E+00 0. -1.
         21    1    1    2  503  501  0.41377195046E+02 -0.15783442715E+02 -0.31915931261E+02  0.54587690939E+02  0.00000000000E+00 0.  1.
</event>
<event>
 4    1  0.2243645E+005  0.2310237E+02  0.7546771E-02  0.1491217E+00
          2   -1    0    0  503    0  0.00000000000E+00  0.00000000000E+00  0.21179881554E+03  0.21179881554E+03  0.00000000000E+00 0. -1.
         21   -1    0    0  501  502 -0.00000000000E+00 -0.00000000000E+00 -0.24393100116E+02  0.24393100116E+02  0.00000000000E+00 0.  1.
          2    1    1    2  501    0  0.77588577644E+01  0.21760504265E+02  0.20553260447E+03  0.20682691053E+03  0.00000000000E+00 0. -1.
         21    1    1    2  503  502 -0.77588577644E+01 -0.21760504265E+02 -0.18126889044E+02  0.29365005127E+02  0.00000000000E+00 0.  1.
</event>
<event>
 4    1  0.2243645E+005  0.2270976E+02  0.7546771E-02  0.1496175E+00
          2   -1    0    0  502    0  0.00000000000E+00  0.00000000000E+00  0.42144666707E+03  0.42144666707E+03  0.00000000000E+00 0.  1.
         21   -1    0    0  503  502 -0.00000000000E+00 -0.00000000000E+00 -0.23749787264E+03  0.23749787264E+03  0.00000000000E+00 0. -1.
          2    1    1    2  501    0  0.13257320912E+02  0.18438455995E+02  0.42059675863E+03  0.42120940942E+03  0.00000000000E+00 0.  1.
         21    1    1    2  503  501 -0.13257320912E+02 -0.18438455995E+02 -0.23664796419E+03  0.23773513029E+03  0.00000000000E+00 0. -1.
</event>
<event>
 4    1  0.2243645E+005  0.2265747E+02  0.7546771E-02  0.1496845E+00
          2   -1    0    0  503    0  0.00000000000E+00  0.00000000000E+00  0.42148009546E+02  0.42148009546E+02  0.00000000000E+00 0.  1.
         21   -1    0    0  501  502 -0.00000000000E+00 -0.00000000000E+00 -0.43487155116E+02  0.43487155116E+02  0.00000000000E+00 0.  1.
          2    1    1    2  501    0  0.86924068107E+00  0.22640792257E+02  0.35660287315E+02  0.42249463248E+02  0.00000000000E+00 0.  1.
         21    1    1    2  503  502 -0.86924068107E+00 -0.22640792257E+02 -0.36999432885E+02  0.43385701414E+02  0.00000000000E+00 0.  1.
</event>
<event>
 4    1  0.2243645E+005  0.2103891E+02  0.7546771E-02  0.1518710E+00
          2   -1    0    0  502    0  0.00000000000E+00  0.00000000000E+00  0.14092735366E+03  0.14092735366E+03  0.00000000000E+00 0.  1.
         21   -1    0    0  503  502 -0.00000000000E+00 -0.00000000000E+00 -0.22640792614E+02  0.22640792614E+02  0.00000000000E+00 0. -1.
          2    1    1    2  501    0 -0.21038900509E+02 -0.14178438565E-01  0.13504284515E+03  0.13667189017E+03  0.00000000000E+00 0.  1.
         21    1    1    2  503  501  0.21038900509E+02  0.14178438565E-01 -0.16756284103E+02  0.26896256108E+02  0.00000000000E+00 0. -1.
</event>
<event>
 4    1  0.2243645E+005  0.2703831E+02  0.7546771E-02  0.1447224E+00
          2   -1    0    0  503    0  0.00000000000E+00  0.00000000000E+00  0.92774068251E+01  0.92774068251E+01  0.00000000000E+00 0. -1.
         21   -1    0    0  501  502 -0.00000000000E+00 -0.00000000000E+00 -0.95242761293E+02  0.95242761293E+02  0.00000000000E+00 0. -1.
          2    1    1    2  501    0  0.25820027214E+02  0.80247498977E+01 -0.21269360080E+02  0.34401396694E+02  0.00000000000E+00 0. -1.
         21    1    1    2  503  502 -0.25820027214E+02 -0.80247498977E+01 -0.64695994388E+02  0.70118771424E+02  0.00000000000E+00 0. -1.
</event>
<event>
 4    1  0.2243645E+005  0.2845617E+02  0.7546771E-02  0.1433505E+00
          2   -1    0    0  503    0  0.00000000000E+00  0.00000000000E+00  0.63781552856E+03  0.63781552856E+03  0.00000000000E+00 0. -1.
         21   -1    0    0  501  502 -0.00000000000E+00 -0.00000000000E+00 -0.13251949536E+01  0.13251949536E+01  0.00000000000E+00 0. -1.
          2    1    1    2  501    0  0.32877877043E+01 -0.28265601079E+02  0.38371593116E+03  0.38476963183E+03  0.00000000000E+00 0. -1.
         21    1    1    2  503  502 -0.32877877043E+01  0.28265601079E+02  0.25277440244E+03  0.25437109168E+03  0.00000000000E+00 0. -1.
</event>
<event>
 4    1  0.2243645E+005  0.2110668E+02  0.7546771E-02  0.1517747E+00
          2   -1    0    0  503    0  0.00000000000E+00  0.00000000000E+00  0.10310657890E+02  0.10310657890E+02  0.00000000000E+00 0.  1.
         21   -1    0    0  501  502 -0.00000000000E+00 -0.00000000000E+00 -0.31737348605E+03  0.31737348605E+03  0.00000000000E+00 0. -1.
          2    1    1    2  501    0 -0.11748014442E+02 -0.17534992481E+02 -0.12498411505E+01  0.21143649343E+02  0.00000000000E+00 0.  1.
         21    1    1    2  503  502  0.11748014442E+02  0.17534992481E+02 -0.30581298701E+03  0.30654049460E+03  0.00000000000E+00 0. -1.
</event>
<event>
 4    1  0.2243645E+005  0.8278937E+02  0.7546771E-02  0.1197516E+00
          2   -1    0    0  502    0  0.00000000000E+00  0.00000000000E+00  0.14749288134E+03  0.14749288134E+03  0.00000000000E+00 0.  1.
         21   -1    0    0  503  502 -0.00000000000E+00 -0.00000000000E+00 -0.64502010460E+02  0.64502010460E+02  0.00000000000E+00 0.  1.
          2    1    1    2  501    0  0.81859428433E+02  0.12373922535E+02  0.97538754286E+02  0.12793704925E+03  0.00000000000E+00 0.  1.
         21    1    1    2  503  501 -0.81859428433E+02 -0.12373922535E+02 -0.14547883411E+02  0.84057842549E+02  0.00000000000E+00 0.  1.
</event>
<event>
 4    1  0.2243645E+005  0.2029963E+02  0.7546771E-02  0.1529504E+00
          2   -1    0    0  503    0  0.00000000000E+00  0.00000000000E+00  0.67345506424E+03  0.67345506424E+03  0.00000000000E+00 0.  1.
         21   -1    0    0  501  502 -0.00000000000E+00 -0.00000000000E+00 -0.61333720715E+01  0.61333720715E+01  0.00000000000E+00 0. -1.
          2    1    1    2  501    0 -0.14902921004E+02  0.13783248326E+02  0.65606043502E+03  0.65637441250E+03  0.00000000000E+00 0.  1.
         21    1    1    2  503  502  0.14902921004E+02 -0.13783248326E+02  0.11261257148E+02  0.23214023809E+02  0.00000000000E+00 0. -1.
</event>
<event>
 4    1  0.2243645E+005  0.2574987E+02  0.7546771E-02  0.1460587E+00
          2   -1    0    0  503    0  0.00000000000E+00  0.00000000000E+00  0.11422404583E+04  0.11422404583E+04  0.00000000000E+00 0.  1.
         21   -1    0    0  501  502 -0.00000000000E+00 -0.00000000000E+00 -0.28437894844E+01  0.28437894844E+01  0.00000000000E+00 0. -1.
          2    1    1    2  501    0  0.20629507851E+02  0.15410357291E+02  0.10804737965E+04  0.10807805886E+04  0.00000000000E+00 0.  1.
         21    1    1    2  503  502 -0.20629507851E+02 -0.15410357291E+02  0.58922872272E+02  0.64303659171E+02  0.00000000000E+00 0. -1.
</event>
<event>
 4    1  0.2243645E+005  0.9474628E+02  0.7546771E-02  0.1173237E+00
          2   -1    0    0  503    0  0.00000000000E+00  0.00000000000E+00  0.23144988128E+04  0.23144988128E+04  0.00000000000E+00 0.  1.
         21   -1    0    0  501  502 -0.00000000000E+00 -0.00000000000E+00 -0.57945658792E+01  0.57945658792E+01  0.00000000000E+00 0. -1.
          2    1    1    2  501    0 -0.66512386201E+02 -0.67475631498E+02  0.18214722029E+04  0.18239347149E+04  0.00000000000E+00 0.  1.
         21    1    1    2  503  502  0.66512386201E+02  0.67475631498E+02  0.48723204397E+03  0.49635866371E+03  0.00000000000E+00 0. -1.
</event>
<event>
 4    1  0.2243645E+005  0.2375458E+02  0.7546771E-02  0.1483234E+00
          2   -1    0    0  502    0  0.00000000000E+00  0.00000000000E+00  0.66480107617E+01  0.66480107617E+01  0.00000000000E+00 0.  1.
         21   -1    0    0  503  502 -0.00000000000E+00 -0.00000000000E+00 -0.34641640985E+03  0.34641640985E+03  0.00000000000E+00 0. -1.
          2    1    1    2  501    0  0.13490292829E+01 -0.23716244038E+02 -0.16496268515E+02  0.28920701689E+02  0.00000000000E+00 0.  1.
         21    1    1    2  503  501 -0.13490292829E+01  0.23716244038E+02 -0.32327213058E+03  0.32414371892E+03  0.00000000000E+00 0. -1.
</event>
<event>
 4    1  0.2243645E+005  0.2269890E+02  0.7546771E-02  0.1496314E+00
          2   -1    0    0  503    0  0.00000000000E+00  0.00000000000E+00  0.10299539098E+02  0.10299539098E+02  0.00000000000E+00 0.  1.
         21   -1    0    0  501  502 -0.00000000000E+00 -0.00000000000E+00 -0.57343697025E+02  0.57343697025E+02  0.00000000000E+00 0.  1.
          2    1    1    2  501    0 -0.12421323131E+01  0.22664889623E+02 -0.11439710279E+02  0.25418636579E+02  0.00000000000E+00 0.  1.
         21    1    1    2  503  502  0.12421323131E+01 -0.22664889623E+02 -0.35604447649E+02  0.42224599544E+02  0.00000000000E+00 0.  1.
</event>
<event>
 4    1  0.2243645E+005  0.2201117E+02  0.7546771E-02  0.1505303E+00
          2   -1    0    0  502    0  0.00000000000E+00  0.00000000000E+00  0.26034622406E+03  0.26034622406E+03  0.00000000000E+00 0.  1.
         21   -1    0    0  503  502 -0.00000000000E+00 -0.00000000000E+00 -0.66824004895E+01  0.66824004895E+01  0.00000000000E+00 0.  1.
          2    1    1    2  501    0  0.21301965863E+01  0.21907849173E+02  0.24024165810E+03  0.24124789301E+03  0.00000000000E+00 0.  1.
         21    1    1    2  503  501 -0.21301965863E+01 -0.21907849173E+02  0.13422165465E+02  0.25780731538E+02  0.00000000000E+00 0.  1.
</event>
<event>
 4    1  0.2243645E+005  0.2096789E+02  0.7546771E-02  0.1519724E+00
          2   -1    0    0  502    0  0.00000000000E+00  0.00000000000E+00  0.15725002744E+04  0.15725002744E+04  0.00000000000E+00 0.  1.
         21   -1    0    0  503  502 -0.00000000000E+00 -0.00000000000E+00 -0.19235914412E+01  0.19235914412E+01  0.00000000000E+00 0.  1.
          2    1    1    2  501    0  0.96005450154E+00 -0.20945896030E+02  0.15130457026E+04  0.15131909828E+04  0.00000000000E+00 0.  1.
         21    1    1    2  503  501 -0.96005450154E+00  0.20945896030E+02  0.57530980418E+02  0.61232883103E+02  0.00000000000E+00 0.  1.
</event>
<event>
 4    1  0.2243645E+005  0.2267874E+02  0.7546771E-02  0.1496572E+00
          2   -1    0    0  503    0  0.00000000000E+00  0.00000000000E+00  0.59107256073E+03  0.59107256073E+03  0.00000000000E+00 0.  1.
         21   -1    0    0  501  502 -0.00000000000E+00 -0.00000000000E+00 -0.14935887515E+01  0.14935887515E+01  0.00000000000E+00 0. -1.
          2    1    1    2  501    0 -0.21478235443E+02  0.72808432816E+01  0.48620898150E+03  0.48673760793E+03  0.00000000000E+00 0.  1.
         21    1    1    2  503  502  0.21478235443E+02 -0.72808432816E+01  0.10336999048E+03  0.10582854156E+03  0.00000000000E+00 0. -1.
</event>
<event>
 4    1  0.2243645E+005  0.2014846E+02  0.7546771E-02  0.1531778E+00
          2   -1    0    0  502    0  0.00000000000E+00  0.00000000000E+00  0.41855276878E+03  0.41855276878E+03  0.00000000000E+00 0.  1.
         21   -1    0    0  503  502 -0.00000000000E+00 -0.00000000000E+00 -0.90088011654E+01  0.90088011654E+01  0.00000000000E+00 0.  1.
          2    1    1    2  501    0  0.18478657988E+02  0.80311674771E+01  0.40671698905E+03  0.40721575318E+03  0.00000000000E+00 0.  1.
         21    1    1    2  503  501 -0.18478657988E+02 -0.80311674771E+01  0.28269785603E+01  0.20345816766E+02  0.00000000000E+00 0.  1.
</event>
<event>
 4    1  0.2243645E+005  0.5805250E+02  0.7546771E-02  0.1266597E+00
          2   -1    0    0  503    0  0.00000000000E+00  0.00000000000E+00  0.35534511576E+03  0.35534511576E+03  0.00000000000E+00 0.  1.
         21   -1    0    0  501  502 -0.00000000000E+00 -0.00000000000E+00 -0.95583814077E+02  0.95583814077E+02  0.00000000000E+00 0.  1.
          2    1    1    2  501    0  0.28311831134E+02 -0.50680694805E+02  0.34386747596E+03  0.34873332739E+03  0.00000000000E+00 0.  1.
         21    1    1    2  503  502 -0.28311831134E+02  0.50680694805E+02 -0.84106174278E+02  0.10219560245E+03  0.00000000000E+00 0.  1.
</event>
<event>
 4    1  0.2243645E+005  0.2325635E+02  0.7546771E-02  0.1489304E+00
          2   -1    0    0  502    0  0.00000000000E+00  0.00000000000E+00  0.14141821810E+04  0.14141821810E+04  0.00000000000E+00 0.  1.
         21   -1    0    0  503  502 -0.00000000000E+00 -0.00000000000E+00 -0.16784918300E+02  0.16784918300E+02  0.00000000000E+00 0.  1.
          2    1    1    2  501    0 -0.23159586402E+02  0.21192908928E+01  0.14059838867E+04  0.14061762149E+04  0.00000000000E+00 0.  1.
         21    1    1    2  503  501  0.23159586402E+02 -0.21192908928E+01 -0.85866239823E+01  0.24790884365E+02  0.00000000000E+00 0.  1.
</event>
<event>
 4    1  0.2243645E+005  0.2283282E+02  0.7546771E-02  0.1494608E+00
          2   -1    0    0  502    0  0.00000000000E+00  0.00000000000E+00  0.45577889373E+03  0.45577889373E+03  0.00000000000E+00 0. -1.
         21   -1    0    0  503  502 -0.00000000000E+00 -0.00000000000E+00 -0.58871313429E+01  0.58871313429E+01  0.00000000000E+00 0. -1.
          2    1    1    2  501    0 -0.22698519185E+02  0.24728028161E+01  0.43214410009E+03  0.43274687841E+03  0.00000000000E+00 0. -1.
         21    1    1    2  503  501  0.22698519185E+02 -0.24728028161E+01  0.17747662297E+02  0.28919146667E+02  0.00000000000E+00 0. -1.
</event>
<event>
 4    1  0.2243645E+005  0.2282700E+02  0.7546771E-02  0.1494682E+00
          2   -1    0    0  502    0  0.00000000000E+00  0.00000000000E+00  0.80935452669E+03  0.80935452669E+03  0.00000000000E+00 0.  1.
         21   -1    0    0  503  502 -0.00000000000E+00 -0.00000000000E+00 -0.27600143458E+01  0.27600143458E+01  0.00000000000E+00 0. -1.
          2    1    1    2  501    0  0.10667758599E+02 -0.20180957447E+02  0.75885506574E+03  0.75919831593E+03  0.00000000000E+00 0.  1.
         21    1    1    2  503  501 -0.10667758599E+02  0.20180957447E+02  0.47739446604E+02  0.52916225102E+02  0.00000000000E+00 0. -1.
</event>
<event>
 4    1  0.2243645E+005  0.2079703E+02  0.7546771E-02  0.1522183E+00
          2   -1    0    0  503    0  0.00000000000E+00  0.00000000000E+00  0.14364455008E+04  0.14364455008E+04  0.00000000000E+00 0. -1.
         21   -1    0    0  501  502 -0.00000000000E+00 -0.00000000000E+00 -0.32963389366E+00  0.32963389366E+00  0.00000000000E+00 0. -1.
          2    1    1    2  501    0  0.11858995260E+02  0.17084516995E+02  0.92941113514E+03  0.92964378910E+03  0.00000000000E+00 0. -1.
         21    1    1    2  503  502 -0.11858995260E+02 -0.17084516995E+02  0.50670473179E+03  0.50713134562E+03  0.00000000000E+00 0. -1.
</event>
<event>
 4    1  0.2243645E+005  0.2000502E+02  0.7546771E-02  0.1533959E+00
          2   -1    0    0  503    0  0.00000000000E+00  0.00000000000E+00  0.16690688944E+03  0.16690688944E+03  0.00000000000E+00 0.  1.
         21   -1    0    0  501  502 -0.00000000000E+00 -0.00000000000E+00 -0.43715276189E+01  0.43715276189E+01  0.00000000000E+00 0.  1.
          2    1    1    2  501    0  0.18999482684E+02 -0.62626242781E+01  0.13881237243E+03  0.14024648140E+03  0.00000000000E+00 0.  1.
         21    1    1    2  503  502 -0.18999482684E+02  0.62626242781E+01  0.23722989388E+02  0.31031935657E+02  0.00000000000E+00 0.  1.
</event>
<event>
 4    1  0.2243645E+005  0.2932965E+02  0.7546771E-02  0.1425513E+00
          2   -1    0    0  502    0  0.00000000000E+00  0.00000000000E+00  0.14885476068E+03  0.14885476068E+03  0.00000000000E+00 0. -1.
         21   -1    0    0  503  502 -0.00000000000E+00 -0.00000000000E+00 -0.18462908376E+02  0.18462908376E+02  0.00000000000E+00 0.  1.
          2    1    1    2  501    0 -0.28274569854E+02  0.77959494402E+01  0.13453670370E+03  0.13769659681E+03  0.00000000000E+00 0. -1.
         21    1    1    2  503  501  0.28274569854E+02 -0.77959494402E+01 -0.41448514004E+01  0.29621072250E+02  0.00000000000E+00 0.  1.
</event>
<event>
 4    1  0.2243645E+005  0.4019137E+02  0.7546771E-02  0.1347368E+00
          2   -1    0    0  502    0  0.00000000000E+00  0.00000000000E+00  0.18046444908E+04  0.18046444908E+04  0.00000000000E+00 0. -1.
         21   -1    0    0  503  502 -0.00000000000E+00 -0.00000000000E+00 -0.15519043790E+01  0.15519043790E+01  0.00000000000E+00 0. -1.
          2    1    1    2  501    0  0.35608704255E+02 -0.18637767104E+02  0.14890611942E+04  0.14896034997E+04  0.00000000000E+00 0. -1.
         21    1    1    2  503  501 -0.35608704255E+02  0.18637767104E+02  0.31403139223E+03  0.31659289551E+03  0.00000000000E+00 0. -1.
</event>
<event>
 4    1  0.2243645E+005  0.2059492E+02  0.7546771E-02  0.1525128E+00
          2   -1    0    0  503    0  0.00000000000E+00  0.00000000000E+00  0.91574602446E+02  0.91574602446E+02  0.00000000000E+00 0.  1.
         21   -1    0    0  501  502 -0.00000000000E+00 -0.00000000000E+00 -0.97695933817E+01  0.97695933817E+01  0.00000000000E+00 0.  1.
          2    1    1    2  501    0 -0.65608570164E+01  0.19521928613E+02  0.77649440166E+02  0.80334214999E+02  0.00000000000E+00 0.  1.
         21    1    1    2  503  502  0.65608570164E+01 -0.19521928613E+02  0.41555688992E+01  0.21009980829E+02  0.00000000000E+00 0.  1.
</event>
<event>
 4    1  0.2243645E+005  0.2106508E+02  0.7546771E-02  0.1518338E+00
          2   -1    0    0  502    0  0.00000000000E+00  0.00000000000E+00  0.21290067413E+03  0.21290067413E+03  0.00000000000E+00 0.  1.
         21   -1    0    0  503  502 -0.00000000000E+00 -0.00000000000E+00 -0.62813219999E+01  0.62813219999E+01  0.00000000000E+00 0.  1.
          2    1    1    2  501    0 -0.20318832503E+02  0.55572114885E+01  0.19289208311E+03  0.19403889631E+03  0.00000000000E+00 0.  1.
         21    1    1    2  503  501  0.20318832503E+02 -0.55572114885E+01  0.13727269016E+02  0.25143099818E+02  0.00000000000E+00 0.  1.
</event>
<event>
 4    1  0.2243645E+005  0.2585326E+02  0.7546771E-02  0.1459480E+00
          2   -1    0    0  503    0  0.00000000000E+00  0.00000000000E+00  0.50037313654E+01  0.50037313654E+01  0.00000000000E+00 0.  1.
         21   -1    0    0  501  502 -0.00000000000E+00 -0.00000000000E+00 -0.16737401341E+03  0.16737401341E+03  0.00000000000E+00 0. -1.
          2    1    1    2  501    0 -0.24313450817E+02 -0.87890293782E+01 -0.42456102912E+02  0.49708264932E+02  0.00000000000E+00 0.  1.
         21    1    1    2  503  502  0.24313450817E+02  0.87890293782E+01 -0.11991417913E+03  0.12266947984E+03  0.00000000000E+00 0. -1.
</event>
<event>
 4    1  0.2243645E+005  0.2553081E+02  0.7546771E-02  0.1462952E+00
          2   -1    0    0  503    0  0.00000000000E+00  0.00000000000E+00  0.15243546279E+04  0.15243546279E+04  0.00000000000E+00 0. -1.
         21   -1    0    0  501  502 -0.00000000000E+00 -0.00000000000E+00 -0.16826872839E+02  0.16826872839E+02  0.00000000000E+00 0.  1.
          2    1    1    2  501    0 -0.62256509754E+00 -0.25523218624E+02  0.15145004745E+04  0.15147156531E+04  0.00000000000E+00 0. -1.
         21    1    1    2  503  502  0.62256509754E+00  0.25523218624E+02 -0.69727194728E+01  0.26465847674E+02  0.00000000000E+00 0.  1.
</event>
<event>
 4    1  0.2243645E+005  0.4527025E+02  0.7546771E-02  0.1320094E+00
          2   -1    0    0  503    0  0.00000000000E+00  0.00000000000E+00  0.48753583545E+03  0.48753583545E+03  0.00000000000E+00 0. -1.
         21   -1    0    0  501  502 -0.00000000000E+00 -0.00000000000E+00 -0.34283719017E+02  0.34283719017E+02  0.00000000000E+00 0. -1.
          2    1    1    2  501    0 -0.26877264864E+02 -0.36428126352E+02  0.47101767919E+03  0.47318817596E+03  0.00000000000E+00 0. -1.
         21    1    1    2  503  502  0.26877264864E+02  0.36428126352E+02 -0.17765562754E+02  0.48631378512E+02  0.00000000000E+00 0. -1.
</event>
<event>
 4    1  0.2243645E+005  0.2303313E+02  0.7546771E-02  0.1492083E+00
          2   -1    0    0  503    0  0.00000000000E+00  0.00000000000E+00  0.67378256822E+03  0.67378256822E+03  0.00000000000E+00 0. -1.
         21   -1    0    0  501  502 -0.00000000000E+00 -0.00000000000E+00 -0.61487292533E+01  0.61487292533E+01  0.00000000000E+00 0. -1.
          2    1    1    2  501    0  0.15928912469E+02  0.16637146708E+02  0.65126980717E+03  0.65167698029E+03  0.00000000000E+00 0. -1.
         21    1    1    2  503  502 -0.15928912469E+02 -0.16637146708E+02  0.16364031794E+02  0.28254317185E+02  0.00000000000E+00 0. -1.
</event>
<event>
 4    1  0.2243645E+005  0.2022465E+02  0.7546771E-02  0.1530629E+00
          2   -1    0    0  503    0  0.00000000000E+00  0.00000000000E+00  0.15449773378E+04  0.15449773378E+04  0.00000000000E+00 0.  1.
         21   -1    0    0  501  502 -0.00000000000E+00 -0.00000000000E+00 -0.32901080796E+00  0.32901080796E+00  0.00000000000E+00 0.  1.
          2    1    1    2  501    0  0.20053358642E+02  0.26266472354E+01  0.11137878060E+04  0.11139714149E+04  0.00000000000E+00 0.  1.
         21    1    1    2  503  502 -0.20053358642E+02 -0.26266472354E+01  0.43086052097E+03  0.43133493367E+03  0.00000000000E+00 0.  1.
</event>
<event>
 4    1  0.2243645E+005  0.3718565E+02  0.7546771E-02  0.1365817E+00
          2   -1    0    0  503    0  0.00000000000E+00  0.00000000000E+00  0.42051482830E+02  0.42051482830E+02  0.00000000000E+00 0. -1.
         21   -1    0    0  501  502 -0.00000000000E+00 -0.00000000000E+00 -0.42039349578E+02  0.42039349578E+02  0.00000000000E+00 0. -1.
          2    1    1    2  501    0 -0.20793573000E+02 -0.30828555824E+02 -0.19616483226E+02  0.42042584916E+02  0.00000000000E+00 0. -1.
         21    1    1    2  503  502  0.20793573000E+02  0.30828555824E+02  0.19628616478E+02  0.42048247491E+02  0.00000000000E+00 0. -1.
</event>
<event>
 4    1  0.2243645E+005  0.2175859E+02  0.7546771E-02  0.1508704E+00
          2   -1    0    0  503    0  0.00000000000E+00  0.00000000000E+00  0.61935034622E+03  0.61935034622E+03  0.00000000000E+00 0.  1.
         21   -1    0    0  501  502 -0.00000000000E+00 -0.00000000000E+00 -0.55888233918E+02  0.55888233918E+02  0.00000000000E+00 0.  1.
          2    1    1    2  501    0  0.14421485320E+02  0.16292845546E+02  0.61703351446E+03  0.61741703412E+03  0.00000000000E+00 0.  1.
         21    1    1    2  503  502 -0.14421485320E+02 -0.16292845546E+02 -0.53571402158E+02  0.57821546019E+02  0.00000000000E+00 0.  1.
</event>
<event>
 4    1  0.2243645E+005  0.2069610E+02  0.7546771E-02  0.1523648E+00
          2   -1    0    0  502    0  0.00000000000E+00  0.00000000000E+00  0.13366068671E+04  0.13366068671E+04  0.00000000000E+00 0. -1.
         21   -1    0    0  503  502 -0.00000000000E+00 -0.00000000000E+00 -0.86487678288E+00  0.86487678288E+00  0.00000000000E+00 0. -1.
          2    1    1    2  501    0 -0.19834580529E+02  0.59091525363E+01  0.11984418171E+04  0.11986205061E+04  0.00000000000E+00 0. -1.
         21    1    1    2  503  501  0.19834580529E+02 -0.59091525363E+01  0.13730017320E+03  0.13885123777E+03  0.00000000000E+00 0. -1.
</event>
<event>
 4    1  0.2243645E+005  0.2709285E+02  0.7546771E-02  0.1446678E+00
          2   -1    0    0  503    0  0.00000000000E+00  0.00000000000E+00  0.40564735928E+03  0.40564735928E+03  0.00000000000E+00 0. -1.
         21   -1    0    0  501  502 -0.00000000000E+00 -0.00000000000E+00 -0.48569792890E+01  0.48569792890E+01  0.00000000000E+00 0.  1.
          2    1    1    2  501    0 -0.69376862617E+01 -0.26189519163E+02  0.36297791382E+03  0.36398762111E+03  0.00000000000E+00 0. -1.
         21    1    1    2  503  502  0.69376862617E+01  0.26189519163E+02  0.37812466171E+02  0.46516717453E+02  0.00000000000E+00 0.  1.
</event>
<event>
 4    1  0.2243645E+005  0.2415394E+02  0.7546771E-02  0.1478495E+00
          2   -1    0    0  502    0  0.00000000000E+00  0.00000000000E+00  0.16439651967E+02  0.16439651967E+02  0.00000000000E+00 0. -1.
         21   -1    0    0  503  502 -0.00000000000E+00 -0.00000000000E+00 -0.57257826959E+03  0.57257826959E+03  0.00000000000E+00 0.  1.
          2    1    1    2  501    0  0.64280156193E+01 -0.23282897632E+02  0.71669076463E+01  0.25194786606E+02  0.00000000000E+00 0. -1.
         21    1    1    2  503  501 -0.64280156193E+01  0.23282897632E+02 -0.56330552527E+03  0.56382313495E+03  0.00000000000E+00 0.  1.
</event>
<event>
 4    1  0.2243645E+005  0.2390616E+02  0.7546771E-02  0.1481422E+00
          2   -1    0    0  503    0  0.00000000000E+00  0.00000000000E+00  0.14359349474E+04  0.14359349474E+04  0.00000000000E+00 0.  1.
         21   -1    0    0  501  502 -0.00000000000E+00 -0.00000000000E+00 -0.70106392587E+01  0.70106392587E+01  0.00000000000E+00 0. -1.
          2    1    1    2  501    0 -0.13980057673E+02 -0.19392328968E+02  0.14151563347E+04  0.14153582430E+04  0.00000000000E+00 0.  1.
         21    1    1    2  503  502  0.13980057673E+02  0.19392328968E+02  0.13767973398E+02  0.27587343598E+02  0.00000000000E+00 0. -1.
</event>
<event>
 4    1  0.2243645E+005  0.2417757E+02  0.7546771E-02  0.1478218E+00
          2   -1    0    0  503    0  0.00000000000E+00  0.00000000000E+00  0.43170189989E+03  0.43170189989E+03  0.00000000000E+00 0. -1.
         21   -1    0    0  501  502 -0.00000000000E+00 -0.00000000000E+00 -0.17896430616E+01  0.17896430616E+01  0.00000000000E+00 0.  1.
          2    1    1    2  501    0  0.20233944748E+02  0.13234133279E+02  0.32188566493E+03  0.32279240401E+03  0.00000000000E+00 0. -1.
         21    1    1    2  503  502 -0.20233944748E+02 -0.13234133279E+02  0.10802659190E+03  0.11069913894E+03  0.00000000000E+00 0.  1.
</event>
<event>
 4    1  0.2243645E+005  0.2007370E+02  0.7546771E-02  0.1532912E+00
          2   -1    0    0  503    0  0.00000000000E+00  0.00000000000E+00  0.16117544233E+03  0.16117544233E+03  0.00000000000E+00 0. -1.
         21   -1    0    0  501  502 -0.00000000000E+00 -0.00000000000E+00 -0.11994187566E+02  0.11994187566E+02  0.00000000000E+00 0.  1.
          2    1    1    2  501    0 -0.15687878724E+02 -0.12523730219E+02  0.15162474732E+03  0.15294776022E+03  0.00000000000E+00 0. -1.
         21    1    1    2  503  502  0.15687878724E+02  0.12523730219E+02 -0.24434925512E+01  0.20221869678E+02  0.00000000000E+00 0.  1.
</event>
<event>
 4    1  0.2243645E+005  0.2381760E+02  0.7546771E-02  0.1482479E+00
          2   -1    0    0  502    0  0.00000000000E+00  0.00000000000E+00  0.29681942789E+03  0.29681942789E+03  0.00000000000E+00 0. -1.
         21   -1    0    0  503  502 -0.00000000000E+00 -0.00000000000E+00 -0.46669351991E+01  0.46669351991E+01  0.00000000000E+00 0.  1.
          2    1    1    2  501    0  0.45499960061E+01 -0.23378957991E+02  0.26191166425E+03  0.26299239154E+03  0.00000000000E+00 0. -1.
         21    1    1    2  503  501 -0.45499960061E+01  0.23378957991E+02  0.30240828438E+02  0.38493971541E+02  0.00000000000E+00 0.  1.
</event>
<event>
 4    1  0.2243645E+005  0.2796168E+02  0.7546771E-02  0.1438180E+00
          2   -1    0    0  503    0  0.00000000000E+00  0.00000000000E+00  0.86369841754E+03  0.86369841754E+03  0.00000000000E+00 0. -1.
         21   -1    0    0  501  502 -0.00000000000E+00 -0.00000000000E+00 -0.13044679884E+01  0.13044679884E+01  0.00000000000E+00 0.  1.
          2    1    1    2  501    0 -0.16920866022E+01 -0.27910431477E+02  0.67046282444E+03  0.67104564248E+03  0.00000000000E+00 0. -1.
         21    1    1    2  503  502  0.16920866022E+01  0.27910431477E+02  0.19193112511E+03  0.19395724305E+03  0.00000000000E+00 0.  1.
</event>
<event>
 4    1  0.2243645E+005  0.3721110E+02  0.7546771E-02  0.1365652E+00
          2   -1    0    0  502    0  0.00000000000E+00  0.00000000000E+00  0.54505688011E+03  0.54505688011E+03  0.00000000000E+00 0. -1.
         21   -1    0    0  503  502 -0.00000000000E+00 -0.00000000000E+00 -0.30524941580E+02  0.30524941580E+02  0.00000000000E+00 0. -1.
          2    1    1    2  501    0  0.10902707382E+02  0.35578043839E+02  0.53282122469E+03  0.53411901643E+03  0.00000000000E+00 0. -1.
         21    1    1    2  503  501 -0.10902707382E+02 -0.35578043839E+02 -0.18289286162E+02  0.41462805259E+02  0.00000000000E+00 0. -1.
</event>
<event>
 4    1  0.2243645E+005  0.2804147E+02  0.7546771E-02  0.1437418E+00
          2   -1    0    0  503    0  0.00000000000E+00  0.00000000000E+00  0.11560837011E+02  0.11560837011E+02  0.00000000000E+00 0. -1.
         21   -1    0    0  501  502 -0.00000000000E+00 -0.00000000000E+00 -0.28300157876E+03  0.28300157876E+03  0.00000000000E+00 0. -1.
          2    1    1    2  501    0  0.14169123794E+02 -0.24198342746E+02 -0.73521860559E+01  0.28989282512E+02  0.00000000000E+00 0. -1.
         21    1    1    2  503  502 -0.14169123794E+02  0.24198342746E+02 -0.26408855570E+03  0.26557313326E+03  0.00000000000E+00 0. -1.
</event>
<event>
 4    1  0.2243645E+005  0.2024734E+02  0.7546771E-02  0.1530288E+00
          2   -1    0    0  503    0  0.00000000000E+00  0.00000000000E+00  0.91114593370E+03  0.91114593370E+03  0.00000000000E+00 0.  1.
         21   -1    0    0  501  502 -0.00000000000E+00 -0.00000000000E+00 -0.14279502512E+01  0.14279502512E+01  0.00000000000E+00 0.  1.
          2    1    1    2  501    0  0.18403294966E+02  0.84423669560E+01  0.83247875023E+03  0.83272493923E+03  0.00000000000E+00 0.  1.
         21    1    1    2  503  502 -0.18403294966E+02 -0.84423669560E+01  0.77239233224E+02  0.79848944730E+02  0.00000000000E+00 0.  1.
</event>
<event>
 4    1  0.2243645E+005  0.2302517E+02  0.7546771E-02  0.1492182E+00
          2   -1    0    0  502    0  0.00000000000E+00  0.00000000000E+00  0.25426371080E+03  0.25426371080E+03  0.00000000000E+00 0.  1.
         21   -1    0    0  503  502 -0.00000000000E+00 -0.00000000000E+00 -0.34242633937E+01  0.34242633937E+01  0.00000000000E+00 0.  1.
          2    1    1    2  501    0  0.22820919662E+02 -0.30600843609E+01  0.20599497673E+03  0.20727780616E+03  0.00000000000E+00 0.  1.
         21    1    1    2  503  501 -0.22820919662E+02  0.30600843609E+01  0.44844470681E+02  0.50410168034E+02  0.00000000000E+00 0.  1.
</event>
<event>
 4    1  0.2243645E+005  0.2343930E+02  0.7546771E-02  0.1487054E+00
          2   -1    0    0  502    0  0.00000000000E+00  0.00000000000E+00  0.13199867784E+04  0.13199867784E+04  0.00000000000E+00 0.  1.
         21   -1    0    0  503  502 -0.00000000000E+00 -0.00000000000E+00 -0.73553122301E+01  0.73553122301E+01  0.00000000000E+00 0.  1.
          2    1    1    2  501    0 -0.20720880707E+02  0.10956545334E+02  0.13009356823E+04  0.13011468211E+04  0.00000000000E+00 0.  1.
         21    1    1    2  503  501  0.20720880707E+02 -0.10956545334E+02  0.11695783926E+02  0.26195269507E+02  0.00000000000E+00 0.  1.
</event>
<event>
 4    1  0.2243645E+005  0.7674283E+02  0.7546771E-02  0.1211618E+00
          2   -1    0    0  503    0  0.00000000000E+00  0.00000000000E+00  0.12249912843E+03  0.12249912843E+03  0.00000000000E+00 0.  1.
         21   -1    0    0  501  502 -0.00000000000E+00 -0.00000000000E+00 -0.61469952694E+02  0.61469952694E+02  0.00000000000E+00 0.  1.
          2    1    1    2  501    0  0.21540157477E+02 -0.73657883202E+02 -0.12420474875E+02  0.77741432571E+02  0.00000000000E+00 0.  1.
         21    1    1    2  503  502 -0.21540157477E+02  0.73657883202E+02  0.73449650606E+02  0.10622764855E+03  0.00000000000E+00 0.  1.
</event>
<event>
 4    1  0.2243645E+005  0.2927431E+02  0.7546771E-02  0.1426009E+00
          2   -1    0    0  503    0  0.00000000000E+00  0.00000000000E+00  0.18906531520E+04  0.18906531520E+04  0.00000000000E+00 0. -1.
         21   -1    0    0  501  502 -0.00000000000E+00 -0.00000000000E+00 -0.69355422779E+00  0.69355422779E+00  0.00000000000E+00 0. -1.
          2    1    1    2  501    0 -0.26468001490E+02 -0.12507200953E+02  0.15016005006E+04  0.15018858307E+04  0.00000000000E+00 0. -1.
         21    1    1    2  503  502  0.26468001490E+02  0.12507200953E+02  0.38835909719E+03  0.38946087551E+03  0.00000000000E+00 0. -1.
</event>
<event>
 4    1  0.2243645E+005  0.2145863E+02  0.7546771E-02  0.1512817E+00
          2   -1    0    0  503    0  0.00000000000E+00  0.00000000000E+00  0.30073590813E+03  0.30073590813E+03  0.00000000000E+00 0.  1.
         21   -1    0    0  501  502 -0.00000000000E+00 -0.00000000000E+00 -0.42747951289E+02  0.42747951289E+02  0.00000000000E+00 0.  1.
          2    1    1    2  501    0 -0.16976606684E+02 -0.13125073898E+02  0.29763212132E+03  0.29840467889E+03  0.00000000000E+00 0.  1.
         21    1    1    2  503  502  0.16976606684E+02  0.13125073898E+02 -0.39644164485E+02  0.45079180527E+02  0.00000000000E+00 0.  1.
</event>
<event>
 4    1  0.2243645E+005  0.3461579E+02  0.7546771E-02  0.1383285E+00
          2   -1    0    0  503    0  0.00000000000E+00  0.00000000000E+00  0.85738380311E+01  0.85738380311E+01  0.00000000000E+00 0.  1.
         21   -1    0    0  501  502 -0.00000000000E+00 -0.00000000000E+00 -0.29203244523E+03  0.29203244523E+03  0.00000000000E+00 0. -1.
          2    1    1    2  501    0 -0.21190695031E+02  0.27371647926E+02 -0.33194844294E+02  0.47959882754E+02  0.00000000000E+00 0.  1.
         21    1    1    2  503  502  0.21190695031E+02 -0.27371647926E+02 -0.25026376291E+03  0.25264640051E+03  0.00000000000E+00 0. -1.
</event>
<event>
 4    1  0.2243645E+005  0.3925263E+02  0.7546771E-02  0.1352922E+00
          2   -1    0    0  502    0  0.00000000000E+00  0.00000000000E+00  0.19385673094E+03  0.19385673094E+03  0.00000000000E+00 0. -1.
         21   -1    0    0  503  502 -0.00000000000E+00 -0.00000000000E+00 -0.17593922152E+02  0.17593922152E+02  0.00000000000E+00 0.  1.
          2    1    1    2  501    0 -0.30249392020E+02  0.25014866095E+02  0.16641487102E+03  0.17098151520E+03  0.00000000000E+00 0. -1.
         21    1    1    2  503  501  0.30249392020E+02 -0.25014866095E+02  0.98479377661E+01  0.40469137890E+02  0.00000000000E+00 0.  1.
</event>
<event>
 4    1  0.2243645E+005  0.2092395E+02  0.7546771E-02  0.1520353E+00
          2   -1    0    0  503    0  0.00000000000E+00  0.00000000000E+00  0.36655592389E+03  0.36655592389E+03  0.00000000000E+00 0. -1.
         21   -1    0    0  501  502 -0.00000000000E+00 -0.00000000000E+00 -0.12468332839E+01  0.12468332839E+01  0.00000000000E+00 0. -1.
          2    1    1    2  501    0 -0.10118196984E+02  0.18314855802E+02  0.22036945229E+03  0.22136058221E+03  0.00000000000E+00 0. -1.
         21    1    1    2  503  502  0.10118196984E+02 -0.18314855802E+02  0.14493963832E+03  0.14644217497E+03  0.00000000000E+00 0. -1.
</event>
<event>
 4    1  0.2243645E+005  0.2353657E+02  0.7546771E-02  0.1485868E+00
          2   -1    0    0  503    0  0.00000000000E+00  0.00000000000E+00  0.99811881709E+03  0.99811881709E+03  0.00000000000E+00 0. -1.
         21   -1    0    0  501  502 -0.00000000000E+00 -0.00000000000E+00 -0.16522893284E+01  0.16522893284E+01  0.00000000000E+00 0. -1.
          2    1    1    2  501    0  0.83303861341E+01  0.22013064342E+02  0.90559971651E+03  0.90590552315E+03  0.00000000000E+00 0. -1.
         21    1    1    2  503  502 -0.83303861341E+01 -0.22013064342E+02  0.90866811253E+02  0.93865583268E+02  0.00000000000E+00 0. -1.
</event>
<event>
 4    1  0.2243645E+005  0.2729306E+02  0.7546771E-02  0.1444686E+00
          2   -1    0    0  502    0  0.00000000000E+00  0.00000000000E+00  0.36038190278E+03  0.36038190278E+03  0.00000000000E+00 0. -1.
         21   -1    0    0  503  502 -0.00000000000E+00 -0.00000000000E+00 -0.88643690107E+01  0.88643690107E+01  0.00000000000E+00 0. -1.
          2    1    1    2  501    0  0.26823404617E+02 -0.50414455139E+01  0.33742989646E+03  0.33853189840E+03  0.00000000000E+00 0. -1.
         21    1    1    2  503  501 -0.26823404617E+02  0.50414455139E+01  0.14087637315E+02  0.30714373398E+02  0.00000000000E+00 0. -1.
</event>
<event>
 4    1  0.2243645E+005  0.2179532E+02  0.7546771E-02  0.1508206E+00
          2   -1    0    0  503    0  0.00000000000E+00  0.00000000000E+00  0.98757292089E+03  0.98757292089E+03  0.00000000000E+00 0.  1.
         21   -1    0    0  501  502 -0.00000000000E+00 -0.00000000000E+00 -0.14344319522E+01  0.14344319522E+01  0.00000000000E+00 0.  1.
          2    1    1    2  501    0 -0.19384388106E+02 -0.99640064463E+01  0.89622356772E+03  0.89648854944E+03  0.00000000000E+00 0.  1.
         21    1    1    2  503  502  0.19384388106E+02  0.99640064463E+01  0.89914921211E+02  0.92518803403E+02  0.00000000000E+00 0.  1.
</event>
<event>
 4    1  0.2243645E+005  0.2058210E+02  0.7546771E-02  0.1525316E+00
          2   -1    0    0  502    0  0.00000000000E+00  0.00000000000E+00  0.55920792269E+03  0.55920792269E+03  0.00000000000E+00 0.  1.
         21   -1    0    0  503  502 -0.00000000000E+00 -0.00000000000E+00 -0.34355906664E+01  0.34355906664E+01  0.00000000000E+00 0. -1.
          2    1    1    2  501    0  0.47198061459E+01 -0.20033628256E+02  0.52626348861E+03  0.52666581650E+03  0.00000000000E+00 0.  1.
         21    1    1    2  503  501 -0.47198061459E+01  0.20033628256E+02  0.29508843417E+02  0.35977696854E+02  0.00000000000E+00 0. -1.
</event>
<event>
 4    1  0.2243645E+005  0.2032168E+02  0.7546771E-02  0.1529174E+00
          2   -1    0    0  502    0  0.00000000000E+00  0.00000000000E+00  0.51202676594E+03  0.51202676594E+03  0.00000000000E+00 0.  1.
         21   -1    0    0  503  502 -0.00000000000E+00 -0.00000000000E+00 -0.50322709385E+02  0.50322709385E+02  0.00000000000E+00 0.  1.
          2    1    1    2  501    0 -0.19863846500E+02  0.42893095151E+01  0.50976441782E+03  0.51016931723E+03  0.00000000000E+00 0.  1.
         21    1    1    2  503  501  0.19863846500E+02 -0.42893095151E+01 -0.48060361261E+02  0.52180158092E+02  0.00000000000E+00 0.  1.
</event>
<event>
 4    1  0.2243645E+005  0.2781183E+02  0.7546771E-02  0.1439619E+00
          2   -1    0    0  503    0  0.00000000000E+00  0.00000000000E+00  0.20916023869E+02  0.20916023869E+02  0.00000000000E+00 0. -1.
         21   -1    0    0  501  502 -0.00000000000E+00 -0.00000000000E+00 -0.97281684609E+03  0.97281684609E+03  0.00000000000E+00 0. -1.
          2    1    1    2  501    0 -0.27303416402E+02 -0.52935427919E+01  0.11380463731E+02  0.30050176326E+02  0.00000000000E+00 0. -1.
         21    1    1    2  503  502  0.27303416402E+02  0.52935427919E+01 -0.96328128595E+03  0.96368269363E+03  0.00000000000E+00 0. -1.
</event>
<event>
 4    1  0.2243645E+005  0.2009838E+02  0.7546771E-02  0.1532537E+00
          2   -1    0    0  502    0  0.00000000000E+00  0.00000000000E+00  0.23777553923E+03  0.23777553923E+03  0.00000000000E+00 0.  1.
         21   -1    0    0  503  502 -0.00000000000E+00 -0.00000000000E+00 -0.44607078908E+02  0.44607078908E+02  0.00000000000E+00 0. -1.
          2    1    1    2  501    0 -0.12745327185E+02 -0.15540316785E+02  0.23506082338E+03  0.23591849333E+03  0.00000000000E+00 0.  1.
         21    1    1    2  503  501  0.12745327185E+02  0.15540316785E+02 -0.41892363058E+02  0.46464124799E+02  0.00000000000E+00 0. -1.
</event>
<event>
 4    1  0.2243645E+005  0.3139118E+02  0.7546771E-02  0.1407880E+00
          2   -1    0    0  502    0  0.00000000000E+00  0.00000000000E+00  0.76644359594E+03  0.76644359594E+03  0.00000000000E+00 0. -1.
         21   -1    0    0  503  502 -0.00000000000E+00 -0.00000000000E+00 -0.72229864933E+01  0.72229864933E+01  0.00000000000E+00 0.  1.
          2    1    1    2  501    0  0.24810554181E+02 -0.19231287649E+02  0.73032983080E+03  0.73100415031E+03  0.00000000000E+00 0. -1.
         21    1    1    2  503  501 -0.24810554181E+02  0.19231287649E+02  0.28890778652E+02  0.42662432122E+02  0.00000000000E+00 0.  1.
</event>
<event>
 4    1  0.2243645E+005  0.2340792E+02  0.7546771E-02  0.1487438E+00
          2   -1    0    0  502    0  0.00000000000E+00  0.00000000000E+00  0.90644057607E+03  0.90644057607E+03  0.00000000000E+00 0.  1.
         21   -1    0    0  503  502 -0.00000000000E+00 -0.00000000000E+00 -0.76178957451E+01  0.76178957451E+01  0.00000000000E+00 0.  1.
          2    1    1    2  501    0 -0.10496238843E+02 -0.20922707458E+02  0.88793302461E+03  0.88824151385E+03  0.00000000000E+00 0.  1.
         21    1    1    2  503  501  0.10496238843E+02  0.20922707458E+02  0.10889655708E+02  0.25816957967E+02  0.00000000000E+00 0.  1.
</event>
<event>
 4    1  0.2243645E+005  0.2400276E+02  0.7546771E-02  0.1480276E+00
          2   -1    0    0  502    0  0.00000000000E+00  0.00000000000E+00  0.44005856451E+02  0.44005856451E+02  0.00000000000E+00 0. -1.
         21   -1    0    0  503  502 -0.00000000000E+00 -0.00000000000E+00 -0.94264296611E+02  0.94264296611E+02  0.00000000000E+00 0.  1.
          2    1    1    2  501    0 -0.88177597684E+01 -0.22324416752E+02  0.39025449879E+02  0.45816134809E+02  0.00000000000E+00 0. -1.
         21    1    1    2  503  501  0.88177597684E+01  0.22324416752E+02 -0.89283890039E+02  0.92454018253E+02  0.00000000000E+00 0.  1.
</event>
<event>
 4    1  0.2243645E+005  0.3206002E+02  0.7546771E-02  0.1402501E+00
          2   -1    0    0  503    0  0.00000000000E+00  0.00000000000E+00  0.34486118093E+02  0.34486118093E+02  0.00000000000E+00 0.  1.
         21   -1    0    0  501  502 -0.00000000000E+00 -0.00000000000E+00 -0.46175458593E+02  0.46175458593E+02  0.00000000000E+00 0.  1.
          2    1    1    2  501    0  0.26016049934E+02  0.18735256292E+02  0.18169464104E+02  0.36850700242E+02  0.00000000000E+00 0.  1.
         21    1    1    2  503  502 -0.26016049934E+02 -0.18735256292E+02 -0.29858804603E+02  0.43810876444E+02  0.00000000000E+00 0.  1.
</event>
<event>
 4    1  0.2243645E+005  0.2275050E+02  0.7546771E-02  0.1495655E+00
          2   -1    0    0  502    0  0.00000000000E+00  0.00000000000E+00  0.59610322463E+03  0.59610322463E+03  0.00000000000E+00 0. -1.
         21   -1    0    0  503  502 -0.00000000000E+00 -0.00000000000E+00 -0.24362693286E+01  0.24362693286E+01  0.00000000000E+00 0.  1.
          2    1    1    2  501    0 -0.22547319271E+02  0.30337524231E+01  0.53692208042E+03  0.53740385718E+03  0.00000000000E+00 0. -1.
         21    1    1    2  503  501  0.22547319271E+02 -0.30337524231E+01  0.56744874880E+02  0.61135636786E+02  0.00000000000E+00 0.  1.
</event>
<event>
 4    1  0.2243645E+005  0.2094159E+02  0.7546771E-02  0.1520100E+00
          2   -1    0    0  503    0  0.00000000000E+00  0.00000000000E+00  0.87262310831E+02  0.87262310831E+02  0.00000000000E+00 0. -1.
         21   -1    0    0  501  502 -0.00000000000E+00 -0.00000000000E+00 -0.51487893168E+02  0.51487893168E+02  0.00000000000E+00 0.  1.
          2    1    1    2  501    0  0.98708645814E+01  0.18469337654E+02  0.83789593577E+02  0.86366928814E+02  0.00000000000E+00 0. -1.
         21    1    1    2  503  502 -0.98708645814E+01 -0.18469337654E+02 -0.48015175915E+02  0.52383275185E+02  0.00000000000E+00 0.  1.
</event>
<event>
 4    1  0.2243645E+005  0.3206193E+02  0.7546771E-02  0.1402486E+00
          2   -1    0    0  503    0  0.00000000000E+00  0.00000000000E+00  0.10909871221E+02  0.10909871221E+02  0.00000000000E+00 0.  1.
         21   -1    0    0  501  502 -0.00000000000E+00 -0.00000000000E+00 -0.14699982139E+03  0.14699982139E+03  0.00000000000E+00 0.  1.
          2    1    1    2  501    0  0.11844422579E+02 -0.29793908561E+02 -0.20736435828E+02  0.38183335428E+02  0.00000000000E+00 0.  1.
         21    1    1    2  503  502 -0.11844422579E+02  0.29793908561E+02 -0.11535351434E+03  0.11972635718E+03  0.00000000000E+00 0.  1.
</event>
<event>
 4    1  0.2243645E+005  0.2178597E+02  0.7546771E-02  0.1508333E+00
          2   -1    0    0  503    0  0.00000000000E+00  0.00000000000E+00  0.36169361037E+03  0.36169361037E+03  0.00000000000E+00 0.  1.
         21   -1    0    0  501  502 -0.00000000000E+00 -0.00000000000E+00 -0.14634005477E+01  0.14634005477E+01  0.00000000000E+00 0.  1.
          2    1    1    2  501    0  0.20404461987E+02 -0.76345562701E+01  0.23847349056E+03  0.23946656180E+03  0.00000000000E+00 0.  1.
         21    1    1    2  503  502 -0.20404461987E+02  0.76345562701E+01  0.12175671926E+03  0.12369044912E+03  0.00000000000E+00 0.  1.
</event>
<event>
 4    1  0.2243645E+005  0.2100497E+02  0.7546771E-02  0.1519194E+00
          2   -1    0    0  503    0  0.00000000000E+00  0.00000000000E+00  0.13864050766E+03  0.13864050766E+03  0.00000000000E+00 0.  1.
         21   -1    0    0  501  502 -0.00000000000E+00 -0.00000000000E+00 -0.63102505689E+01  0.63102505689E+01  0.00000000000E+00 0.  1.
          2    1    1    2  501    0  0.20823153837E+02 -0.27577030855E+01  0.11719102428E+03  0.11905857732E+03  0.00000000000E+00 0.  1.
         21    1    1    2  503  502 -0.20823153837E+02  0.27577030855E+01  0.15139232811E+02  0.25892180907E+02  0.00000000000E+00 0.  1.
</event>
<event>
 4    1  0.2243645E+005  0.2809420E+02  0.7546771E-02  0.1436916E+00
          2   -1    0    0  502    0  0.00000000000E+00  0.00000000000E+00  0.18986331359E+03  0.18986331359E+03  0.00000000000E+00 0.  1.
         21   -1    0    0  503  502 -0.00000000000E+00 -0.00000000000E+00 -0.27675503618E+02  0.27675503618E+02  0.00000000000E+00 0.  1.
          2    1    1    2  501    0 -0.24244869815E+02  0.14194018108E+02  0.18136200158E+03  0.18352509224E+03  0.00000000000E+00 0.  1.
         21    1    1    2  503  501  0.24244869815E+02 -0.14194018108E+02 -0.19174191612E+02  0.34013724970E+02  0.00000000000E+00 0.  1.
</event>
<event>
 4    1  0.2243645E+005  0.3136486E+02  0.7546771E-02  0.1408095E+00
          2   -1    0    0  503    0  0.00000000000E+00  0.00000000000E+00  0.82658542150E+03  0.82658542150E+03  0.00000000000E+00 0. -1.
         21   -1    0    0  501  502 -0.00000000000E+00 -0.00000000000E+00 -0.83219779200E+01  0.83219779200E+01  0.00000000000E+00 0.  1.
          2    1    1    2  501    0  0.24595458618E+02  0.19463251765E+02  0.79558382877E+03  0.79620184837E+03  0.00000000000E+00 0. -1.
         21    1    1    2  503  502 -0.24595458618E+02 -0.19463251765E+02  0.22679614812E+02  0.38705551048E+02  0.00000000000E+00 0.  1.
</event>
<event>
 4    1  0.2243645E+005  0.2655638E+02  0.7546771E-02  0.1452116E+00
          2   -1    0    0  503    0  0.00000000000E+00  0.00000000000E+00  0.13139861008E+03  0.13139861008E+03  0.00000000000E+00 0. -1.
         21   -1    0    0  501  502 -0.00000000000E+00 -0.00000000000E+00 -0.53839835577E+01  0.53839835577E+01  0.00000000000E+00 0. -1.
          2    1    1    2  501    0 -0.65956270082E+01 -0.25724292950E+02  0.59187897163E+02  0.64872557480E+02  0.00000000000E+00 0. -1.
         21    1    1    2  503  502  0.65956270082E+01  0.25724292950E+02  0.66826729362E+02  0.71910036161E+02  0.00000000000E+00 0. -1.
</event>
<event>
 4    1  0.2243645E+005  0.2868042E+02  0.7546771E-02  0.1431421E+00
          2   -1    0    0  503    0  0.00000000000E+00  0.00000000000E+00  0.93915794835E+03  0.93915794835E+03  0.00000000000E+00 0. -1.
         21   -1    0    0  501  502 -0.00000000000E+00 -0.00000000000E+00 -0.77281761929E+02  0.77281761929E+02  0.00000000000E+00 0.  1.
          2    1    1    2  501    0 -0.27003484488E+02 -0.96632322044E+01  0.93626984579E+03  0.93670902118E+03  0.00000000000E+00 0. -1.
         21    1    1    2  503  502  0.27003484488E+02  0.96632322044E+01 -0.74393659363E+02  0.79730689101E+02  0.00000000000E+00 0.  1.
</event>
<event>
 4    1  0.2243645E+005  0.2298518E+02  0.7546771E-02  0.1492684E+00
          2   -1    0    0  503    0  0.00000000000E+00  0.00000000000E+00  0.36795715948E+03  0.36795715948E+03  0.00000000000E+00 0.  1.
         21   -1    0    0  501  502 -0.00000000000E+00 -0.00000000000E+00 -0.16892903300E+01  0.16892903300E+01  0.00000000000E+00 0.  1.
          2    1    1    2  501    0 -0.19178825992E+02  0.12668502930E+02  0.25472724120E+03  0.25576216636E+03  0.00000000000E+00 0.  1.
         21    1    1    2  503  502  0.19178825992E+02 -0.12668502930E+02  0.11154062795E+03  0.11388428345E+03  0.00000000000E+00 0.  1.
</event>
<event>
 4    1  0.2243645E+005  0.2247286E+02  0.7546771E-02  0.1499226E+00
          2   -1    0    0  502    0  0.00000000000E+00  0.00000000000E+00  0.12625843475E+04  0.12625843475E+04  0.00000000000E+00 0. -1.
         21   -1    0    0  503  502 -0.00000000000E+00 -0.00000000000E+00 -0.37531075701E+01  0.37531075701E+01  0.00000000000E+00 0. -1.
          2    1    1    2  501    0 -0.19219385787E+02 -0.11646661327E+02  0.12278932344E+04  0.12280988660E+04  0.00000000000E+00 0. -1.
         21    1    1    2  503  501  0.19219385787E+02  0.11646661327E+02  0.30938005520E+02  0.38238589091E+02  0.00000000000E+00 0. -1.
</event>
<event>
 4    1  0.2243645E+005  0.2658828E+02  0.7546771E-02  0.1451788E+00
          2   -1    0    0  503    0  0.00000000000E+00  0.00000000000E+00  0.41777491943E+02  0.41777491943E+02  0.00000000000E+00 0. -1.
         21   -1    0    0  501  502 -0.00000000000E+00 -0.00000000000E+00 -0.25533151608E+03  0.25533151608E+03  0.00000000000E+00 0. -1.
          2    1    1    2  501    0  0.29214222273E+01  0.26427291254E+02  0.36770573018E+02  0.45376331616E+02  0.00000000000E+00 0. -1.
         21    1    1    2  503  502 -0.29214222273E+01 -0.26427291254E+02 -0.25032459715E+03  0.25173267640E+03  0.00000000000E+00 0. -1.
</event>
<event>
 4    1  0.2243645E+005  0.2021693E+02  0.7546771E-02  0.1530745E+00
          2   -1    0    0  503    0  0.00000000000E+00  0.00000000000E+00  0.13329065979E+04  0.13329065979E+04  0.00000000000E+00 0.  1.
         21   -1    0    0  501  502 -0.00000000000E+00 -0.00000000000E+00 -0.36746789154E+00  0.36746789154E+00  0.00000000000E+00 0.  1.
          2    1    1    2  501    0 -0.13716491892E+02  0.14852000666E+02  0.39504635715E+03  0.39556333042E+03  0.00000000000E+00 0.  1.
         21    1    1    2  503  502  0.13716491892E+02 -0.14852000666E+02  0.93749277282E+03  0.93771073533E+03  0.00000000000E+00 0.  1.
</event>
<event>
 4    1  0.2243645E+005  0.5405749E+02  0.7546771E-02  0.1281478E+00
          2   -1    0    0  502    0  0.00000000000E+00  0.00000000000E+00  0.84237999223E+03  0.84237999223E+03  0.00000000000E+00 0.  1.
         21   -1    0    0  503  502 -0.00000000000E+00 -0.00000000000E+00 -0.25958969619E+02  0.25958969619E+02  0.00000000000E+00 0. -1.
          2    1    1    2  501    0  0.45409633238E+01 -0.53866423737E+02  0.81233023764E+03  0.81412691083E+03  0.00000000000E+00 0.  1.
         21    1    1    2  503  501 -0.45409633238E+01  0.53866423737E+02  0.40907849723E+01  0.54212051020E+02  0.00000000000E+00 0. -1.
</event>
<event>
 4    1  0.2243645E+005  0.3540479E+02  0.7546771E-02  0.1377740E+00
          2   -1    0    0  502    0  0.00000000000E+00  0.00000000000E+00  0.19160507523E+04  0.19160507523E+04  0.00000000000E+00 0.  1.
         21   -1    0    0  503  502 -0.00000000000E+00 -0.00000000000E+00 -0.18101707045E+02  0.18101707045E+02  0.00000000000E+00 0. -1.
          2    1    1    2  501    0  0.15349784597E+01  0.35371504053E+02  0.18984144907E+04  0.18987446057E+04  0.00000000000E+00 0.  1.
         21    1    1    2  503  501 -0.15349784597E+01 -0.35371504053E+02 -0.46544540569E+00  0.35407853610E+02  0.00000000000E+00 0. -1.
</event>
<event>
 4    1  0.2243645E+005  0.4314423E+02  0.7546771E-02  0.1330984E+00
          2   -1    0    0  502    0  0.00000000000E+00  0.00000000000E+00  0.14432122949E+04  0.14432122949E+04  0.00000000000E+00 0. -1.
         21   -1    0    0  503  502 -0.00000000000E+00 -0.00000000000E+00 -0.62000041034E+01  0.62000041034E+01  0.00000000000E+00 0.  1.
          2    1    1    2  501    0 -0.42189431084E+01 -0.42937456968E+02  0.13634422141E+04  0.13641246629E+04  0.00000000000E+00 0. -1.
         21    1    1    2  503  501  0.42189431084E+01  0.42937456968E+02  0.73570076772E+02  0.85287636197E+02  0.00000000000E+00 0.  1.
</event>
<event>
 4    1  0.2243645E+005  0.2429540E+02  0.7546771E-02  0.1476842E+00
          2   -1    0    0  503    0  0.00000000000E+00  0.00000000000E+00  0.36570281155E+03  0.36570281155E+03  0.00000000000E+00 0.  1.
         21   -1    0    0  501  502 -0.00000000000E+00 -0.00000000000E+00 -0.42592616857E+02  0.42592616857E+02  0.00000000000E+00 0. -1.
          2    1    1    2  501    0  0.22287183186E+02 -0.96720266513E+01  0.36179733260E+03  0.36261215715E+03  0.00000000000E+00 0.  1.
         21    1    1    2  503  502 -0.22287183186E+02  0.96720266513E+01 -0.38687137905E+02  0.45683271262E+02  0.00000000000E+00 0. -1.
</event>
<event>
 4    1  0.2243645E+005  0.2943114E+02  0.7546771E-02  0.1424605E+00
          2   -1    0    0  503    0  0.00000000000E+00  0.00000000000E+00  0.16550308952E+04  0.16550308952E+04  0.00000000000E+00 0.  1.
         21   -1    0    0  501  502 -0.00000000000E+00 -0.00000000000E+00 -0.63227721593E+00  0.63227721593E+00  0.00000000000E+00 0.  1.
          2    1    1    2  501    0  0.29281476450E+02 -0.29642648398E+01  0.11707720597E+04  0.11711419246E+04  0.00000000000E+00 0.  1.
         21    1    1    2  503  502 -0.29281476450E+02  0.29642648398E+01  0.48362655830E+03  0.48452124786E+03  0.00000000000E+00 0.  1.
</event>
<event>
 4    1  0.2243645E+005  0.2380410E+02  0.7546771E-02  0.1482641E+00
          2   -1    0    0  503    0  0.00000000000E+00  0.00000000000E+00  0.48432261870E+03  0.48432261870E+03  0.00000000000E+00 0. -1.
         21   -1    0    0  501  502 -0.00000000000E+00 -0.00000000000E+00 -0.15276038041E+02  0.15276038041E+02  0.00000000000E+00 0.  1.
          2    1    1    2  501    0 -0.19171460741E+02  0.14109930394E+02  0.47456634169E+03  0.47516296963E+03  0.00000000000E+00 0. -1.
         21    1    1    2  503  502  0.19171460741E+02 -0.14109930394E+02 -0.55197610314E+01  0.24435687110E+02  0.00000000000E+00 0.  1.
</event>
<event>
 4    1  0.2243645E+005  0.2012696E+02  0.7546771E-02  0.1532104E+00
          2   -1    0    0  502    0  0.00000000000E+00  0.00000000000E+00  0.18539415761E+02  0.18539415761E+02  0.00000000000E+00 0.  1.
         21   -1    0    0  503  502 -0.00000000000E+00 -0.00000000000E+00 -0.48225152189E+02  0.48225152189E+02  0.00000000000E+00 0.  1.
          2    1    1    2  501    0 -0.10860099165E+02  0.16945586563E+02  0.98443974288E+01  0.22405508666E+02  0.00000000000E+00 0.  1.
         21    1    1    2  503  501  0.10860099165E+02 -0.16945586563E+02 -0.39530133857E+02  0.44359059285E+02  0.00000000000E+00 0.  1.
</event>
<event>
 4    1  0.2243645E+005  0.2164000E+02  0.7546771E-02  0.1510320E+00
          2   -1    0    0  502    0  0.00000000000E+00  0.00000000000E+00  0.12289349226E+03  0.12289349226E+03  0.00000000000E+00 0.  1.
         21   -1    0    0  503  502 -0.00000000000E+00 -0.00000000000E+00 -0.11364484359E+02  0.11364484359E+02  0.00000000000E+00 0.  1.
          2    1    1    2  501    0 -0.21610352003E+02  0.11324380813E+01  0.11049410991E+03  0.11259324160E+03  0.00000000000E+00 0.  1.
         21    1    1    2  503  501  0.21610352003E+02 -0.11324380813E+01  0.10348979954E+01  0.21664735022E+02  0.00000000000E+00 0.  1.
</event>
<event>
 4    1  0.2243645E+005  0.2754481E+02  0.7546771E-02  0.1442211E+00
          2   -1    0    0  502    0  0.00000000000E+00  0.00000000000E+00  0.26974467672E+01  0.26974467672E+01  0.00000000000E+00 0. -1.
         21   -1    0    0  503  502 -0.00000000000E+00 -0.00000000000E+00 -0.85568492845E+03  0.85568492845E+03  0.00000000000E+00 0.  1.
          2    1    1    2  501    0  0.58164715543E+01 -0.26923696253E+02 -0.74847575468E+02  0.79755102123E+02  0.00000000000E+00 0. -1.
         21    1    1    2  503  501 -0.58164715543E+01  0.26923696253E+02 -0.77813990621E+03  0.77862727309E+03  0.00000000000E+00 0.  1.
</event>
<event>
 4    1  0.2243645E+005  0.3530185E+02  0.7546771E-02  0.1378453E+00
          2   -1    0    0  503    0  0.00000000000E+00  0.00000000000E+00  0.42617199099E+03  0.42617199099E+03  0.00000000000E+00 0.  1.
         21   -1    0    0  501  502 -0.00000000000E+00 -0.00000000000E+00 -0.61038991203E+01  0.61038991203E+01  0.00000000000E+00 0. -1.
          2    1    1    2  501    0 -0.85673121639E+01 -0.34246482467E+02  0.36603204708E+03  0.36773044460E+03  0.00000000000E+00 0.  1.
         21    1    1    2  503  502  0.85673121639E+01  0.34246482467E+02  0.54036044789E+02  0.64545445506E+02  0.00000000000E+00 0. -1.
</event>
<event>
 4    1  0.2243645E+005  0.2812440E+02  0.7546771E-02  0.1436629E+00
          2   -1    0    0  502    0  0.00000000000E+00  0.00000000000E+00  0.15550134451E+04  0.15550134451E+04  0.00000000000E+00 0.  1.
         21   -1    0    0  503  502 -0.00000000000E+00 -0.00000000000E+00 -0.30730169219E+01  0.30730169219E+01  0.00000000000E+00 0.  1.
          2    1    1    2  501    0  0.28062606472E+02  0.18633963866E+01  0.14876224683E+04  0.14878882990E+04  0.00000000000E+00 0.  1.
         21    1    1    2  503  501 -0.28062606472E+02 -0.18633963866E+01  0.64317959893E+02  0.70198163031E+02  0.00000000000E+00 0.  1.
</event>
<event>
 4    1  0.2243645E+005  0.2957649E+02  0.7546771E-02  0.1423313E+00
          2   -1    0    0  503    0  0.00000000000E+00  0.00000000000E+00  0.22135719335E+03  0.22135719335E+03  0.00000000000E+00 0.  1.
         21   -1    0    0  501  502 -0.00000000000E+00 -0.00000000000E+00 -0.73080592987E+01  0.73080592987E+01  0.00000000000E+00 0.  1.
          2    1    1    2  501    0 -0.21001628886E+02  0.20825470618E+02  0.18450538331E+03  0.18686092452E+03  0.00000000000E+00 0.  1.
         21    1    1    2  503  502  0.21001628886E+02 -0.20825470618E+02  0.29543750739E+02  0.41804328126E+02  0.00000000000E+00 0.  1.
</event>
<event>
 4    1  0.2243645E+005  0.2863540E+02  0.7546771E-02  0.1431837E+00
          2   -1    0    0  502    0  0.00000000000E+00  0.00000000000E+00  0.63047058368E+02  0.63047058368E+02  0.00000000000E+00 0.  1.
         21   -1    0    0  503  502 -0.00000000000E+00 -0.00000000000E+00 -0.13011695510E+02  0.13011695510E+02  0.00000000000E+00 0.  1.
          2    1    1    2  501    0 -0.18071091541E+02  0.22213096227E+02  0.25817796787E+02  0.38555734001E+02  0.00000000000E+00 0.  1.
         21    1    1    2  503  501  0.18071091541E+02 -0.22213096227E+02  0.24217566071E+02  0.37503019877E+02  0.00000000000E+00 0.  1.
</event>
<event>
 4    1  0.2243645E+005  0.2145575E+02  0.7546771E-02  0.1512856E+00
          2   -1    0    0  502    0  0.00000000000E+00  0.00000000000E+00  0.64470918270E+03  0.64470918270E+03  0.00000000000E+00 0.  1.
         21   -1    0    0  503  502 -0.00000000000E+00 -0.00000000000E+00 -0.13929022670E+01  0.13929022670E+01  0.00000000000E+00 0. -1.
          2    1    1    2  501    0 -0.21275671409E+02 -0.27740259349E+01  0.54718643161E+03  0.54760692139E+03  0.00000000000E+00 0.  1.
         21    1    1    2  503  501  0.21275671409E+02  0.27740259349E+01  0.96129848827E+02  0.98495163583E+02  0.00000000000E+00 0. -1.
</event>
<event>
 4    1  0.2243645E+005  0.5351502E+02  0.7546771E-02  0.1283612E+00
          2   -1    0    0  503    0  0.00000000000E+00  0.00000000000E+00  0.22647531291E+01  0.22647531291E+01  0.00000000000E+00 0.  1.
         21   -1    0    0  501  502 -0.00000000000E+00 -0.00000000000E+00 -0.12715766375E+04  0.12715766375E+04  0.00000000000E+00 0.  1.
          2    1    1    2  501    0 -0.17810497604E+02 -0.50464280082E+02 -0.58725565196E+03  0.58968895034E+03  0.00000000000E+00 0.  1.
         21    1    1    2  503  502  0.17810497604E+02  0.50464280082E+02 -0.68205623245E+03  0.68415244034E+03  0.00000000000E+00 0.  1.
</event>
<event>
 4    1  0.2243645E+005  0.3561306E+02  0.7546771E-02  0.1376304E+00
          2   -1    0    0  503    0  0.00000000000E+00  0.00000000000E+00  0.11013558999E+04  0.11013558999E+04  0.00000000000E+00 0.  1.
         21   -1    0    0  501  502 -0.00000000000E+00 -0.00000000000E+00 -0.41291584717E+01  0.41291584717E+01  0.00000000000E+00 0.  1.
          2    1    1    2  501    0  0.76296072088E+01 -0.34786187435E+02  0.10179931271E+04  0.10186158729E+04  0.00000000000E+00 0.  1.
         21    1    1    2  503  502 -0.76296072088E+01  0.34786187435E+02  0.79233614392E+02  0.86869185515E+02  0.00000000000E+00 0.  1.
</event>
<event>
 4    1  0.2243645E+005  0.2543468E+02  0.7546771E-02  0.1463999E+00
          2   -1    0    0  502    0  0.00000000000E+00  0.00000000000E+00  0.38184395939E+02  0.38184395939E+02  0.00000000000E+00 0.  1.
         21   -1    0    0  503  502 -0.00000000000E+00 -0.00000000000E+00 -0.43978810134E+02  0.43978810134E+02  0.00000000000E+00 0. -1.
          2    1    1    2  501    0 -0.66660003164E+01 -0.24545619514E+02  0.29313684546E+02  0.38809987106E+02  0.00000000000E+00 0.  1.
         21    1    1    2  503  501  0.66660003164E+01  0.24545619514E+02 -0.35108098742E+02  0.43353218967E+02  0.00000000000E+00 0. -1.
</event>
<event>
 4    1  0.2243645E+005  0.2551079E+02  0.7546771E-02  0.1463170E+00
          2   -1    0    0  502    0  0.00000000000E+00  0.00000000000E+00  0.22158077451E+03  0.22158077451E+03  0.00000000000E+00 0. -1.
         21   -1    0    0  503  502 -0.00000000000E+00 -0.00000000000E+00 -0.91034336816E+01  0.91034336816E+01  0.00000000000E+00 0. -1.
          2    1    1    2  501    0  0.21785001246E+02 -0.13274575717E+02  0.20116778721E+03  0.20277889252E+03  0.00000000000E+00 0. -1.
         21    1    1    2  503  501 -0.21785001246E+02  0.13274575717E+02  0.11309553617E+02  0.27905315673E+02  0.00000000000E+00 0. -1.
</event>
<event>
 4    1  0.2243645E+005  0.2571975E+02  0.7546771E-02  0.1460910E+00
          2   -1    0    0  503    0  0.00000000000E+00  0.00000000000E+00  0.20972871294E+04  0.20972871294E+04  0.00000000000E+00 0.  1.
         21   -1    0    0  501  502 -0.00000000000E+00 -0.00000000000E+00 -0.33289298159E+00  0.33289298159E+00  0.00000000000E+00 0.  1.
          2    1    1    2  501    0  0.20835562555E+02  0.15079284722E+02  0.12888310882E+04  0.12890876927E+04  0.00000000000E+00 0.  1.
         21    1    1    2  503  502 -0.20835562555E+02 -0.15079284722E+02  0.80812314817E+03  0.80853232966E+03  0.00000000000E+00 0.  1.
</event>
<event>
 4    1  0.2243645E+005  0.3007580E+02  0.7546771E-02  0.1418939E+00
          2   -1    0    0  502    0  0.00000000000E+00  0.00000000000E+00  0.30624519588E+01  0.30624519588E+01  0.00000000000E+00 0.  1.
         21   -1    0    0  503  502 -0.00000000000E+00 -0.00000000000E+00 -0.35505226195E+03  0.35505226195E+03  0.00000000000E+00 0.  1.
          2    1    1    2  501    0  0.19428305689E+02  0.22958537888E+02 -0.10258204837E+03  0.10690009435E+03  0.00000000000E+00 0.  1.
         21    1    1    2  503  501 -0.19428305689E+02 -0.22958537888E+02 -0.24940776162E+03  0.25121461956E+03  0.00000000000E+00 0.  1.
</event>
<event>
 4    1  0.2243645E+005  0.3111271E+02  0.7546771E-02  0.1410167E+00
          2   -1    0    0  502    0  0.00000000000E+00  0.00000000000E+00  0.20005071666E+03  0.20005071666E+03  0.00000000000E+00 0.  1.
         21   -1    0    0  503  502 -0.00000000000E+00 -0.00000000000E+00 -0.12784797791E+02  0.12784797791E+02  0.00000000000E+00 0. -1.
          2    1    1    2  501    0 -0.29757924423E+02  0.90811302654E+01  0.17752910204E+03  0.18023479982E+03  0.00000000000E+00 0.  1.
         21    1    1    2  503  501  0.29757924423E+02 -0.90811302654E+01  0.97368168268E+01  0.32600714636E+02  0.00000000000E+00 0. -1.
</event>
<event>
 4    1  0.2243645E+005  0.3316344E+02  0.7546771E-02  0.1393956E+00
          2   -1    0    0  502    0  0.00000000000E+00  0.00000000000E+00  0.23231285138E+04  0.23231285138E+04  0.00000000000E+00 0.  1.
         21   -1    0    0  503  502 -0.00000000000E+00 -0.00000000000E+00 -0.79716036962E+01  0.79716036962E+01  0.00000000000E+00 0. -1.
          2    1    1    2  501    0  0.15203711773E+01  0.33128570008E+02  0.22879888469E+04  0.22882291794E+04  0.00000000000E+00 0.  1.
         21    1    1    2  503  501 -0.15203711773E+01 -0.33128570008E+02  0.27168063197E+02  0.42870938142E+02  0.00000000000E+00 0. -1.
</event>
<event>
 4    1  0.2243645E+005  0.4011301E+02  0.7546771E-02  0.1347825E+00
          2   -1    0    0  502    0  0.00000000000E+00  0.00000000000E+00  0.17730492597E+03  0.17730492597E+03  0.00000000000E+00 0.  1.
         21   -1    0    0  503  502 -0.00000000000E+00 -0.00000000000E+00 -0.13057812394E+03  0.13057812394E+03  0.00000000000E+00 0. -1.
          2    1    1    2  501    0 -0.37492917920E+02 -0.14259541697E+02  0.17185920465E+03  0.17647843961E+03  0.00000000000E+00 0.  1.
         21    1    1    2  503  501  0.37492917920E+02  0.14259541697E+02 -0.12513240262E+03  0.13140461031E+03  0.00000000000E+00 0. -1.
</event>
<event>
 4    1  0.2243645E+005  0.2063404E+02  0.7546771E-02  0.1524555E+00
          2   -1    0    0  502    0  0.00000000000E+00  0.00000000000E+00  0.10014831331E+04  0.10014831331E+04  0.00000000000E+00 0.  1.
         21   -1    0    0  503  502 -0.00000000000E+00 -0.00000000000E+00 -0.50300422710E+01  0.50300422710E+01  0.00000000000E+00 0.  1.
          2    1    1    2  501    0 -0.24908818437E+01  0.20483140842E+02  0.97974638881E+03  0.97996364725E+03  0.00000000000E+00 0.  1.
         21    1    1    2  503  501  0.24908818437E+01 -0.20483140842E+02  0.16706702027E+02  0.26549528126E+02  0.00000000000E+00 0.  1.
</event>
<event>
 4    1  0.2243645E+005  0.4511062E+02  0.7546771E-02  0.1320887E+00
          2   -1    0    0  503    0  0.00000000000E+00  0.00000000000E+00  0.16210057044E+03  0.16210057044E+03  0.00000000000E+00 0.  1.
         21   -1    0    0  501  502 -0.00000000000E+00 -0.00000000000E+00 -0.13906058294E+02  0.13906058294E+02  0.00000000000E+00 0.  1.
          2    1    1    2  501    0  0.11594374894E+02 -0.43595162488E+02  0.10154060798E+03  0.11111013811E+03  0.00000000000E+00 0.  1.
         21    1    1    2  503  502 -0.11594374894E+02  0.43595162488E+02  0.46653904164E+02  0.64896490623E+02  0.00000000000E+00 0.  1.
</event>
<event>
 4    1  0.2243645E+005  0.2243685E+02  0.7546771E-02  0.1499693E+00
          2   -1    0    0  503    0  0.00000000000E+00  0.00000000000E+00  0.12251943931E+04  0.12251943931E+04  0.00000000000E+00 0. -1.
         21   -1    0    0  501  502 -0.00000000000E+00 -0.00000000000E+00 -0.14064925990E+03  0.14064925990E+03  0.00000000000E+00 0.  1.
          2    1    1    2  501    0 -0.39608339950E+01 -0.22084475516E+02  0.12241961418E+04  0.12244017339E+04  0.00000000000E+00 0. -1.
         21    1    1    2  503  502  0.39608339950E+01  0.22084475516E+02 -0.13965100865E+03  0.14144191911E+03  0.00000000000E+00 0.  1.
</event>
<event>
 4    1  0.2243645E+005  0.2832996E+02  0.7546771E-02  0.1434687E+00
          2   -1    0    0  503    0  0.00000000000E+00  0.00000000000E+00  0.16263058267E+04  0.16263058267E+04  0.00000000000E+00 0. -1.
         21   -1    0    0  501  502 -0.00000000000E+00 -0.00000000000E+00 -0.50127334157E+00  0.50127334157E+00  0.00000000000E+00 0. -1.
          2    1    1    2  501    0  0.22774719396E+02  0.16849303405E+02  0.91417388497E+03  0.91461274801E+03  0.00000000000E+00 0. -1.
         21    1    1    2  503  502 -0.22774719396E+02 -0.16849303405E+02  0.71163066836E+03  0.71219435200E+03  0.00000000000E+00 0. -1.
</event>
<event>
 4    1  0.2243645E+005  0.4096301E+02  0.7546771E-02  0.1342933E+00
          2   -1    0    0  503    0  0.00000000000E+00  0.00000000000E+00  0.88423214929E+02  0.88423214929E+02  0.00000000000E+00 0.  1.
         21   -1    0    0  501  502 -0.00000000000E+00 -0.00000000000E+00 -0.26695878169E+02  0.26695878169E+02  0.00000000000E+00 0. -1.
          2    1    1    2  501    0  0.27038430698E+02 -0.30771605467E+02  0.61815384307E+02  0.74155985427E+02  0.00000000000E+00 0.  1.
         21    1    1    2  503  502 -0.27038430698E+02  0.30771605467E+02 -0.88047547178E-01  0.40963107670E+02  0.00000000000E+00 0. -1.
</event>
<event>
 4    1  0.2243645E+005  0.3774764E+02  0.7546771E-02  0.1362215E+00
          2   -1    0    0  503    0  0.00000000000E+00  0.00000000000E+00  0.44960253246E+02  0.44960253246E+02  0.00000000000E+00 0. -1.
         21   -1    0    0  501  502 -0.00000000000E+00 -0.00000000000E+00 -0.11949225899E+03  0.11949225899E+03  0.00000000000E+00 0.  1.
          2    1    1    2  501    0 -0.76236396401E+01 -0.36969777304E+02  0.33217634969E+02  0.50282159741E+02  0.00000000000E+00 0. -1.
         21    1    1    2  503  502  0.76236396401E+01  0.36969777304E+02 -0.10774964072E+03  0.11417035250E+03  0.00000000000E+00 0.  1.
</event>
<event>
 4    1  0.2243645E+005  0.6396128E+02  0.7546771E-02  0.1246937E+00
          2   -1    0    0  502    0  0.00000000000E+00  0.00000000000E+00  0.58144786816E+03  0.58144786816E+03  0.00000000000E+00 0.  1.
         21   -1    0    0  503  502 -0.00000000000E+00 -0.00000000000E+00 -0.10530228904E+02  0.10530228904E+02  0.00000000000E+00 0. -1.
          2    1    1    2  501    0 -0.18397481276E+02 -0.61258289302E+02  0.45596288977E+03  0.46042719530E+03  0.00000000000E+00 0.  1.
         21    1    1    2  503  501  0.18397481276E+02  0.61258289302E+02  0.11495474949E+03  0.13155090177E+03  0.00000000000E+00 0. -1.
</event>
<event>
 4    1  0.2243645E+005  0.3071158E+02  0.7546771E-02  0.1413512E+00
          2   -1    0    0  503    0  0.00000000000E+00  0.00000000000E+00  0.10262159320E+04  0.10262159320E+04  0.00000000000E+00 0. -1.
         21   -1    0    0  501  502 -0.00000000000E+00 -0.00000000000E+00 -0.10019959036E+01  0.10019959036E+01  0.00000000000E+00 0. -1.
          2    1    1    2  501    0  0.10210737052E+02  0.28964492089E+02  0.66033098936E+03  0.66104479157E+03  0.00000000000E+00 0. -1.
         21    1    1    2  503  502 -0.10210737052E+02 -0.28964492089E+02  0.36488294672E+03  0.36617313632E+03  0.00000000000E+00 0. -1.
</event>
<event>
 4    1  0.2243645E+005  0.2603586E+02  0.7546771E-02  0.1457541E+00
          2   -1    0    0  502    0  0.00000000000E+00  0.00000000000E+00  0.38650522570E+03  0.38650522570E+03  0.00000000000E+00 0.  1.
         21   -1    0    0  503  502 -0.00000000000E+00 -0.00000000000E+00 -0.17310218049E+02  0.17310218049E+02  0.00000000000E+00 0. -1.
          2    1    1    2  501    0  0.13283289594E+02 -0.22392419522E+02  0.37600369414E+03  0.37690402524E+03  0.00000000000E+00 0.  1.
         21    1    1    2  503  501 -0.13283289594E+02  0.22392419522E+02 -0.68086864890E+01  0.26911418509E+02  0.00000000000E+00 0. -1.
</event>
<event>
 4    1  0.2243645E+005  0.2006361E+02  0.7546771E-02  0.1533066E+00
          2   -1    0    0  502    0  0.00000000000E+00  0.00000000000E+00  0.73610745918E+03  0.73610745918E+03  0.00000000000E+00 0.  1.
         21   -1    0    0  503  502 -0.00000000000E+00 -0.00000000000E+00 -0.28355425960E+01  0.28355425960E+01  0.00000000000E+00 0. -1.
          2    1    1    2  501    0 -0.49895947609E+01 -0.19433280774E+02  0.69857286773E+03  0.69886093036E+03  0.00000000000E+00 0.  1.
         21    1    1    2  503  501  0.49895947609E+01  0.19433280774E+02  0.34699048855E+02  0.40082071416E+02  0.00000000000E+00 0. -1.
</event>
<event>
 4    1  0.2243645E+005  0.2061276E+02  0.7546771E-02  0.1524866E+00
          2   -1    0    0  502    0  0.00000000000E+00  0.00000000000E+00  0.23278833580E+03  0.23278833580E+03  0.00000000000E+00 0.  1.
         21   -1    0    0  503  502 -0.00000000000E+00 -0.00000000000E+00 -0.70831821490E+01  0.70831821490E+01  0.00000000000E+00 0. -1.
          2    1    1    2  501    0 -0.19410866851E+02 -0.69357074070E+01  0.21618674418E+03  0.21716720321E+03  0.00000000000E+00 0.  1.
         21    1    1    2  503  501  0.19410866851E+02  0.69357074070E+01  0.95184094723E+01  0.22704314744E+02  0.00000000000E+00 0. -1.
</event>
<event>
 4    1  0.2243645E+005  0.2004389E+02  0.7546771E-02  0.1533366E+00
          2   -1    0    0  503    0  0.00000000000E+00  0.00000000000E+00  0.50637304934E+03  0.50637304934E+03  0.00000000000E+00 0.  1.
         21   -1    0    0  501  502 -0.00000000000E+00 -0.00000000000E+00 -0.10782962266E+01  0.10782962266E+01  0.00000000000E+00 0.  1.
          2    1    1    2  501    0  0.12392875894E+02 -0.15753545003E+02  0.38306520027E+03  0.38358924021E+03  0.00000000000E+00 0.  1.
         21    1    1    2  503  502 -0.12392875894E+02  0.15753545003E+02  0.12222955284E+03  0.12386210535E+03  0.00000000000E+00 0.  1.
</event>
<event>
 4    1  0.4001414E+005  0.2010565E+02  0.7546771E-02  0.1532427E+00
          2   -1    0    0  503    0  0.00000000000E+00  0.00000000000E+00  0.84907514875E+03  0.84907514875E+03  0.00000000000E+00 0.  1.
         21   -1    0    0  501  502 -0.00000000000E+00 -0.00000000000E+00 -0.22017240177E+03  0.22017240177E+03  0.00000000000E+00 0. -1.
          2    1    1    2  501    0  0.19956055049E+02 -0.24480957218E+01  0.84849681223E+03  0.84873498671E+03  0.00000000000E+00 0.  1.
         21    1    1    2  503  502 -0.19956055049E+02  0.24480957218E+01 -0.21959406525E+03  0.22051256381E+03  0.00000000000E+00 0. -1.
</event>
<event>
 4    1  0.2243645E+005  0.3694343E+02  0.7546771E-02  0.1367392E+00
          2   -1    0    0  502    0  0.00000000000E+00  0.00000000000E+00  0.25583370245E+03  0.25583370245E+03  0.00000000000E+00 0.  1.
         21   -1    0    0  503  502 -0.00000000000E+00 -0.00000000000E+00 -0.28280315509E+02  0.28280315509E+02  0.00000000000E+00 0.  1.
          2    1    1    2  501    0  0.35027055138E+02  0.11744045680E+02  0.24173533326E+03  0.24454199751E+03  0.00000000000E+00 0.  1.
         21    1    1    2  503  501 -0.35027055138E+02 -0.11744045680E+02 -0.14181946322E+02  0.39572020445E+02  0.00000000000E+00 0.  1.
</event>
<event>
 4    1  0.2243645E+005  0.4515167E+02  0.7546771E-02  0.1320683E+00
          2   -1    0    0  503    0  0.00000000000E+00  0.00000000000E+00  0.99301665749E+03  0.99301665749E+03  0.00000000000E+00 0.  1.
         21   -1    0    0  501  502 -0.00000000000E+00 -0.00000000000E+00 -0.10241991108E+02  0.10241991108E+02  0.00000000000E+00 0.  1.
          2    1    1    2  501    0  0.10397605343E+02  0.43938169733E+02  0.93993196000E+03  0.94101581410E+03  0.00000000000E+00 0.  1.
         21    1    1    2  503  502 -0.10397605343E+02 -0.43938169733E+02  0.42842706388E+02  0.62242834504E+02  0.00000000000E+00 0.  1.
</event>
<event>
 4    1  0.2243645E+005  0.2155708E+02  0.7546771E-02  0.1511458E+00
          2   -1    0    0  503    0  0.00000000000E+00  0.00000000000E+00  0.66017259639E+03  0.66017259639E+03  0.00000000000E+00 0. -1.
         21   -1    0    0  501  502 -0.00000000000E+00 -0.00000000000E+00 -0.10733431975E+01  0.10733431975E+01  0.00000000000E+00 0. -1.
          2    1    1    2  501    0  0.19575281388E+02 -0.90286144898E+01  0.52351617799E+03  0.52395982302E+03  0.00000000000E+00 0. -1.
         21    1    1    2  503  502 -0.19575281388E+02  0.90286144898E+01  0.13558307521E+03  0.13728611657E+03  0.00000000000E+00 0. -1.
</event>
<event>
 4    1  0.2243645E+005  0.2235104E+02  0.7546771E-02  0.1500812E+00
          2   -1    0    0  503    0  0.00000000000E+00  0.00000000000E+00  0.75293826998E+02  0.75293826998E+02  0.00000000000E+00 0. -1.
         21   -1    0    0  501  502 -0.00000000000E+00 -0.00000000000E+00 -0.82717908709E+01  0.82717908709E+01  0.00000000000E+00 0. -1.
          2    1    1    2  501    0  0.25422067874E+01  0.22205997535E+02  0.52097790080E+02  0.56689936259E+02  0.00000000000E+00 0. -1.
         21    1    1    2  503  502 -0.25422067874E+01 -0.22205997535E+02  0.14924246047E+02  0.26875681609E+02  0.00000000000E+00 0. -1.
</event>
<event>
 4    1  0.2243645E+005  0.2017702E+02  0.7546771E-02  0.1531347E+00
          2   -1    0    0  502    0  0.00000000000E+00  0.00000000000E+00  0.10826310474E+04  0.10826310474E+04  0.00000000000E+00 0. -1.
         21   -1    0    0  503  502 -0.00000000000E+00 -0.00000000000E+00 -0.95962745236E+00  0.95962745236E+00  0.00000000000E+00 0. -1.
          2    1    1    2  501    0 -0.51692258324E+00  0.20170392476E+02  0.96334583751E+03  0.96355711538E+03  0.00000000000E+00 0. -1.
         21    1    1    2  503  501  0.51692258324E+00 -0.20170392476E+02  0.11832558242E+03  0.12003355946E+03  0.00000000000E+00 0. -1.
</event>
<event>
 4    1  0.2243645E+005  0.3499834E+02  0.7546771E-02  0.1380575E+00
          2   -1    0    0  502    0  0.00000000000E+00  0.00000000000E+00  0.16626402606E+04  0.16626402606E+04  0.00000000000E+00 0.  1.
         21   -1    0    0  503  502 -0.00000000000E+00 -0.00000000000E+00 -0.12335595090E+01  0.12335595090E+01  0.00000000000E+00 0.  1.
          2    1    1    2  501    0  0.22508053975E+02  0.26800585499E+02  0.13586897405E+04  0.13591404250E+04  0.00000000000E+00 0.  1.
         21    1    1    2  503  501 -0.22508053975E+02 -0.26800585499E+02  0.30271696057E+03  0.30473339510E+03  0.00000000000E+00 0.  1.
</event>
<event>
 4    1  0.2243645E+005  0.2165998E+02  0.7546771E-02  0.1510047E+00
          2   -1    0    0  503    0  0.00000000000E+00  0.00000000000E+00  0.80145611877E+03  0.80145611877E+03  0.00000000000E+00 0.  1.
         21   -1    0    0  501  502 -0.00000000000E+00 -0.00000000000E+00 -0.42749106381E+02  0.42749106381E+02  0.00000000000E+00 0.  1.
          2    1    1    2  501    0 -0.13899135035E+02  0.16612310792E+02  0.79855615969E+03  0.79884985761E+03  0.00000000000E+00 0.  1.
         21    1    1    2  503  502  0.13899135035E+02 -0.16612310792E+02 -0.39849147299E+02  0.45355367544E+02  0.00000000000E+00 0.  1.
</event>
<event>
 4    1  0.2243645E+005  0.2096468E+02  0.7546771E-02  0.1519770E+00
          2   -1    0    0  503    0  0.00000000000E+00  0.00000000000E+00  0.16581723713E+02  0.16581723713E+02  0.00000000000E+00 0.  1.
         21   -1    0    0  501  502 -0.00000000000E+00 -0.00000000000E+00 -0.28895444255E+02  0.28895444255E+02  0.00000000000E+00 0.  1.
          2    1    1    2  501    0  0.18994265042E+02  0.88733186014E+01 -0.12695422762E+02  0.24509011538E+02  0.00000000000E+00 0.  1.
         21    1    1    2  503  502 -0.18994265042E+02 -0.88733186014E+01  0.38170221929E+00  0.20968156430E+02  0.00000000000E+00 0.  1.
</event>
<event>
 4    1  0.2243645E+005  0.2841069E+02  0.7546771E-02  0.1433930E+00
          2   -1    0    0  502    0  0.00000000000E+00  0.00000000000E+00  0.64933875877E+03  0.64933875877E+03  0.00000000000E+00 0.  1.
         21   -1    0    0  503  502 -0.00000000000E+00 -0.00000000000E+00 -0.32698654856E+01  0.32698654856E+01  0.00000000000E+00 0.  1.
          2    1    1    2  501    0  0.25598908564E+02  0.12323282241E+02  0.57993429289E+03  0.58062978866E+03  0.00000000000E+00 0.  1.
         21    1    1    2  503  501 -0.25598908564E+02 -0.12323282241E+02  0.66134600387E+02  0.71978835592E+02  0.00000000000E+00 0.  1.
</event>
<event>
 4    1  0.2243645E+005  0.4536640E+02  0.7546771E-02  0.1319617E+00
          2   -1    0    0  503    0  0.00000000000E+00  0.00000000000E+00  0.22217209441E+04  0.22217209441E+04  0.00000000000E+00 0. -1.
         21   -1    0    0  501  502 -0.00000000000E+00 -0.00000000000E+00 -0.17691406798E+01  0.17691406798E+01  0.00000000000E+00 0. -1.
          2    1    1    2  501    0  0.45078727941E+02  0.51008736342E+01  0.18773049266E+04  0.18778530023E+04  0.00000000000E+00 0. -1.
         21    1    1    2  503  502 -0.45078727941E+02 -0.51008736342E+01  0.34264687681E+03  0.34563708251E+03  0.00000000000E+00 0. -1.
</event>
<event>
 4    1  0.2243645E+005  0.4067398E+02  0.7546771E-02  0.1344581E+00
          2   -1    0    0  502    0  0.00000000000E+00  0.00000000000E+00  0.80530016354E+03  0.80530016354E+03  0.00000000000E+00 0.  1.
         21   -1    0    0  503  502 -0.00000000000E+00 -0.00000000000E+00 -0.36810058256E+01  0.36810058256E+01  0.00000000000E+00 0. -1.
          2    1    1    2  501    0  0.40047675378E+02 -0.71102799000E+01  0.66969814746E+03  0.67093217324E+03  0.00000000000E+00 0.  1.
         21    1    1    2  503  501 -0.40047675378E+02  0.71102799000E+01  0.13192101025E+03  0.13804899612E+03  0.00000000000E+00 0. -1.
</event>
<event>
 4    1  0.2243645E+005  0.2148685E+02  0.7546771E-02  0.1512426E+00
          2   -1    0    0  502    0  0.00000000000E+00  0.00000000000E+00  0.56957600636E+03  0.56957600636E+03  0.00000000000E+00 0. -1.
         21   -1    0    0  503  502 -0.00000000000E+00 -0.00000000000E+00 -0.34537212908E+02  0.34537212908E+02  0.00000000000E+00 0.  1.
          2    1    1    2  501    0  0.15502888596E+00  0.21486289434E+02  0.56601038081E+03  0.56641807514E+03  0.00000000000E+00 0. -1.
         21    1    1    2  503  501 -0.15502888596E+00 -0.21486289434E+02 -0.30971587352E+02  0.37695144127E+02  0.00000000000E+00 0.  1.
</event>
<event>
 4    1  0.2243645E+005  0.4902484E+02  0.7546771E-02  0.1302457E+00
          2   -1    0    0  502    0  0.00000000000E+00  0.00000000000E+00  0.11763735335E+04  0.11763735335E+04  0.00000000000E+00 0.  1.
         21   -1    0    0  503  502 -0.00000000000E+00 -0.00000000000E+00 -0.32677798831E+02  0.32677798831E+02  0.00000000000E+00 0.  1.
          2    1    1    2  501    0  0.42267568190E+02 -0.24837215688E+02  0.11571703956E+04  0.11582084264E+04  0.00000000000E+00 0.  1.
         21    1    1    2  503  501 -0.42267568190E+02  0.24837215688E+02 -0.13474660847E+02  0.50842905983E+02  0.00000000000E+00 0.  1.
</event>
<event>
 4    1  0.2243645E+005  0.2347791E+02  0.7546771E-02  0.1486583E+00
          2   -1    0    0  503    0  0.00000000000E+00  0.00000000000E+00  0.11585153587E+02  0.11585153587E+02  0.00000000000E+00 0. -1.
         21   -1    0    0  501  502 -0.00000000000E+00 -0.00000000000E+00 -0.14106795315E+03  0.14106795315E+03  0.00000000000E+00 0. -1.
          2    1    1    2  501    0  0.23361495757E+02  0.23351630755E+01 -0.26057095896E+01  0.23622070042E+02  0.00000000000E+00 0. -1.
         21    1    1    2  503  502 -0.23361495757E+02 -0.23351630755E+01 -0.12687708997E+03  0.12903103669E+03  0.00000000000E+00 0. -1.
</event>
<event>
 4    1  0.2243645E+005  0.2071411E+02  0.7546771E-02  0.1523386E+00
          2   -1    0    0  503    0  0.00000000000E+00  0.00000000000E+00  0.52269368942E+02  0.52269368942E+02  0.00000000000E+00 0.  1.
         21   -1    0    0  501  502 -0.00000000000E+00 -0.00000000000E+00 -0.55729159271E+02  0.55729159271E+02  0.00000000000E+00 0.  1.
          2    1    1    2  501    0 -0.10994636567E+02 -0.17555403031E+02  0.48133974667E+02  0.52401848499E+02  0.00000000000E+00 0.  1.
         21    1    1    2  503  502  0.10994636567E+02  0.17555403031E+02 -0.51593764996E+02  0.55596679714E+02  0.00000000000E+00 0.  1.
</event>
<event>
 4    1  0.2243645E+005  0.2052965E+02  0.7546771E-02  0.1526087E+00
          2   -1    0    0  503    0  0.00000000000E+00  0.00000000000E+00  0.27779503890E+03  0.27779503890E+03  0.00000000000E+00 0.  1.
         21   -1    0    0  501  502 -0.00000000000E+00 -0.00000000000E+00 -0.48837891096E+02  0.48837891096E+02  0.00000000000E+00 0.  1.
          2    1    1    2  501    0  0.52986405583E+01 -0.19834086797E+02  0.27523825132E+03  0.27600282894E+03  0.00000000000E+00 0.  1.
         21    1    1    2  503  502 -0.52986405583E+01  0.19834086797E+02 -0.46281103516E+02  0.50630101061E+02  0.00000000000E+00 0.  1.
</event>
<event>
 4    1  0.2243645E+005  0.2836274E+02  0.7546771E-02  0.1434379E+00
          2   -1    0    0  503    0  0.00000000000E+00  0.00000000000E+00  0.11396184234E+04  0.11396184234E+04  0.00000000000E+00 0. -1.
         21   -1    0    0  501  502 -0.00000000000E+00 -0.00000000000E+00 -0.57305383557E+01  0.57305383557E+01  0.00000000000E+00 0. -1.
          2    1    1    2  501    0 -0.98452906571E+01 -0.26599162966E+02  0.11031885735E+04  0.11035531133E+04  0.00000000000E+00 0. -1.
         21    1    1    2  503  502  0.98452906571E+01  0.26599162966E+02  0.30699311611E+02  0.41795848502E+02  0.00000000000E+00 0. -1.
</event>
<event>
 4    1  0.2243645E+005  0.3362846E+02  0.7546771E-02  0.1390471E+00
          2   -1    0    0  503    0  0.00000000000E+00  0.00000000000E+00  0.97127658674E+01  0.97127658674E+01  0.00000000000E+00 0.  1.
         21   -1    0    0  501  502 -0.00000000000E+00 -0.00000000000E+00 -0.60415696390E+03  0.60415696390E+03  0.00000000000E+00 0. -1.
          2    1    1    2  501    0  0.28485661789E+02  0.17872896990E+02 -0.21444505423E+02  0.39884084384E+02  0.00000000000E+00 0.  1.
         21    1    1    2  503  502 -0.28485661789E+02 -0.17872896990E+02 -0.57299969261E+03  0.57398564539E+03  0.00000000000E+00 0. -1.
</event>
<event>
 4    1  0.2243645E+005  0.2021629E+02  0.7546771E-02  0.1530755E+00
          2   -1    0    0  503    0  0.00000000000E+00  0.00000000000E+00  0.69954109950E+01  0.69954109950E+01  0.00000000000E+00 0.  1.
         21   -1    0    0  501  502 -0.00000000000E+00 -0.00000000000E+00 -0.58861114721E+02  0.58861114721E+02  0.00000000000E+00 0.  1.
          2    1    1    2  501    0 -0.12201962777E+02  0.16118642848E+02 -0.28771085087E+02  0.35163530539E+02  0.00000000000E+00 0.  1.
         21    1    1    2  503  502  0.12201962777E+02 -0.16118642848E+02 -0.23094618639E+02  0.30692995177E+02  0.00000000000E+00 0.  1.
</event>
<event>
 4    1  0.2243645E+005  0.2236070E+02  0.7546771E-02  0.1500686E+00
          2   -1    0    0  503    0  0.00000000000E+00  0.00000000000E+00  0.24439537797E+02  0.24439537797E+02  0.00000000000E+00 0.  1.
         21   -1    0    0  501  502 -0.00000000000E+00 -0.00000000000E+00 -0.35913078492E+02  0.35913078492E+02  0.00000000000E+00 0. -1.
          2    1    1    2  501    0  0.99709660501E+01  0.20014511876E+02  0.14058696388E+02  0.26413023184E+02  0.00000000000E+00 0.  1.
         21    1    1    2  503  502 -0.99709660501E+01 -0.20014511876E+02 -0.25532237083E+02  0.33939593104E+02  0.00000000000E+00 0. -1.
</event>
<event>
 4    1  0.2243645E+005  0.3615708E+02  0.7546771E-02  0.1372606E+00
          2   -1    0    0  503    0  0.00000000000E+00  0.00000000000E+00  0.30697565767E+03  0.30697565767E+03  0.00000000000E+00 0. -1.
         21   -1    0    0  501  502 -0.00000000000E+00 -0.00000000000E+00 -0.86302641883E+01  0.86302641883E+01  0.00000000000E+00 0.  1.
          2    1    1    2  501    0 -0.23774915296E+02  0.27241286550E+02  0.26148278598E+03  0.26397079697E+03  0.00000000000E+00 0. -1.
         21    1    1    2  503  502  0.23774915296E+02 -0.27241286550E+02  0.36862607502E+02  0.51635124887E+02  0.00000000000E+00 0.  1.
</event>
<event>
 4    1  0.2243645E+005  0.2279686E+02  0.7546771E-02  0.1495065E+00
          2   -1    0    0  503    0  0.00000000000E+00  0.00000000000E+00  0.79969508172E+02  0.79969508172E+02  0.00000000000E+00 0. -1.
         21   -1    0    0  501  502 -0.00000000000E+00 -0.00000000000E+00 -0.78049965016E+03  0.78049965016E+03  0.00000000000E+00 0. -1.
          2    1    1    2  501    0  0.21933714820E+02 -0.62136268535E+01  0.78174628878E+02  0.81430765713E+02  0.00000000000E+00 0. -1.
         21    1    1    2  503  502 -0.21933714820E+02  0.62136268535E+01 -0.77870477086E+03  0.77903839261E+03  0.00000000000E+00 0. -1.
</event>
<event>
 4    1  0.2243645E+005  0.2720799E+02  0.7546771E-02  0.1445530E+00
          2   -1    0    0  503    0  0.00000000000E+00  0.00000000000E+00  0.28605945765E+03  0.28605945765E+03  0.00000000000E+00 0. -1.
         21   -1    0    0  501  502 -0.00000000000E+00 -0.00000000000E+00 -0.51712802723E+01  0.51712802723E+01  0.00000000000E+00 0. -1.
          2    1    1    2  501    0  0.23443725525E+02 -0.13808193376E+02  0.24336600654E+03  0.24488219129E+03  0.00000000000E+00 0. -1.
         21    1    1    2  503  502 -0.23443725525E+02  0.13808193376E+02  0.37522170839E+02  0.46348546636E+02  0.00000000000E+00 0. -1.
</event>
<event>
 4    1  0.2243645E+005  0.3462370E+02  0.7546771E-02  0.1383228E+00
          2   -1    0    0  503    0  0.00000000000E+00  0.00000000000E+00  0.65780300257E+03  0.65780300257E+03  0.00000000000E+00 0. -1.
         21   -1    0    0  501  502 -0.00000000000E+00 -0.00000000000E+00 -0.21742000024E+01  0.21742000024E+01  0.00000000000E+00 0.  1.
          2    1    1    2  501    0  0.18740772037E+02  0.29113300201E+02  0.46054705798E+03  0.46184672068E+03  0.00000000000E+00 0. -1.
         21    1    1    2  503  502 -0.18740772037E+02 -0.29113300201E+02  0.19508174458E+03  0.19813048189E+03  0.00000000000E+00 0.  1.
</event>
<event>
 4    1  0.2243645E+005  0.5066230E+02  0.7546771E-02  0.1295326E+00
          2   -1    0    0  503    0  0.00000000000E+00  0.00000000000E+00  0.17164450288E+04  0.17164450288E+04  0.00000000000E+00 0.  1.
         21   -1    0    0  501  502 -0.00000000000E+00 -0.00000000000E+00 -0.67558328576E+01  0.67558328576E+01  0.00000000000E+00 0. -1.
          2    1    1    2  501    0  0.50575845738E+02  0.29584337288E+01  0.16151353129E+04  0.16159296851E+04  0.00000000000E+00 0.  1.
         21    1    1    2  503  502 -0.50575845738E+02 -0.29584337288E+01  0.94553883040E+02  0.10727117647E+03  0.00000000000E+00 0. -1.
</event>
<event>
 4    1  0.2243645E+005  0.2493965E+02  0.7546771E-02  0.1469480E+00
          2   -1    0    0  502    0  0.00000000000E+00  0.00000000000E+00  0.31422593303E+03  0.31422593303E+03  0.00000000000E+00 0.  1.
         21   -1    0    0  503  502 -0.00000000000E+00 -0.00000000000E+00 -0.73771766573E+03  0.73771766573E+03  0.00000000000E+00 0.  1.
          2    1    1    2  501    0  0.22430831230E+01 -0.24838573483E+02  0.31351982266E+03  0.31451019913E+03  0.00000000000E+00 0.  1.
         21    1    1    2  503  501 -0.22430831230E+01  0.24838573483E+02 -0.73701155536E+03  0.73743339963E+03  0.00000000000E+00 0.  1.
</event>
<event>
 4    1  0.2243645E+005  0.2474698E+02  0.7546771E-02  0.1471654E+00
          2   -1    0    0  503    0  0.00000000000E+00  0.00000000000E+00  0.28558807648E+03  0.28558807648E+03  0.00000000000E+00 0. -1.
         21   -1    0    0  501  502 -0.00000000000E+00 -0.00000000000E+00 -0.21565641999E+01  0.21565641999E+01  0.00000000000E+00 0.  1.
          2    1    1    2  501    0 -0.21452880579E+02 -0.12336416480E+02  0.13090760979E+03  0.13322618195E+03  0.00000000000E+00 0. -1.
         21    1    1    2  503  502  0.21452880579E+02  0.12336416480E+02  0.15252390248E+03  0.15451845872E+03  0.00000000000E+00 0.  1.
</event>
<event>
 4    1  0.2243645E+005  0.2077825E+02  0.7546771E-02  0.1522455E+00
          2   -1    0    0  503    0  0.00000000000E+00  0.00000000000E+00  0.15537330686E+04  0.15537330686E+04  0.00000000000E+00 0. -1.
         21   -1    0    0  501  502 -0.00000000000E+00 -0.00000000000E+00 -0.44760613445E+01  0.44760613445E+01  0.00000000000E+00 0. -1.
          2    1    1    2  501    0  0.19288451419E+02  0.77260083368E+01  0.15291625773E+04  0.15293037381E+04  0.00000000000E+00 0. -1.
         21    1    1    2  503  502 -0.19288451419E+02 -0.77260083368E+01  0.20094429996E+02  0.28905391882E+02  0.00000000000E+00 0. -1.
</event>
<event>
 4    1  0.2243645E+005  0.2225838E+02  0.7546771E-02  0.1502027E+00
          2   -1    0    0  502    0  0.00000000000E+00  0.00000000000E+00  0.13381711892E+04  0.13381711892E+04  0.00000000000E+00 0.  1.
         21   -1    0    0  503  502 -0.00000000000E+00 -0.00000000000E+00 -0.17053707541E+01  0.17053707541E+01  0.00000000000E+00 0.  1.
          2    1    1    2  501    0  0.12903690024E+02 -0.18136435194E+02  0.12610058665E+04  0.12612022958E+04  0.00000000000E+00 0.  1.
         21    1    1    2  503  501 -0.12903690024E+02  0.18136435194E+02  0.75459951931E+02  0.78674264173E+02  0.00000000000E+00 0.  1.
</event>
<event>
 4    1  0.2243645E+005  0.2025244E+02  0.7546771E-02  0.1530211E+00
          2   -1    0    0  502    0  0.00000000000E+00  0.00000000000E+00  0.95564276416E+02  0.95564276416E+02  0.00000000000E+00 0. -1.
         21   -1    0    0  503  502 -0.00000000000E+00 -0.00000000000E+00 -0.11610883929E+02  0.11610883929E+02  0.00000000000E+00 0. -1.
          2    1    1    2  501    0  0.19034233474E+02 -0.69180490973E+01  0.84522238863E+02  0.86914730107E+02  0.00000000000E+00 0. -1.
         21    1    1    2  503  501 -0.19034233474E+02  0.69180490973E+01 -0.56884637609E+00  0.20260430238E+02  0.00000000000E+00 0. -1.
</event>
<event>
 4    1  0.2243645E+005  0.2769261E+02  0.7546771E-02  0.1440772E+00
          2   -1    0    0  503    0  0.00000000000E+00  0.00000000000E+00  0.49804813955E+03  0.49804813955E+03  0.00000000000E+00 0. -1.
         21   -1    0    0  501  502 -0.00000000000E+00 -0.00000000000E+00 -0.33974388344E+01  0.33974388344E+01  0.00000000000E+00 0.  1.
          2    1    1    2  501    0 -0.27483779840E+02  0.33944998184E+01  0.43272198788E+03  0.43360719502E+03  0.00000000000E+00 0. -1.
         21    1    1    2  503  502  0.27483779840E+02 -0.33944998184E+01  0.61928712841E+02  0.67838383364E+02  0.00000000000E+00 0.  1.
</event>
<event>
 4    1  0.2243645E+005  0.2837266E+02  0.7546771E-02  0.1434286E+00
          2   -1    0    0  502    0  0.00000000000E+00  0.00000000000E+00  0.14270853741E+04  0.14270853741E+04  0.00000000000E+00 0.  1.
         21   -1    0    0  503  502 -0.00000000000E+00 -0.00000000000E+00 -0.20163994667E+02  0.20163994667E+02  0.00000000000E+00 0.  1.
          2    1    1    2  501    0 -0.25420689122E+02  0.12601443019E+02  0.14168917954E+04  0.14171758422E+04  0.00000000000E+00 0.  1.
         21    1    1    2  503  501  0.25420689122E+02 -0.12601443019E+02 -0.99704160289E+01  0.30073526521E+02  0.00000000000E+00 0.  1.
</event>
<event>
 4    1  0.2243645E+005  0.2416985E+02  0.7546771E-02  0.1478309E+00
          2   -1    0    0  503    0  0.00000000000E+00  0.00000000000E+00  0.15769959744E+04  0.15769959744E+04  0.00000000000E+00 0.  1.
         21   -1    0    0  501  502 -0.00000000000E+00 -0.00000000000E+00 -0.73663708631E+00  0.73663708631E+00  0.00000000000E+00 0. -1.
          2    1    1    2  501    0  0.55361882980E+01 -0.23527264217E+02  0.13443340138E+04  0.13445512717E+04  0.00000000000E+00 0.  1.
         21    1    1    2  503  502 -0.55361882980E+01  0.23527264217E+02  0.23192532350E+03  0.23318133978E+03  0.00000000000E+00 0. -1.
</event>
<event>
 4    1  0.2243645E+005  0.3843248E+02  0.7546771E-02  0.1357924E+00
          2   -1    0    0  503    0  0.00000000000E+00  0.00000000000E+00  0.24715143962E+03  0.24715143962E+03  0.00000000000E+00 0.  1.
         21   -1    0    0  501  502 -0.00000000000E+00 -0.00000000000E+00 -0.27425934237E+02  0.27425934237E+02  0.00000000000E+00 0.  1.
          2    1    1    2  501    0 -0.21063595136E+02  0.32146240801E+02  0.23127536111E+03  0.23444689909E+03  0.00000000000E+00 0.  1.
         21    1    1    2  503  502  0.21063595136E+02 -0.32146240801E+02 -0.11549855725E+02  0.40130474767E+02  0.00000000000E+00 0.  1.
</event>
<event>
 4    1  0.2243645E+005  0.2152653E+02  0.7546771E-02  0.1511878E+00
          2   -1    0    0  503    0  0.00000000000E+00  0.00000000000E+00  0.58212691067E+03  0.58212691067E+03  0.00000000000E+00 0.  1.
         21   -1    0    0  501  502 -0.00000000000E+00 -0.00000000000E+00 -0.10170664091E+02  0.10170664091E+02  0.00000000000E+00 0. -1.
          2    1    1    2  501    0 -0.20820876391E+02  0.54664924392E+01  0.57030140826E+03  0.57070753254E+03  0.00000000000E+00 0.  1.
         21    1    1    2  503  502  0.20820876391E+02 -0.54664924392E+01  0.16548383194E+01  0.21590042222E+02  0.00000000000E+00 0. -1.
</event>
<event>
 4    1  0.2243645E+005  0.4342249E+02  0.7546771E-02  0.1329519E+00
          2   -1    0    0  502    0  0.00000000000E+00  0.00000000000E+00  0.11742869638E+04  0.11742869638E+04  0.00000000000E+00 0.  1.
         21   -1    0    0  503  502 -0.00000000000E+00 -0.00000000000E+00 -0.75921998724E+01  0.75921998724E+01  0.00000000000E+00 0.  1.
          2    1    1    2  501    0  0.19210120283E+02  0.38942055120E+02  0.11080907937E+04  0.11089412606E+04  0.00000000000E+00 0.  1.
         21    1    1    2  503  501 -0.19210120283E+02 -0.38942055120E+02  0.58603970229E+02  0.72937903074E+02  0.00000000000E+00 0.  1.
</event>
<event>
 4    1  0.2243645E+005  0.1099870E+03  0.7546771E-02  0.1147543E+00
          2   -1    0    0  503    0  0.00000000000E+00  0.00000000000E+00  0.19147098988E+04  0.19147098988E+04  0.00000000000E+00 0. -1.
         21   -1    0    0  501  502 -0.00000000000E+00 -0.00000000000E+00 -0.17354921282E+02  0.17354921282E+02  0.00000000000E+00 0.  1.
          2    1    1    2  501    0  0.85947343916E+02  0.68630792185E+02  0.17190564305E+04  0.17225713753E+04  0.00000000000E+00 0. -1.
         21    1    1    2  503  502 -0.85947343916E+02 -0.68630792185E+02  0.17829854702E+03  0.20949344484E+03  0.00000000000E+00 0.  1.
</event>
<event>
 4    1  0.2243645E+005  0.3123746E+02  0.7546771E-02  0.1409139E+00
          2   -1    0    0  503    0  0.00000000000E+00  0.00000000000E+00  0.85578734458E+03  0.85578734458E+03  0.00000000000E+00 0.  1.
         21   -1    0    0  501  502 -0.00000000000E+00 -0.00000000000E+00 -0.18783843409E+01  0.18783843409E+01  0.00000000000E+00 0.  1.
          2    1    1    2  501    0 -0.12817483329E+02  0.28486685895E+02  0.69578258049E+03  0.69648343732E+03  0.00000000000E+00 0.  1.
         21    1    1    2  503  502  0.12817483329E+02 -0.28486685895E+02  0.15812637975E+03  0.16118229160E+03  0.00000000000E+00 0.  1.
</event>
<event>
 4    1  0.2243645E+005  0.4527918E+02  0.7546771E-02  0.1320049E+00
          2   -1    0    0  503    0  0.00000000000E+00  0.00000000000E+00  0.11872268311E+03  0.11872268311E+03  0.00000000000E+00 0.  1.
         21   -1    0    0  501  502 -0.00000000000E+00 -0.00000000000E+00 -0.17461446950E+02  0.17461446950E+02  0.00000000000E+00 0.  1.
          2    1    1    2  501    0  0.37975153152E+02 -0.24659521187E+02  0.43479387981E+02  0.62774687743E+02  0.00000000000E+00 0.  1.
         21    1    1    2  503  502 -0.37975153152E+02  0.24659521187E+02  0.57781848176E+02  0.73409442313E+02  0.00000000000E+00 0.  1.
</event>
<event>
 4    1  0.2243645E+005  0.3816640E+02  0.7546771E-02  0.1359579E+00
          2   -1    0    0  503    0  0.00000000000E+00  0.00000000000E+00  0.77162741628E+03  0.77162741628E+03  0.00000000000E+00 0.  1.
         21   -1    0    0  501  502 -0.00000000000E+00 -0.00000000000E+00 -0.39472101182E+03  0.39472101182E+03  0.00000000000E+00 0. -1.
          2    1    1    2  501    0 -0.22449983878E+02 -0.30865391050E+02  0.77023119893E+03  0.77117622755E+03  0.00000000000E+00 0.  1.
         21    1    1    2  503  502  0.22449983878E+02  0.30865391050E+02 -0.39332479447E+03  0.39517220055E+03  0.00000000000E+00 0. -1.
</event>
<event>
 4    1  0.2243645E+005  0.5684391E+02  0.7546771E-02  0.1270950E+00
          2   -1    0    0  503    0  0.00000000000E+00  0.00000000000E+00  0.19209821626E+04  0.19209821626E+04  0.00000000000E+00 0.  1.
         21   -1    0    0  501  502 -0.00000000000E+00 -0.00000000000E+00 -0.21163327124E+01  0.21163327124E+01  0.00000000000E+00 0. -1.
          2    1    1    2  501    0  0.32707902960E+02 -0.46491111161E+02  0.13949997695E+04  0.13961574364E+04  0.00000000000E+00 0.  1.
         21    1    1    2  503  502 -0.32707902960E+02  0.46491111161E+02  0.52386606036E+03  0.52694105888E+03  0.00000000000E+00 0. -1.
</event>
<event>
 4    1  0.2243645E+005  0.2119744E+02  0.7546771E-02  0.1516464E+00
          2   -1    0    0  503    0  0.00000000000E+00  0.00000000000E+00  0.66211471669E+03  0.66211471669E+03  0.00000000000E+00 0. -1.
         21   -1    0    0  501  502 -0.00000000000E+00 -0.00000000000E+00 -0.10064122313E+02  0.10064122313E+02  0.00000000000E+00 0.  1.
          2    1    1    2  501    0 -0.21168619872E+02  0.11049954306E+01  0.65058559755E+03  0.65093083444E+03  0.00000000000E+00 0. -1.
         21    1    1    2  503  502  0.21168619872E+02 -0.11049954306E+01  0.14649968242E+01  0.21248004563E+02  0.00000000000E+00 0.  1.
</event>
<event>
 4    1  0.2243645E+005  0.2289721E+02  0.7546771E-02  0.1493793E+00
          2   -1    0    0  503    0  0.00000000000E+00  0.00000000000E+00  0.16530859400E+01  0.16530859400E+01  0.00000000000E+00 0.  1.
         21   -1    0    0  501  502 -0.00000000000E+00 -0.00000000000E+00 -0.51849451888E+03  0.51849451888E+03  0.00000000000E+00 0.  1.
          2    1    1    2  501    0 -0.17713239520E+02 -0.14509426911E+02 -0.96355267416E+02  0.99038476778E+02  0.00000000000E+00 0.  1.
         21    1    1    2  503  502  0.17713239520E+02  0.14509426911E+02 -0.42048616553E+03  0.42110912805E+03  0.00000000000E+00 0.  1.
</event>
<event>
 4    1  0.2243645E+005  0.3119570E+02  0.7546771E-02  0.1409483E+00
          2   -1    0    0  502    0  0.00000000000E+00  0.00000000000E+00  0.91632341267E+03  0.91632341267E+03  0.00000000000E+00 0.  1.
         21   -1    0    0  503  502 -0.00000000000E+00 -0.00000000000E+00 -0.10536327922E+02  0.10536327922E+02  0.00000000000E+00 0. -1.
          2    1    1    2  501    0 -0.16919601186E+02  0.26208754961E+02  0.89234679388E+03  0.89289191524E+03  0.00000000000E+00 0.  1.
         21    1    1    2  503  501  0.16919601186E+02 -0.26208754961E+02  0.13440290868E+02  0.33967825358E+02  0.00000000000E+00 0. -1.
</event>
<event>
 4    1  0.2243645E+005  0.4081221E+02  0.7546771E-02  0.1343791E+00
          2   -1    0    0  503    0  0.00000000000E+00  0.00000000000E+00  0.22815569270E+04  0.22815569270E+04  0.00000000000E+00 0. -1.
         21   -1    0    0  501  502 -0.00000000000E+00 -0.00000000000E+00 -0.33004517384E+02  0.33004517384E+02  0.00000000000E+00 0. -1.
          2    1    1    2  501    0 -0.32980784718E+02  0.24039635004E+02  0.22686861150E+04  0.22690531780E+04  0.00000000000E+00 0. -1.
         21    1    1    2  503  502  0.32980784718E+02 -0.24039635004E+02 -0.20133705420E+02  0.45508266344E+02  0.00000000000E+00 0. -1.
</event>
<event>
 4    1  0.2243645E+005  0.3651071E+02  0.7546771E-02  0.1370243E+00
          2   -1    0    0  502    0  0.00000000000E+00  0.00000000000E+00  0.21448688343E+04  0.21448688343E+04  0.00000000000E+00 0. -1.
         21   -1    0    0  503  502 -0.00000000000E+00 -0.00000000000E+00 -0.63653304312E+01  0.63653304312E+01  0.00000000000E+00 0.  1.
          2    1    1    2  501    0 -0.36469029149E+02 -0.17441016372E+01  0.20910098533E+04  0.20913285822E+04  0.00000000000E+00 0. -1.
         21    1    1    2  503  501  0.36469029149E+02  0.17441016372E+01  0.47493650536E+02  0.59905582534E+02  0.00000000000E+00 0.  1.
</event>
<event>
 4    1  0.2243645E+005  0.2137624E+02  0.7546771E-02  0.1513960E+00
          2   -1    0    0  503    0  0.00000000000E+00  0.00000000000E+00  0.20597636984E+02  0.20597636984E+02  0.00000000000E+00 0. -1.
         21   -1    0    0  501  502 -0.00000000000E+00 -0.00000000000E+00 -0.19780806253E+03  0.19780806253E+03  0.00000000000E+00 0.  1.
          2    1    1    2  501    0 -0.13809409647E+02 -0.16316979847E+02  0.14292008721E+02  0.25713909454E+02  0.00000000000E+00 0. -1.
         21    1    1    2  503  502  0.13809409647E+02  0.16316979847E+02 -0.19150243426E+03  0.19269179006E+03  0.00000000000E+00 0.  1.
</event>
<event>
 4    1  0.2243645E+005  0.2144061E+02  0.7546771E-02  0.1513066E+00
          2   -1    0    0  503    0  0.00000000000E+00  0.00000000000E+00  0.67842286359E+03  0.67842286359E+03  0.00000000000E+00 0.  1.
         21   -1    0    0  501  502 -0.00000000000E+00 -0.00000000000E+00 -0.74114654035E+00  0.74114654035E+00  0.00000000000E+00 0.  1.
          2    1    1    2  501    0  0.20782226498E+02  0.52724563251E+01  0.23940648119E+03  0.24036464584E+03  0.00000000000E+00 0.  1.
         21    1    1    2  503  502 -0.20782226498E+02 -0.52724563251E+01  0.43827523586E+03  0.43879936429E+03  0.00000000000E+00 0.  1.
</event>
<event>
 4    1  0.2243645E+005  0.2595827E+02  0.7546771E-02  0.1458363E+00
          2   -1    0    0  502    0  0.00000000000E+00  0.00000000000E+00  0.96476801557E+03  0.96476801557E+03  0.00000000000E+00 0. -1.
         21   -1    0    0  503  502 -0.00000000000E+00 -0.00000000000E+00 -0.99423584213E+00  0.99423584213E+00  0.00000000000E+00 0.  1.
          2    1    1    2  501    0 -0.23903112533E+02 -0.10122898137E+02  0.74527253472E+03  0.74572446846E+03  0.00000000000E+00 0. -1.
         21    1    1    2  503  501  0.23903112533E+02  0.10122898137E+02  0.21850124501E+03  0.22003778295E+03  0.00000000000E+00 0.  1.
</event>
<event>
 4    1  0.2243645E+005  0.2542786E+02  0.7546771E-02  0.1464073E+00
          2   -1    0    0  503    0  0.00000000000E+00  0.00000000000E+00  0.66158613969E+03  0.66158613969E+03  0.00000000000E+00 0.  1.
         21   -1    0    0  501  502 -0.00000000000E+00 -0.00000000000E+00 -0.35212019497E+01  0.35212019497E+01  0.00000000000E+00 0.  1.
          2    1    1    2  501    0  0.23962677813E+02 -0.85068341293E+01  0.61169316779E+03  0.61222145313E+03  0.00000000000E+00 0.  1.
         21    1    1    2  503  502 -0.23962677813E+02  0.85068341293E+01  0.46371769950E+02  0.52885888507E+02  0.00000000000E+00 0.  1.
</event>
<event>
 4    1  0.2243645E+005  0.3193646E+02  0.7546771E-02  0.1403483E+00
          2   -1    0    0  502    0  0.00000000000E+00  0.00000000000E+00  0.11411953520E+04  0.11411953520E+04  0.00000000000E+00 0.  1.
         21   -1    0    0  503  502 -0.00000000000E+00 -0.00000000000E+00 -0.93883041207E+00  0.93883041207E+00  0.00000000000E+00 0.  1.
          2    1    1    2  501    0  0.56314982125E+01 -0.31436026021E+02  0.69527287209E+03  0.69600596561E+03  0.00000000000E+00 0.  1.
         21    1    1    2  503  501 -0.56314982125E+01  0.31436026021E+02  0.44498364950E+03  0.44612821680E+03  0.00000000000E+00 0.  1.
</event>
<event>
 4    1  0.2243645E+005  0.3216224E+02  0.7546771E-02  0.1401692E+00
          2   -1    0    0  502    0  0.00000000000E+00  0.00000000000E+00  0.29441525589E+03  0.29441525589E+03  0.00000000000E+00 0. -1.
         21   -1    0    0  503  502 -0.00000000000E+00 -0.00000000000E+00 -0.22464434247E+02  0.22464434247E+02  0.00000000000E+00 0.  1.
          2    1    1    2  501    0 -0.10605040021E+02  0.30363506495E+02  0.28149876711E+03  0.28333013480E+03  0.00000000000E+00 0. -1.
         21    1    1    2  503  501  0.10605040021E+02 -0.30363506495E+02 -0.95479454703E+01  0.33549555336E+02  0.00000000000E+00 0.  1.
</event>
<event>
 4    1  0.2243645E+005  0.2185840E+02  0.7546771E-02  0.1507353E+00
          2   -1    0    0  502    0  0.00000000000E+00  0.00000000000E+00  0.50707657709E+03  0.50707657709E+03  0.00000000000E+00 0.  1.
         21   -1    0    0  503  502 -0.00000000000E+00 -0.00000000000E+00 -0.44516227575E+02  0.44516227575E+02  0.00000000000E+00 0.  1.
          2    1    1    2  501    0  0.20420853610E+02 -0.77960405920E+01  0.50414217335E+03  0.50461581472E+03  0.00000000000E+00 0.  1.
         21    1    1    2  503  501 -0.20420853610E+02  0.77960405920E+01 -0.41581823836E+02  0.46976989949E+02  0.00000000000E+00 0.  1.
</event>
<event>
 4    1  0.2243645E+005  0.2883039E+02  0.7546771E-02  0.1430040E+00
          2   -1    0    0  502    0  0.00000000000E+00  0.00000000000E+00  0.91402052408E+02  0.91402052408E+02  0.00000000000E+00 0.  1.
         21   -1    0    0  503  502 -0.00000000000E+00 -0.00000000000E+00 -0.94644586951E+01  0.94644586951E+01  0.00000000000E+00 0. -1.
          2    1    1    2  501    0 -0.80593079450E+00  0.28819119071E+02  0.50949509825E+02  0.58540957456E+02  0.00000000000E+00 0.  1.
         21    1    1    2  503  501  0.80593079450E+00 -0.28819119071E+02  0.30988083888E+02  0.42325553647E+02  0.00000000000E+00 0. -1.
</event>
<event>
 4    1  0.2243645E+005  0.3508576E+02  0.7546771E-02  0.1379961E+00
          2   -1    0    0  503    0  0.00000000000E+00  0.00000000000E+00  0.28002375291E+04  0.28002375291E+04  0.00000000000E+00 0.  1.
         21   -1    0    0  501  502 -0.00000000000E+00 -0.00000000000E+00 -0.96654558137E+00  0.96654558137E+00  0.00000000000E+00 0.  1.
          2    1    1    2  501    0  0.34530147504E+02  0.62192679978E+01  0.24337833732E+04  0.24340362606E+04  0.00000000000E+00 0.  1.
         21    1    1    2  503  502 -0.34530147504E+02 -0.62192679978E+01  0.36548761028E+03  0.36716781402E+03  0.00000000000E+00 0.  1.
</event>
<event>
 4    1  0.2243645E+005  0.2099440E+02  0.7546771E-02  0.1519345E+00
          2   -1    0    0  503    0  0.00000000000E+00  0.00000000000E+00  0.81071251806E+02  0.81071251806E+02  0.00000000000E+00 0. -1.
         21   -1    0    0  501  502 -0.00000000000E+00 -0.00000000000E+00 -0.93714324400E+01  0.93714324400E+01  0.00000000000E+00 0. -1.
          2    1    1    2  501    0  0.20990835011E+02  0.38680646161E+00  0.65151747650E+02  0.68450821730E+02  0.00000000000E+00 0. -1.
         21    1    1    2  503  502 -0.20990835011E+02 -0.38680646161E+00  0.65480717156E+01  0.21991862515E+02  0.00000000000E+00 0. -1.
</event>
<event>
 4    1  0.2243645E+005  0.3336251E+02  0.7546771E-02  0.1392456E+00
          2   -1    0    0  502    0  0.00000000000E+00  0.00000000000E+00  0.19562525301E+03  0.19562525301E+03  0.00000000000E+00 0.  1.
         21   -1    0    0  503  502 -0.00000000000E+00 -0.00000000000E+00 -0.47333084899E+02  0.47333084899E+02  0.00000000000E+00 0.  1.
          2    1    1    2  501    0 -0.23349925044E+02  0.23829358189E+02  0.18809027712E+03  0.19102620150E+03  0.00000000000E+00 0.  1.
         21    1    1    2  503  501  0.23349925044E+02 -0.23829358189E+02 -0.39798109011E+02  0.51932136410E+02  0.00000000000E+00 0.  1.
</event>
<event>
 4    1  0.2243645E+005  0.2076405E+02  0.7546771E-02  0.1522660E+00
          2   -1    0    0  503    0  0.00000000000E+00  0.00000000000E+00  0.23946468846E+02  0.23946468846E+02  0.00000000000E+00 0.  1.
         21   -1    0    0  501  502 -0.00000000000E+00 -0.00000000000E+00 -0.10335051140E+04  0.10335051140E+04  0.00000000000E+00 0. -1.
          2    1    1    2  501    0 -0.14262239714E+02 -0.15090873061E+02  0.19320799266E+02  0.28362637671E+02  0.00000000000E+00 0.  1.
         21    1    1    2  503  502  0.14262239714E+02  0.15090873061E+02 -0.10288794445E+04  0.10290889452E+04  0.00000000000E+00 0. -1.
</event>
<event>
 4    1  0.2243645E+005  0.2345543E+02  0.7546771E-02  0.1486857E+00
          2   -1    0    0  502    0  0.00000000000E+00  0.00000000000E+00  0.16867970727E+04  0.16867970727E+04  0.00000000000E+00 0.  1.
         21   -1    0    0  503  502 -0.00000000000E+00 -0.00000000000E+00 -0.37368887899E+01  0.37368887899E+01  0.00000000000E+00 0.  1.
          2    1    1    2  501    0 -0.15714902496E+02 -0.17412610123E+02  0.16490676587E+04  0.16492344588E+04  0.00000000000E+00 0.  1.
         21    1    1    2  503  501  0.15714902496E+02  0.17412610123E+02  0.33992525225E+02  0.41299502696E+02  0.00000000000E+00 0.  1.
</event>
<event>
 4    1  0.2243645E+005  0.8161785E+02  0.7546771E-02  0.1200141E+00
          2   -1    0    0  503    0  0.00000000000E+00  0.00000000000E+00  0.10572575795E+04  0.10572575795E+04  0.00000000000E+00 0.  1.
         21   -1    0    0  501  502 -0.00000000000E+00 -0.00000000000E+00 -0.84136748873E+01  0.84136748873E+01  0.00000000000E+00 0.  1.
          2    1    1    2  501    0  0.81008757141E+02  0.99526068382E+01  0.79144365463E+03  0.79564095644E+03  0.00000000000E+00 0.  1.
         21    1    1    2  503  502 -0.81008757141E+02 -0.99526068382E+01  0.25740024999E+03  0.27003029795E+03  0.00000000000E+00 0.  1.
</event>
<event>
 4    1  0.2243645E+005  0.9913178E+02  0.7546771E-02  0.1165321E+00
          2   -1    0    0  503    0  0.00000000000E+00  0.00000000000E+00  0.28454852351E+03  0.28454852351E+03  0.00000000000E+00 0. -1.
         21   -1    0    0  501  502 -0.00000000000E+00 -0.00000000000E+00 -0.12837682968E+03  0.12837682968E+03  0.00000000000E+00 0.  1.
          2    1    1    2  501    0 -0.87057624135E+02 -0.47413924816E+02  0.25460613116E+03  0.27322406960E+03  0.00000000000E+00 0. -1.
         21    1    1    2  503  502  0.87057624135E+02  0.47413924816E+02 -0.98434437320E+02  0.13970128359E+03  0.00000000000E+00 0.  1.
</event>
<event>
 4    1  0.2243645E+005  0.2014317E+02  0.7546771E-02  0.1531858E+00
          2   -1    0    0  502    0  0.00000000000E+00  0.00000000000E+00  0.41242481566E+03  0.41242481566E+03  0.00000000000E+00 0.  1.
         21   -1    0    0  503  502 -0.00000000000E+00 -0.00000000000E+00 -0.13278958272E+02  0.13278958272E+02  0.00000000000E+00 0.  1.
          2    1    1    2  501    0 -0.19755413669E+02  0.39332917204E+01  0.40438823455E+03  0.40488960396E+03  0.00000000000E+00 0.  1.
         21    1    1    2  503  501  0.19755413669E+02 -0.39332917204E+01 -0.52423771684E+01  0.20814169965E+02  0.00000000000E+00 0.  1.
</event>
<event>
 4    1  0.2243645E+005  0.3599688E+02  0.7546771E-02  0.1373687E+00
          2   -1    0    0  503    0  0.00000000000E+00  0.00000000000E+00  0.79959129457E+03  0.79959129457E+03  0.00000000000E+00 0.  1.
         21   -1    0    0  501  502 -0.00000000000E+00 -0.00000000000E+00 -0.48048033834E+01  0.48048033834E+01  0.00000000000E+00 0.  1.
          2    1    1    2  501    0 -0.35187897830E+02  0.75886310956E+01  0.72481395569E+03  0.72570727283E+03  0.00000000000E+00 0.  1.
         21    1    1    2  503  502  0.35187897830E+02 -0.75886310956E+01  0.69972535503E+02  0.78688825130E+02  0.00000000000E+00 0.  1.
</event>
<event>
 4    1  0.2243645E+005  0.2152709E+02  0.7546771E-02  0.1511871E+00
          2   -1    0    0  502    0  0.00000000000E+00  0.00000000000E+00  0.27165663869E+01  0.27165663869E+01  0.00000000000E+00 0.  1.
         21   -1    0    0  503  502 -0.00000000000E+00 -0.00000000000E+00 -0.19957007414E+03  0.19957007414E+03  0.00000000000E+00 0. -1.
          2    1    1    2  501    0  0.11062346606E+02  0.18467272401E+02 -0.59883478823E+02  0.63635263009E+02  0.00000000000E+00 0.  1.
         21    1    1    2  503  501 -0.11062346606E+02 -0.18467272401E+02 -0.13697002893E+03  0.13865137752E+03  0.00000000000E+00 0. -1.
</event>
<event>
 4    1  0.2243645E+005  0.2051652E+02  0.7546771E-02  0.1526281E+00
          2   -1    0    0  502    0  0.00000000000E+00  0.00000000000E+00  0.37187147178E+03  0.37187147178E+03  0.00000000000E+00 0. -1.
         21   -1    0    0  503  502 -0.00000000000E+00 -0.00000000000E+00 -0.50528386248E+01  0.50528386248E+01  0.00000000000E+00 0.  1.
          2    1    1    2  501    0  0.19843454035E+02 -0.52119975214E+01  0.34942553915E+03  0.35002733464E+03  0.00000000000E+00 0. -1.
         21    1    1    2  503  501 -0.19843454035E+02  0.52119975214E+01  0.17393094009E+02  0.26896975766E+02  0.00000000000E+00 0.  1.
</event>
<event>
 4    1  0.2243645E+005  0.2199292E+02  0.7546771E-02  0.1505547E+00
          2   -1    0    0  503    0  0.00000000000E+00  0.00000000000E+00  0.85326484307E+02  0.85326484307E+02  0.00000000000E+00 0.  1.
         21   -1    0    0  501  502 -0.00000000000E+00 -0.00000000000E+00 -0.25978516138E+02  0.25978516138E+02  0.00000000000E+00 0.  1.
          2    1    1    2  501    0 -0.16359454864E+02 -0.14698865951E+02  0.78881419735E+02  0.81889967659E+02  0.00000000000E+00 0.  1.
         21    1    1    2  503  502  0.16359454864E+02  0.14698865951E+02 -0.19533451567E+02  0.29415032786E+02  0.00000000000E+00 0.  1.
</event>
<event>
 4    1  0.2243645E+005  0.2807864E+02  0.7546771E-02  0.1437064E+00
          2   -1    0    0  503    0  0.00000000000E+00  0.00000000000E+00  0.17567554589E+04  0.17567554589E+04  0.00000000000E+00 0. -1.
         21   -1    0    0  501  502 -0.00000000000E+00 -0.00000000000E+00 -0.53946533016E+01  0.53946533016E+01  0.00000000000E+00 0.  1.
          2    1    1    2  501    0 -0.10399433769E+02 -0.26081827572E+02  0.17193109548E+04  0.17195402203E+04  0.00000000000E+00 0. -1.
         21    1    1    2  503  502  0.10399433769E+02  0.26081827572E+02  0.32049850846E+02  0.42609891944E+02  0.00000000000E+00 0.  1.
</event>
<event>
 4    1  0.2243645E+005  0.2133873E+02  0.7546771E-02  0.1514483E+00
          2   -1    0    0  502    0  0.00000000000E+00  0.00000000000E+00  0.13268376422E+03  0.13268376422E+03  0.00000000000E+00 0.  1.
         21   -1    0    0  503  502 -0.00000000000E+00 -0.00000000000E+00 -0.44402653707E+01  0.44402653707E+01  0.00000000000E+00 0. -1.
          2    1    1    2  501    0 -0.71101730024E+01  0.20119313269E+02  0.96796642289E+02  0.99120791386E+02  0.00000000000E+00 0.  1.
         21    1    1    2  503  501  0.71101730024E+01 -0.20119313269E+02  0.31446856559E+02  0.38003238204E+02  0.00000000000E+00 0. -1.
</event>
<event>
 4    1  0.2243645E+005  0.2112885E+02  0.7546771E-02  0.1517433E+00
          2   -1    0    0  502    0  0.00000000000E+00  0.00000000000E+00  0.12138244996E+04  0.12138244996E+04  0.00000000000E+00 0. -1.
         21   -1    0    0  503  502 -0.00000000000E+00 -0.00000000000E+00 -0.17138600807E+02  0.17138600807E+02  0.00000000000E+00 0. -1.
          2    1    1    2  501    0 -0.20730723326E+02  0.40823142671E+01  0.12071847103E+04  0.12073696008E+04  0.00000000000E+00 0. -1.
         21    1    1    2  503  501  0.20730723326E+02 -0.40823142671E+01 -0.10498811518E+02  0.23593499585E+02  0.00000000000E+00 0. -1.
</event>
<event>
 4    1  0.2243645E+005  0.3015868E+02  0.7546771E-02  0.1418222E+00
          2   -1    0    0  502    0  0.00000000000E+00  0.00000000000E+00  0.13365777917E+04  0.13365777917E+04  0.00000000000E+00 0.  1.
         21   -1    0    0  503  502 -0.00000000000E+00 -0.00000000000E+00 -0.11866121093E+02  0.11866121093E+02  0.00000000000E+00 0.  1.
          2    1    1    2  501    0  0.73242784650E+01  0.29255787143E+02  0.13169595771E+04  0.13173048523E+04  0.00000000000E+00 0.  1.
         21    1    1    2  503  501 -0.73242784650E+01 -0.29255787143E+02  0.77520935221E+01  0.31139060525E+02  0.00000000000E+00 0.  1.
</event>
<event>
 4    1  0.2243645E+005  0.2686716E+02  0.7546771E-02  0.1448947E+00
          2   -1    0    0  503    0  0.00000000000E+00  0.00000000000E+00  0.15150174572E+04  0.15150174572E+04  0.00000000000E+00 0. -1.
         21   -1    0    0  501  502 -0.00000000000E+00 -0.00000000000E+00 -0.47626983970E+01  0.47626983970E+01  0.00000000000E+00 0. -1.
          2    1    1    2  501    0 -0.26650069147E+02 -0.34085331165E+01  0.14760064656E+04  0.14762509714E+04  0.00000000000E+00 0. -1.
         21    1    1    2  503  502  0.26650069147E+02  0.34085331165E+01  0.34248293226E+02  0.43529184147E+02  0.00000000000E+00 0. -1.
</event>
<event>
 4    1  0.2243645E+005  0.2204961E+02  0.7546771E-02  0.1504790E+00
          2   -1    0    0  503    0  0.00000000000E+00  0.00000000000E+00  0.24210042545E+03  0.24210042545E+03  0.00000000000E+00 0. -1.
         21   -1    0    0  501  502 -0.00000000000E+00 -0.00000000000E+00 -0.30382730624E+01  0.30382730624E+01  0.00000000000E+00 0.  1.
          2    1    1    2  501    0  0.21806114780E+02 -0.32678182592E+01  0.19089902047E+03  0.19216821094E+03  0.00000000000E+00 0. -1.
         21    1    1    2  503  502 -0.21806114780E+02  0.32678182592E+01  0.48163131921E+02  0.52970487579E+02  0.00000000000E+00 0.  1.
</event>
<event>
 4    1  0.2243645E+005  0.6173568E+02  0.7546771E-02  0.1254047E+00
          2   -1    0    0  502    0  0.00000000000E+00  0.00000000000E+00  0.19241698295E+04  0.19241698295E+04  0.00000000000E+00 0.  1.
         21   -1    0    0  503  502 -0.00000000000E+00 -0.00000000000E+00 -0.24661097911E+01  0.24661097911E+01  0.00000000000E+00 0. -1.
          2    1    1    2  501    0  0.55727080085E+02 -0.26566657964E+02  0.13882143779E+04  0.13895864327E+04  0.00000000000E+00 0.  1.
         21    1    1    2  503  501 -0.55727080085E+02  0.26566657964E+02  0.53348934183E+03  0.53704950667E+03  0.00000000000E+00 0. -1.
</event>
<event>
 4    1  0.2243645E+005  0.4030200E+02  0.7546771E-02  0.1346725E+00
          2   -1    0    0  503    0  0.00000000000E+00  0.00000000000E+00  0.28143482400E+01  0.28143482400E+01  0.00000000000E+00 0. -1.
         21   -1    0    0  501  502 -0.00000000000E+00 -0.00000000000E+00 -0.58451388783E+03  0.58451388783E+03  0.00000000000E+00 0. -1.
          2    1    1    2  501    0 -0.39730049917E+02 -0.67656677171E+01 -0.25784855725E+03  0.26097917466E+03  0.00000000000E+00 0. -1.
         21    1    1    2  503  502  0.39730049917E+02  0.67656677171E+01 -0.32385098234E+03  0.32634906142E+03  0.00000000000E+00 0. -1.
</event>
<event>
 4    1  0.2243645E+005  0.2322193E+02  0.7546771E-02  0.1489730E+00
          2   -1    0    0  503    0  0.00000000000E+00  0.00000000000E+00  0.14721641760E+04  0.14721641760E+04  0.00000000000E+00 0. -1.
         21   -1    0    0  501  502 -0.00000000000E+00 -0.00000000000E+00 -0.37488115865E+00  0.37488115865E+00  0.00000000000E+00 0.  1.
          2    1    1    2  501    0 -0.60348447061E+00  0.23214092023E+02  0.84726900280E+03  0.84758717626E+03  0.00000000000E+00 0. -1.
         21    1    1    2  503  502  0.60348447061E+00 -0.23214092023E+02  0.62452029200E+03  0.62495188085E+03  0.00000000000E+00 0.  1.
</event>
<event>
 4    1  0.2243645E+005  0.2967557E+02  0.7546771E-02  0.1422437E+00
          2   -1    0    0  503    0  0.00000000000E+00  0.00000000000E+00  0.10758337673E+04  0.10758337673E+04  0.00000000000E+00 0. -1.
         21   -1    0    0  501  502 -0.00000000000E+00 -0.00000000000E+00 -0.11598332383E+01  0.11598332383E+01  0.00000000000E+00 0.  1.
          2    1    1    2  501    0 -0.28580756767E+02 -0.79862368187E+01  0.82943822295E+03  0.82996891828E+03  0.00000000000E+00 0. -1.
         21    1    1    2  503  502  0.28580756767E+02  0.79862368187E+01  0.24523571116E+03  0.24702468229E+03  0.00000000000E+00 0.  1.
</event>
<event>
 4    1  0.2243645E+005  0.2273013E+02  0.7546771E-02  0.1495915E+00
          2   -1    0    0  502    0  0.00000000000E+00  0.00000000000E+00  0.72653096539E+03  0.72653096539E+03  0.00000000000E+00 0.  1.
         21   -1    0    0  503  502 -0.00000000000E+00 -0.00000000000E+00 -0.53061662757E+02  0.53061662757E+02  0.00000000000E+00 0. -1.
          2    1    1    2  501    0 -0.22646139216E+02 -0.19522146704E+01  0.72391013439E+03  0.72426689931E+03  0.00000000000E+00 0.  1.
         21    1    1    2  503  501  0.22646139216E+02  0.19522146704E+01 -0.50440831755E+02  0.55325728840E+02  0.00000000000E+00 0. -1.
</event>
<event>
 4    1  0.2243645E+005  0.2157167E+02  0.7546771E-02  0.1511257E+00
          2   -1    0    0  503    0  0.00000000000E+00  0.00000000000E+00  0.32194506650E+03  0.32194506650E+03  0.00000000000E+00 0.  1.
         21   -1    0    0  501  502 -0.00000000000E+00 -0.00000000000E+00 -0.96511866312E+01  0.96511866312E+01  0.00000000000E+00 0.  1.
          2    1    1    2  501    0 -0.48490592486E+01  0.21019599636E+02  0.30902655263E+03  0.30977854537E+03  0.00000000000E+00 0.  1.
         21    1    1    2  503  502  0.48490592486E+01 -0.21019599636E+02  0.32673272389E+01  0.21817707756E+02  0.00000000000E+00 0.  1.
</event>
<event>
 4    1  0.2243645E+005  0.4434790E+02  0.7546771E-02  0.1324732E+00
          2   -1    0    0  503    0  0.00000000000E+00  0.00000000000E+00  0.10894514979E+04  0.10894514979E+04  0.00000000000E+00 0. -1.
         21   -1    0    0  501  502 -0.00000000000E+00 -0.00000000000E+00 -0.25117113159E+01  0.25117113159E+01  0.00000000000E+00 0. -1.
          2    1    1    2  501    0  0.48083969567E+01 -0.44086460318E+02  0.83302825825E+03  0.83420789717E+03  0.00000000000E+00 0. -1.
         21    1    1    2  503  502 -0.48083969567E+01  0.44086460318E+02  0.25391152832E+03  0.25775531203E+03  0.00000000000E+00 0. -1.
</event>
<event>
 4    1  0.2243645E+005  0.4214692E+02  0.7546771E-02  0.1336344E+00
          2   -1    0    0  503    0  0.00000000000E+00  0.00000000000E+00  0.19604167033E+04  0.19604167033E+04  0.00000000000E+00 0. -1.
         21   -1    0    0  501  502 -0.00000000000E+00 -0.00000000000E+00 -0.25291604808E+01  0.25291604808E+01  0.00000000000E+00 0.  1.
          2    1    1    2  501    0 -0.70844316678E+01 -0.41547250600E+02  0.17651843651E+04  0.17656874599E+04  0.00000000000E+00 0. -1.
         21    1    1    2  503  502  0.70844316678E+01  0.41547250600E+02  0.19270317776E+03  0.19725840394E+03  0.00000000000E+00 0.  1.
</event>
<event>
 4    1  0.2243645E+005  0.2443634E+02  0.7546771E-02  0.1475209E+00
          2   -1    0    0  503    0  0.00000000000E+00  0.00000000000E+00  0.12718971240E+04  0.12718971240E+04  0.00000000000E+00 0. -1.
         21   -1    0    0  501  502 -0.00000000000E+00 -0.00000000000E+00 -0.12994447809E+01  0.12994447809E+01  0.00000000000E+00 0. -1.
          2    1    1    2  501    0 -0.24248869718E+02  0.30211031488E+01  0.11440617682E+04  0.11443227098E+04  0.00000000000E+00 0. -1.
         21    1    1    2  503  502  0.24248869718E+02 -0.30211031488E+01  0.12653591105E+03  0.12887385899E+03  0.00000000000E+00 0. -1.
</event>
<event>
 4    1  0.2243645E+005  0.4178317E+02  0.7546771E-02  0.1338342E+00
          2   -1    0    0  503    0  0.00000000000E+00  0.00000000000E+00  0.46560747763E+03  0.46560747763E+03  0.00000000000E+00 0.  1.
         21   -1    0    0  501  502 -0.00000000000E+00 -0.00000000000E+00 -0.83492170655E+02  0.83492170655E+02  0.00000000000E+00 0.  1.
          2    1    1    2  501    0  0.22794879172E+02 -0.35017526038E+02  0.45937172990E+03  0.46126805642E+03  0.00000000000E+00 0.  1.
         21    1    1    2  503  502 -0.22794879172E+02  0.35017526038E+02 -0.77256422923E+02  0.87831591863E+02  0.00000000000E+00 0.  1.
</event>
<event>
 4    1  0.2243645E+005  0.2313970E+02  0.7546771E-02  0.1490751E+00
          2   -1    0    0  502    0  0.00000000000E+00  0.00000000000E+00  0.26479733375E+03  0.26479733375E+03  0.00000000000E+00 0. -1.
         21   -1    0    0  503  502 -0.00000000000E+00 -0.00000000000E+00 -0.21442189910E+02  0.21442189910E+02  0.00000000000E+00 0. -1.
          2    1    1    2  501    0  0.10975099650E+02 -0.20371370020E+02  0.25788183563E+03  0.25891791494E+03  0.00000000000E+00 0. -1.
         21    1    1    2  503  501 -0.10975099650E+02  0.20371370020E+02 -0.14526691788E+02  0.27321608722E+02  0.00000000000E+00 0. -1.
</event>
<event>
 4    1  0.2243645E+005  0.2709284E+02  0.7546771E-02  0.1446678E+00
          2   -1    0    0  503    0  0.00000000000E+00  0.00000000000E+00  0.70376575713E+03  0.70376575713E+03  0.00000000000E+00 0. -1.
         21   -1    0    0  501  502 -0.00000000000E+00 -0.00000000000E+00 -0.45430602771E+01  0.45430602771E+01  0.00000000000E+00 0.  1.
          2    1    1    2  501    0 -0.26720613345E+02  0.44755603132E+01  0.66046550726E+03  0.66102095889E+03  0.00000000000E+00 0. -1.
         21    1    1    2  503  502  0.26720613345E+02 -0.44755603132E+01  0.38757189597E+02  0.47287858517E+02  0.00000000000E+00 0.  1.
</event>
<event>
 4    1  0.2243645E+005  0.3691978E+02  0.7546771E-02  0.1367547E+00
          2   -1    0    0  503    0  0.00000000000E+00  0.00000000000E+00  0.90445926686E+03  0.90445926686E+03  0.00000000000E+00 0. -1.
         21   -1    0    0  501  502 -0.00000000000E+00 -0.00000000000E+00 -0.21547236840E+01  0.21547236840E+01  0.00000000000E+00 0. -1.
          2    1    1    2  501    0  0.33963406736E+02 -0.14476078911E+02  0.69967898614E+03  0.70065237708E+03  0.00000000000E+00 0. -1.
         21    1    1    2  503  502 -0.33963406736E+02  0.14476078911E+02  0.20262555703E+03  0.20596161346E+03  0.00000000000E+00 0. -1.
</event>
<event>
 4    1  0.2243645E+005  0.2014091E+02  0.7546771E-02  0.1531892E+00
          2   -1    0    0  503    0  0.00000000000E+00  0.00000000000E+00  0.12153801813E+03  0.12153801813E+03  0.00000000000E+00 0.  1.
         21   -1    0    0  501  502 -0.00000000000E+00 -0.00000000000E+00 -0.44393602249E+01  0.44393602249E+01  0.00000000000E+00 0.  1.
          2    1    1    2  501    0  0.29660157703E+01 -0.19921323338E+02  0.89927523213E+02  0.92155389448E+02  0.00000000000E+00 0.  1.
         21    1    1    2  503  502 -0.29660157703E+01  0.19921323338E+02  0.27171134688E+02  0.33821988903E+02  0.00000000000E+00 0.  1.
</event>
<event>
 4    1  0.2243645E+005  0.2398268E+02  0.7546771E-02  0.1480514E+00
          2   -1    0    0  503    0  0.00000000000E+00  0.00000000000E+00  0.99145154793E+03  0.99145154793E+03  0.00000000000E+00 0.  1.
         21   -1    0    0  501  502 -0.00000000000E+00 -0.00000000000E+00 -0.48837374470E+01  0.48837374470E+01  0.00000000000E+00 0. -1.
          2    1    1    2  501    0 -0.23978507852E+02 -0.44751710011E+00  0.96092834182E+03  0.96122757307E+03  0.00000000000E+00 0.  1.
         21    1    1    2  503  502  0.23978507852E+02  0.44751710011E+00  0.25639468662E+02  0.35107712310E+02  0.00000000000E+00 0. -1.
</event>
<event>
 4    1  0.2243645E+005  0.2305915E+02  0.7546771E-02  0.1491757E+00
          2   -1    0    0  502    0  0.00000000000E+00  0.00000000000E+00  0.15317688415E+02  0.15317688415E+02  0.00000000000E+00 0.  1.
         21   -1    0    0  503  502 -0.00000000000E+00 -0.00000000000E+00 -0.10444758032E+03  0.10444758032E+03  0.00000000000E+00 0.  1.
          2    1    1    2  501    0 -0.25589932460E+01  0.22916720470E+02  0.43650832950E+01  0.23468670088E+02  0.00000000000E+00 0.  1.
         21    1    1    2  503  501  0.25589932460E+01 -0.22916720470E+02 -0.93494975197E+02  0.96296598645E+02  0.00000000000E+00 0.  1.
</event>
<event>
 4    1  0.2243645E+005  0.3918820E+02  0.7546771E-02  0.1353310E+00
          2   -1    0    0  502    0  0.00000000000E+00  0.00000000000E+00  0.57154022045E+02  0.57154022045E+02  0.00000000000E+00 0. -1.
         21   -1    0    0  503  502 -0.00000000000E+00 -0.00000000000E+00 -0.15758637012E+03  0.15758637012E+03  0.00000000000E+00 0.  1.
          2    1    1    2  501    0  0.38907226452E+01  0.38994582067E+02  0.47572779789E+02  0.61635091711E+02  0.00000000000E+00 0. -1.
         21    1    1    2  503  501 -0.38907226452E+01 -0.38994582067E+02 -0.14800512786E+03  0.15310530045E+03  0.00000000000E+00 0.  1.
</event>
<event>
 4    1  0.2243645E+005  0.2539171E+02  0.7546771E-02  0.1464469E+00
          2   -1    0    0  503    0  0.00000000000E+00  0.00000000000E+00  0.79722941179E+01  0.79722941179E+01  0.00000000000E+00 0.  1.
         21   -1    0    0  501  502 -0.00000000000E+00 -0.00000000000E+00 -0.11275449001E+03  0.11275449001E+03  0.00000000000E+00 0.  1.
          2    1    1    2  501    0  0.21567425471E+02  0.13400933326E+02 -0.20292959021E+02  0.32504508015E+02  0.00000000000E+00 0.  1.
         21    1    1    2  503  502 -0.21567425471E+02 -0.13400933326E+02 -0.84489236866E+02  0.88222276108E+02  0.00000000000E+00 0.  1.
</event>
<event>
 4    1  0.2243645E+005  0.2009531E+02  0.7546771E-02  0.1532584E+00
          2   -1    0    0  502    0  0.00000000000E+00  0.00000000000E+00  0.55780004827E+03  0.55780004827E+03  0.00000000000E+00 0. -1.
         21   -1    0    0  503  502 -0.00000000000E+00 -0.00000000000E+00 -0.10408700314E+01  0.10408700314E+01  0.00000000000E+00 0. -1.
          2    1    1    2  501    0  0.91516865315E+01  0.17890445372E+02  0.43256108966E+03  0.43302761770E+03  0.00000000000E+00 0. -1.
         21    1    1    2  503  501 -0.91516865315E+01 -0.17890445372E+02  0.12419808858E+03  0.12581330061E+03  0.00000000000E+00 0. -1.
</event>
<event>
 4    1  0.2243645E+005  0.2409821E+02  0.7546771E-02  0.1479150E+00
          2   -1    0    0  503    0  0.00000000000E+00  0.00000000000E+00  0.70764592703E+03  0.70764592703E+03  0.00000000000E+00 0. -1.
         21   -1    0    0  501  502 -0.00000000000E+00 -0.00000000000E+00 -0.25037661027E+02  0.25037661027E+02  0.00000000000E+00 0. -1.
          2    1    1    2  501    0  0.23602115769E+02 -0.48645333656E+01  0.70159224871E+03  0.70200598787E+03  0.00000000000E+00 0. -1.
         21    1    1    2  503  502 -0.23602115769E+02  0.48645333656E+01 -0.18983982709E+02  0.30677600186E+02  0.00000000000E+00 0. -1.
</event>
<event>
 4    1  0.2243645E+005  0.3256266E+02  0.7546771E-02  0.1398559E+00
          2   -1    0    0  503    0  0.00000000000E+00  0.00000000000E+00  0.19597763433E+03  0.19597763433E+03  0.00000000000E+00 0.  1.
         21   -1    0    0  501  502 -0.00000000000E+00 -0.00000000000E+00 -0.94421805536E+01  0.94421805536E+01  0.00000000000E+00 0.  1.
          2    1    1    2  501    0  0.69750093290E+01 -0.31806851006E+02  0.16038311722E+03  0.16365534154E+03  0.00000000000E+00 0.  1.
         21    1    1    2  503  502 -0.69750093290E+01  0.31806851006E+02  0.26152336556E+02  0.41764473340E+02  0.00000000000E+00 0.  1.
</event>
<event>
 4    1  0.2243645E+005  0.2325547E+02  0.7546771E-02  0.1489315E+00
          2   -1    0    0  503    0  0.00000000000E+00  0.00000000000E+00  0.29080178735E+01  0.29080178735E+01  0.00000000000E+00 0.  1.
         21   -1    0    0  501  502 -0.00000000000E+00 -0.00000000000E+00 -0.20603515230E+03  0.20603515230E+03  0.00000000000E+00 0. -1.
          2    1    1    2  501    0  0.23249474611E+02 -0.52785001946E+00 -0.68964752099E+02  0.72780174000E+02  0.00000000000E+00 0.  1.
         21    1    1    2  503  502 -0.23249474611E+02  0.52785001946E+00 -0.13416238233E+03  0.13616299618E+03  0.00000000000E+00 0. -1.
</event>
<event>
 4    1  0.2243645E+005  0.2387430E+02  0.7546771E-02  0.1481802E+00
          2   -1    0    0  503    0  0.00000000000E+00  0.00000000000E+00  0.10609760329E+04  0.10609760329E+04  0.00000000000E+00 0.  1.
         21   -1    0    0  501  502 -0.00000000000E+00 -0.00000000000E+00 -0.12120442385E+01  0.12120442385E+01  0.00000000000E+00 0.  1.
          2    1    1    2  501    0 -0.13709873367E+02  0.19545375543E+02  0.92616557198E+03  0.92647323170E+03  0.00000000000E+00 0.  1.
         21    1    1    2  503  502  0.13709873367E+02 -0.19545375543E+02  0.13359841664E+03  0.13571484540E+03  0.00000000000E+00 0.  1.
</event>
<event>
 4    1  0.2243645E+005  0.2748488E+02  0.7546771E-02  0.1442797E+00
          2   -1    0    0  502    0  0.00000000000E+00  0.00000000000E+00  0.12630949675E+04  0.12630949675E+04  0.00000000000E+00 0.  1.
         21   -1    0    0  503  502 -0.00000000000E+00 -0.00000000000E+00 -0.22086516785E+01  0.22086516785E+01  0.00000000000E+00 0. -1.
          2    1    1    2  501    0  0.20962696242E+02  0.17775944838E+02  0.11706903959E+04  0.11710129896E+04  0.00000000000E+00 0.  1.
         21    1    1    2  503  501 -0.20962696242E+02 -0.17775944838E+02  0.90195919922E+02  0.94290629541E+02  0.00000000000E+00 0. -1.
</event>
<event>
 4    1  0.2243645E+005  0.2573129E+02  0.7546771E-02  0.1460786E+00
          2   -1    0    0  503    0  0.00000000000E+00  0.00000000000E+00  0.65900823030E+02  0.65900823030E+02  0.00000000000E+00 0.  1.
         21   -1    0    0  501  502 -0.00000000000E+00 -0.00000000000E+00 -0.10071229842E+02  0.10071229842E+02  0.00000000000E+00 0.  1.
          2    1    1    2  501    0 -0.18660321377E+02  0.17716994817E+02  0.26048065435E+02  0.36614221446E+02  0.00000000000E+00 0.  1.
         21    1    1    2  503  502  0.18660321377E+02 -0.17716994817E+02  0.29781527753E+02  0.39357831425E+02  0.00000000000E+00 0.  1.
</event>
<event>
 4    1  0.2243645E+005  0.2594657E+02  0.7546771E-02  0.1458487E+00
          2   -1    0    0  503    0  0.00000000000E+00  0.00000000000E+00  0.40338684497E+03  0.40338684497E+03  0.00000000000E+00 0.  1.
         21   -1    0    0  501  502 -0.00000000000E+00 -0.00000000000E+00 -0.10283385274E+03  0.10283385274E+03  0.00000000000E+00 0.  1.
          2    1    1    2  501    0  0.24746418758E+02 -0.77999594348E+01  0.40132453018E+03  0.40216240890E+03  0.00000000000E+00 0.  1.
         21    1    1    2  503  502 -0.24746418758E+02  0.77999594348E+01 -0.10077153795E+03  0.10405828881E+03  0.00000000000E+00 0.  1.
</event>
<event>
 4    1  0.2243645E+005  0.2062833E+02  0.7546771E-02  0.1524638E+00
          2   -1    0    0  502    0  0.00000000000E+00  0.00000000000E+00  0.58979545154E+01  0.58979545154E+01  0.00000000000E+00 0.  1.
         21   -1    0    0  503  502 -0.00000000000E+00 -0.00000000000E+00 -0.36587670072E+03  0.36587670072E+03  0.00000000000E+00 0.  1.
          2    1    1    2  501    0  0.55058486760E+00  0.20620981038E+02 -0.13435283638E+02  0.24617775064E+02  0.00000000000E+00 0.  1.
         21    1    1    2  503  501 -0.55058486760E+00 -0.20620981038E+02 -0.34654346257E+03  0.34715688017E+03  0.00000000000E+00 0.  1.
</event>
<event>
 4    1  0.2243645E+005  0.3514055E+02  0.7546771E-02  0.1379578E+00
          2   -1    0    0  503    0  0.00000000000E+00  0.00000000000E+00  0.12238028110E+04  0.12238028110E+04  0.00000000000E+00 0.  1.
         21   -1    0    0  501  502 -0.00000000000E+00 -0.00000000000E+00 -0.10181463867E+01  0.10181463867E+01  0.00000000000E+00 0.  1.
          2    1    1    2  501    0 -0.35102644536E+02 -0.16318198278E+01  0.66932941373E+03  0.67025123840E+03  0.00000000000E+00 0.  1.
         21    1    1    2  503  502  0.35102644536E+02  0.16318198278E+01  0.55345525090E+03  0.55456971901E+03  0.00000000000E+00 0.  1.
</event>
<event>
 4    1  0.2243645E+005  0.2476282E+02  0.7546771E-02  0.1471474E+00
          2   -1    0    0  502    0  0.00000000000E+00  0.00000000000E+00  0.86171494838E+01  0.86171494838E+01  0.00000000000E+00 0. -1.
         21   -1    0    0  503  502 -0.00000000000E+00 -0.00000000000E+00 -0.10446494204E+03  0.10446494204E+03  0.00000000000E+00 0. -1.
          2    1    1    2  501    0  0.40221667457E+01  0.24433978632E+02 -0.15998793507E+02  0.29481494718E+02  0.00000000000E+00 0. -1.
         21    1    1    2  503  501 -0.40221667457E+01 -0.24433978632E+02 -0.79848999054E+02  0.83600596811E+02  0.00000000000E+00 0. -1.
</event>
<event>
 4    1  0.2243645E+005  0.2032411E+02  0.7546771E-02  0.1529137E+00
          2   -1    0    0  503    0  0.00000000000E+00  0.00000000000E+00  0.80731787162E+03  0.80731787162E+03  0.00000000000E+00 0. -1.
         21   -1    0    0  501  502 -0.00000000000E+00 -0.00000000000E+00 -0.52342999999E+00  0.52342999999E+00  0.00000000000E+00 0. -1.
          2    1    1    2  501    0  0.20667615418E+01  0.20218750353E+02  0.46397607964E+03  0.46442100711E+03  0.00000000000E+00 0. -1.
         21    1    1    2  503  502 -0.20667615418E+01 -0.20218750353E+02  0.34281836198E+03  0.34342029451E+03  0.00000000000E+00 0. -1.
</event>
<event>
 4    1  0.2243645E+005  0.2184175E+02  0.7546771E-02  0.1507578E+00
          2   -1    0    0  503    0  0.00000000000E+00  0.00000000000E+00  0.83615295299E+03  0.83615295299E+03  0.00000000000E+00 0. -1.
         21   -1    0    0  501  502 -0.00000000000E+00 -0.00000000000E+00 -0.12599377671E+02  0.12599377671E+02  0.00000000000E+00 0. -1.
          2    1    1    2  501    0  0.14093051935E+02 -0.16686758462E+02  0.82643302027E+03  0.82672159704E+03  0.00000000000E+00 0. -1.
         21    1    1    2  503  502 -0.14093051935E+02  0.16686758462E+02 -0.28794449477E+01  0.22030733624E+02  0.00000000000E+00 0. -1.
</event>
<event>
 4    1  0.2243645E+005  0.2282808E+02  0.7546771E-02  0.1494668E+00
          2   -1    0    0  502    0  0.00000000000E+00  0.00000000000E+00  0.50323686105E+03  0.50323686105E+03  0.00000000000E+00 0.  1.
         21   -1    0    0  503  502 -0.00000000000E+00 -0.00000000000E+00 -0.12896760612E+01  0.12896760612E+01  0.00000000000E+00 0.  1.
          2    1    1    2  501    0  0.22193857756E+01 -0.22719942427E+02  0.36295543191E+03  0.36367260966E+03  0.00000000000E+00 0.  1.
         21    1    1    2  503  501 -0.22193857756E+01  0.22719942427E+02  0.13899175308E+03  0.14085392746E+03  0.00000000000E+00 0.  1.
</event>
<event>
 4    1  0.2243645E+005  0.2054224E+02  0.7546771E-02  0.1525902E+00
          2   -1    0    0  502    0  0.00000000000E+00  0.00000000000E+00  0.14171114499E+02  0.14171114499E+02  0.00000000000E+00 0.  1.
         21   -1    0    0  503  502 -0.00000000000E+00 -0.00000000000E+00 -0.36310774623E+02  0.36310774623E+02  0.00000000000E+00 0.  1.
          2    1    1    2  501    0  0.14040988670E+02  0.14994479474E+02 -0.36338502245E+00  0.20545457557E+02  0.00000000000E+00 0.  1.
         21    1    1    2  503  501 -0.14040988670E+02 -0.14994479474E+02 -0.21776275102E+02  0.29936431565E+02  0.00000000000E+00 0.  1.
</event>
<event>
 4    1  0.2243645E+005  0.2138279E+02  0.7546771E-02  0.1513869E+00
          2   -1    0    0  503    0  0.00000000000E+00  0.00000000000E+00  0.15881848253E+02  0.15881848253E+02  0.00000000000E+00 0.  1.
         21   -1    0    0  501  502 -0.00000000000E+00 -0.00000000000E+00 -0.42305305508E+02  0.42305305508E+02  0.00000000000E+00 0.  1.
          2    1    1    2  501    0  0.27777535912E+01  0.21201601300E+02  0.32330261679E+01  0.21625824167E+02  0.00000000000E+00 0.  1.
         21    1    1    2  503  502 -0.27777535912E+01 -0.21201601300E+02 -0.29656483422E+02  0.36561329594E+02  0.00000000000E+00 0.  1.
</event>
<event>
 4    1  0.2243645E+005  0.2231227E+02  0.7546771E-02  0.1501319E+00
          2   -1    0    0  502    0  0.00000000000E+00  0.00000000000E+00  0.47278225642E+03  0.47278225642E+03  0.00000000000E+00 0.  1.
         21   -1    0    0  503  502 -0.00000000000E+00 -0.00000000000E+00 -0.10482781167E+02  0.10482781167E+02  0.00000000000E+00 0.  1.
          2    1    1    2  501    0 -0.78988861128E+01  0.20867314329E+02  0.46032516527E+03  0.46086559319E+03  0.00000000000E+00 0.  1.
         21    1    1    2  503  501  0.78988861128E+01 -0.20867314329E+02  0.19743099813E+01  0.22399444391E+02  0.00000000000E+00 0.  1.
</event>
<event>
 4    1  0.2243645E+005  0.3100105E+02  0.7546771E-02  0.1411092E+00
          2   -1    0    0  502    0  0.00000000000E+00  0.00000000000E+00  0.45866433935E+02  0.45866433935E+02  0.00000000000E+00 0. -1.
         21   -1    0    0  503  502 -0.00000000000E+00 -0.00000000000E+00 -0.32910459303E+02  0.32910459303E+02  0.00000000000E+00 0. -1.
          2    1    1    2  501    0 -0.46959639551E+01 -0.30643318980E+02  0.30219652047E+02  0.43293099282E+02  0.00000000000E+00 0. -1.
         21    1    1    2  503  501  0.46959639551E+01  0.30643318980E+02 -0.17263677415E+02  0.35483793956E+02  0.00000000000E+00 0. -1.
</event>
<event>
 4    1  0.2243645E+005  0.2015612E+02  0.7546771E-02  0.1531662E+00
          2   -1    0    0  503    0  0.00000000000E+00  0.00000000000E+00  0.11582184827E+04  0.11582184827E+04  0.00000000000E+00 0. -1.
         21   -1    0    0  501  502 -0.00000000000E+00 -0.00000000000E+00 -0.47583565140E+01  0.47583565140E+01  0.00000000000E+00 0.  1.
          2    1    1    2  501    0 -0.83179037769E+01  0.18359779347E+02  0.11363755079E+04  0.11365542503E+04  0.00000000000E+00 0. -1.
         21    1    1    2  503  502  0.83179037769E+01 -0.18359779347E+02  0.17084618304E+02  0.26422588887E+02  0.00000000000E+00 0.  1.
</event>
<event>
 4    1  0.2243645E+005  0.2392310E+02  0.7546771E-02  0.1481221E+00
          2   -1    0    0  502    0  0.00000000000E+00  0.00000000000E+00  0.10124837670E+04  0.10124837670E+04  0.00000000000E+00 0. -1.
         21   -1    0    0  503  502 -0.00000000000E+00 -0.00000000000E+00 -0.67379384603E+00  0.67379384603E+00  0.00000000000E+00 0. -1.
          2    1    1    2  501    0  0.17128297165E+02 -0.16701385408E+02  0.70922002395E+03  0.70962339110E+03  0.00000000000E+00 0. -1.
         21    1    1    2  503  501 -0.17128297165E+02  0.16701385408E+02  0.30258994923E+03  0.30353416976E+03  0.00000000000E+00 0. -1.
</event>
<event>
 4    1  0.2243645E+005  0.2340200E+02  0.7546771E-02  0.1487511E+00
          2   -1    0    0  502    0  0.00000000000E+00  0.00000000000E+00  0.71344379470E+03  0.71344379470E+03  0.00000000000E+00 0.  1.
         21   -1    0    0  503  502 -0.00000000000E+00 -0.00000000000E+00 -0.40297269033E+01  0.40297269033E+01  0.00000000000E+00 0.  1.
          2    1    1    2  501    0 -0.15788799416E+02 -0.17273319025E+02  0.67747257941E+03  0.67787664777E+03  0.00000000000E+00 0.  1.
         21    1    1    2  503  501  0.15788799416E+02  0.17273319025E+02  0.31941488388E+02  0.39596873836E+02  0.00000000000E+00 0.  1.
</event>
<event>
 4    1  0.2243645E+005  0.2981403E+02  0.7546771E-02  0.1421220E+00
          2   -1    0    0  502    0  0.00000000000E+00  0.00000000000E+00  0.17329723457E+04  0.17329723457E+04  0.00000000000E+00 0. -1.
         21   -1    0    0  503  502 -0.00000000000E+00 -0.00000000000E+00 -0.67713007032E+01  0.67713007032E+01  0.00000000000E+00 0. -1.
          2    1    1    2  501    0 -0.16671747879E+02 -0.24716985819E+02  0.16993776031E+04  0.16996391130E+04  0.00000000000E+00 0. -1.
         21    1    1    2  503  501  0.16671747879E+02  0.24716985819E+02  0.26823441974E+02  0.40104533468E+02  0.00000000000E+00 0. -1.
</event>
<event>
 4    1  0.2243645E+005  0.2997205E+02  0.7546771E-02  0.1419840E+00
          2   -1    0    0  503    0  0.00000000000E+00  0.00000000000E+00  0.12032848030E+04  0.12032848030E+04  0.00000000000E+00 0. -1.
         21   -1    0    0  501  502 -0.00000000000E+00 -0.00000000000E+00 -0.24769327473E+02  0.24769327473E+02  0.00000000000E+00 0. -1.
          2    1    1    2  501    0 -0.22230334286E+02 -0.20103127222E+02  0.11939604715E+04  0.11943366070E+04  0.00000000000E+00 0. -1.
         21    1    1    2  503  502  0.22230334286E+02  0.20103127222E+02 -0.15444995944E+02  0.33717523430E+02  0.00000000000E+00 0. -1.
</event>
<event>
 4    1  0.2243645E+005  0.2133217E+02  0.7546771E-02  0.1514575E+00
          2   -1    0    0  502    0  0.00000000000E+00  0.00000000000E+00  0.25582004178E+03  0.25582004178E+03  0.00000000000E+00 0. -1.
         21   -1    0    0  503  502 -0.00000000000E+00 -0.00000000000E+00 -0.21819797753E+02  0.21819797753E+02  0.00000000000E+00 0.  1.
          2    1    1    2  501    0 -0.17221091244E+02  0.12589495663E+02  0.25004119232E+03  0.25094951532E+03  0.00000000000E+00 0. -1.
         21    1    1    2  503  501  0.17221091244E+02 -0.12589495663E+02 -0.16040948288E+02  0.26690324214E+02  0.00000000000E+00 0.  1.
</event>
<event>
 4    1  0.2243645E+005  0.3192820E+02  0.7546771E-02  0.1403549E+00
          2   -1    0    0  503    0  0.00000000000E+00  0.00000000000E+00  0.92575514627E+02  0.92575514627E+02  0.00000000000E+00 0.  1.
         21   -1    0    0  501  502 -0.00000000000E+00 -0.00000000000E+00 -0.11173074088E+02  0.11173074088E+02  0.00000000000E+00 0.  1.
          2    1    1    2  501    0  0.24418664521E+01 -0.31834690203E+02  0.34466243684E+02  0.46982253732E+02  0.00000000000E+00 0.  1.
         21    1    1    2  503  502 -0.24418664521E+01  0.31834690203E+02  0.46936196855E+02  0.56766334982E+02  0.00000000000E+00 0.  1.
</event>
<event>
 4    1  0.2243645E+005  0.2466975E+02  0.7546771E-02  0.1472532E+00
          2   -1    0    0  502    0  0.00000000000E+00  0.00000000000E+00  0.14008961680E+04  0.14008961680E+04  0.00000000000E+00 0.  1.
         21   -1    0    0  503  502 -0.00000000000E+00 -0.00000000000E+00 -0.17720013224E+01  0.17720013224E+01  0.00000000000E+00 0. -1.
          2    1    1    2  501    0  0.23470832424E+02  0.75971485161E+01  0.13088895894E+04  0.13091220546E+04  0.00000000000E+00 0.  1.
         21    1    1    2  503  501 -0.23470832424E+02 -0.75971485161E+01  0.90234577264E+02  0.93546114693E+02  0.00000000000E+00 0. -1.
</event>
<event>
 4    1  0.2243645E+005  0.2724902E+02  0.7546771E-02  0.1445123E+00
          2   -1    0    0  503    0  0.00000000000E+00  0.00000000000E+00  0.96838207955E+03  0.96838207955E+03  0.00000000000E+00 0. -1.
         21   -1    0    0  501  502 -0.00000000000E+00 -0.00000000000E+00 -0.43553134855E+01  0.43553134855E+01  0.00000000000E+00 0. -1.
          2    1    1    2  501    0  0.29594869885E+00  0.27247415841E+02  0.92349851132E+03  0.92390043277E+03  0.00000000000E+00 0. -1.
         21    1    1    2  503  502 -0.29594869885E+00 -0.27247415841E+02  0.40528254740E+02  0.48836960265E+02  0.00000000000E+00 0. -1.
</event>
<event>
 4    1  0.2243645E+005  0.2351308E+02  0.7546771E-02  0.1486154E+00
          2   -1    0    0  503    0  0.00000000000E+00  0.00000000000E+00  0.15416008788E+04  0.15416008788E+04  0.00000000000E+00 0.  1.
         21   -1    0    0  501  502 -0.00000000000E+00 -0.00000000000E+00 -0.52341222199E+00  0.52341222199E+00  0.00000000000E+00 0. -1.
          2    1    1    2  501    0 -0.95214422080E+01  0.21499004608E+02  0.12031740806E+04  0.12034038114E+04  0.00000000000E+00 0.  1.
         21    1    1    2  503  502  0.95214422080E+01 -0.21499004608E+02  0.33790338593E+03  0.33872047958E+03  0.00000000000E+00 0. -1.
</event>
<event>
 4    1  0.2243645E+005  0.2086732E+02  0.7546771E-02  0.1521168E+00
          2   -1    0    0  502    0  0.00000000000E+00  0.00000000000E+00  0.15941545074E+02  0.15941545074E+02  0.00000000000E+00 0.  1.
         21   -1    0    0  503  502 -0.00000000000E+00 -0.00000000000E+00 -0.12939596070E+03  0.12939596070E+03  0.00000000000E+00 0.  1.
          2    1    1    2  501    0 -0.18274069491E+02 -0.10074891570E+02  0.78173289007E+01  0.22283529502E+02  0.00000000000E+00 0.  1.
         21    1    1    2  503  501  0.18274069491E+02  0.10074891570E+02 -0.12127174452E+03  0.12305397627E+03  0.00000000000E+00 0.  1.
</event>
<event>
 4    1  0.2243645E+005  0.2607092E+02  0.7546771E-02  0.1457171E+00
          2   -1    0    0  502    0  0.00000000000E+00  0.00000000000E+00  0.13529448695E+03  0.13529448695E+03  0.00000000000E+00 0. -1.
         21   -1    0    0  503  502 -0.00000000000E+00 -0.00000000000E+00 -0.75486689781E+01  0.75486689781E+01  0.00000000000E+00 0. -1.
          2    1    1    2  501    0 -0.75995954729E+01  0.24938709043E+02  0.10517892240E+03  0.10836188803E+03  0.00000000000E+00 0. -1.
         21    1    1    2  503  501  0.75995954729E+01 -0.24938709043E+02  0.22566895570E+02  0.34481267897E+02  0.00000000000E+00 0. -1.
</event>
<event>
 4    1  0.2243645E+005  0.2029460E+02  0.7546771E-02  0.1529579E+00
          2   -1    0    0  502    0  0.00000000000E+00  0.00000000000E+00  0.14507067632E+03  0.14507067632E+03  0.00000000000E+00 0.  1.
         21   -1    0    0  503  502 -0.00000000000E+00 -0.00000000000E+00 -0.13586117764E+03  0.13586117764E+03  0.00000000000E+00 0.  1.
          2    1    1    2  501    0 -0.18709532534E+02  0.78628437717E+01  0.14359526206E+03  0.14502230934E+03  0.00000000000E+00 0.  1.
         21    1    1    2  503  501  0.18709532534E+02 -0.78628437717E+01 -0.13438576338E+03  0.13590954462E+03  0.00000000000E+00 0.  1.
</event>
<event>
 4    1  0.2243645E+005  0.4488992E+02  0.7546771E-02  0.1321991E+00
          2   -1    0    0  502    0  0.00000000000E+00  0.00000000000E+00  0.72530987977E+02  0.72530987977E+02  0.00000000000E+00 0. -1.
         21   -1    0    0  503  502 -0.00000000000E+00 -0.00000000000E+00 -0.79650705607E+02  0.79650705607E+02  0.00000000000E+00 0.  1.
          2    1    1    2  501    0  0.22281441558E+02  0.38969766411E+02  0.57842839420E+02  0.73218163075E+02  0.00000000000E+00 0. -1.
         21    1    1    2  503  501 -0.22281441558E+02 -0.38969766411E+02 -0.64962557049E+02  0.78963530509E+02  0.00000000000E+00 0.  1.
</event>
<event>
 4    1  0.2243645E+005  0.2747838E+02  0.7546771E-02  0.1442861E+00
          2   -1    0    0  503    0  0.00000000000E+00  0.00000000000E+00  0.66848186530E+02  0.66848186530E+02  0.00000000000E+00 0. -1.
         21   -1    0    0  501  502 -0.00000000000E+00 -0.00000000000E+00 -0.19003833364E+02  0.19003833364E+02  0.00000000000E+00 0. -1.
          2    1    1    2  501    0  0.26650031380E+02 -0.66960583251E+01  0.51261613493E+02  0.58161966847E+02  0.00000000000E+00 0. -1.
         21    1    1    2  503  502 -0.26650031380E+02  0.66960583251E+01 -0.34172603269E+01  0.27690053048E+02  0.00000000000E+00 0. -1.
</event>
<event>
 4    1  0.2243645E+005  0.2168404E+02  0.7546771E-02  0.1509719E+00
          2   -1    0    0  502    0  0.00000000000E+00  0.00000000000E+00  0.34983713523E+02  0.34983713523E+02  0.00000000000E+00 0.  1.
         21   -1    0    0  503  502 -0.00000000000E+00 -0.00000000000E+00 -0.34424911817E+03  0.34424911817E+03  0.00000000000E+00 0.  1.
          2    1    1    2  501    0  0.74170009966E+00  0.21671348180E+02  0.31245277672E+02  0.38032418116E+02  0.00000000000E+00 0.  1.
         21    1    1    2  503  501 -0.74170009966E+00 -0.21671348180E+02 -0.34051068232E+03  0.34120041358E+03  0.00000000000E+00 0.  1.
</event>
<event>
 4    1  0.2243645E+005  0.4011639E+02  0.7546771E-02  0.1347805E+00
          2   -1    0    0  502    0  0.00000000000E+00  0.00000000000E+00  0.23788804587E+03  0.23788804587E+03  0.00000000000E+00 0.  1.
         21   -1    0    0  503  502 -0.00000000000E+00 -0.00000000000E+00 -0.10705012728E+02  0.10705012728E+02  0.00000000000E+00 0. -1.
          2    1    1    2  501    0  0.21986057604E+02  0.33555000995E+02  0.18899847024E+03  0.19320907477E+03  0.00000000000E+00 0.  1.
         21    1    1    2  503  501 -0.21986057604E+02 -0.33555000995E+02  0.38184562907E+02  0.55383983833E+02  0.00000000000E+00 0. -1.
</event>
<event>
 4    1  0.2243645E+005  0.3098732E+02  0.7546771E-02  0.1411206E+00
          2   -1    0    0  502    0  0.00000000000E+00  0.00000000000E+00  0.14263917862E+03  0.14263917862E+03  0.00000000000E+00 0.  1.
         21   -1    0    0  503  502 -0.00000000000E+00 -0.00000000000E+00 -0.71583147293E+01  0.71583147293E+01  0.00000000000E+00 0.  1.
          2    1    1    2  501    0 -0.26627364129E+02 -0.15849208397E+02  0.86023632256E+02  0.91434562578E+02  0.00000000000E+00 0.  1.
         21    1    1    2  503  501  0.26627364129E+02  0.15849208397E+02  0.49457231634E+02  0.58362930771E+02  0.00000000000E+00 0.  1.
</event>
<event>
 4    1  0.2243645E+005  0.3317655E+02  0.7546771E-02  0.1393857E+00
          2   -1    0    0  503    0  0.00000000000E+00  0.00000000000E+00  0.12959811817E+04  0.12959811817E+04  0.00000000000E+00 0.  1.
         21   -1    0    0  501  502 -0.00000000000E+00 -0.00000000000E+00 -0.43601782077E+01  0.43601782077E+01  0.00000000000E+00 0.  1.
          2    1    1    2  501    0  0.25335665242E+02 -0.21419329840E+02  0.12292325235E+04  0.12296801537E+04  0.00000000000E+00 0.  1.
         21    1    1    2  503  502 -0.25335665242E+02  0.21419329840E+02  0.62388479989E+02  0.70661206184E+02  0.00000000000E+00 0.  1.
</event>
<event>
 4    1  0.2243645E+005  0.3089689E+02  0.7546771E-02  0.1411959E+00
          2   -1    0    0  502    0  0.00000000000E+00  0.00000000000E+00  0.42423186388E+03  0.42423186388E+03  0.00000000000E+00 0. -1.
         21   -1    0    0  503  502 -0.00000000000E+00 -0.00000000000E+00 -0.23188896710E+01  0.23188896710E+01  0.00000000000E+00 0. -1.
          2    1    1    2  501    0 -0.15112162931E+02  0.26948846628E+02  0.24765618151E+03  0.24957604461E+03  0.00000000000E+00 0. -1.
         21    1    1    2  503  501  0.15112162931E+02 -0.26948846628E+02  0.17425679269E+03  0.17697470894E+03  0.00000000000E+00 0. -1.
</event>
<event>
 4    1  0.2243645E+005  0.2541358E+02  0.7546771E-02  0.1464230E+00
          2   -1    0    0  503    0  0.00000000000E+00  0.00000000000E+00  0.87981934323E+02  0.87981934323E+02  0.00000000000E+00 0.  1.
         21   -1    0    0  501  502 -0.00000000000E+00 -0.00000000000E+00 -0.33487280727E+02  0.33487280727E+02  0.00000000000E+00 0.  1.
          2    1    1    2  501    0  0.18972122650E+02 -0.16908825267E+02  0.80913874859E+02  0.84810995481E+02  0.00000000000E+00 0.  1.
         21    1    1    2  503  502 -0.18972122650E+02  0.16908825267E+02 -0.26419221263E+02  0.36658219568E+02  0.00000000000E+00 0.  1.
</event>
<event>
 4    1  0.2243645E+005  0.3861985E+02  0.7546771E-02  0.1356769E+00
          2   -1    0    0  503    0  0.00000000000E+00  0.00000000000E+00  0.48662067223E+03  0.48662067223E+03  0.00000000000E+00 0. -1.
         21   -1    0    0  501  502 -0.00000000000E+00 -0.00000000000E+00 -0.19217364163E+02  0.19217364163E+02  0.00000000000E+00 0. -1.
          2    1    1    2  501    0  0.45480202778E+01  0.38351117927E+02  0.46557595391E+03  0.46717497963E+03  0.00000000000E+00 0. -1.
         21    1    1    2  503  502 -0.45480202778E+01 -0.38351117927E+02  0.18273541537E+01  0.38663056759E+02  0.00000000000E+00 0. -1.
</event>
<event>
 4    1  0.2243645E+005  0.2318979E+02  0.7546771E-02  0.1490129E+00
          2   -1    0    0  503    0  0.00000000000E+00  0.00000000000E+00  0.16827464986E+04  0.16827464986E+04  0.00000000000E+00 0. -1.
         21   -1    0    0  501  502 -0.00000000000E+00 -0.00000000000E+00 -0.20433648059E+03  0.20433648059E+03  0.00000000000E+00 0. -1.
          2    1    1    2  501    0 -0.19486590300E+02  0.12571370499E+02  0.16820083733E+04  0.16821682242E+04  0.00000000000E+00 0. -1.
         21    1    1    2  503  502  0.19486590300E+02 -0.12571370499E+02 -0.20359835528E+03  0.20491475504E+03  0.00000000000E+00 0. -1.
</event>
<event>
 4    1  0.2243645E+005  0.3665237E+02  0.7546771E-02  0.1369304E+00
          2   -1    0    0  503    0  0.00000000000E+00  0.00000000000E+00  0.18526935718E+02  0.18526935718E+02  0.00000000000E+00 0.  1.
         21   -1    0    0  501  502 -0.00000000000E+00 -0.00000000000E+00 -0.73409418442E+02  0.73409418442E+02  0.00000000000E+00 0.  1.
          2    1    1    2  501    0 -0.36651895301E+02 -0.18639697250E+00 -0.22354294828E+02  0.42931464804E+02  0.00000000000E+00 0.  1.
         21    1    1    2  503  502  0.36651895301E+02  0.18639697250E+00 -0.32528187896E+02  0.49004889356E+02  0.00000000000E+00 0.  1.
</event>
<event>
 4    1  0.2243645E+005  0.2112673E+02  0.7546771E-02  0.1517463E+00
          2   -1    0    0  502    0  0.00000000000E+00  0.00000000000E+00  0.45983773151E+03  0.45983773151E+03  0.00000000000E+00 0.  1.
         21   -1    0    0  503  502 -0.00000000000E+00 -0.00000000000E+00 -0.26193672993E+01  0.26193672993E+01  0.00000000000E+00 0. -1.
          2    1    1    2  501    0  0.97356683340E+01 -0.18749813545E+02  0.41205893814E+03  0.41260017843E+03  0.00000000000E+00 0.  1.
         21    1    1    2  503  501 -0.97356683340E+01  0.18749813545E+02  0.45159426069E+02  0.49856920369E+02  0.00000000000E+00 0. -1.
</event>
<event>
 4    1  0.2243645E+005  0.3019550E+02  0.7546771E-02  0.1417905E+00
          2   -1    0    0  503    0  0.00000000000E+00  0.00000000000E+00  0.18140381416E+03  0.18140381416E+03  0.00000000000E+00 0.  1.
         21   -1    0    0  501  502 -0.00000000000E+00 -0.00000000000E+00 -0.11119555918E+03  0.11119555918E+03  0.00000000000E+00 0.  1.
          2    1    1    2  501    0  0.35904635539E+01 -0.29981278544E+02  0.17805911447E+03  0.18060126450E+03  0.00000000000E+00 0.  1.
         21    1    1    2  503  502 -0.35904635539E+01  0.29981278544E+02 -0.10785085949E+03  0.11199810884E+03  0.00000000000E+00 0.  1.
</event>
<event>
 4    1  0.2243645E+005  0.2260449E+02  0.7546771E-02  0.1497525E+00
          2   -1    0    0  503    0  0.00000000000E+00  0.00000000000E+00  0.14826790996E+04  0.14826790996E+04  0.00000000000E+00 0.  1.
         21   -1    0    0  501  502 -0.00000000000E+00 -0.00000000000E+00 -0.74007284235E+00  0.74007284235E+00  0.00000000000E+00 0.  1.
          2    1    1    2  501    0 -0.21965941133E+02 -0.53348415738E+01  0.12831491247E+04  0.12833482144E+04  0.00000000000E+00 0.  1.
         21    1    1    2  503  502  0.21965941133E+02  0.53348415738E+01  0.19878990204E+03  0.20007095806E+03  0.00000000000E+00 0.  1.
</event>
<event>
 4    1  0.2243645E+005  0.2103516E+02  0.7546771E-02  0.1518763E+00
          2   -1    0    0  503    0  0.00000000000E+00  0.00000000000E+00  0.55979394043E+03  0.55979394043E+03  0.00000000000E+00 0.  1.
         21   -1    0    0  501  502 -0.00000000000E+00 -0.00000000000E+00 -0.14970901908E+01  0.14970901908E+01  0.00000000000E+00 0. -1.
          2    1    1    2  501    0  0.38545971628E+01 -0.20678971340E+02  0.47196284914E+03  0.47243137993E+03  0.00000000000E+00 0.  1.
         21    1    1    2  503  502 -0.38545971628E+01  0.20678971340E+02  0.86334001099E+02  0.88859650690E+02  0.00000000000E+00 0. -1.
</event>
<event>
 4    1  0.2243645E+005  0.2750230E+02  0.7546771E-02  0.1442627E+00
          2   -1    0    0  502    0  0.00000000000E+00  0.00000000000E+00  0.12950577937E+04  0.12950577937E+04  0.00000000000E+00 0.  1.
         21   -1    0    0  503  502 -0.00000000000E+00 -0.00000000000E+00 -0.12947773892E+01  0.12947773892E+01  0.00000000000E+00 0. -1.
          2    1    1    2  501    0  0.26515918130E+02 -0.72994989029E+01  0.11271095985E+04  0.11274450868E+04  0.00000000000E+00 0.  1.
         21    1    1    2  503  501 -0.26515918130E+02  0.72994989029E+01  0.16665341773E+03  0.16890748426E+03  0.00000000000E+00 0. -1.
</event>
<event>
 4    1  0.2243645E+005  0.2321706E+02  0.7546771E-02  0.1489790E+00
          2   -1    0    0  503    0  0.00000000000E+00  0.00000000000E+00  0.32318712384E+03  0.32318712384E+03  0.00000000000E+00 0.  1.
         21   -1    0    0  501  502 -0.00000000000E+00 -0.00000000000E+00 -0.74517841958E+01  0.74517841958E+01  0.00000000000E+00 0.  1.
          2    1    1    2  501    0  0.22384278236E+02  0.61624749432E+01  0.30351582641E+03  0.30440251131E+03  0.00000000000E+00 0.  1.
         21    1    1    2  503  502 -0.22384278236E+02 -0.61624749432E+01  0.12219513234E+02  0.26236396727E+02  0.00000000000E+00 0.  1.
</event>
<event>
 4    1  0.2243645E+005  0.2573959E+02  0.7546771E-02  0.1460697E+00
          2   -1    0    0  502    0  0.00000000000E+00  0.00000000000E+00  0.14616351159E+04  0.14616351159E+04  0.00000000000E+00 0. -1.
         21   -1    0    0  503  502 -0.00000000000E+00 -0.00000000000E+00 -0.45689798214E+00  0.45689798214E+00  0.00000000000E+00 0. -1.
          2    1    1    2  501    0  0.23976176169E+02  0.93632025740E+01  0.79566303602E+03  0.79607926331E+03  0.00000000000E+00 0. -1.
         21    1    1    2  503  501 -0.23976176169E+02 -0.93632025740E+01  0.66551518195E+03  0.66601275062E+03  0.00000000000E+00 0. -1.
</event>
<event>
 4    1  0.2243645E+005  0.2564928E+02  0.7546771E-02  0.1461669E+00
          2   -1    0    0  503    0  0.00000000000E+00  0.00000000000E+00  0.56288652533E+03  0.56288652533E+03  0.00000000000E+00 0. -1.
         21   -1    0    0  501  502 -0.00000000000E+00 -0.00000000000E+00 -0.11834443514E+01  0.11834443514E+01  0.00000000000E+00 0. -1.
          2    1    1    2  501    0 -0.19895606347E+02  0.16187963959E+02  0.31225639778E+03  0.31330806450E+03  0.00000000000E+00 0. -1.
         21    1    1    2  503  502  0.19895606347E+02 -0.16187963959E+02  0.24944668320E+03  0.25076190518E+03  0.00000000000E+00 0. -1.
</event>
<event>
 4    1  0.2243645E+005  0.2061237E+02  0.7546771E-02  0.1524872E+00
          2   -1    0    0  503    0  0.00000000000E+00  0.00000000000E+00  0.41240521349E+01  0.41240521349E+01  0.00000000000E+00 0.  1.
         21   -1    0    0  501  502 -0.00000000000E+00 -0.00000000000E+00 -0.17456824187E+03  0.17456824187E+03  0.00000000000E+00 0.  1.
          2    1    1    2  501    0 -0.19769209955E+02 -0.58350777145E+01 -0.28023498009E+02  0.34787731096E+02  0.00000000000E+00 0.  1.
         21    1    1    2  503  502  0.19769209955E+02  0.58350777145E+01 -0.14242069173E+03  0.14390456291E+03  0.00000000000E+00 0.  1.
</event>
<event>
 4    1  0.2243645E+005  0.2165726E+02  0.7546771E-02  0.1510084E+00
          2   -1    0    0  503    0  0.00000000000E+00  0.00000000000E+00  0.23563192521E+03  0.23563192521E+03  0.00000000000E+00 0. -1.
         21   -1    0    0  501  502 -0.00000000000E+00 -0.00000000000E+00 -0.21387866428E+02  0.21387866428E+02  0.00000000000E+00 0. -1.
          2    1    1    2  501    0 -0.19086316047E+02  0.10234726622E+02  0.22950575420E+03  0.23052533115E+03  0.00000000000E+00 0. -1.
         21    1    1    2  503  502  0.19086316047E+02 -0.10234726622E+02 -0.15261695423E+02  0.26494460486E+02  0.00000000000E+00 0. -1.
</event>
<event>
 4    1  0.2243645E+005  0.5589360E+02  0.7546771E-02  0.1274461E+00
          2   -1    0    0  503    0  0.00000000000E+00  0.00000000000E+00  0.14581100150E+04  0.14581100150E+04  0.00000000000E+00 0. -1.
         21   -1    0    0  501  502 -0.00000000000E+00 -0.00000000000E+00 -0.24806993259E+01  0.24806993259E+01  0.00000000000E+00 0. -1.
          2    1    1    2  501    0 -0.17288289667E+02 -0.53152705208E+02  0.99743726598E+03  0.99900209939E+03  0.00000000000E+00 0. -1.
         21    1    1    2  503  502  0.17288289667E+02  0.53152705208E+02  0.45819204966E+03  0.46158861490E+03  0.00000000000E+00 0. -1.
</event>
<event>
 4    1  0.2243645E+005  0.2666199E+02  0.7546771E-02  0.1451033E+00
          2   -1    0    0  503    0  0.00000000000E+00  0.00000000000E+00  0.20107923451E+02  0.20107923451E+02  0.00000000000E+00 0.  1.
         21   -1    0    0  501  502 -0.00000000000E+00 -0.00000000000E+00 -0.16502564782E+03  0.16502564782E+03  0.00000000000E+00 0.  1.
          2    1    1    2  501    0 -0.14179605784E+02 -0.22578763665E+02  0.95960876913E+01  0.28336313941E+02  0.00000000000E+00 0.  1.
         21    1    1    2  503  502  0.14179605784E+02  0.22578763665E+02 -0.15451381206E+03  0.15679725733E+03  0.00000000000E+00 0.  1.
</event>
<event>
 4    1  0.2243645E+005  0.3060961E+02  0.7546771E-02  0.1414372E+00
          2   -1    0    0  502    0  0.00000000000E+00  0.00000000000E+00  0.41586891943E+02  0.41586891943E+02  0.00000000000E+00 0. -1.
         21   -1    0    0  503  502 -0.00000000000E+00 -0.00000000000E+00 -0.12493883565E+03  0.12493883565E+03  0.00000000000E+00 0.  1.
          2    1    1    2  501    0 -0.30793876222E+01  0.30454319235E+02  0.33706705832E+02  0.45531200360E+02  0.00000000000E+00 0. -1.
         21    1    1    2  503  501  0.30793876222E+01 -0.30454319235E+02 -0.11705864954E+03  0.12099452724E+03  0.00000000000E+00 0.  1.
</event>
<event>
 4    1  0.2243645E+005  0.3801646E+02  0.7546771E-02  0.1360518E+00
          2   -1    0    0  503    0  0.00000000000E+00  0.00000000000E+00  0.66160117462E+03  0.66160117462E+03  0.00000000000E+00 0.  1.
         21   -1    0    0  501  502 -0.00000000000E+00 -0.00000000000E+00 -0.42226543171E+02  0.42226543171E+02  0.00000000000E+00 0. -1.
          2    1    1    2  501    0  0.11435890242E+01 -0.37999260259E+02  0.65237764822E+03  0.65348438961E+03  0.00000000000E+00 0.  1.
         21    1    1    2  503  502 -0.11435890242E+01  0.37999260259E+02 -0.33003016769E+02  0.50343328177E+02  0.00000000000E+00 0. -1.
</event>
<event>
 4    1  0.2243645E+005  0.2847823E+02  0.7546771E-02  0.1433299E+00
          2   -1    0    0  502    0  0.00000000000E+00  0.00000000000E+00  0.11282999881E+04  0.11282999881E+04  0.00000000000E+00 0.  1.
         21   -1    0    0  503  502 -0.00000000000E+00 -0.00000000000E+00 -0.13782643673E+01  0.13782643673E+01  0.00000000000E+00 0.  1.
          2    1    1    2  501    0  0.28028015859E+02 -0.50438247948E+01  0.95417374624E+03  0.95459863181E+03  0.00000000000E+00 0.  1.
         21    1    1    2  503  501 -0.28028015859E+02  0.50438247948E+01  0.17274797753E+03  0.17507962069E+03  0.00000000000E+00 0.  1.
</event>
<event>
 4    1  0.2243645E+005  0.3629525E+02  0.7546771E-02  0.1371679E+00
          2   -1    0    0  502    0  0.00000000000E+00  0.00000000000E+00  0.29501505474E+04  0.29501505474E+04  0.00000000000E+00 0.  1.
         21   -1    0    0  503  502 -0.00000000000E+00 -0.00000000000E+00 -0.11796823425E+01  0.11796823425E+01  0.00000000000E+00 0. -1.
          2    1    1    2  501    0 -0.28000687231E+02 -0.23093433826E+02  0.26378100915E+04  0.26380597840E+04  0.00000000000E+00 0.  1.
         21    1    1    2  503  501  0.28000687231E+02  0.23093433826E+02  0.31116077364E+03  0.31327044582E+03  0.00000000000E+00 0. -1.
</event>
<event>
 4    1  0.2243645E+005  0.3609561E+02  0.7546771E-02  0.1373020E+00
          2   -1    0    0  503    0  0.00000000000E+00  0.00000000000E+00  0.14003817958E+04  0.14003817958E+04  0.00000000000E+00 0. -1.
         21   -1    0    0  501  502 -0.00000000000E+00 -0.00000000000E+00 -0.24478364046E+01  0.24478364046E+01  0.00000000000E+00 0.  1.
          2    1    1    2  501    0 -0.10275721889E+02  0.34602060766E+02  0.12512240109E+04  0.12517445500E+04  0.00000000000E+00 0. -1.
         21    1    1    2  503  502  0.10275721889E+02 -0.34602060766E+02  0.14670994855E+03  0.15108508224E+03  0.00000000000E+00 0.  1.
</event>
<event>
 4    1  0.2243645E+005  0.2605935E+02  0.7546771E-02  0.1457293E+00
          2   -1    0    0  503    0  0.00000000000E+00  0.00000000000E+00  0.28814001839E+03  0.28814001839E+03  0.00000000000E+00 0. -1.
         21   -1    0    0  501  502 -0.00000000000E+00 -0.00000000000E+00 -0.38489376454E+01  0.38489376454E+01  0.00000000000E+00 0. -1.
          2    1    1    2  501    0  0.35714003434E+01 -0.25813457114E+02  0.23304679839E+03  0.23449925311E+03  0.00000000000E+00 0. -1.
         21    1    1    2  503  502 -0.35714003434E+01  0.25813457114E+02  0.51244282355E+02  0.57489702927E+02  0.00000000000E+00 0. -1.
</event>
<event>
 4    1  0.2243645E+005  0.2499863E+02  0.7546771E-02  0.1468819E+00
          2   -1    0    0  502    0  0.00000000000E+00  0.00000000000E+00  0.21155086702E+01  0.21155086702E+01  0.00000000000E+00 0.  1.
         21   -1    0    0  503  502 -0.00000000000E+00 -0.00000000000E+00 -0.31480742441E+03  0.31480742441E+03  0.00000000000E+00 0.  1.
          2    1    1    2  501    0 -0.18394336264E+02  0.16928666128E+02 -0.11700618866E+03  0.11964689519E+03  0.00000000000E+00 0.  1.
         21    1    1    2  503  501  0.18394336264E+02 -0.16928666128E+02 -0.19568572708E+03  0.19727603789E+03  0.00000000000E+00 0.  1.
</event>
<event>
 4    1  0.2243645E+005  0.2381973E+02  0.7546771E-02  0.1482454E+00
          2   -1    0    0  502    0  0.00000000000E+00  0.00000000000E+00  0.11797397418E+04  0.11797397418E+04  0.00000000000E+00 0. -1.
         21   -1    0    0  503  502 -0.00000000000E+00 -0.00000000000E+00 -0.91642080892E+00  0.91642080892E+00  0.00000000000E+00 0. -1.
          2    1    1    2  501    0  0.12699403619E+02 -0.20152034521E+02  0.99635361050E+03  0.99663829773E+03  0.00000000000E+00 0. -1.
         21    1    1    2  503  501 -0.12699403619E+02  0.20152034521E+02  0.18246971052E+03  0.18401786490E+03  0.00000000000E+00 0. -1.
</event>
<event>
 4    1  0.2243645E+005  0.2884445E+02  0.7546771E-02  0.1429911E+00
          2   -1    0    0  502    0  0.00000000000E+00  0.00000000000E+00  0.29129386273E+03  0.29129386273E+03  0.00000000000E+00 0.  1.
         21   -1    0    0  503  502 -0.00000000000E+00 -0.00000000000E+00 -0.14753988953E+02  0.14753988953E+02  0.00000000000E+00 0.  1.
          2    1    1    2  501    0  0.28602609099E+02  0.37273256945E+01  0.27568590432E+03  0.27719076472E+03  0.00000000000E+00 0.  1.
         21    1    1    2  503  501 -0.28602609099E+02 -0.37273256945E+01  0.85396945440E+00  0.28857086962E+02  0.00000000000E+00 0.  1.
</event>
<event>
 4    1  0.2243645E+005  0.2201585E+02  0.7546771E-02  0.1505240E+00
          2   -1    0    0  502    0  0.00000000000E+00  0.00000000000E+00  0.14163759938E+04  0.14163759938E+04  0.00000000000E+00 0. -1.
         21   -1    0    0  503  502 -0.00000000000E+00 -0.00000000000E+00 -0.15519578281E+02  0.15519578281E+02  0.00000000000E+00 0.  1.
          2    1    1    2  501    0 -0.17718791246E+02  0.13066824376E+02  0.14084386035E+04  0.14086106621E+04  0.00000000000E+00 0. -1.
         21    1    1    2  503  501  0.17718791246E+02 -0.13066824376E+02 -0.75821879366E+01  0.23284910058E+02  0.00000000000E+00 0.  1.
</event>
<event>
 4    1  0.2243645E+005  0.3507052E+02  0.7546771E-02  0.1380068E+00
          2   -1    0    0  502    0  0.00000000000E+00  0.00000000000E+00  0.16198476328E+02  0.16198476328E+02  0.00000000000E+00 0.  1.
         21   -1    0    0  503  502 -0.00000000000E+00 -0.00000000000E+00 -0.15653620485E+03  0.15653620485E+03  0.00000000000E+00 0.  1.
          2    1    1    2  501    0  0.29069265575E+02 -0.19619358474E+02 -0.81922481085E+01  0.36014640871E+02  0.00000000000E+00 0.  1.
         21    1    1    2  503  501 -0.29069265575E+02  0.19619358474E+02 -0.13214548042E+03  0.13672004031E+03  0.00000000000E+00 0.  1.
</event>
<event>
 4    1  0.2243645E+005  0.2157832E+02  0.7546771E-02  0.1511166E+00
          2   -1    0    0  502    0  0.00000000000E+00  0.00000000000E+00  0.78699216640E+03  0.78699216640E+03  0.00000000000E+00 0. -1.
         21   -1    0    0  503  502 -0.00000000000E+00 -0.00000000000E+00 -0.29857363980E+01  0.29857363980E+01  0.00000000000E+00 0. -1.
          2    1    1    2  501    0  0.14801530809E+02 -0.15701542466E+02  0.74569839798E+03  0.74601053914E+03  0.00000000000E+00 0. -1.
         21    1    1    2  503  501 -0.14801530809E+02  0.15701542466E+02  0.38308032023E+02  0.43967363664E+02  0.00000000000E+00 0. -1.
</event>
<event>
 4    1  0.2243645E+005  0.2862913E+02  0.7546771E-02  0.1431896E+00
          2   -1    0    0  502    0  0.00000000000E+00  0.00000000000E+00  0.32396071235E+03  0.32396071235E+03  0.00000000000E+00 0.  1.
         21   -1    0    0  503  502 -0.00000000000E+00 -0.00000000000E+00 -0.58720927150E+01  0.58720927150E+01  0.00000000000E+00 0.  1.
          2    1    1    2  501    0  0.13592168100E+02  0.25196825595E+02  0.28346005741E+03  0.28490214321E+03  0.00000000000E+00 0.  1.
         21    1    1    2  503  501 -0.13592168100E+02 -0.25196825595E+02  0.34628562222E+02  0.44930661861E+02  0.00000000000E+00 0.  1.
</event>
<event>
 4    1  0.2243645E+005  0.2016665E+02  0.7546771E-02  0.1531503E+00
          2   -1    0    0  502    0  0.00000000000E+00  0.00000000000E+00  0.13746754027E+04  0.13746754027E+04  0.00000000000E+00 0.  1.
         21   -1    0    0  503  502 -0.00000000000E+00 -0.00000000000E+00 -0.14646210846E+01  0.14646210846E+01  0.00000000000E+00 0.  1.
          2    1    1    2  501    0  0.11586921417E+02  0.16505662185E+02  0.13012658428E+04  0.13014221019E+04  0.00000000000E+00 0.  1.
         21    1    1    2  503  501 -0.11586921417E+02 -0.16505662185E+02  0.71944938812E+02  0.74717921898E+02  0.00000000000E+00 0.  1.
</event>
<event>
 4    1  0.2243645E+005  0.2904670E+02  0.7546771E-02  0.1428065E+00
          2   -1    0    0  503    0  0.00000000000E+00  0.00000000000E+00  0.70534003905E+02  0.70534003905E+02  0.00000000000E+00 0. -1.
         21   -1    0    0  501  502 -0.00000000000E+00 -0.00000000000E+00 -0.26185852433E+02  0.26185852433E+02  0.00000000000E+00 0. -1.
          2    1    1    2  501    0 -0.28886030900E+02 -0.30509335068E+01  0.57816278746E+02  0.64702651140E+02  0.00000000000E+00 0. -1.
         21    1    1    2  503  502  0.28886030900E+02  0.30509335068E+01 -0.13468127274E+02  0.32017205198E+02  0.00000000000E+00 0. -1.
</event>
<event>
 4    1  0.2243645E+005  0.2927506E+02  0.7546771E-02  0.1426002E+00
          2   -1    0    0  503    0  0.00000000000E+00  0.00000000000E+00  0.65719345815E+03  0.65719345815E+03  0.00000000000E+00 0. -1.
         21   -1    0    0  501  502 -0.00000000000E+00 -0.00000000000E+00 -0.77049154542E+02  0.77049154542E+02  0.00000000000E+00 0.  1.
          2    1    1    2  501    0 -0.19157053316E+02 -0.22136772694E+02  0.65407339336E+03  0.65472821331E+03  0.00000000000E+00 0. -1.
         21    1    1    2  503  502  0.19157053316E+02  0.22136772694E+02 -0.73929089756E+02  0.79514399382E+02  0.00000000000E+00 0.  1.
</event>
<event>
 4    1  0.2243645E+005  0.2326061E+02  0.7546771E-02  0.1489251E+00
          2   -1    0    0  502    0  0.00000000000E+00  0.00000000000E+00  0.24585821122E+02  0.24585821122E+02  0.00000000000E+00 0.  1.
         21   -1    0    0  503  502 -0.00000000000E+00 -0.00000000000E+00 -0.47255876682E+02  0.47255876682E+02  0.00000000000E+00 0. -1.
          2    1    1    2  501    0 -0.83214095788E+01  0.21721194321E+02  0.14921731223E+02  0.27635379549E+02  0.00000000000E+00 0.  1.
         21    1    1    2  503  501  0.83214095788E+01 -0.21721194321E+02 -0.37591786783E+02  0.44206318255E+02  0.00000000000E+00 0. -1.
</event>
<event>
 4    1  0.2243645E+005  0.2084099E+02  0.7546771E-02  0.1521547E+00
          2   -1    0    0  503    0  0.00000000000E+00  0.00000000000E+00  0.12025184419E+04  0.12025184419E+04  0.00000000000E+00 0.  1.
         21   -1    0    0  501  502 -0.00000000000E+00 -0.00000000000E+00 -0.26032650545E+01  0.26032650545E+01  0.00000000000E+00 0.  1.
          2    1    1    2  501    0 -0.15679070703E+01 -0.20781925476E+02  0.11591561657E+04  0.11593435052E+04  0.00000000000E+00 0.  1.
         21    1    1    2  503  502  0.15679070703E+01  0.20781925476E+02  0.40759011172E+02  0.45778201699E+02  0.00000000000E+00 0.  1.
</event>
<event>
 4    1  0.2243645E+005  0.2390380E+02  0.7546771E-02  0.1481451E+00
          2   -1    0    0  502    0  0.00000000000E+00  0.00000000000E+00  0.83328682166E+03  0.83328682166E+03  0.00000000000E+00 0. -1.
         21   -1    0    0  503  502 -0.00000000000E+00 -0.00000000000E+00 -0.68846031849E+01  0.68846031849E+01  0.00000000000E+00 0.  1.
          2    1    1    2  501    0 -0.14448173738E+02 -0.19043157036E+02  0.81181790700E+03  0.81216975176E+03  0.00000000000E+00 0. -1.
         21    1    1    2  503  501  0.14448173738E+02  0.19043157036E+02  0.14584311480E+02  0.28001673086E+02  0.00000000000E+00 0.  1.
</event>
<event>
 4    1  0.2243645E+005  0.5014366E+02  0.7546771E-02  0.1297551E+00
          2   -1    0    0  503    0  0.00000000000E+00  0.00000000000E+00  0.84225611550E+03  0.84225611550E+03  0.00000000000E+00 0.  1.
         21   -1    0    0  501  502 -0.00000000000E+00 -0.00000000000E+00 -0.32563382818E+01  0.32563382818E+01  0.00000000000E+00 0.  1.
          2    1    1    2  501    0 -0.27559166267E+02  0.41891280847E+02  0.54146642548E+03  0.54378329965E+03  0.00000000000E+00 0.  1.
         21    1    1    2  503  502  0.27559166267E+02 -0.41891280847E+02  0.29753335173E+03  0.30172915412E+03  0.00000000000E+00 0.  1.
</event>
<event>
 4    1  0.2243645E+005  0.3980030E+02  0.7546771E-02  0.1349660E+00
          2   -1    0    0  503    0  0.00000000000E+00  0.00000000000E+00  0.16564701636E+02  0.16564701636E+02  0.00000000000E+00 0.  1.
         21   -1    0    0  501  502 -0.00000000000E+00 -0.00000000000E+00 -0.23518118280E+03  0.23518118280E+03  0.00000000000E+00 0.  1.
          2    1    1    2  501    0 -0.28946660272E+02  0.27315828959E+02 -0.12346674319E+02  0.41671381299E+02  0.00000000000E+00 0.  1.
         21    1    1    2  503  502  0.28946660272E+02 -0.27315828959E+02 -0.20626980685E+03  0.21007450314E+03  0.00000000000E+00 0.  1.
</event>
<event>
 4    1  0.2243645E+005  0.2569267E+02  0.7546771E-02  0.1461202E+00
          2   -1    0    0  503    0  0.00000000000E+00  0.00000000000E+00  0.10729384484E+04  0.10729384484E+04  0.00000000000E+00 0. -1.
         21   -1    0    0  501  502 -0.00000000000E+00 -0.00000000000E+00 -0.18780938835E+02  0.18780938835E+02  0.00000000000E+00 0. -1.
          2    1    1    2  501    0 -0.78206355545E+01  0.24473476187E+02  0.10639231793E+04  0.10642333601E+04  0.00000000000E+00 0. -1.
         21    1    1    2  503  502  0.78206355545E+01 -0.24473476187E+02 -0.97656697757E+01  0.27486027056E+02  0.00000000000E+00 0. -1.
</event>
<event>
 4    1  0.2243645E+005  0.2697080E+02  0.7546771E-02  0.1447902E+00
          2   -1    0    0  503    0  0.00000000000E+00  0.00000000000E+00  0.20230336225E+01  0.20230336225E+01  0.00000000000E+00 0.  1.
         21   -1    0    0  501  502 -0.00000000000E+00 -0.00000000000E+00 -0.35966620453E+03  0.35966620453E+03  0.00000000000E+00 0.  1.
          2    1    1    2  501    0  0.10400009495E+02 -0.24885017267E+02 -0.18176341720E+03  0.18375354177E+03  0.00000000000E+00 0.  1.
         21    1    1    2  503  502 -0.10400009495E+02  0.24885017267E+02 -0.17587975372E+03  0.17793569639E+03  0.00000000000E+00 0.  1.
</event>
<event>
 4    1  0.2243645E+005  0.3309332E+02  0.7546771E-02  0.1394487E+00
          2   -1    0    0  503    0  0.00000000000E+00  0.00000000000E+00  0.11605536159E+04  0.11605536159E+04  0.00000000000E+00 0. -1.
         21   -1    0    0  501  502 -0.00000000000E+00 -0.00000000000E+00 -0.18827280454E+01  0.18827280454E+01  0.00000000000E+00 0. -1.
          2    1    1    2  501    0  0.30995780269E+02  0.11594362774E+02  0.98981732863E+03  0.99037039117E+03  0.00000000000E+00 0. -1.
         21    1    1    2  503  502 -0.30995780269E+02 -0.11594362774E+02  0.16885355918E+03  0.17206595273E+03  0.00000000000E+00 0. -1.
</event>
<event>
 4    1  0.2243645E+005  0.2056031E+02  0.7546771E-02  0.1525636E+00
          2   -1    0    0  503    0  0.00000000000E+00  0.00000000000E+00  0.48790105887E+03  0.48790105887E+03  0.00000000000E+00 0.  1.
         21   -1    0    0  501  502 -0.00000000000E+00 -0.00000000000E+00 -0.11330927976E+01  0.11330927976E+01  0.00000000000E+00 0. -1.
          2    1    1    2  501    0 -0.19845324292E+01 -0.20464308511E+02  0.36200656898E+03  0.36258996440E+03  0.00000000000E+00 0.  1.
         21    1    1    2  503  502  0.19845324292E+01  0.20464308511E+02  0.12476139709E+03  0.12644418727E+03  0.00000000000E+00 0. -1.
</event>
<event>
 4    1  0.2243645E+005  0.3483395E+02  0.7546771E-02  0.1381734E+00
          2   -1    0    0  502    0  0.00000000000E+00  0.00000000000E+00  0.16701143912E+03  0.16701143912E+03  0.00000000000E+00 0.  1.
         21   -1    0    0  503  502 -0.00000000000E+00 -0.00000000000E+00 -0.89698199150E+01  0.89698199150E+01  0.00000000000E+00 0. -1.
          2    1    1    2  501    0  0.31176589890E+02  0.15537832423E+02  0.11737683184E+03  0.12243661481E+03  0.00000000000E+00 0.  1.
         21    1    1    2  503  501 -0.31176589890E+02 -0.15537832423E+02  0.40664787364E+02  0.53544644223E+02  0.00000000000E+00 0. -1.
</event>
<event>
 4    1  0.2243645E+005  0.2237471E+02  0.7546771E-02  0.1500503E+00
          2   -1    0    0  502    0  0.00000000000E+00  0.00000000000E+00  0.78643858995E+03  0.78643858995E+03  0.00000000000E+00 0. -1.
         21   -1    0    0  503  502 -0.00000000000E+00 -0.00000000000E+00 -0.24084547839E+02  0.24084547839E+02  0.00000000000E+00 0.  1.
          2    1    1    2  501    0 -0.34228401726E+01  0.22111353854E+02  0.78104701504E+03  0.78136743438E+03  0.00000000000E+00 0. -1.
         21    1    1    2  503  501  0.34228401726E+01 -0.22111353854E+02 -0.18692972933E+02  0.29155703408E+02  0.00000000000E+00 0.  1.
</event>
<event>
 4    1  0.2243645E+005  0.2363701E+02  0.7546771E-02  0.1484650E+00
          2   -1    0    0  503    0  0.00000000000E+00  0.00000000000E+00  0.13505531739E+03  0.13505531739E+03  0.00000000000E+00 0. -1.
         21   -1    0    0  501  502 -0.00000000000E+00 -0.00000000000E+00 -0.44960976683E+01  0.44960976683E+01  0.00000000000E+00 0. -1.
          2    1    1    2  501    0  0.17483740163E+02  0.15906825895E+02  0.85002128090E+02  0.88227377044E+02  0.00000000000E+00 0. -1.
         21    1    1    2  503  502 -0.17483740163E+02 -0.15906825895E+02  0.45557091627E+02  0.51324038010E+02  0.00000000000E+00 0. -1.
</event>
<event>
 4    1  0.2243645E+005  0.2058398E+02  0.7546771E-02  0.1525288E+00
          2   -1    0    0  502    0  0.00000000000E+00  0.00000000000E+00  0.14861888233E+03  0.14861888233E+03  0.00000000000E+00 0.  1.
         21   -1    0    0  503  502 -0.00000000000E+00 -0.00000000000E+00 -0.12818857706E+03  0.12818857706E+03  0.00000000000E+00 0.  1.
          2    1    1    2  501    0 -0.18148391334E+02 -0.97126690213E+01  0.14707117777E+03  0.14850465103E+03  0.00000000000E+00 0.  1.
         21    1    1    2  503  501  0.18148391334E+02  0.97126690213E+01 -0.12664087250E+03  0.12830280837E+03  0.00000000000E+00 0.  1.
</event>
<event>
 4    1  0.2243645E+005  0.2333943E+02  0.7546771E-02  0.1488279E+00
          2   -1    0    0  502    0  0.00000000000E+00  0.00000000000E+00  0.24471688459E+03  0.24471688459E+03  0.00000000000E+00 0.  1.
         21   -1    0    0  503  502 -0.00000000000E+00 -0.00000000000E+00 -0.15483629639E+02  0.15483629639E+02  0.00000000000E+00 0.  1.
          2    1    1    2  501    0 -0.12121201348E+02  0.19945057522E+02  0.23500247685E+03  0.23615861823E+03  0.00000000000E+00 0.  1.
         21    1    1    2  503  501  0.12121201348E+02 -0.19945057522E+02 -0.57692218982E+01  0.24041895994E+02  0.00000000000E+00 0.  1.
</event>
<event>
 4    1  0.2243645E+005  0.4038940E+02  0.7546771E-02  0.1346219E+00
          2   -1    0    0  503    0  0.00000000000E+00  0.00000000000E+00  0.70356124444E+03  0.70356124444E+03  0.00000000000E+00 0. -1.
         21   -1    0    0  501  502 -0.00000000000E+00 -0.00000000000E+00 -0.51338886690E+01  0.51338886690E+01  0.00000000000E+00 0. -1.
          2    1    1    2  501    0 -0.26304823605E+02 -0.30648979975E+02  0.61161425115E+03  0.61294640543E+03  0.00000000000E+00 0. -1.
         21    1    1    2  503  502  0.26304823605E+02  0.30648979975E+02  0.86813104620E+02  0.95748727679E+02  0.00000000000E+00 0. -1.
</event>
<event>
 4    1  0.2243645E+005  0.2865351E+02  0.7546771E-02  0.1431670E+00
          2   -1    0    0  502    0  0.00000000000E+00  0.00000000000E+00  0.93099604555E+03  0.93099604555E+03  0.00000000000E+00 0. -1.
         21   -1    0    0  503  502 -0.00000000000E+00 -0.00000000000E+00 -0.13750436722E+02  0.13750436722E+02  0.00000000000E+00 0.  1.
          2    1    1    2  501    0 -0.28554872077E+02  0.23755300730E+01  0.91559735628E+03  0.91604560077E+03  0.00000000000E+00 0. -1.
         21    1    1    2  503  501  0.28554872077E+02 -0.23755300730E+01  0.16482525467E+01  0.28700881501E+02  0.00000000000E+00 0.  1.
</event>
<event>
 4    1  0.2243645E+005  0.2186314E+02  0.7546771E-02  0.1507289E+00
          2   -1    0    0  503    0  0.00000000000E+00  0.00000000000E+00  0.82729129264E+03  0.82729129264E+03  0.00000000000E+00 0. -1.
         21   -1    0    0  501  502 -0.00000000000E+00 -0.00000000000E+00 -0.23439945179E+01  0.23439945179E+01  0.00000000000E+00 0.  1.
          2    1    1    2  501    0 -0.10369937450E+02 -0.19247368790E+02  0.77255446897E+03  0.77286376829E+03  0.00000000000E+00 0. -1.
         21    1    1    2  503  502  0.10369937450E+02  0.19247368790E+02  0.52392829145E+02  0.56771518862E+02  0.00000000000E+00 0.  1.
</event>
<event>
 4    1  0.2243645E+005  0.2982909E+02  0.7546771E-02  0.1421088E+00
          2   -1    0    0  502    0  0.00000000000E+00  0.00000000000E+00  0.59303204674E+03  0.59303204674E+03  0.00000000000E+00 0. -1.
         21   -1    0    0  503  502 -0.00000000000E+00 -0.00000000000E+00 -0.11665254805E+02  0.11665254805E+02  0.00000000000E+00 0.  1.
          2    1    1    2  501    0 -0.12494994254E+02 -0.27085969853E+02  0.57291906109E+03  0.57369506291E+03  0.00000000000E+00 0. -1.
         21    1    1    2  503  501  0.12494994254E+02  0.27085969853E+02  0.84477308498E+01  0.31002238642E+02  0.00000000000E+00 0.  1.
</event>
<event>
 4    1  0.2243645E+005  0.2282590E+02  0.7546771E-02  0.1494696E+00
          2   -1    0    0  503    0  0.00000000000E+00  0.00000000000E+00  0.91139243368E+02  0.91139243368E+02  0.00000000000E+00 0. -1.
         21   -1    0    0  501  502 -0.00000000000E+00 -0.00000000000E+00 -0.24690103879E+02  0.24690103879E+02  0.00000000000E+00 0. -1.
          2    1    1    2  501    0  0.19322922995E+02 -0.12150981021E+02  0.83993618872E+02  0.87039931664E+02  0.00000000000E+00 0. -1.
         21    1    1    2  503  502 -0.19322922995E+02  0.12150981021E+02 -0.17544479382E+02  0.28789415584E+02  0.00000000000E+00 0. -1.
</event>
<event>
 4    1  0.2243645E+005  0.4883972E+02  0.7546771E-02  0.1303283E+00
          2   -1    0    0  503    0  0.00000000000E+00  0.00000000000E+00  0.24708102935E+04  0.24708102935E+04  0.00000000000E+00 0. -1.
         21   -1    0    0  501  502 -0.00000000000E+00 -0.00000000000E+00 -0.10824361260E+01  0.10824361260E+01  0.00000000000E+00 0. -1.
          2    1    1    2  501    0 -0.32731502680E+02  0.36248679620E+02  0.16412699352E+04  0.16419964428E+04  0.00000000000E+00 0. -1.
         21    1    1    2  503  502  0.32731502680E+02 -0.36248679620E+02  0.82845792222E+03  0.82989628685E+03  0.00000000000E+00 0. -1.
</event>
<event>
 4    1  0.2243645E+005  0.3163894E+02  0.7546771E-02  0.1405869E+00
          2   -1    0    0  502    0  0.00000000000E+00  0.00000000000E+00  0.15116723308E+03  0.15116723308E+03  0.00000000000E+00 0.  1.
         21   -1    0    0  503  502 -0.00000000000E+00 -0.00000000000E+00 -0.17907851573E+02  0.17907851573E+02  0.00000000000E+00 0. -1.
          2    1    1    2  501    0  0.31570364466E+02 -0.20819303024E+01  0.13374103563E+03  0.13743248145E+03  0.00000000000E+00 0.  1.
         21    1    1    2  503  501 -0.31570364466E+02  0.20819303024E+01 -0.48165413032E+00  0.31642603195E+02  0.00000000000E+00 0. -1.
</event>
<event>
 4    1  0.2243645E+005  0.2473353E+02  0.7546771E-02  0.1471807E+00
          2   -1    0    0  502    0  0.00000000000E+00  0.00000000000E+00  0.13773028711E+03  0.13773028711E+03  0.00000000000E+00 0. -1.
         21   -1    0    0  503  502 -0.00000000000E+00 -0.00000000000E+00 -0.30496481832E+02  0.30496481832E+02  0.00000000000E+00 0.  1.
          2    1    1    2  501    0 -0.78606313249E+01 -0.23451179481E+02  0.13136406004E+03  0.13367222454E+03  0.00000000000E+00 0. -1.
         21    1    1    2  503  501  0.78606313249E+01  0.23451179481E+02 -0.24130254762E+02  0.34554544401E+02  0.00000000000E+00 0.  1.
</event>
<event>
 4    1  0.2243645E+005  0.2509952E+02  0.7546771E-02  0.1467693E+00
          2   -1    0    0  503    0  0.00000000000E+00  0.00000000000E+00  0.66621493534E+03  0.66621493534E+03  0.00000000000E+00 0.  1.
         21   -1    0    0  501  502 -0.00000000000E+00 -0.00000000000E+00 -0.94562115794E+00  0.94562115794E+00  0.00000000000E+00 0. -1.
          2    1    1    2  501    0 -0.23012873172E+02  0.10019651160E+02  0.33309458243E+03  0.33403889981E+03  0.00000000000E+00 0.  1.
         21    1    1    2  503  502  0.23012873172E+02 -0.10019651160E+02  0.33217473175E+03  0.33312165669E+03  0.00000000000E+00 0. -1.
</event>
<event>
 4    1  0.2243645E+005  0.2115674E+02  0.7546771E-02  0.1517039E+00
          2   -1    0    0  502    0  0.00000000000E+00  0.00000000000E+00  0.62883527613E+03  0.62883527613E+03  0.00000000000E+00 0. -1.
         21   -1    0    0  503  502 -0.00000000000E+00 -0.00000000000E+00 -0.16689787419E+02  0.16689787419E+02  0.00000000000E+00 0. -1.
          2    1    1    2  501    0 -0.12770196833E+02  0.16868007099E+02  0.62187751862E+03  0.62223729859E+03  0.00000000000E+00 0. -1.
         21    1    1    2  503  501  0.12770196833E+02 -0.16868007099E+02 -0.97320299088E+01  0.23287764959E+02  0.00000000000E+00 0. -1.
</event>
<event>
 4    1  0.2243645E+005  0.2306885E+02  0.7546771E-02  0.1491635E+00
          2   -1    0    0  503    0  0.00000000000E+00  0.00000000000E+00  0.34532118147E+03  0.34532118147E+03  0.00000000000E+00 0.  1.
         21   -1    0    0  501  502 -0.00000000000E+00 -0.00000000000E+00 -0.29562526391E+02  0.29562526391E+02  0.00000000000E+00 0.  1.
          2    1    1    2  501    0 -0.15076243860E+02 -0.17460774353E+02  0.34037012886E+03  0.34115098767E+03  0.00000000000E+00 0.  1.
         21    1    1    2  503  502  0.15076243860E+02  0.17460774353E+02 -0.24611473779E+02  0.33732720191E+02  0.00000000000E+00 0.  1.
</event>
<event>
 4    1  0.2243645E+005  0.3081484E+02  0.7546771E-02  0.1412645E+00
          2   -1    0    0  503    0  0.00000000000E+00  0.00000000000E+00  0.34362375769E+02  0.34362375769E+02  0.00000000000E+00 0. -1.
         21   -1    0    0  501  502 -0.00000000000E+00 -0.00000000000E+00 -0.30656192609E+02  0.30656192609E+02  0.00000000000E+00 0. -1.
          2    1    1    2  501    0 -0.24038032883E+02  0.19280238508E+02 -0.83549233342E+01  0.31927407751E+02  0.00000000000E+00 0. -1.
         21    1    1    2  503  502  0.24038032883E+02 -0.19280238508E+02  0.12061106494E+02  0.33091160627E+02  0.00000000000E+00 0. -1.
</event>
<event>
 4    1  0.2243645E+005  0.4036196E+02  0.7546771E-02  0.1346378E+00
          2   -1    0    0  503    0  0.00000000000E+00  0.00000000000E+00  0.57665434823E+03  0.57665434823E+03  0.00000000000E+00 0.  1.
         21   -1    0    0  501  502 -0.00000000000E+00 -0.00000000000E+00 -0.56313483968E+01  0.56313483968E+01  0.00000000000E+00 0.  1.
          2    1    1    2  501    0  0.40099617158E+02  0.45944040169E+01  0.49103687343E+03  0.49269290528E+03  0.00000000000E+00 0.  1.
         21    1    1    2  503  502 -0.40099617158E+02 -0.45944040169E+01  0.79986126405E+02  0.89592791350E+02  0.00000000000E+00 0.  1.
</event>
<event>
 4    1  0.2243645E+005  0.2292933E+02  0.7546771E-02  0.1493387E+00
          2   -1    0    0  503    0  0.00000000000E+00  0.00000000000E+00  0.16921875151E+03  0.16921875151E+03  0.00000000000E+00 0.  1.
         21   -1    0    0  501  502 -0.00000000000E+00 -0.00000000000E+00 -0.22584252756E+02  0.22584252756E+02  0.00000000000E+00 0.  1.
          2    1    1    2  501    0  0.92174675974E+01 -0.20995055570E+02  0.16237812550E+03  0.16398905362E+03  0.00000000000E+00 0.  1.
         21    1    1    2  503  502 -0.92174675974E+01  0.20995055570E+02 -0.15743626745E+02  0.27813950643E+02  0.00000000000E+00 0.  1.
</event>
<event>
 4    1  0.2243645E+005  0.3321782E+02  0.7546771E-02  0.1393545E+00
          2   -1    0    0  503    0  0.00000000000E+00  0.00000000000E+00  0.38164328150E+01  0.38164328150E+01  0.00000000000E+00 0.  1.
         21   -1    0    0  501  502 -0.00000000000E+00 -0.00000000000E+00 -0.30990926561E+03  0.30990926561E+03  0.00000000000E+00 0.  1.
          2    1    1    2  501    0  0.31283038796E+02 -0.11171169136E+02 -0.11242292165E+03  0.11722771366E+03  0.00000000000E+00 0.  1.
         21    1    1    2  503  502 -0.31283038796E+02  0.11171169136E+02 -0.19366991114E+03  0.19649798477E+03  0.00000000000E+00 0.  1.
</event>
<event>
 4    1  0.2243645E+005  0.2050413E+02  0.7546771E-02  0.1526464E+00
          2   -1    0    0  503    0  0.00000000000E+00  0.00000000000E+00  0.10633848110E+03  0.10633848110E+03  0.00000000000E+00 0.  1.
         21   -1    0    0  501  502 -0.00000000000E+00 -0.00000000000E+00 -0.39776012457E+01  0.39776012457E+01  0.00000000000E+00 0. -1.
          2    1    1    2  501    0  0.20275109067E+02 -0.30560473806E+01  0.55465377592E+02  0.59133979950E+02  0.00000000000E+00 0.  1.
         21    1    1    2  503  502 -0.20275109067E+02  0.30560473806E+01  0.46895502263E+02  0.51182102397E+02  0.00000000000E+00 0. -1.
</event>
<event>
 4    1  0.2243645E+005  0.2308081E+02  0.7546771E-02  0.1491486E+00
          2   -1    0    0  503    0  0.00000000000E+00  0.00000000000E+00  0.73362626740E+03  0.73362626740E+03  0.00000000000E+00 0.  1.
         21   -1    0    0  501  502 -0.00000000000E+00 -0.00000000000E+00 -0.22131411780E+01  0.22131411780E+01  0.00000000000E+00 0. -1.
          2    1    1    2  501    0  0.16244049232E+02  0.16396786855E+02  0.66728652151E+03  0.66768557387E+03  0.00000000000E+00 0.  1.
         21    1    1    2  503  502 -0.16244049232E+02 -0.16396786855E+02  0.64126604712E+02  0.68153834716E+02  0.00000000000E+00 0. -1.
</event>
<event>
 4    1  0.2243645E+005  0.2731177E+02  0.7546771E-02  0.1444501E+00
          2   -1    0    0  503    0  0.00000000000E+00  0.00000000000E+00  0.11820680972E+04  0.11820680972E+04  0.00000000000E+00 0. -1.
         21   -1    0    0  501  502 -0.00000000000E+00 -0.00000000000E+00 -0.15979343305E+02  0.15979343305E+02  0.00000000000E+00 0.  1.
          2    1    1    2  501    0  0.12890831660E+02  0.24078194837E+02  0.11701209274E+04  0.11704396258E+04  0.00000000000E+00 0. -1.
         21    1    1    2  503  502 -0.12890831660E+02 -0.24078194837E+02 -0.40321734997E+01  0.27607814666E+02  0.00000000000E+00 0.  1.
</event>
<event>
 4    1  0.2243645E+005  0.2318567E+02  0.7546771E-02  0.1490180E+00
          2   -1    0    0  502    0  0.00000000000E+00  0.00000000000E+00  0.13090919507E+04  0.13090919507E+04  0.00000000000E+00 0.  1.
         21   -1    0    0  503  502 -0.00000000000E+00 -0.00000000000E+00 -0.19161221644E+03  0.19161221644E+03  0.00000000000E+00 0.  1.
          2    1    1    2  501    0 -0.23141473410E+02  0.14309362764E+01  0.13082874731E+04  0.13084929069E+04  0.00000000000E+00 0.  1.
         21    1    1    2  503  501  0.23141473410E+02 -0.14309362764E+01 -0.19080773878E+03  0.19221126020E+03  0.00000000000E+00 0.  1.
</event>
<event>
 4    1  0.2243645E+005  0.3167216E+02  0.7546771E-02  0.1405601E+00
          2   -1    0    0  502    0  0.00000000000E+00  0.00000000000E+00  0.23793469683E+04  0.23793469683E+04  0.00000000000E+00 0. -1.
         21   -1    0    0  503  502 -0.00000000000E+00 -0.00000000000E+00 -0.54722812563E+00  0.54722812563E+00  0.00000000000E+00 0. -1.
          2    1    1    2  501    0  0.31280988051E+02  0.49623799170E+01  0.17595538480E+04  0.17598388759E+04  0.00000000000E+00 0. -1.
         21    1    1    2  503  501 -0.31280988051E+02 -0.49623799170E+01  0.61924589220E+03  0.62005532047E+03  0.00000000000E+00 0. -1.
</event>
<event>
 4    1  0.2243645E+005  0.2266333E+02  0.7546771E-02  0.1496770E+00
          2   -1    0    0  502    0  0.00000000000E+00  0.00000000000E+00  0.16273244614E+04  0.16273244614E+04  0.00000000000E+00 0. -1.
         21   -1    0    0  503  502 -0.00000000000E+00 -0.00000000000E+00 -0.39439327107E+00  0.39439327107E+00  0.00000000000E+00 0. -1.
          2    1    1    2  501    0  0.10195305226E+02 -0.20240610428E+02  0.11771760466E+04  0.11773941868E+04  0.00000000000E+00 0. -1.
         21    1    1    2  503  501 -0.10195305226E+02  0.20240610428E+02  0.44975402151E+03  0.45032466779E+03  0.00000000000E+00 0. -1.
</event>
<event>
 4    1  0.2243645E+005  0.3504897E+02  0.7546771E-02  0.1380219E+00
          2   -1    0    0  503    0  0.00000000000E+00  0.00000000000E+00  0.29913816500E+03  0.29913816500E+03  0.00000000000E+00 0.  1.
         21   -1    0    0  501  502 -0.00000000000E+00 -0.00000000000E+00 -0.43882550664E+01  0.43882550664E+01  0.00000000000E+00 0.  1.
          2    1    1    2  501    0  0.15717245691E+02  0.31327283547E+02  0.18582579695E+03  0.18910224039E+03  0.00000000000E+00 0.  1.
         21    1    1    2  503  502 -0.15717245691E+02 -0.31327283547E+02  0.10892411298E+03  0.11442417968E+03  0.00000000000E+00 0.  1.
</event>
<event>
 4    1  0.2243645E+005  0.2188596E+02  0.7546771E-02  0.1506982E+00
          2   -1    0    0  502    0  0.00000000000E+00  0.00000000000E+00  0.39893227100E+03  0.39893227100E+03  0.00000000000E+00 0.  1.
         21   -1    0    0  503  502 -0.00000000000E+00 -0.00000000000E+00 -0.37054719855E+01  0.37054719855E+01  0.00000000000E+00 0.  1.
          2    1    1    2  501    0 -0.14902934123E+02 -0.16028030670E+02  0.36313223405E+03  0.36379116897E+03  0.00000000000E+00 0.  1.
         21    1    1    2  503  501  0.14902934123E+02  0.16028030670E+02  0.32094564962E+02  0.38846574015E+02  0.00000000000E+00 0.  1.
</event>
<event>
 4    1  0.2243645E+005  0.2689710E+02  0.7546771E-02  0.1448645E+00
          2   -1    0    0  502    0  0.00000000000E+00  0.00000000000E+00  0.16041743623E+04  0.16041743623E+04  0.00000000000E+00 0. -1.
         21   -1    0    0  503  502 -0.00000000000E+00 -0.00000000000E+00 -0.42248459954E+03  0.42248459954E+03  0.00000000000E+00 0. -1.
          2    1    1    2  501    0  0.14453695912E+02  0.22683571171E+02  0.16036333776E+04  0.16038589288E+04  0.00000000000E+00 0. -1.
         21    1    1    2  503  501 -0.14453695912E+02 -0.22683571171E+02 -0.42194361491E+03  0.42280003298E+03  0.00000000000E+00 0. -1.
</event>
<event>
 4    1  0.2243645E+005  0.2760313E+02  0.7546771E-02  0.1441642E+00
          2   -1    0    0  503    0  0.00000000000E+00  0.00000000000E+00  0.25523102807E+02  0.25523102807E+02  0.00000000000E+00 0. -1.
         21   -1    0    0  501  502 -0.00000000000E+00 -0.00000000000E+00 -0.54546533908E+02  0.54546533908E+02  0.00000000000E+00 0.  1.
          2    1    1    2  501    0  0.43668006676E+01 -0.27255528913E+02  0.12425257676E+02  0.30270775225E+02  0.00000000000E+00 0. -1.
         21    1    1    2  503  502 -0.43668006676E+01  0.27255528913E+02 -0.41448688778E+02  0.49798861491E+02  0.00000000000E+00 0.  1.
</event>
<event>
 4    1  0.2243645E+005  0.2062769E+02  0.7546771E-02  0.1524647E+00
          2   -1    0    0  503    0  0.00000000000E+00  0.00000000000E+00  0.71216156776E+03  0.71216156776E+03  0.00000000000E+00 0. -1.
         21   -1    0    0  501  502 -0.00000000000E+00 -0.00000000000E+00 -0.28006756598E+02  0.28006756598E+02  0.00000000000E+00 0. -1.
          2    1    1    2  501    0  0.18217522698E+02  0.96759239638E+01  0.70819271135E+03  0.70849306140E+03  0.00000000000E+00 0. -1.
         21    1    1    2  503  502 -0.18217522698E+02 -0.96759239638E+01 -0.24037900192E+02  0.31675262957E+02  0.00000000000E+00 0. -1.
</event>
<event>
 4    1  0.2243645E+005  0.2695692E+02  0.7546771E-02  0.1448041E+00
          2   -1    0    0  502    0  0.00000000000E+00  0.00000000000E+00  0.18965269448E+04  0.18965269448E+04  0.00000000000E+00 0.  1.
         21   -1    0    0  503  502 -0.00000000000E+00 -0.00000000000E+00 -0.90876984298E+02  0.90876984298E+02  0.00000000000E+00 0. -1.
          2    1    1    2  501    0  0.23753109431E+02  0.12746192069E+02  0.18944298778E+04  0.18946216608E+04  0.00000000000E+00 0.  1.
         21    1    1    2  503  501 -0.23753109431E+02 -0.12746192069E+02 -0.88779917236E+02  0.92782268373E+02  0.00000000000E+00 0. -1.
</event>
<event>
 4    1  0.2243645E+005  0.2231870E+02  0.7546771E-02  0.1501235E+00
          2   -1    0    0  502    0  0.00000000000E+00  0.00000000000E+00  0.93575048812E+03  0.93575048812E+03  0.00000000000E+00 0.  1.
         21   -1    0    0  503  502 -0.00000000000E+00 -0.00000000000E+00 -0.14139356995E+02  0.14139356995E+02  0.00000000000E+00 0. -1.
          2    1    1    2  501    0 -0.18987650734E+02  0.11730019646E+02  0.92672422908E+03  0.92699294550E+03  0.00000000000E+00 0.  1.
         21    1    1    2  503  501  0.18987650734E+02 -0.11730019646E+02 -0.51130979550E+01  0.22896899615E+02  0.00000000000E+00 0. -1.
</event>
<event>
 4    1  0.2243645E+005  0.2292599E+02  0.7546771E-02  0.1493430E+00
          2   -1    0    0  503    0  0.00000000000E+00  0.00000000000E+00  0.10686284041E+04  0.10686284041E+04  0.00000000000E+00 0.  1.
         21   -1    0    0  501  502 -0.00000000000E+00 -0.00000000000E+00 -0.50189392584E+00  0.50189392584E+00  0.00000000000E+00 0.  1.
          2    1    1    2  501    0  0.13866342655E+02 -0.18257199689E+02  0.60969932902E+03  0.61013020955E+03  0.00000000000E+00 0.  1.
         21    1    1    2  503  502 -0.13866342655E+02  0.18257199689E+02  0.45842718115E+03  0.45900008847E+03  0.00000000000E+00 0.  1.
</event>
<event>
 4    1  0.2243645E+005  0.3330188E+02  0.7546771E-02  0.1392911E+00
          2   -1    0    0  502    0  0.00000000000E+00  0.00000000000E+00  0.12212737453E+04  0.12212737453E+04  0.00000000000E+00 0. -1.
         21   -1    0    0  503  502 -0.00000000000E+00 -0.00000000000E+00 -0.44117393595E+01  0.44117393595E+01  0.00000000000E+00 0. -1.
          2    1    1    2  501    0  0.31880900206E+02  0.96241183042E+01  0.11545722798E+04  0.11550524511E+04  0.00000000000E+00 0. -1.
         21    1    1    2  503  501 -0.31880900206E+02 -0.96241183042E+01  0.62289726163E+02  0.70633033608E+02  0.00000000000E+00 0. -1.
</event>
<event>
 4    1  0.2243645E+005  0.2460347E+02  0.7546771E-02  0.1473289E+00
          2   -1    0    0  502    0  0.00000000000E+00  0.00000000000E+00  0.35546341126E+03  0.35546341126E+03  0.00000000000E+00 0. -1.
         21   -1    0    0  503  502 -0.00000000000E+00 -0.00000000000E+00 -0.35663559300E+01  0.35663559300E+01  0.00000000000E+00 0. -1.
          2    1    1    2  501    0 -0.16298321203E+02  0.18430829513E+02  0.30570938717E+03  0.30669783200E+03  0.00000000000E+00 0. -1.
         21    1    1    2  503  501  0.16298321203E+02 -0.18430829513E+02  0.46187668163E+02  0.52331935192E+02  0.00000000000E+00 0. -1.
</event>
<event>
 4    1  0.2243645E+005  0.2568448E+02  0.7546771E-02  0.1461290E+00
          2   -1    0    0  503    0  0.00000000000E+00  0.00000000000E+00  0.24320143449E+03  0.24320143449E+03  0.00000000000E+00 0. -1.
         21   -1    0    0  501  502 -0.00000000000E+00 -0.00000000000E+00 -0.14124912695E+02  0.14124912695E+02  0.00000000000E+00 0.  1.
          2    1    1    2  501    0  0.23998220625E+02  0.91530168354E+01  0.23018927592E+03  0.23161777795E+03  0.00000000000E+00 0. -1.
         21    1    1    2  503  502 -0.23998220625E+02 -0.91530168354E+01 -0.11127541334E+01  0.25708569235E+02  0.00000000000E+00 0.  1.
</event>
<event>
 4    1  0.2243645E+005  0.2238379E+02  0.7546771E-02  0.1500384E+00
          2   -1    0    0  503    0  0.00000000000E+00  0.00000000000E+00  0.10507620307E+03  0.10507620307E+03  0.00000000000E+00 0.  1.
         21   -1    0    0  501  502 -0.00000000000E+00 -0.00000000000E+00 -0.48048053913E+01  0.48048053913E+01  0.00000000000E+00 0.  1.
          2    1    1    2  501    0  0.22207094394E+02  0.28069767508E+01  0.45346390226E+02  0.50570043172E+02  0.00000000000E+00 0.  1.
         21    1    1    2  503  502 -0.22207094394E+02 -0.28069767508E+01  0.54925007455E+02  0.59310965291E+02  0.00000000000E+00 0.  1.
</event>
<event>
 4    1  0.2243645E+005  0.2476081E+02  0.7546771E-02  0.1471497E+00
          2   -1    0    0  503    0  0.00000000000E+00  0.00000000000E+00  0.45801242394E+03  0.45801242394E+03  0.00000000000E+00 0.  1.
         21   -1    0    0  501  502 -0.00000000000E+00 -0.00000000000E+00 -0.94716427552E+01  0.94716427552E+01  0.00000000000E+00 0.  1.
          2    1    1    2  501    0 -0.24419112146E+02  0.40993413279E+01  0.44086645548E+03  0.44156124061E+03  0.00000000000E+00 0.  1.
         21    1    1    2  503  502  0.24419112146E+02 -0.40993413279E+01  0.76743257002E+01  0.25922826085E+02  0.00000000000E+00 0.  1.
</event>
<event>
 4    1  0.2243645E+005  0.2608347E+02  0.7546771E-02  0.1457039E+00
          2   -1    0    0  503    0  0.00000000000E+00  0.00000000000E+00  0.17250017621E+04  0.17250017621E+04  0.00000000000E+00 0.  1.
         21   -1    0    0  501  502 -0.00000000000E+00 -0.00000000000E+00 -0.27957833140E+01  0.27957833140E+01  0.00000000000E+00 0.  1.
          2    1    1    2  501    0  0.16865237988E+02  0.19897520058E+02  0.16617507391E+04  0.16619554345E+04  0.00000000000E+00 0.  1.
         21    1    1    2  503  502 -0.16865237988E+02 -0.19897520058E+02  0.60455239719E+02  0.65842110889E+02  0.00000000000E+00 0.  1.
</event>
<event>
 4    1  0.2243645E+005  0.2845864E+02  0.7546771E-02  0.1433481E+00
          2   -1    0    0  503    0  0.00000000000E+00  0.00000000000E+00  0.49295477369E+03  0.49295477369E+03  0.00000000000E+00 0.  1.
         21   -1    0    0  501  502 -0.00000000000E+00 -0.00000000000E+00 -0.42138733417E+01  0.42138733417E+01  0.00000000000E+00 0.  1.
          2    1    1    2  501    0 -0.60810211146E+01 -0.27801354150E+02  0.43853886225E+03  0.43946129274E+03  0.00000000000E+00 0.  1.
         21    1    1    2  503  502  0.60810211146E+01  0.27801354150E+02  0.50202038091E+02  0.57707354288E+02  0.00000000000E+00 0.  1.
</event>
<event>
 4    1  0.2243645E+005  0.2849111E+02  0.7546771E-02  0.1433178E+00
          2   -1    0    0  502    0  0.00000000000E+00  0.00000000000E+00  0.13035322961E+04  0.13035322961E+04  0.00000000000E+00 0. -1.
         21   -1    0    0  503  502 -0.00000000000E+00 -0.00000000000E+00 -0.50009357187E+01  0.50009357187E+01  0.00000000000E+00 0.  1.
          2    1    1    2  501    0  0.11462378712E+02 -0.26083656292E+02  0.12614432497E+04  0.12617649604E+04  0.00000000000E+00 0. -1.
         21    1    1    2  503  501 -0.11462378712E+02  0.26083656292E+02  0.37088110685E+02  0.46768271355E+02  0.00000000000E+00 0.  1.
</event>
<event>
 4    1  0.2243645E+005  0.2391668E+02  0.7546771E-02  0.1481297E+00
          2   -1    0    0  502    0  0.00000000000E+00  0.00000000000E+00  0.40873797919E+01  0.40873797919E+01  0.00000000000E+00 0.  1.
         21   -1    0    0  503  502 -0.00000000000E+00 -0.00000000000E+00 -0.33027029411E+03  0.33027029411E+03  0.00000000000E+00 0.  1.
          2    1    1    2  501    0 -0.15955281352E+02 -0.17816753665E+02 -0.36181709843E+02  0.43371924575E+02  0.00000000000E+00 0.  1.
         21    1    1    2  503  501  0.15955281352E+02  0.17816753665E+02 -0.29000120448E+03  0.29098574933E+03  0.00000000000E+00 0.  1.
</event>
<event>
 4    1  0.2243645E+005  0.2170068E+02  0.7546771E-02  0.1509492E+00
          2   -1    0    0  503    0  0.00000000000E+00  0.00000000000E+00  0.11522653381E+04  0.11522653381E+04  0.00000000000E+00 0.  1.
         21   -1    0    0  501  502 -0.00000000000E+00 -0.00000000000E+00 -0.77263513659E+01  0.77263513659E+01  0.00000000000E+00 0. -1.
          2    1    1    2  501    0 -0.13261381828E+02 -0.17177169592E+02  0.11367173223E+04  0.11369244434E+04  0.00000000000E+00 0.  1.
         21    1    1    2  503  502  0.13261381828E+02  0.17177169592E+02  0.78216644703E+01  0.23067246005E+02  0.00000000000E+00 0. -1.
</event>
<event>
 4    1  0.2243645E+005  0.2642227E+02  0.7546771E-02  0.1453499E+00
          2   -1    0    0  503    0  0.00000000000E+00  0.00000000000E+00  0.28638347487E+03  0.28638347487E+03  0.00000000000E+00 0.  1.
         21   -1    0    0  501  502 -0.00000000000E+00 -0.00000000000E+00 -0.39633418275E+01  0.39633418275E+01  0.00000000000E+00 0.  1.
          2    1    1    2  501    0  0.26227628126E+02  0.32012472197E+01  0.23127856598E+03  0.23278297091E+03  0.00000000000E+00 0.  1.
         21    1    1    2  503  502 -0.26227628126E+02 -0.32012472197E+01  0.51141567056E+02  0.57563845788E+02  0.00000000000E+00 0.  1.
</event>
<event>
 4    1  0.2243645E+005  0.2024784E+02  0.7546771E-02  0.1530280E+00
          2   -1    0    0  502    0  0.00000000000E+00  0.00000000000E+00  0.31445171697E+03  0.31445171697E+03  0.00000000000E+00 0. -1.
         21   -1    0    0  503  502 -0.00000000000E+00 -0.00000000000E+00 -0.31470018051E+01  0.31470018051E+01  0.00000000000E+00 0. -1.
          2    1    1    2  501    0  0.17781905000E+02 -0.96839399126E+01  0.27718401834E+03  0.27792256990E+03  0.00000000000E+00 0. -1.
         21    1    1    2  503  501 -0.17781905000E+02  0.96839399126E+01  0.34120696830E+02  0.39676148878E+02  0.00000000000E+00 0. -1.
</event>
<event>
 4    1  0.2243645E+005  0.3320182E+02  0.7546771E-02  0.1393666E+00
          2   -1    0    0  503    0  0.00000000000E+00  0.00000000000E+00  0.17209136333E+04  0.17209136333E+04  0.00000000000E+00 0.  1.
         21   -1    0    0  501  502 -0.00000000000E+00 -0.00000000000E+00 -0.15315873674E+01  0.15315873674E+01  0.00000000000E+00 0.  1.
          2    1    1    2  501    0  0.32797564130E+02  0.51652988134E+01  0.15165745111E+04  0.15169379052E+04  0.00000000000E+00 0.  1.
         21    1    1    2  503  502 -0.32797564130E+02 -0.51652988134E+01  0.20280753489E+03  0.20550731552E+03  0.00000000000E+00 0.  1.
</event>
<event>
 4    1  0.2243645E+005  0.2012847E+02  0.7546771E-02  0.1532081E+00
          2   -1    0    0  502    0  0.00000000000E+00  0.00000000000E+00  0.71600249213E+03  0.71600249213E+03  0.00000000000E+00 0.  1.
         21   -1    0    0  503  502 -0.00000000000E+00 -0.00000000000E+00 -0.18105811804E+01  0.18105811804E+01  0.00000000000E+00 0. -1.
          2    1    1    2  501    0  0.12481639550E+02 -0.15791257809E+02  0.65467949113E+03  0.65498884819E+03  0.00000000000E+00 0.  1.
         21    1    1    2  503  501 -0.12481639550E+02  0.15791257809E+02  0.59512419823E+02  0.62824225123E+02  0.00000000000E+00 0. -1.
</event>
<event>
 4    1  0.2243645E+005  0.2941232E+02  0.7546771E-02  0.1424773E+00
          2   -1    0    0  502    0  0.00000000000E+00  0.00000000000E+00  0.17180062368E+02  0.17180062368E+02  0.00000000000E+00 0.  1.
         21   -1    0    0  503  502 -0.00000000000E+00 -0.00000000000E+00 -0.12590538611E+03  0.12590538611E+03  0.00000000000E+00 0. -1.
          2    1    1    2  501    0  0.88621089192E+01 -0.28045455611E+02  0.10570914301E+01  0.29431309811E+02  0.00000000000E+00 0.  1.
         21    1    1    2  503  501 -0.88621089192E+01  0.28045455611E+02 -0.10978241518E+03  0.11365413867E+03  0.00000000000E+00 0. -1.
</event>
<event>
 4    1  0.2243645E+005  0.2377752E+02  0.7546771E-02  0.1482959E+00
          2   -1    0    0  503    0  0.00000000000E+00  0.00000000000E+00  0.70438461597E+03  0.70438461597E+03  0.00000000000E+00 0.  1.
         21   -1    0    0  501  502 -0.00000000000E+00 -0.00000000000E+00 -0.20696910010E+01  0.20696910010E+01  0.00000000000E+00 0.  1.
          2    1    1    2  501    0 -0.57648765897E+01  0.23068092249E+02  0.62753169107E+03  0.62798200132E+03  0.00000000000E+00 0.  1.
         21    1    1    2  503  502  0.57648765897E+01 -0.23068092249E+02  0.74783233896E+02  0.78472305651E+02  0.00000000000E+00 0.  1.
</event>
<event>
 4    1  0.2243645E+005  0.2935531E+02  0.7546771E-02  0.1425283E+00
          2   -1    0    0  503    0  0.00000000000E+00  0.00000000000E+00  0.50514163705E+03  0.50514163705E+03  0.00000000000E+00 0.  1.
         21   -1    0    0  501  502 -0.00000000000E+00 -0.00000000000E+00 -0.17083493151E+01  0.17083493151E+01  0.00000000000E+00 0.  1.
          2    1    1    2  501    0  0.20631781121E+02 -0.20882147851E+02  0.26126049562E+03  0.26290450940E+03  0.00000000000E+00 0.  1.
         21    1    1    2  503  502 -0.20631781121E+02  0.20882147851E+02  0.24217279211E+03  0.24394547696E+03  0.00000000000E+00 0.  1.
</event>
<event>
 4    1  0.2243645E+005  0.3815532E+02  0.7546771E-02  0.1359648E+00
          2   -1    0    0  503    0  0.00000000000E+00  0.00000000000E+00  0.12298161705E+04  0.12298161705E+04  0.00000000000E+00 0.  1.
         21   -1    0    0  501  502 -0.00000000000E+00 -0.00000000000E+00 -0.14720809126E+03  0.14720809126E+03  0.00000000000E+00 0.  1.
          2    1    1    2  501    0 -0.32990188292E+02  0.19169666221E+02  0.12270422391E+04  0.12276353225E+04  0.00000000000E+00 0.  1.
         21    1    1    2  503  502  0.32990188292E+02 -0.19169666221E+02 -0.14443415986E+03  0.14938893921E+03  0.00000000000E+00 0.  1.
</event>
<event>
 4    1  0.2243645E+005  0.3190695E+02  0.7546771E-02  0.1403718E+00
          2   -1    0    0  503    0  0.00000000000E+00  0.00000000000E+00  0.96048687856E+03  0.96048687856E+03  0.00000000000E+00 0. -1.
         21   -1    0    0  501  502 -0.00000000000E+00 -0.00000000000E+00 -0.55461810591E+02  0.55461810591E+02  0.00000000000E+00 0. -1.
          2    1    1    2  501    0 -0.27185091193E+02  0.16704015161E+02  0.95560949611E+03  0.95614201998E+03  0.00000000000E+00 0. -1.
         21    1    1    2  503  502  0.27185091193E+02 -0.16704015161E+02 -0.50584428150E+02  0.59806669167E+02  0.00000000000E+00 0. -1.
</event>
<event>
 4    1  0.2243645E+005  0.2316021E+02  0.7546771E-02  0.1490496E+00
          2   -1    0    0  503    0  0.00000000000E+00  0.00000000000E+00  0.27797884386E+02  0.27797884386E+02  0.00000000000E+00 0. -1.
         21   -1    0    0  501  502 -0.00000000000E+00 -0.00000000000E+00 -0.14916327850E+03  0.14916327850E+03  0.00000000000E+00 0.  1.
          2    1    1    2  501    0  0.16198306343E+02  0.16553247751E+02  0.21876687479E+02  0.31858822868E+02  0.00000000000E+00 0. -1.
         21    1    1    2  503  502 -0.16198306343E+02 -0.16553247751E+02 -0.14324208160E+03  0.14510234002E+03  0.00000000000E+00 0.  1.
</event>
<event>
 4    1  0.2243645E+005  0.2181195E+02  0.7546771E-02  0.1507981E+00
          2   -1    0    0  502    0  0.00000000000E+00  0.00000000000E+00  0.22186019372E+03  0.22186019372E+03  0.00000000000E+00 0. -1.
         21   -1    0    0  503  502 -0.00000000000E+00 -0.00000000000E+00 -0.39107925483E+01  0.39107925483E+01  0.00000000000E+00 0.  1.
          2    1    1    2  501    0 -0.15344619630E+02  0.15501731738E+02  0.18484068875E+03  0.18612318839E+03  0.00000000000E+00 0. -1.
         21    1    1    2  503  501  0.15344619630E+02 -0.15501731738E+02  0.33108712422E+02  0.39647797879E+02  0.00000000000E+00 0.  1.
</event>
<event>
 4    1  0.2243645E+005  0.4290479E+02  0.7546771E-02  0.1332256E+00
          2   -1    0    0  502    0  0.00000000000E+00  0.00000000000E+00  0.12420630325E+04  0.12420630325E+04  0.00000000000E+00 0. -1.
         21   -1    0    0  503  502 -0.00000000000E+00 -0.00000000000E+00 -0.55046358908E+02  0.55046358908E+02  0.00000000000E+00 0. -1.
          2    1    1    2  501    0  0.29359600512E+02 -0.31286340129E+02  0.12332726213E+04  0.12340187113E+04  0.00000000000E+00 0. -1.
         21    1    1    2  503  501 -0.29359600512E+02  0.31286340129E+02 -0.46255947734E+02  0.63090680150E+02  0.00000000000E+00 0. -1.
</event>
<event>
 4    1  0.2243645E+005  0.2483869E+02  0.7546771E-02  0.1470616E+00
          2   -1    0    0  503    0  0.00000000000E+00  0.00000000000E+00  0.36577833685E+03  0.36577833685E+03  0.00000000000E+00 0. -1.
         21   -1    0    0  501  502 -0.00000000000E+00 -0.00000000000E+00 -0.43879995540E+01  0.43879995540E+01  0.00000000000E+00 0.  1.
          2    1    1    2  501    0  0.24264059569E+02 -0.53118483063E+01  0.32591287463E+03  0.32685801531E+03  0.00000000000E+00 0. -1.
         21    1    1    2  503  502 -0.24264059569E+02  0.53118483063E+01  0.35477462663E+02  0.43308321096E+02  0.00000000000E+00 0.  1.
</event>
<event>
 4    1  0.2243645E+005  0.2179270E+02  0.7546771E-02  0.1508241E+00
          2   -1    0    0  502    0  0.00000000000E+00  0.00000000000E+00  0.31344356506E+03  0.31344356506E+03  0.00000000000E+00 0. -1.
         21   -1    0    0  503  502 -0.00000000000E+00 -0.00000000000E+00 -0.63948105111E+01  0.63948105111E+01  0.00000000000E+00 0.  1.
          2    1    1    2  501    0  0.19818648118E+02 -0.90632782205E+01  0.29321923862E+03  0.29402796418E+03  0.00000000000E+00 0. -1.
         21    1    1    2  503  501 -0.19818648118E+02  0.90632782205E+01  0.13829515937E+02  0.25810411395E+02  0.00000000000E+00 0.  1.
</event>
<event>
 4    1  0.2243645E+005  0.2087986E+02  0.7546771E-02  0.1520987E+00
          2   -1    0    0  502    0  0.00000000000E+00  0.00000000000E+00  0.31102967959E+03  0.31102967959E+03  0.00000000000E+00 0.  1.
         21   -1    0    0  503  502 -0.00000000000E+00 -0.00000000000E+00 -0.21459064121E+01  0.21459064121E+01  0.00000000000E+00 0. -1.
          2    1    1    2  501    0 -0.14170589868E+01 -0.20831721565E+02  0.24665671024E+03  0.24753888864E+03  0.00000000000E+00 0.  1.
         21    1    1    2  503  501  0.14170589868E+01  0.20831721565E+02  0.62227062935E+02  0.65636697366E+02  0.00000000000E+00 0. -1.
</event>
<event>
 4    1  0.2243645E+005  0.2004775E+02  0.7546771E-02  0.1533307E+00
          2   -1    0    0  503    0  0.00000000000E+00  0.00000000000E+00  0.75939139405E+01  0.75939139405E+01  0.00000000000E+00 0. -1.
         21   -1    0    0  501  502 -0.00000000000E+00 -0.00000000000E+00 -0.16507753306E+03  0.16507753306E+03  0.00000000000E+00 0.  1.
          2    1    1    2  501    0 -0.19865619258E+02  0.26961751779E+01 -0.75795062526E+01  0.21432711078E+02  0.00000000000E+00 0. -1.
         21    1    1    2  503  502  0.19865619258E+02 -0.26961751779E+01 -0.14990411286E+03  0.15123873592E+03  0.00000000000E+00 0.  1.
</event>
<event>
 4    1  0.2243645E+005  0.2245585E+02  0.7546771E-02  0.1499447E+00
          2   -1    0    0  502    0  0.00000000000E+00  0.00000000000E+00  0.39824433756E+01  0.39824433756E+01  0.00000000000E+00 0. -1.
         21   -1    0    0  503  502 -0.00000000000E+00 -0.00000000000E+00 -0.12700360392E+03  0.12700360392E+03  0.00000000000E+00 0. -1.
          2    1    1    2  501    0 -0.57990356538E+01  0.21694151263E+02 -0.57920669518E+02  0.62121405095E+02  0.00000000000E+00 0. -1.
         21    1    1    2  503  501  0.57990356538E+01 -0.21694151263E+02 -0.65100491022E+02  0.68864642196E+02  0.00000000000E+00 0. -1.
</event>
<event>
 4    1  0.2243645E+005  0.2721499E+02  0.7546771E-02  0.1445460E+00
          2   -1    0    0  503    0  0.00000000000E+00  0.00000000000E+00  0.95530581471E+03  0.95530581471E+03  0.00000000000E+00 0.  1.
         21   -1    0    0  501  502 -0.00000000000E+00 -0.00000000000E+00 -0.23903545791E+01  0.23903545791E+01  0.00000000000E+00 0.  1.
          2    1    1    2  501    0 -0.58510098581E+01 -0.26578590876E+02  0.87006143478E+03  0.87048696493E+03  0.00000000000E+00 0.  1.
         21    1    1    2  503  502  0.58510098581E+01  0.26578590876E+02  0.82854025347E+02  0.87209204362E+02  0.00000000000E+00 0.  1.
</event>
<event>
 4    1  0.2243645E+005  0.3121728E+02  0.7546771E-02  0.1409305E+00
          2   -1    0    0  503    0  0.00000000000E+00  0.00000000000E+00  0.78695607774E+02  0.78695607774E+02  0.00000000000E+00 0.  1.
         21   -1    0    0  501  502 -0.00000000000E+00 -0.00000000000E+00 -0.84967734129E+02  0.84967734129E+02  0.00000000000E+00 0.  1.
          2    1    1    2  501    0 -0.24203625726E+02 -0.19715552488E+02  0.72497728893E+02  0.78933131211E+02  0.00000000000E+00 0.  1.
         21    1    1    2  503  502  0.24203625726E+02  0.19715552488E+02 -0.78769855248E+02  0.84730210692E+02  0.00000000000E+00 0.  1.
</event>
<event>
 4    1  0.2243645E+005  0.3420335E+02  0.7546771E-02  0.1386252E+00
          2   -1    0    0  502    0  0.00000000000E+00  0.00000000000E+00  0.64772913336E+03  0.64772913336E+03  0.00000000000E+00 0. -1.
         21   -1    0    0  503  502 -0.00000000000E+00 -0.00000000000E+00 -0.68258240667E+01  0.68258240667E+01  0.00000000000E+00 0.  1.
          2    1    1    2  501    0 -0.17561170540E+02  0.29350884959E+02  0.60111010694E+03  0.60208241116E+03  0.00000000000E+00 0. -1.
         21    1    1    2  503  501  0.17561170540E+02 -0.29350884959E+02  0.39793202355E+02  0.52472546272E+02  0.00000000000E+00 0.  1.
</event>
<event>
 4    1  0.2243645E+005  0.4249966E+02  0.7546771E-02  0.1334429E+00
          2   -1    0    0  503    0  0.00000000000E+00  0.00000000000E+00  0.20060472859E+04  0.20060472859E+04  0.00000000000E+00 0. -1.
         21   -1    0    0  501  502 -0.00000000000E+00 -0.00000000000E+00 -0.32901606577E+02  0.32901606577E+02  0.00000000000E+00 0.  1.
          2    1    1    2  501    0 -0.16507079109E+02 -0.39162955160E+02  0.19920010133E+04  0.19924543301E+04  0.00000000000E+00 0. -1.
         21    1    1    2  503  502  0.16507079109E+02  0.39162955160E+02 -0.18855333899E+02  0.46494562413E+02  0.00000000000E+00 0.  1.
</event>
<event>
 4    1  0.2589671E+005  0.2026751E+02  0.7546771E-02  0.1529985E+00
          2   -1    0    0  502    0  0.00000000000E+00  0.00000000000E+00  0.52515967182E+03  0.52515967182E+03  0.00000000000E+00 0.  1.
         21   -1    0    0  503  502 -0.00000000000E+00 -0.00000000000E+00 -0.11545214178E+03  0.11545214178E+03  0.00000000000E+00 0. -1.
          2    1    1    2  501    0  0.14776019400E+02 -0.13872313924E+02  0.52407279653E+03  0.52446455353E+03  0.00000000000E+00 0.  1.
         21    1    1    2  503  501 -0.14776019400E+02  0.13872313924E+02 -0.11436526650E+03  0.11614726008E+03  0.00000000000E+00 0. -1.
</event>
<event>
 4    1  0.2243645E+005  0.3137231E+02  0.7546771E-02  0.1408034E+00
          2   -1    0    0  502    0  0.00000000000E+00  0.00000000000E+00  0.19265867896E+04  0.19265867896E+04  0.00000000000E+00 0. -1.
         21   -1    0    0  503  502 -0.00000000000E+00 -0.00000000000E+00 -0.10332220251E+02  0.10332220251E+02  0.00000000000E+00 0.  1.
          2    1    1    2  501    0  0.13357135616E+02 -0.28386768666E+02  0.19023411963E+04  0.19025998656E+04  0.00000000000E+00 0. -1.
         21    1    1    2  503  501 -0.13357135616E+02  0.28386768666E+02  0.13913373034E+02  0.34319144167E+02  0.00000000000E+00 0.  1.
</event>
<event>
 4    1  0.2243645E+005  0.2897375E+02  0.7546771E-02  0.1428729E+00
          2   -1    0    0  502    0  0.00000000000E+00  0.00000000000E+00  0.59354310012E+02  0.59354310012E+02  0.00000000000E+00 0. -1.
         21   -1    0    0  503  502 -0.00000000000E+00 -0.00000000000E+00 -0.72021748858E+02  0.72021748858E+02  0.00000000000E+00 0. -1.
          2    1    1    2  501    0 -0.87350193464E+00  0.28960583948E+02  0.52552279494E+02  0.60010170040E+02  0.00000000000E+00 0. -1.
         21    1    1    2  503  501  0.87350193464E+00 -0.28960583948E+02 -0.65219718339E+02  0.71365888830E+02  0.00000000000E+00 0. -1.
</event>
<event>
 4    1  0.2243645E+005  0.4236488E+02  0.7546771E-02  0.1335158E+00
          2   -1    0    0  503    0  0.00000000000E+00  0.00000000000E+00  0.34031736456E+03  0.34031736456E+03  0.00000000000E+00 0. -1.
         21   -1    0    0  501  502 -0.00000000000E+00 -0.00000000000E+00 -0.83819659869E+01  0.83819659869E+01  0.00000000000E+00 0. -1.
          2    1    1    2  501    0 -0.34903388475E+02  0.24011175241E+02  0.27213645111E+03  0.27541428991E+03  0.00000000000E+00 0. -1.
         21    1    1    2  503  502  0.34903388475E+02 -0.24011175241E+02  0.59798947460E+02  0.73285040634E+02  0.00000000000E+00 0. -1.
</event>
<event>
 4    1  0.2243645E+005  0.2457199E+02  0.7546771E-02  0.1473649E+00
          2   -1    0    0  503    0  0.00000000000E+00  0.00000000000E+00  0.48934569191E+02  0.48934569191E+02  0.00000000000E+00 0.  1.
         21   -1    0    0  501  502 -0.00000000000E+00 -0.00000000000E+00 -0.25195292331E+02  0.25195292331E+02  0.00000000000E+00 0.  1.
          2    1    1    2  501    0 -0.21391434074E+02  0.12090872638E+02  0.38346628276E+02  0.45543896990E+02  0.00000000000E+00 0.  1.
         21    1    1    2  503  502  0.21391434074E+02 -0.12090872638E+02 -0.14607351416E+02  0.28585964533E+02  0.00000000000E+00 0.  1.
</event>
<event>
 4    1  0.2243645E+005  0.2062649E+02  0.7546771E-02  0.1524665E+00
          2   -1    0    0  503    0  0.00000000000E+00  0.00000000000E+00  0.33363392884E+03  0.33363392884E+03  0.00000000000E+00 0.  1.
         21   -1    0    0  501  502 -0.00000000000E+00 -0.00000000000E+00 -0.90252143876E+01  0.90252143876E+01  0.00000000000E+00 0. -1.
          2    1    1    2  501    0  0.13331484908E+00  0.20626058230E+02  0.32106931288E+03  0.32173118551E+03  0.00000000000E+00 0.  1.
         21    1    1    2  503  502 -0.13331484908E+00 -0.20626058230E+02  0.35394015678E+01  0.20927957722E+02  0.00000000000E+00 0. -1.
</event>
<event>
 4    1  0.2243645E+005  0.2868647E+02  0.7546771E-02  0.1431365E+00
          2   -1    0    0  503    0  0.00000000000E+00  0.00000000000E+00  0.36287498885E+03  0.36287498885E+03  0.00000000000E+00 0.  1.
         21   -1    0    0  501  502 -0.00000000000E+00 -0.00000000000E+00 -0.23791803911E+01  0.23791803911E+01  0.00000000000E+00 0.  1.
          2    1    1    2  501    0  0.11817938427E+01  0.28662112600E+02  0.21976946659E+03  0.22163377852E+03  0.00000000000E+00 0.  1.
         21    1    1    2  503  502 -0.11817938427E+01 -0.28662112600E+02  0.14072634187E+03  0.14362039072E+03  0.00000000000E+00 0.  1.
</event>
<event>
 4    1  0.2243645E+005  0.2234308E+02  0.7546771E-02  0.1500916E+00
          2   -1    0    0  502    0  0.00000000000E+00  0.00000000000E+00  0.24839907181E+03  0.24839907181E+03  0.00000000000E+00 0. -1.
         21   -1    0    0  503  502 -0.00000000000E+00 -0.00000000000E+00 -0.16863802304E+02  0.16863802304E+02  0.00000000000E+00 0. -1.
          2    1    1    2  501    0  0.37188313103E+01  0.22031416165E+02  0.24024535110E+03  0.24128207917E+03  0.00000000000E+00 0. -1.
         21    1    1    2  503  501 -0.37188313103E+01 -0.22031416165E+02 -0.87100815952E+01  0.23980794940E+02  0.00000000000E+00 0. -1.
</event>
<event>
 4    1  0.2243645E+005  0.2227838E+02  0.7546771E-02  0.1501764E+00
          2   -1    0    0  503    0  0.00000000000E+00  0.00000000000E+00  0.20067788682E+03  0.20067788682E+03  0.00000000000E+00 0. -1.
         21   -1    0    0  501  502 -0.00000000000E+00 -0.00000000000E+00 -0.25600034283E+01  0.25600034283E+01  0.00000000000E+00 0. -1.
          2    1    1    2  501    0  0.18823943428E+01 -0.22198710672E+02  0.11776589084E+03  0.11985462532E+03  0.00000000000E+00 0. -1.
         21    1    1    2  503  502 -0.18823943428E+01  0.22198710672E+02  0.80351992547E+02  0.83383264929E+02  0.00000000000E+00 0. -1.
</event>
<event>
 4    1  0.2243645E+005  0.2023610E+02  0.7546771E-02  0.1530457E+00
          2   -1    0    0  502    0  0.00000000000E+00  0.00000000000E+00  0.25811558237E+02  0.25811558237E+02  0.00000000000E+00 0. -1.
         21   -1    0    0  503  502 -0.00000000000E+00 -0.00000000000E+00 -0.23242636870E+02  0.23242636870E+02  0.00000000000E+00 0. -1.
          2    1    1    2  501    0 -0.12831842396E+02  0.15647479459E+02  0.15103019694E+02  0.25250762297E+02  0.00000000000E+00 0. -1.
         21    1    1    2  503  501  0.12831842396E+02 -0.15647479459E+02 -0.12534098326E+02  0.23803432810E+02  0.00000000000E+00 0. -1.
</event>
<event>
 4    1  0.2243645E+005  0.2772863E+02  0.7546771E-02  0.1440423E+00
          2   -1    0    0  502    0  0.00000000000E+00  0.00000000000E+00  0.48026824487E+03  0.48026824487E+03  0.00000000000E+00 0.  1.
         21   -1    0    0  503  502 -0.00000000000E+00 -0.00000000000E+00 -0.17771513067E+02  0.17771513067E+02  0.00000000000E+00 0.  1.
          2    1    1    2  501    0 -0.37759949205E+01  0.27470322046E+02  0.46878720522E+03  0.46960655927E+03  0.00000000000E+00 0.  1.
         21    1    1    2  503  501  0.37759949205E+01 -0.27470322046E+02 -0.62904734135E+01  0.28433198672E+02  0.00000000000E+00 0.  1.
</event>
<event>
 4    1  0.2243645E+005  0.2381907E+02  0.7546771E-02  0.1482461E+00
          2   -1    0    0  503    0  0.00000000000E+00  0.00000000000E+00  0.16875644022E+04  0.16875644022E+04  0.00000000000E+00 0.  1.
         21   -1    0    0  501  502 -0.00000000000E+00 -0.00000000000E+00 -0.37330906266E+00  0.37330906266E+00  0.00000000000E+00 0. -1.
          2    1    1    2  501    0 -0.22213904896E+02  0.85959515049E+01  0.11097115393E+04  0.11099671385E+04  0.00000000000E+00 0.  1.
         21    1    1    2  503  502  0.22213904896E+02 -0.85959515049E+01  0.57747955387E+03  0.57797057286E+03  0.00000000000E+00 0. -1.
</event>
<event>
 4    1  0.2243645E+005  0.2799298E+02  0.7546771E-02  0.1437881E+00
          2   -1    0    0  502    0  0.00000000000E+00  0.00000000000E+00  0.12112470138E+04  0.12112470138E+04  0.00000000000E+00 0. -1.
         21   -1    0    0  503  502 -0.00000000000E+00 -0.00000000000E+00 -0.13512003639E+01  0.13512003639E+01  0.00000000000E+00 0.  1.
          2    1    1    2  501    0  0.21370160307E+02 -0.18081022756E+02  0.10426644023E+04  0.10430401061E+04  0.00000000000E+00 0. -1.
         21    1    1    2  503  501 -0.21370160307E+02  0.18081022756E+02  0.16723141115E+03  0.16955810806E+03  0.00000000000E+00 0.  1.
</event>
<event>
 4    1  0.2243645E+005  0.2199338E+02  0.7546771E-02  0.1505540E+00
          2   -1    0    0  502    0  0.00000000000E+00  0.00000000000E+00  0.62846051292E+03  0.62846051292E+03  0.00000000000E+00 0.  1.
         21   -1    0    0  503  502 -0.00000000000E+00 -0.00000000000E+00 -0.41033278532E+01  0.41033278532E+01  0.00000000000E+00 0.  1.
          2    1    1    2  501    0  0.20539854494E+02  0.78627772079E+01  0.59725849103E+03  0.59766329484E+03  0.00000000000E+00 0.  1.
         21    1    1    2  503  501 -0.20539854494E+02 -0.78627772079E+01  0.27098694031E+02  0.34900545930E+02  0.00000000000E+00 0.  1.
</event>
<event>
 4    1  0.2243645E+005  0.2180249E+02  0.7546771E-02  0.1508109E+00
          2   -1    0    0  502    0  0.00000000000E+00  0.00000000000E+00  0.55244853433E+03  0.55244853433E+03  0.00000000000E+00 0.  1.
         21   -1    0    0  503  502 -0.00000000000E+00 -0.00000000000E+00 -0.87678627525E+00  0.87678627525E+00  0.00000000000E+00 0.  1.
          2    1    1    2  501    0 -0.16333154562E+02 -0.14442179587E+02  0.31356230820E+03  0.31431937518E+03  0.00000000000E+00 0.  1.
         21    1    1    2  503  501  0.16333154562E+02  0.14442179587E+02  0.23800943986E+03  0.23900594543E+03  0.00000000000E+00 0.  1.
</event>
<event>
 4    1  0.2243645E+005  0.2240104E+02  0.7546771E-02  0.1500159E+00
          2   -1    0    0  503    0  0.00000000000E+00  0.00000000000E+00  0.35300975268E+01  0.35300975268E+01  0.00000000000E+00 0. -1.
         21   -1    0    0  501  502 -0.00000000000E+00 -0.00000000000E+00 -0.15330700794E+03  0.15330700794E+03  0.00000000000E+00 0.  1.
          2    1    1    2  501    0  0.14208716848E+01  0.22355929988E+02 -0.53734358000E+02  0.58216730513E+02  0.00000000000E+00 0. -1.
         21    1    1    2  503  502 -0.14208716848E+01 -0.22355929988E+02 -0.96042552412E+02  0.98620374953E+02  0.00000000000E+00 0.  1.
</event>
<event>
 4    1  0.2243645E+005  0.2123649E+02  0.7546771E-02  0.1515915E+00
          2   -1    0    0  502    0  0.00000000000E+00  0.00000000000E+00  0.18365080121E+02  0.18365080121E+02  0.00000000000E+00 0.  1.
         21   -1    0    0  503  502 -0.00000000000E+00 -0.00000000000E+00 -0.69784659758E+02  0.69784659758E+02  0.00000000000E+00 0.  1.
          2    1    1    2  501    0  0.20464290288E+02 -0.56746131709E+01  0.97726816985E+01  0.23377205120E+02  0.00000000000E+00 0.  1.
         21    1    1    2  503  501 -0.20464290288E+02  0.56746131709E+01 -0.61192261336E+02  0.64772534758E+02  0.00000000000E+00 0.  1.
</event>
<event>
 4    1  0.2243645E+005  0.2103903E+02  0.7546771E-02  0.1518708E+00
          2   -1    0    0  503    0  0.00000000000E+00  0.00000000000E+00  0.47977223454E+02  0.47977223454E+02  0.00000000000E+00 0. -1.
         21   -1    0    0  501  502 -0.00000000000E+00 -0.00000000000E+00 -0.84188602930E+02  0.84188602930E+02  0.00000000000E+00 0. -1.
          2    1    1    2  501    0 -0.87640757328E+01 -0.19126723578E+02  0.44251235727E+02  0.48998086102E+02  0.00000000000E+00 0. -1.
         21    1    1    2  503  502  0.87640757328E+01  0.19126723578E+02 -0.80462615203E+02  0.83167740282E+02  0.00000000000E+00 0. -1.
</event>
<event>
 4    1  0.2243645E+005  0.3726067E+02  0.7546771E-02  0.1365332E+00
          2   -1    0    0  503    0  0.00000000000E+00  0.00000000000E+00  0.47879063898E+03  0.47879063898E+03  0.00000000000E+00 0. -1.
         21   -1    0    0  501  502 -0.00000000000E+00 -0.00000000000E+00 -0.73665456314E+01  0.73665456314E+01  0.00000000000E+00 0.  1.
          2    1    1    2  501    0  0.33461360951E+02  0.16391904706E+02  0.42499627576E+03  0.42662652476E+03  0.00000000000E+00 0. -1.
         21    1    1    2  503  502 -0.33461360951E+02 -0.16391904706E+02  0.46427817586E+02  0.59530659852E+02  0.00000000000E+00 0.  1.
</event>
<event>
 4    1  0.2243645E+005  0.4548102E+02  0.7546771E-02  0.1319051E+00
          2   -1    0    0  503    0  0.00000000000E+00  0.00000000000E+00  0.14442134936E+03  0.14442134936E+03  0.00000000000E+00 0. -1.
         21   -1    0    0  501  502 -0.00000000000E+00 -0.00000000000E+00 -0.21297320578E+03  0.21297320578E+03  0.00000000000E+00 0.  1.
          2    1    1    2  501    0  0.12103502650E+02  0.43840948801E+02  0.13830791620E+03  0.14559396709E+03  0.00000000000E+00 0. -1.
         21    1    1    2  503  502 -0.12103502650E+02 -0.43840948801E+02 -0.20685977262E+03  0.21180058805E+03  0.00000000000E+00 0.  1.
</event>
<event>
 4    1  0.2243645E+005  0.2601317E+02  0.7546771E-02  0.1457781E+00
          2   -1    0    0  503    0  0.00000000000E+00  0.00000000000E+00  0.44473040198E+03  0.44473040198E+03  0.00000000000E+00 0. -1.
         21   -1    0    0  501  502 -0.00000000000E+00 -0.00000000000E+00 -0.29792756298E+02  0.29792756298E+02  0.00000000000E+00 0. -1.
          2    1    1    2  501    0  0.14463867805E+02  0.21621323501E+02  0.43859234561E+03  0.43936309669E+03  0.00000000000E+00 0. -1.
         21    1    1    2  503  502 -0.14463867805E+02 -0.21621323501E+02 -0.23654699933E+02  0.35160061586E+02  0.00000000000E+00 0. -1.
</event>
<event>
 4    1  0.2243645E+005  0.3555439E+02  0.7546771E-02  0.1376707E+00
          2   -1    0    0  503    0  0.00000000000E+00  0.00000000000E+00  0.12177740025E+04  0.12177740025E+04  0.00000000000E+00 0. -1.
         21   -1    0    0  501  502 -0.00000000000E+00 -0.00000000000E+00 -0.15006143876E+01  0.15006143876E+01  0.00000000000E+00 0. -1.
          2    1    1    2  501    0 -0.21237680391E+02 -0.28514476714E+02  0.94660770771E+03  0.94727518005E+03  0.00000000000E+00 0. -1.
         21    1    1    2  503  502  0.21237680391E+02  0.28514476714E+02  0.26966568036E+03  0.27199943679E+03  0.00000000000E+00 0. -1.
</event>
<event>
 4    1  0.2243645E+005  0.2193008E+02  0.7546771E-02  0.1506389E+00
          2   -1    0    0  503    0  0.00000000000E+00  0.00000000000E+00  0.28124254980E+03  0.28124254980E+03  0.00000000000E+00 0. -1.
         21   -1    0    0  501  502 -0.00000000000E+00 -0.00000000000E+00 -0.27269173716E+01  0.27269173716E+01  0.00000000000E+00 0. -1.
          2    1    1    2  501    0  0.19756880991E+02  0.95180882422E+01  0.22596314090E+03  0.22702482111E+03  0.00000000000E+00 0. -1.
         21    1    1    2  503  502 -0.19756880991E+02 -0.95180882422E+01  0.52552491520E+02  0.56944646063E+02  0.00000000000E+00 0. -1.
</event>
<event>
 4    1  0.2243645E+005  0.2452808E+02  0.7546771E-02  0.1474152E+00
          2   -1    0    0  503    0  0.00000000000E+00  0.00000000000E+00  0.43312432608E+03  0.43312432608E+03  0.00000000000E+00 0.  1.
         21   -1    0    0  501  502 -0.00000000000E+00 -0.00000000000E+00 -0.45968393018E+02  0.45968393018E+02  0.00000000000E+00 0. -1.
          2    1    1    2  501    0  0.11855606187E+02  0.21472571371E+02  0.42947734586E+03  0.43017719294E+03  0.00000000000E+00 0.  1.
         21    1    1    2  503  502 -0.11855606187E+02 -0.21472571371E+02 -0.42321412791E+02  0.48915526164E+02  0.00000000000E+00 0. -1.
</event>
<event>
 4    1  0.2243645E+005  0.3621199E+02  0.7546771E-02  0.1372237E+00
          2   -1    0    0  503    0  0.00000000000E+00  0.00000000000E+00  0.43755665120E+03  0.43755665120E+03  0.00000000000E+00 0. -1.
         21   -1    0    0  501  502 -0.00000000000E+00 -0.00000000000E+00 -0.64267756202E+02  0.64267756202E+02  0.00000000000E+00 0. -1.
          2    1    1    2  501    0 -0.36088342389E+02 -0.29899029359E+01  0.43163663506E+03  0.43315296686E+03  0.00000000000E+00 0. -1.
         21    1    1    2  503  502  0.36088342389E+02  0.29899029359E+01 -0.58347740060E+02  0.68671440542E+02  0.00000000000E+00 0. -1.
</event>
<event>
 4    1  0.2243645E+005  0.2704327E+02  0.7546771E-02  0.1447174E+00
          2   -1    0    0  503    0  0.00000000000E+00  0.00000000000E+00  0.27366629131E+02  0.27366629131E+02  0.00000000000E+00 0. -1.
         21   -1    0    0  501  502 -0.00000000000E+00 -0.00000000000E+00 -0.27432661184E+02  0.27432661184E+02  0.00000000000E+00 0. -1.
          2    1    1    2  501    0 -0.12312936134E+02  0.24077588359E+02 -0.44376539732E+01  0.27404952658E+02  0.00000000000E+00 0. -1.
         21    1    1    2  503  502  0.12312936134E+02 -0.24077588359E+02  0.43716219201E+01  0.27394337656E+02  0.00000000000E+00 0. -1.
</event>
<event>
 4    1  0.2243645E+005  0.2707414E+02  0.7546771E-02  0.1446865E+00
          2   -1    0    0  503    0  0.00000000000E+00  0.00000000000E+00  0.23789694575E+03  0.23789694575E+03  0.00000000000E+00 0.  1.
         21   -1    0    0  501  502 -0.00000000000E+00 -0.00000000000E+00 -0.90593459254E+01  0.90593459254E+01  0.00000000000E+00 0.  1.
          2    1    1    2  501    0 -0.15069772238E+02  0.22492460891E+02  0.21472431611E+03  0.21642444585E+03  0.00000000000E+00 0.  1.
         21    1    1    2  503  502  0.15069772238E+02 -0.22492460891E+02  0.14113283710E+02  0.30531845822E+02  0.00000000000E+00 0.  1.
</event>
<event>
 4    1  0.2243645E+005  0.2102202E+02  0.7546771E-02  0.1518951E+00
          2   -1    0    0  503    0  0.00000000000E+00  0.00000000000E+00  0.22566043795E+02  0.22566043795E+02  0.00000000000E+00 0. -1.
         21   -1    0    0  501  502 -0.00000000000E+00 -0.00000000000E+00 -0.61960516327E+02  0.61960516327E+02  0.00000000000E+00 0.  1.
          2    1    1    2  501    0 -0.11252351177E+02 -0.17756967077E+02  0.15254612624E+02  0.25973611476E+02  0.00000000000E+00 0. -1.
         21    1    1    2  503  502  0.11252351177E+02  0.17756967077E+02 -0.54649085157E+02  0.58552948647E+02  0.00000000000E+00 0.  1.
</event>
<event>
 4    1  0.2243645E+005  0.3380542E+02  0.7546771E-02  0.1389162E+00
          2   -1    0    0  502    0  0.00000000000E+00  0.00000000000E+00  0.18796180076E+04  0.18796180076E+04  0.00000000000E+00 0. -1.
         21   -1    0    0  503  502 -0.00000000000E+00 -0.00000000000E+00 -0.17480736963E+01  0.17480736963E+01  0.00000000000E+00 0.  1.
          2    1    1    2  501    0 -0.24525008760E+02 -0.23266500686E+02  0.16986138850E+04  0.16989502454E+04  0.00000000000E+00 0. -1.
         21    1    1    2  503  501  0.24525008760E+02  0.23266500686E+02  0.17925604892E+03  0.18241583589E+03  0.00000000000E+00 0.  1.
</event>
<event>
 4    1  0.2243645E+005  0.2048361E+02  0.7546771E-02  0.1526767E+00
          2   -1    0    0  503    0  0.00000000000E+00  0.00000000000E+00  0.73586539967E+03  0.73586539967E+03  0.00000000000E+00 0. -1.
         21   -1    0    0  501  502 -0.00000000000E+00 -0.00000000000E+00 -0.24298849004E+01  0.24298849004E+01  0.00000000000E+00 0. -1.
          2    1    1    2  501    0 -0.13932820107E+01 -0.20436169948E+02  0.68966297826E+03  0.68996710201E+03  0.00000000000E+00 0. -1.
         21    1    1    2  503  502  0.13932820107E+01  0.20436169948E+02  0.43772536514E+02  0.48328182562E+02  0.00000000000E+00 0. -1.
</event>
<event>
 4    1  0.2243645E+005  0.4194749E+02  0.7546771E-02  0.1337437E+00
          2   -1    0    0  503    0  0.00000000000E+00  0.00000000000E+00  0.40567048582E+03  0.40567048582E+03  0.00000000000E+00 0. -1.
         21   -1    0    0  501  502 -0.00000000000E+00 -0.00000000000E+00 -0.43527271014E+03  0.43527271014E+03  0.00000000000E+00 0.  1.
          2    1    1    2  501    0 -0.33238149091E+02  0.25589404922E+02  0.40357024136E+03  0.40574441698E+03  0.00000000000E+00 0. -1.
         21    1    1    2  503  502  0.33238149091E+02 -0.25589404922E+02 -0.43317246568E+03  0.43519877898E+03  0.00000000000E+00 0.  1.
</event>
<event>
 4    1  0.2243645E+005  0.2774392E+02  0.7546771E-02  0.1440275E+00
          2   -1    0    0  503    0  0.00000000000E+00  0.00000000000E+00  0.13860402079E+04  0.13860402079E+04  0.00000000000E+00 0.  1.
         21   -1    0    0  501  502 -0.00000000000E+00 -0.00000000000E+00 -0.90722271368E+01  0.90722271368E+01  0.00000000000E+00 0. -1.
          2    1    1    2  501    0  0.22449686572E+02 -0.16301423256E+02  0.13643532275E+04  0.13646352825E+04  0.00000000000E+00 0.  1.
         21    1    1    2  503  502 -0.22449686572E+02  0.16301423256E+02  0.12614753261E+02  0.30477152545E+02  0.00000000000E+00 0. -1.
</event>
<event>
 4    1  0.2243645E+005  0.2112450E+02  0.7546771E-02  0.1517495E+00
          2   -1    0    0  503    0  0.00000000000E+00  0.00000000000E+00  0.45955650195E+02  0.45955650195E+02  0.00000000000E+00 0.  1.
         21   -1    0    0  501  502 -0.00000000000E+00 -0.00000000000E+00 -0.11636222614E+02  0.11636222614E+02  0.00000000000E+00 0. -1.
          2    1    1    2  501    0 -0.19302847300E+02 -0.85816316503E+01  0.28874699194E+02  0.35776983792E+02  0.00000000000E+00 0.  1.
         21    1    1    2  503  502  0.19302847300E+02  0.85816316503E+01  0.54447283869E+01  0.21814889018E+02  0.00000000000E+00 0. -1.
</event>
<event>
 4    1  0.2243645E+005  0.2752063E+02  0.7546771E-02  0.1442447E+00
          2   -1    0    0  502    0  0.00000000000E+00  0.00000000000E+00  0.21336403258E+03  0.21336403258E+03  0.00000000000E+00 0.  1.
         21   -1    0    0  503  502 -0.00000000000E+00 -0.00000000000E+00 -0.21253694911E+03  0.21253694911E+03  0.00000000000E+00 0.  1.
          2    1    1    2  501    0  0.25421418950E+02 -0.10542126292E+02  0.21157822563E+03  0.21336056461E+03  0.00000000000E+00 0.  1.
         21    1    1    2  503  501 -0.25421418950E+02  0.10542126292E+02 -0.21075114217E+03  0.21254041708E+03  0.00000000000E+00 0.  1.
</event>
<event>
 4    1  0.2243645E+005  0.2395015E+02  0.7546771E-02  0.1480900E+00
          2   -1    0    0  503    0  0.00000000000E+00  0.00000000000E+00  0.17418414003E+04  0.17418414003E+04  0.00000000000E+00 0.  1.
         21   -1    0    0  501  502 -0.00000000000E+00 -0.00000000000E+00 -0.60500017755E+00  0.60500017755E+00  0.00000000000E+00 0.  1.
          2    1    1    2  501    0  0.18885845807E+02 -0.14728704981E+02  0.14587307669E+04  0.14589273663E+04  0.00000000000E+00 0.  1.
         21    1    1    2  503  502 -0.18885845807E+02  0.14728704981E+02  0.28250563324E+03  0.28351903416E+03  0.00000000000E+00 0.  1.
</event>
<event>
 4    1  0.2243645E+005  0.3001903E+02  0.7546771E-02  0.1419431E+00
          2   -1    0    0  503    0  0.00000000000E+00  0.00000000000E+00  0.87771959714E+02  0.87771959714E+02  0.00000000000E+00 0. -1.
         21   -1    0    0  501  502 -0.00000000000E+00 -0.00000000000E+00 -0.23884146272E+02  0.23884146272E+02  0.00000000000E+00 0. -1.
          2    1    1    2  501    0  0.17685573466E+02 -0.24256184067E+02  0.74098313898E+02  0.79948121284E+02  0.00000000000E+00 0. -1.
         21    1    1    2  503  502 -0.17685573466E+02  0.24256184067E+02 -0.10210500456E+02  0.31707984702E+02  0.00000000000E+00 0. -1.
</event>
<event>
 4    1  0.2243645E+005  0.3195341E+02  0.7546771E-02  0.1403348E+00
          2   -1    0    0  502    0  0.00000000000E+00  0.00000000000E+00  0.20545659542E+04  0.20545659542E+04  0.00000000000E+00 0.  1.
         21   -1    0    0  503  502 -0.00000000000E+00 -0.00000000000E+00 -0.14077174338E+01  0.14077174338E+01  0.00000000000E+00 0. -1.
          2    1    1    2  501    0 -0.30657172479E+02  0.90087985160E+01  0.18534412004E+04  0.18537166191E+04  0.00000000000E+00 0.  1.
         21    1    1    2  503  501  0.30657172479E+02 -0.90087985160E+01  0.19971703636E+03  0.20225705251E+03  0.00000000000E+00 0. -1.
</event>
<event>
 4    1  0.2243645E+005  0.2732074E+02  0.7546771E-02  0.1444413E+00
          2   -1    0    0  502    0  0.00000000000E+00  0.00000000000E+00  0.18637069855E+04  0.18637069855E+04  0.00000000000E+00 0.  1.
         21   -1    0    0  503  502 -0.00000000000E+00 -0.00000000000E+00 -0.10290410702E+01  0.10290410702E+01  0.00000000000E+00 0.  1.
          2    1    1    2  501    0 -0.27239195379E+02  0.21093262025E+01  0.16600180325E+04  0.16602428411E+04  0.00000000000E+00 0.  1.
         21    1    1    2  503  501  0.27239195379E+02 -0.21093262025E+01  0.20265991188E+03  0.20449318547E+03  0.00000000000E+00 0.  1.
</event>
<event>
 4    1  0.2243645E+005  0.2571983E+02  0.7546771E-02  0.1460909E+00
          2   -1    0    0  503    0  0.00000000000E+00  0.00000000000E+00  0.18212711149E+01  0.18212711149E+01  0.00000000000E+00 0.  1.
         21   -1    0    0  501  502 -0.00000000000E+00 -0.00000000000E+00 -0.43128894785E+03  0.43128894785E+03  0.00000000000E+00 0.  1.
          2    1    1    2  501    0 -0.97106141180E+01  0.23816251761E+02 -0.12869784203E+03  0.13124269281E+03  0.00000000000E+00 0.  1.
         21    1    1    2  503  502  0.97106141180E+01 -0.23816251761E+02 -0.30076983471E+03  0.30186752615E+03  0.00000000000E+00 0.  1.
</event>
<event>
 4    1  0.2243645E+005  0.2917144E+02  0.7546771E-02  0.1426936E+00
          2   -1    0    0  503    0  0.00000000000E+00  0.00000000000E+00  0.30788375413E+02  0.30788375413E+02  0.00000000000E+00 0. -1.
         21   -1    0    0  501  502 -0.00000000000E+00 -0.00000000000E+00 -0.28872782510E+02  0.28872782510E+02  0.00000000000E+00 0.  1.
          2    1    1    2  501    0 -0.16847712028E+02  0.23814442653E+02  0.71231979002E+01  0.30028536890E+02  0.00000000000E+00 0. -1.
         21    1    1    2  503  502  0.16847712028E+02 -0.23814442653E+02 -0.52076049972E+01  0.29632621032E+02  0.00000000000E+00 0.  1.
</event>
<event>
 4    1  0.2243645E+005  0.2280502E+02  0.7546771E-02  0.1494961E+00
          2   -1    0    0  503    0  0.00000000000E+00  0.00000000000E+00  0.13028223666E+04  0.13028223666E+04  0.00000000000E+00 0.  1.
         21   -1    0    0  501  502 -0.00000000000E+00 -0.00000000000E+00 -0.41343378695E+00  0.41343378695E+00  0.00000000000E+00 0.  1.
          2    1    1    2  501    0 -0.19514481888E+01  0.22721369632E+02  0.77216947672E+03  0.77250616151E+03  0.00000000000E+00 0.  1.
         21    1    1    2  503  502  0.19514481888E+01 -0.22721369632E+02  0.53023945610E+03  0.53072963889E+03  0.00000000000E+00 0.  1.
</event>
<event>
 4    1  0.2243645E+005  0.2168005E+02  0.7546771E-02  0.1509773E+00
          2   -1    0    0  503    0  0.00000000000E+00  0.00000000000E+00  0.36587393302E+03  0.36587393302E+03  0.00000000000E+00 0.  1.
         21   -1    0    0  501  502 -0.00000000000E+00 -0.00000000000E+00 -0.12847217084E+01  0.12847217084E+01  0.00000000000E+00 0.  1.
          2    1    1    2  501    0  0.12274548767E+02  0.17870652924E+02  0.18353331480E+03  0.18480936779E+03  0.00000000000E+00 0.  1.
         21    1    1    2  503  502 -0.12274548767E+02 -0.17870652924E+02  0.18105589651E+03  0.18234928693E+03  0.00000000000E+00 0.  1.
</event>
<event>
 4    1  0.2243645E+005  0.4101598E+02  0.7546771E-02  0.1342633E+00
          2   -1    0    0  503    0  0.00000000000E+00  0.00000000000E+00  0.28364373203E+04  0.28364373203E+04  0.00000000000E+00 0. -1.
         21   -1    0    0  501  502 -0.00000000000E+00 -0.00000000000E+00 -0.31337832763E+03  0.31337832763E+03  0.00000000000E+00 0.  1.
          2    1    1    2  501    0  0.28064636079E+02  0.29911321362E+02  0.28349462611E+04  0.28352429550E+04  0.00000000000E+00 0. -1.
         21    1    1    2  503  502 -0.28064636079E+02 -0.29911321362E+02 -0.31188726838E+03  0.31457269291E+03  0.00000000000E+00 0.  1.
</event>
<event>
 4    1  0.2243645E+005  0.2900651E+02  0.7546771E-02  0.1428431E+00
          2   -1    0    0  503    0  0.00000000000E+00  0.00000000000E+00  0.15457683835E+04  0.15457683835E+04  0.00000000000E+00 0. -1.
         21   -1    0    0  501  502 -0.00000000000E+00 -0.00000000000E+00 -0.15458566544E+01  0.15458566544E+01  0.00000000000E+00 0.  1.
          2    1    1    2  501    0 -0.28999000616E+02 -0.65987108906E+00  0.13948408072E+04  0.13951423780E+04  0.00000000000E+00 0. -1.
         21    1    1    2  503  502  0.28999000616E+02  0.65987108906E+00  0.14938171963E+03  0.15217186213E+03  0.00000000000E+00 0.  1.
</event>
<event>
 4    1  0.2243645E+005  0.2334258E+02  0.7546771E-02  0.1488241E+00
          2   -1    0    0  502    0  0.00000000000E+00  0.00000000000E+00  0.30544723284E+02  0.30544723284E+02  0.00000000000E+00 0.  1.
         21   -1    0    0  503  502 -0.00000000000E+00 -0.00000000000E+00 -0.20428092535E+02  0.20428092535E+02  0.00000000000E+00 0. -1.
          2    1    1    2  501    0  0.13870788569E+02 -0.18774383216E+02  0.14132318483E+02  0.27287335274E+02  0.00000000000E+00 0.  1.
         21    1    1    2  503  501 -0.13870788569E+02  0.18774383216E+02 -0.40156877330E+01  0.23685480545E+02  0.00000000000E+00 0. -1.
</event>
<event>
 4    1  0.2243645E+005  0.2285440E+02  0.7546771E-02  0.1494335E+00
          2   -1    0    0  502    0  0.00000000000E+00  0.00000000000E+00  0.72858609071E+03  0.72858609071E+03  0.00000000000E+00 0.  1.
         21   -1    0    0  503  502 -0.00000000000E+00 -0.00000000000E+00 -0.36528154854E+01  0.36528154854E+01  0.00000000000E+00 0.  1.
          2    1    1    2  501    0  0.11223051535E+02 -0.19908963416E+02  0.69069845504E+03  0.69107646429E+03  0.00000000000E+00 0.  1.
         21    1    1    2  503  501 -0.11223051535E+02  0.19908963416E+02  0.34234820190E+02  0.41162441905E+02  0.00000000000E+00 0.  1.
</event>
<event>
 4    1  0.2243645E+005  0.2164756E+02  0.7546771E-02  0.1510217E+00
          2   -1    0    0  502    0  0.00000000000E+00  0.00000000000E+00  0.10037071284E+04  0.10037071284E+04  0.00000000000E+00 0. -1.
         21   -1    0    0  503  502 -0.00000000000E+00 -0.00000000000E+00 -0.15532182529E+02  0.15532182529E+02  0.00000000000E+00 0. -1.
          2    1    1    2  501    0 -0.63716522234E+01 -0.20688620675E+02  0.99598928860E+03  0.99622451284E+03  0.00000000000E+00 0. -1.
         21    1    1    2  503  501  0.63716522234E+01  0.20688620675E+02 -0.78143427498E+01  0.23014798067E+02  0.00000000000E+00 0. -1.
</event>
<event>
 4    1  0.2243645E+005  0.5651874E+02  0.7546771E-02  0.1272143E+00
          2   -1    0    0  503    0  0.00000000000E+00  0.00000000000E+00  0.45958844575E+03  0.45958844575E+03  0.00000000000E+00 0. -1.
         21   -1    0    0  501  502 -0.00000000000E+00 -0.00000000000E+00 -0.13159807450E+02  0.13159807450E+02  0.00000000000E+00 0. -1.
          2    1    1    2  501    0  0.50586230980E+02 -0.25207170143E+02  0.38558097682E+03  0.38970124182E+03  0.00000000000E+00 0. -1.
         21    1    1    2  503  502 -0.50586230980E+02  0.25207170143E+02  0.60847661482E+02  0.83047011381E+02  0.00000000000E+00 0. -1.
</event>
<event>
 4    1  0.2243645E+005  0.2011783E+02  0.7546771E-02  0.1532242E+00
          2   -1    0    0  502    0  0.00000000000E+00  0.00000000000E+00  0.11426795682E+03  0.11426795682E+03  0.00000000000E+00 0.  1.
         21   -1    0    0  503  502 -0.00000000000E+00 -0.00000000000E+00 -0.28012388464E+02  0.28012388464E+02  0.00000000000E+00 0. -1.
          2    1    1    2  501    0  0.17601921281E+02  0.97416260639E+01  0.10961850912E+03  0.11144929094E+03  0.00000000000E+00 0.  1.
         21    1    1    2  503  501 -0.17601921281E+02 -0.97416260639E+01 -0.23362940756E+02  0.30831054343E+02  0.00000000000E+00 0. -1.
</event>
<event>
 4    1  0.2243645E+005  0.2428285E+02  0.7546771E-02  0.1476988E+00
          2   -1    0    0  503    0  0.00000000000E+00  0.00000000000E+00  0.10907913269E+04  0.10907913269E+04  0.00000000000E+00 0.  1.
         21   -1    0    0  501  502 -0.00000000000E+00 -0.00000000000E+00 -0.12309023113E+03  0.12309023113E+03  0.00000000000E+00 0.  1.
          2    1    1    2  501    0  0.24193755991E+02 -0.20782323541E+01  0.10894571050E+04  0.10897276910E+04  0.00000000000E+00 0.  1.
         21    1    1    2  503  502 -0.24193755991E+02  0.20782323541E+01 -0.12175600931E+03  0.12415386696E+03  0.00000000000E+00 0.  1.
</event>
<event>
 4    1  0.2243645E+005  0.2314879E+02  0.7546771E-02  0.1490638E+00
          2   -1    0    0  503    0  0.00000000000E+00  0.00000000000E+00  0.22867041310E+01  0.22867041310E+01  0.00000000000E+00 0.  1.
         21   -1    0    0  501  502 -0.00000000000E+00 -0.00000000000E+00 -0.32817089852E+03  0.32817089852E+03  0.00000000000E+00 0.  1.
          2    1    1    2  501    0  0.33023909146E+01 -0.22912023774E+02 -0.74591746221E+02  0.78101185801E+02  0.00000000000E+00 0.  1.
         21    1    1    2  503  502 -0.33023909146E+01  0.22912023774E+02 -0.25129244817E+03  0.25235641685E+03  0.00000000000E+00 0.  1.
</event>
<event>
 4    1  0.2243645E+005  0.2184852E+02  0.7546771E-02  0.1507487E+00
          2   -1    0    0  502    0  0.00000000000E+00  0.00000000000E+00  0.22789536397E+03  0.22789536397E+03  0.00000000000E+00 0.  1.
         21   -1    0    0  503  502 -0.00000000000E+00 -0.00000000000E+00 -0.34748463705E+01  0.34748463705E+01  0.00000000000E+00 0.  1.
          2    1    1    2  501    0  0.15661748460E+02  0.15233756590E+02  0.18511946564E+03  0.18640433006E+03  0.00000000000E+00 0.  1.
         21    1    1    2  503  501 -0.15661748460E+02 -0.15233756590E+02  0.39301051962E+02  0.44965880288E+02  0.00000000000E+00 0.  1.
</event>
<event>
 4    1  0.2243645E+005  0.2217054E+02  0.7546771E-02  0.1503185E+00
          2   -1    0    0  503    0  0.00000000000E+00  0.00000000000E+00  0.87657988806E+01  0.87657988806E+01  0.00000000000E+00 0.  1.
         21   -1    0    0  501  502 -0.00000000000E+00 -0.00000000000E+00 -0.15742053716E+03  0.15742053716E+03  0.00000000000E+00 0. -1.
          2    1    1    2  501    0 -0.20724170619E+02 -0.78766608936E+01 -0.76560312449E+01  0.23455230741E+02  0.00000000000E+00 0.  1.
         21    1    1    2  503  502  0.20724170619E+02  0.78766608936E+01 -0.14099870703E+03  0.14273110530E+03  0.00000000000E+00 0. -1.
</event>
<event>
 4    1  0.2243645E+005  0.3436709E+02  0.7546771E-02  0.1385068E+00
          2   -1    0    0  503    0  0.00000000000E+00  0.00000000000E+00  0.14046766984E+04  0.14046766984E+04  0.00000000000E+00 0.  1.
         21   -1    0    0  501  502 -0.00000000000E+00 -0.00000000000E+00 -0.20906795907E+01  0.20906795907E+01  0.00000000000E+00 0.  1.
          2    1    1    2  501    0 -0.11005576946E+02 -0.32557239252E+02  0.12451405288E+04  0.12456147209E+04  0.00000000000E+00 0.  1.
         21    1    1    2  503  502  0.11005576946E+02  0.32557239252E+02  0.15744549002E+03  0.16115265706E+03  0.00000000000E+00 0.  1.
</event>
<event>
 4    1  0.2243645E+005  0.2190212E+02  0.7546771E-02  0.1506764E+00
          2   -1    0    0  502    0  0.00000000000E+00  0.00000000000E+00  0.12722055665E+03  0.12722055665E+03  0.00000000000E+00 0. -1.
         21   -1    0    0  503  502 -0.00000000000E+00 -0.00000000000E+00 -0.41844922069E+01  0.41844922069E+01  0.00000000000E+00 0.  1.
          2    1    1    2  501    0  0.21207693616E+02 -0.54714366827E+01  0.82180559683E+02  0.85049087459E+02  0.00000000000E+00 0. -1.
         21    1    1    2  503  501 -0.21207693616E+02  0.54714366827E+01  0.40855504762E+02  0.46355961400E+02  0.00000000000E+00 0.  1.
</event>
<event>
 4    1  0.2243645E+005  0.2556191E+02  0.7546771E-02  0.1462614E+00
          2   -1    0    0  503    0  0.00000000000E+00  0.00000000000E+00  0.13681909732E+04  0.13681909732E+04  0.00000000000E+00 0. -1.
         21   -1    0    0  501  502 -0.00000000000E+00 -0.00000000000E+00 -0.38738282904E+01  0.38738282904E+01  0.00000000000E+00 0. -1.
          2    1    1    2  501    0 -0.11109381990E+02  0.23021571704E+02  0.13245128275E+04  0.13247594654E+04  0.00000000000E+00 0. -1.
         21    1    1    2  503  502  0.11109381990E+02 -0.23021571704E+02  0.39804317414E+02  0.47305336028E+02  0.00000000000E+00 0. -1.
</event>
<event>
 4    1  0.2243645E+005  0.4041726E+02  0.7546771E-02  0.1346058E+00
          2   -1    0    0  503    0  0.00000000000E+00  0.00000000000E+00  0.17556036129E+03  0.17556036129E+03  0.00000000000E+00 0. -1.
         21   -1    0    0  501  502 -0.00000000000E+00 -0.00000000000E+00 -0.11985067490E+02  0.11985067490E+02  0.00000000000E+00 0. -1.
          2    1    1    2  501    0  0.51654945276E+01 -0.40085819877E+02  0.12613265545E+03  0.13244999834E+03  0.00000000000E+00 0. -1.
         21    1    1    2  503  502 -0.51654945276E+01  0.40085819877E+02  0.37442638351E+02  0.55095430443E+02  0.00000000000E+00 0. -1.
</event>
<event>
 4    1  0.2243645E+005  0.3793476E+02  0.7546771E-02  0.1361032E+00
          2   -1    0    0  502    0  0.00000000000E+00  0.00000000000E+00  0.18877316896E+03  0.18877316896E+03  0.00000000000E+00 0. -1.
         21   -1    0    0  503  502 -0.00000000000E+00 -0.00000000000E+00 -0.10161547604E+02  0.10161547604E+02  0.00000000000E+00 0. -1.
          2    1    1    2  501    0  0.27816624583E+02  0.25793046577E+02  0.13902003058E+03  0.14410279233E+03  0.00000000000E+00 0. -1.
         21    1    1    2  503  501 -0.27816624583E+02 -0.25793046577E+02  0.39591590777E+02  0.54831924234E+02  0.00000000000E+00 0. -1.
</event>
<event>
 4    1  0.2243645E+005  0.3407545E+02  0.7546771E-02  0.1387182E+00
          2   -1    0    0  502    0  0.00000000000E+00  0.00000000000E+00  0.19411426038E+04  0.19411426038E+04  0.00000000000E+00 0. -1.
         21   -1    0    0  503  502 -0.00000000000E+00 -0.00000000000E+00 -0.16129632780E+01  0.16129632780E+01  0.00000000000E+00 0.  1.
          2    1    1    2  501    0  0.26020606571E+02 -0.22001458523E+02  0.17402501974E+04  0.17405837773E+04  0.00000000000E+00 0. -1.
         21    1    1    2  503  501 -0.26020606571E+02  0.22001458523E+02  0.19927944316E+03  0.20217178984E+03  0.00000000000E+00 0.  1.
</event>
<event>
 4    1  0.2243645E+005  0.2396363E+02  0.7546771E-02  0.1480740E+00
          2   -1    0    0  503    0  0.00000000000E+00  0.00000000000E+00  0.46240330737E+02  0.46240330737E+02  0.00000000000E+00 0.  1.
         21   -1    0    0  501  502 -0.00000000000E+00 -0.00000000000E+00 -0.14034291441E+02  0.14034291441E+02  0.00000000000E+00 0. -1.
          2    1    1    2  501    0  0.95675971394E+01  0.21970817241E+02  0.26327547328E+02  0.35600498221E+02  0.00000000000E+00 0.  1.
         21    1    1    2  503  502 -0.95675971394E+01 -0.21970817241E+02  0.58784919680E+01  0.24674123958E+02  0.00000000000E+00 0. -1.
</event>
<event>
 4    1  0.2243645E+005  0.5527970E+02  0.7546771E-02  0.1276773E+00
          2   -1    0    0  502    0  0.00000000000E+00  0.00000000000E+00  0.67914614657E+03  0.67914614657E+03  0.00000000000E+00 0.  1.
         21   -1    0    0  503  502 -0.00000000000E+00 -0.00000000000E+00 -0.74692111897E+01  0.74692111897E+01  0.00000000000E+00 0.  1.
          2    1    1    2  501    0  0.55797836586E+01 -0.54997369950E+02  0.55230980078E+03  0.55506932966E+03  0.00000000000E+00 0.  1.
         21    1    1    2  503  501 -0.55797836586E+01  0.54997369950E+02  0.11936713460E+03  0.13154602810E+03  0.00000000000E+00 0.  1.
</event>
<event>
 4    1  0.2243645E+005  0.3118866E+02  0.7546771E-02  0.1409541E+00
          2   -1    0    0  503    0  0.00000000000E+00  0.00000000000E+00  0.80078714995E+03  0.80078714995E+03  0.00000000000E+00 0. -1.
         21   -1    0    0  501  502 -0.00000000000E+00 -0.00000000000E+00 -0.32146848383E+01  0.32146848383E+01  0.00000000000E+00 0. -1.
          2    1    1    2  501    0 -0.30514483282E+02  0.64497199702E+01  0.71586631882E+03  0.71654540610E+03  0.00000000000E+00 0. -1.
         21    1    1    2  503  502  0.30514483282E+02 -0.64497199702E+01  0.81706146297E+02  0.87456428697E+02  0.00000000000E+00 0. -1.
</event>
<event>
 4    1  0.2243645E+005  0.2748920E+02  0.7546771E-02  0.1442755E+00
          2   -1    0    0  503    0  0.00000000000E+00  0.00000000000E+00  0.15946492531E+04  0.15946492531E+04  0.00000000000E+00 0. -1.
         21   -1    0    0  501  502 -0.00000000000E+00 -0.00000000000E+00 -0.73717495176E+01  0.73717495176E+01  0.00000000000E+00 0. -1.
          2    1    1    2  501    0  0.23484564098E+02 -0.14287459269E+02  0.15684764296E+04  0.15687172997E+04  0.00000000000E+00 0. -1.
         21    1    1    2  503  502 -0.23484564098E+02  0.14287459269E+02  0.18801073972E+02  0.33303702883E+02  0.00000000000E+00 0. -1.
</event>
<event>
 4    1  0.2243645E+005  0.4500251E+02  0.7546771E-02  0.1321427E+00
          2   -1    0    0  503    0  0.00000000000E+00  0.00000000000E+00  0.27639392693E+04  0.27639392693E+04  0.00000000000E+00 0. -1.
         21   -1    0    0  501  502 -0.00000000000E+00 -0.00000000000E+00 -0.73413981109E+00  0.73413981109E+00  0.00000000000E+00 0. -1.
          2    1    1    2  501    0  0.38011905374E+02  0.24089846201E+02  0.14421448064E+04  0.14428467930E+04  0.00000000000E+00 0. -1.
         21    1    1    2  503  502 -0.38011905374E+02 -0.24089846201E+02  0.13210603232E+04  0.13218266161E+04  0.00000000000E+00 0. -1.
</event>
<event>
 4    1  0.2243645E+005  0.2624105E+02  0.7546771E-02  0.1455385E+00
          2   -1    0    0  503    0  0.00000000000E+00  0.00000000000E+00  0.57090064418E+03  0.57090064418E+03  0.00000000000E+00 0.  1.
         21   -1    0    0  501  502 -0.00000000000E+00 -0.00000000000E+00 -0.21769388288E+01  0.21769388288E+01  0.00000000000E+00 0.  1.
          2    1    1    2  501    0  0.18964144555E+02 -0.18137081834E+02  0.47570918911E+03  0.47643239302E+03  0.00000000000E+00 0.  1.
         21    1    1    2  503  502 -0.18964144555E+02  0.18137081834E+02  0.93014516234E+02  0.96645189981E+02  0.00000000000E+00 0.  1.
</event>
<event>
 4    1  0.2243645E+005  0.2533511E+02  0.7546771E-02  0.1465089E+00
          2   -1    0    0  502    0  0.00000000000E+00  0.00000000000E+00  0.56205937202E+03  0.56205937202E+03  0.00000000000E+00 0.  1.
         21   -1    0    0  503  502 -0.00000000000E+00 -0.00000000000E+00 -0.10878752889E+02  0.10878752889E+02  0.00000000000E+00 0.  1.
          2    1    1    2  501    0 -0.65472445552E+01  0.24474503412E+02  0.54660660622E+03  0.54719342987E+03  0.00000000000E+00 0.  1.
         21    1    1    2  503  501  0.65472445552E+01 -0.24474503412E+02  0.45740129094E+01  0.25744695039E+02  0.00000000000E+00 0.  1.
</event>
<event>
 4    1  0.2243645E+005  0.2885669E+02  0.7546771E-02  0.1429799E+00
          2   -1    0    0  503    0  0.00000000000E+00  0.00000000000E+00  0.71191522266E+03  0.71191522266E+03  0.00000000000E+00 0. -1.
         21   -1    0    0  501  502 -0.00000000000E+00 -0.00000000000E+00 -0.23663083862E+02  0.23663083862E+02  0.00000000000E+00 0. -1.
          2    1    1    2  501    0  0.19155801133E+02  0.21581561513E+02  0.70271006061E+03  0.70330230897E+03  0.00000000000E+00 0. -1.
         21    1    1    2  503  502 -0.19155801133E+02 -0.21581561513E+02 -0.14457921820E+02  0.32275997548E+02  0.00000000000E+00 0. -1.
</event>
<event>
 4    1  0.2243645E+005  0.2144119E+02  0.7546771E-02  0.1513058E+00
          2   -1    0    0  503    0  0.00000000000E+00  0.00000000000E+00  0.39665415388E+03  0.39665415388E+03  0.00000000000E+00 0. -1.
         21   -1    0    0  501  502 -0.00000000000E+00 -0.00000000000E+00 -0.10735835268E+02  0.10735835268E+02  0.00000000000E+00 0. -1.
          2    1    1    2  501    0  0.16502340122E+02 -0.13689323872E+02  0.38534508376E+03  0.38594113333E+03  0.00000000000E+00 0. -1.
         21    1    1    2  503  502 -0.16502340122E+02  0.13689323872E+02  0.57323484770E+00  0.21448855815E+02  0.00000000000E+00 0. -1.
</event>
<event>
 4    1  0.2243645E+005  0.2035305E+02  0.7546771E-02  0.1528705E+00
          2   -1    0    0  502    0  0.00000000000E+00  0.00000000000E+00  0.11071771967E+02  0.11071771967E+02  0.00000000000E+00 0.  1.
         21   -1    0    0  503  502 -0.00000000000E+00 -0.00000000000E+00 -0.11241411844E+04  0.11241411844E+04  0.00000000000E+00 0. -1.
          2    1    1    2  501    0  0.16409789276E+02  0.12040157555E+02  0.15460503883E+01  0.20411684149E+02  0.00000000000E+00 0.  1.
         21    1    1    2  503  501 -0.16409789276E+02 -0.12040157555E+02 -0.11146154629E+04  0.11148012723E+04  0.00000000000E+00 0. -1.
</event>
<event>
 4    1  0.2243645E+005  0.2105132E+02  0.7546771E-02  0.1518533E+00
          2   -1    0    0  503    0  0.00000000000E+00  0.00000000000E+00  0.11631211130E+04  0.11631211130E+04  0.00000000000E+00 0.  1.
         21   -1    0    0  501  502 -0.00000000000E+00 -0.00000000000E+00 -0.16448605445E+01  0.16448605445E+01  0.00000000000E+00 0. -1.
          2    1    1    2  501    0 -0.27964659644E+01  0.20864754339E+02  0.10912341676E+04  0.10914372024E+04  0.00000000000E+00 0.  1.
         21    1    1    2  503  502  0.27964659644E+01 -0.20864754339E+02  0.70242084771E+02  0.73328771082E+02  0.00000000000E+00 0. -1.
</event>
<event>
 4    1  0.2243645E+005  0.4044058E+02  0.7546771E-02  0.1345923E+00
          2   -1    0    0  503    0  0.00000000000E+00  0.00000000000E+00  0.15402417877E+02  0.15402417877E+02  0.00000000000E+00 0. -1.
         21   -1    0    0  501  502 -0.00000000000E+00 -0.00000000000E+00 -0.17038410936E+03  0.17038410936E+03  0.00000000000E+00 0. -1.
          2    1    1    2  501    0 -0.32914423667E+02 -0.23496413642E+02 -0.20468057018E+02  0.45325292028E+02  0.00000000000E+00 0. -1.
         21    1    1    2  503  502  0.32914423667E+02  0.23496413642E+02 -0.13451363446E+03  0.14046123521E+03  0.00000000000E+00 0. -1.
</event>
<event>
 4    1  0.2243645E+005  0.4232857E+02  0.7546771E-02  0.1335355E+00
          2   -1    0    0  503    0  0.00000000000E+00  0.00000000000E+00  0.22220585938E+03  0.22220585938E+03  0.00000000000E+00 0. -1.
         21   -1    0    0  501  502 -0.00000000000E+00 -0.00000000000E+00 -0.68568189229E+02  0.68568189229E+02  0.00000000000E+00 0. -1.
          2    1    1    2  501    0 -0.34320265895E+02 -0.24775540335E+02  0.21339018888E+03  0.21754788154E+03  0.00000000000E+00 0. -1.
         21    1    1    2  503  502  0.34320265895E+02  0.24775540335E+02 -0.59752518729E+02  0.73226167075E+02  0.00000000000E+00 0. -1.
</event>
<event>
 4    1  0.2243645E+005  0.3152590E+02  0.7546771E-02  0.1406784E+00
          2   -1    0    0  502    0  0.00000000000E+00  0.00000000000E+00  0.19236138677E+03  0.19236138677E+03  0.00000000000E+00 0. -1.
         21   -1    0    0  503  502 -0.00000000000E+00 -0.00000000000E+00 -0.87559270297E+01  0.87559270297E+01  0.00000000000E+00 0. -1.
          2    1    1    2  501    0 -0.19903170244E+02  0.24448854042E+02  0.15618495890E+03  0.15933494292E+03  0.00000000000E+00 0. -1.
         21    1    1    2  503  501  0.19903170244E+02 -0.24448854042E+02  0.27420500840E+02  0.41782370877E+02  0.00000000000E+00 0. -1.
</event>
<event>
 4    1  0.2243645E+005  0.2903752E+02  0.7546771E-02  0.1428149E+00
          2   -1    0    0  502    0  0.00000000000E+00  0.00000000000E+00  0.14718256526E+03  0.14718256526E+03  0.00000000000E+00 0. -1.
         21   -1    0    0  503  502 -0.00000000000E+00 -0.00000000000E+00 -0.23787931643E+02  0.23787931643E+02  0.00000000000E+00 0. -1.
          2    1    1    2  501    0 -0.28565802129E+02  0.52127130480E+01  0.13618105018E+03  0.13924243555E+03  0.00000000000E+00 0. -1.
         21    1    1    2  503  501  0.28565802129E+02 -0.52127130480E+01 -0.12786416567E+02  0.31728061353E+02  0.00000000000E+00 0. -1.
</event>
<event>
 4    1  0.2243645E+005  0.5286546E+02  0.7546771E-02  0.1286205E+00
          2   -1    0    0  503    0  0.00000000000E+00  0.00000000000E+00  0.76419597640E+03  0.76419597640E+03  0.00000000000E+00 0.  1.
         21   -1    0    0  501  502 -0.00000000000E+00 -0.00000000000E+00 -0.58855434220E+01  0.58855434220E+01  0.00000000000E+00 0.  1.
          2    1    1    2  501    0 -0.38867249537E+02 -0.35834249215E+02  0.61608096666E+03  0.61834497975E+03  0.00000000000E+00 0.  1.
         21    1    1    2  503  502  0.38867249537E+02  0.35834249215E+02  0.14222946632E+03  0.15173654007E+03  0.00000000000E+00 0.  1.
</event>
<event>
 4    1  0.2243645E+005  0.4700822E+02  0.7546771E-02  0.1311692E+00
          2   -1    0    0  503    0  0.00000000000E+00  0.00000000000E+00  0.61696243142E+01  0.61696243142E+01  0.00000000000E+00 0.  1.
         21   -1    0    0  501  502 -0.00000000000E+00 -0.00000000000E+00 -0.41370499585E+03  0.41370499585E+03  0.00000000000E+00 0.  1.
          2    1    1    2  501    0  0.41603144099E+02  0.21884953788E+02 -0.12684957777E+03  0.13527966655E+03  0.00000000000E+00 0.  1.
         21    1    1    2  503  502 -0.41603144099E+02 -0.21884953788E+02 -0.28068579376E+03  0.28459495361E+03  0.00000000000E+00 0.  1.
</event>
<event>
 4    1  0.2243645E+005  0.2324064E+02  0.7546771E-02  0.1489498E+00
          2   -1    0    0  502    0  0.00000000000E+00  0.00000000000E+00  0.81963387375E+03  0.81963387375E+03  0.00000000000E+00 0.  1.
         21   -1    0    0  503  502 -0.00000000000E+00 -0.00000000000E+00 -0.42169309379E+01  0.42169309379E+01  0.00000000000E+00 0.  1.
          2    1    1    2  501    0 -0.10069252249E+02 -0.20946057427E+02  0.78608130558E+03  0.78642478734E+03  0.00000000000E+00 0.  1.
         21    1    1    2  503  501  0.10069252249E+02  0.20946057427E+02  0.29335637232E+02  0.37426017347E+02  0.00000000000E+00 0.  1.
</event>
<event>
 4    1  0.2243645E+005  0.2039202E+02  0.7546771E-02  0.1528125E+00
          2   -1    0    0  503    0  0.00000000000E+00  0.00000000000E+00  0.25888549239E+03  0.25888549239E+03  0.00000000000E+00 0.  1.
         21   -1    0    0  501  502 -0.00000000000E+00 -0.00000000000E+00 -0.11763466956E+02  0.11763466956E+02  0.00000000000E+00 0.  1.
          2    1    1    2  501    0 -0.13687899994E+02  0.15115416698E+02  0.24930756734E+03  0.25014015583E+03  0.00000000000E+00 0.  1.
         21    1    1    2  503  502  0.13687899994E+02 -0.15115416698E+02 -0.21855419023E+01  0.20508803515E+02  0.00000000000E+00 0.  1.
</event>
<event>
 4    1  0.2243645E+005  0.2077285E+02  0.7546771E-02  0.1522533E+00
          2   -1    0    0  503    0  0.00000000000E+00  0.00000000000E+00  0.23826282235E+03  0.23826282235E+03  0.00000000000E+00 0. -1.
         21   -1    0    0  501  502 -0.00000000000E+00 -0.00000000000E+00 -0.10279750376E+03  0.10279750376E+03  0.00000000000E+00 0.  1.
          2    1    1    2  501    0  0.20767891665E+02  0.45373751433E+00  0.23675395857E+03  0.23766351866E+03  0.00000000000E+00 0. -1.
         21    1    1    2  503  502 -0.20767891665E+02 -0.45373751433E+00 -0.10128863999E+03  0.10339680746E+03  0.00000000000E+00 0.  1.
</event>
<event>
 4    1  0.2243645E+005  0.2121189E+02  0.7546771E-02  0.1516261E+00
          2   -1    0    0  503    0  0.00000000000E+00  0.00000000000E+00  0.47776763728E+03  0.47776763728E+03  0.00000000000E+00 0.  1.
         21   -1    0    0  501  502 -0.00000000000E+00 -0.00000000000E+00 -0.91236543556E+01  0.91236543556E+01  0.00000000000E+00 0. -1.
          2    1    1    2  501    0  0.33637366863E+01 -0.20943488261E+02  0.46486100125E+03  0.46534470547E+03  0.00000000000E+00 0.  1.
         21    1    1    2  503  502 -0.33637366863E+01  0.20943488261E+02  0.37829816727E+01  0.21546586165E+02  0.00000000000E+00 0. -1.
</event>
<event>
 4    1  0.2243645E+005  0.2118084E+02  0.7546771E-02  0.1516698E+00
          2   -1    0    0  503    0  0.00000000000E+00  0.00000000000E+00  0.16343520364E+02  0.16343520364E+02  0.00000000000E+00 0.  1.
         21   -1    0    0  501  502 -0.00000000000E+00 -0.00000000000E+00 -0.32630146242E+02  0.32630146242E+02  0.00000000000E+00 0. -1.
          2    1    1    2  501    0  0.13503004374E+02 -0.16318609265E+02  0.16132751153E+01  0.21242193673E+02  0.00000000000E+00 0.  1.
         21    1    1    2  503  502 -0.13503004374E+02  0.16318609265E+02 -0.17899900993E+02  0.27731472933E+02  0.00000000000E+00 0. -1.
</event>
<event>
 4    1  0.2243645E+005  0.2180529E+02  0.7546771E-02  0.1508071E+00
          2   -1    0    0  503    0  0.00000000000E+00  0.00000000000E+00  0.66807550797E+02  0.66807550797E+02  0.00000000000E+00 0. -1.
         21   -1    0    0  501  502 -0.00000000000E+00 -0.00000000000E+00 -0.11562096283E+03  0.11562096283E+03  0.00000000000E+00 0. -1.
          2    1    1    2  501    0  0.13644727995E+02  0.17008588548E+02  0.63955630832E+02  0.67570654885E+02  0.00000000000E+00 0. -1.
         21    1    1    2  503  502 -0.13644727995E+02 -0.17008588548E+02 -0.11276904286E+03  0.11485785874E+03  0.00000000000E+00 0. -1.
</event>
<event>
 4    1  0.2243645E+005  0.2463732E+02  0.7546771E-02  0.1472902E+00
          2   -1    0    0  503    0  0.00000000000E+00  0.00000000000E+00  0.95081382091E+02  0.95081382091E+02  0.00000000000E+00 0.  1.
         21   -1    0    0  501  502 -0.00000000000E+00 -0.00000000000E+00 -0.19752024063E+02  0.19752024063E+02  0.00000000000E+00 0.  1.
          2    1    1    2  501    0  0.14003060411E+02 -0.20270962284E+02  0.84899947407E+02  0.88402481201E+02  0.00000000000E+00 0.  1.
         21    1    1    2  503  502 -0.14003060411E+02  0.20270962284E+02 -0.95705893789E+01  0.26430924953E+02  0.00000000000E+00 0.  1.
</event>
<event>
 4    1  0.2243645E+005  0.2554734E+02  0.7546771E-02  0.1462772E+00
          2   -1    0    0  502    0  0.00000000000E+00  0.00000000000E+00  0.17815161425E+03  0.17815161425E+03  0.00000000000E+00 0. -1.
         21   -1    0    0  503  502 -0.00000000000E+00 -0.00000000000E+00 -0.68029457009E+02  0.68029457009E+02  0.00000000000E+00 0. -1.
          2    1    1    2  501    0 -0.19195845029E+02 -0.16857825067E+02  0.17479139156E+03  0.17664851342E+03  0.00000000000E+00 0. -1.
         21    1    1    2  503  501  0.19195845029E+02  0.16857825067E+02 -0.64669234315E+02  0.69532557836E+02  0.00000000000E+00 0. -1.
</event>
<event>
 4    1  0.2243645E+005  0.2037490E+02  0.7546771E-02  0.1528380E+00
          2   -1    0    0  502    0  0.00000000000E+00  0.00000000000E+00  0.14990109655E+03  0.14990109655E+03  0.00000000000E+00 0.  1.
         21   -1    0    0  503  502 -0.00000000000E+00 -0.00000000000E+00 -0.35459799629E+01  0.35459799629E+01  0.00000000000E+00 0. -1.
          2    1    1    2  501    0  0.14309713172E+02  0.14504087496E+02  0.10908239243E+03  0.11096893612E+03  0.00000000000E+00 0.  1.
         21    1    1    2  503  501 -0.14309713172E+02 -0.14504087496E+02  0.37272724152E+02  0.42478140389E+02  0.00000000000E+00 0. -1.
</event>
<event>
 4    1  0.2243645E+005  0.2215205E+02  0.7546771E-02  0.1503430E+00
          2   -1    0    0  503    0  0.00000000000E+00  0.00000000000E+00  0.37302151925E+03  0.37302151925E+03  0.00000000000E+00 0. -1.
         21   -1    0    0  501  502 -0.00000000000E+00 -0.00000000000E+00 -0.36929990755E+01  0.36929990755E+01  0.00000000000E+00 0. -1.
          2    1    1    2  501    0 -0.64051501781E+01 -0.21205828686E+02  0.33579476407E+03  0.33652464500E+03  0.00000000000E+00 0. -1.
         21    1    1    2  503  502  0.64051501781E+01  0.21205828686E+02  0.33533756108E+02  0.40189873324E+02  0.00000000000E+00 0. -1.
</event>
<event>
 4    1  0.2243645E+005  0.2303148E+02  0.7546771E-02  0.1492103E+00
          2   -1    0    0  503    0  0.00000000000E+00  0.00000000000E+00  0.66579682961E+03  0.66579682961E+03  0.00000000000E+00 0.  1.
         21   -1    0    0  501  502 -0.00000000000E+00 -0.00000000000E+00 -0.40403893116E+01  0.40403893116E+01  0.00000000000E+00 0.  1.
          2    1    1    2  501    0 -0.22419668559E+02 -0.52732958332E+01  0.63096468498E+03  0.63138489281E+03  0.00000000000E+00 0.  1.
         21    1    1    2  503  502  0.22419668559E+02  0.52732958332E+01  0.30791755322E+02  0.38452326107E+02  0.00000000000E+00 0.  1.
</event>
<event>
 4    1  0.2243645E+005  0.2299331E+02  0.7546771E-02  0.1492582E+00
          2   -1    0    0  503    0  0.00000000000E+00  0.00000000000E+00  0.74227981013E+03  0.74227981013E+03  0.00000000000E+00 0.  1.
         21   -1    0    0  501  502 -0.00000000000E+00 -0.00000000000E+00 -0.10019437932E+01  0.10019437932E+01  0.00000000000E+00 0.  1.
          2    1    1    2  501    0 -0.99620438101E+01  0.20723171214E+02  0.57047230278E+03  0.57093549581E+03  0.00000000000E+00 0.  1.
         21    1    1    2  503  502  0.99620438101E+01 -0.20723171214E+02  0.17080556355E+03  0.17234625811E+03  0.00000000000E+00 0.  1.
</event>
<event>
 4    1  0.2243645E+005  0.4626671E+02  0.7546771E-02  0.1315224E+00
          2   -1    0    0  503    0  0.00000000000E+00  0.00000000000E+00  0.19867789063E+04  0.19867789063E+04  0.00000000000E+00 0. -1.
         21   -1    0    0  501  502 -0.00000000000E+00 -0.00000000000E+00 -0.11014381300E+01  0.11014381300E+01  0.00000000000E+00 0. -1.
          2    1    1    2  501    0 -0.45896573726E+02  0.58406537976E+01  0.11395923657E+04  0.11405311783E+04  0.00000000000E+00 0. -1.
         21    1    1    2  503  502  0.45896573726E+02 -0.58406537976E+01  0.84608510243E+03  0.84734916609E+03  0.00000000000E+00 0. -1.
</event>
<event>
 4    1  0.2243645E+005  0.4825134E+02  0.7546771E-02  0.1305937E+00
          2   -1    0    0  502    0  0.00000000000E+00  0.00000000000E+00  0.93086555452E+03  0.93086555452E+03  0.00000000000E+00 0. -1.
         21   -1    0    0  503  502 -0.00000000000E+00 -0.00000000000E+00 -0.10500126326E+02  0.10500126326E+02  0.00000000000E+00 0. -1.
          2    1    1    2  501    0  0.41608139176E+02 -0.24432661101E+02  0.87100078622E+03  0.87233626646E+03  0.00000000000E+00 0. -1.
         21    1    1    2  503  501 -0.41608139176E+02  0.24432661101E+02  0.49364641974E+02  0.69029414393E+02  0.00000000000E+00 0. -1.
</event>
<event>
 4    1  0.2243645E+005  0.2299151E+02  0.7546771E-02  0.1492605E+00
          2   -1    0    0  503    0  0.00000000000E+00  0.00000000000E+00  0.84722130827E+03  0.84722130827E+03  0.00000000000E+00 0. -1.
         21   -1    0    0  501  502 -0.00000000000E+00 -0.00000000000E+00 -0.65376457544E+00  0.65376457544E+00  0.00000000000E+00 0. -1.
          2    1    1    2  501    0 -0.10346025276E+02 -0.20532152422E+02  0.33272560018E+03  0.33351901676E+03  0.00000000000E+00 0. -1.
         21    1    1    2  503  502  0.10346025276E+02  0.20532152422E+02  0.51384194351E+03  0.51435605609E+03  0.00000000000E+00 0. -1.
</event>
<event>
 4    1  0.2243645E+005  0.2014014E+02  0.7546771E-02  0.1531904E+00
          2   -1    0    0  502    0  0.00000000000E+00  0.00000000000E+00  0.10658732446E+04  0.10658732446E+04  0.00000000000E+00 0. -1.
         21   -1    0    0  503  502 -0.00000000000E+00 -0.00000000000E+00 -0.96655948715E+00  0.96655948715E+00  0.00000000000E+00 0.  1.
          2    1    1    2  501    0  0.19144982761E+02 -0.62525910876E+01  0.94779428381E+03  0.94800824347E+03  0.00000000000E+00 0. -1.
         21    1    1    2  503  501 -0.19144982761E+02  0.62525910876E+01  0.11711240128E+03  0.11883156060E+03  0.00000000000E+00 0.  1.
</event>
<event>
 4    1  0.2243645E+005  0.2163055E+02  0.7546771E-02  0.1510450E+00
          2   -1    0    0  503    0  0.00000000000E+00  0.00000000000E+00  0.23292692640E+02  0.23292692640E+02  0.00000000000E+00 0. -1.
         21   -1    0    0  501  502 -0.00000000000E+00 -0.00000000000E+00 -0.26315386642E+02  0.26315386642E+02  0.00000000000E+00 0. -1.
          2    1    1    2  501    0  0.21469562570E+02 -0.26341381015E+01  0.10555799848E+02  0.24068770448E+02  0.00000000000E+00 0. -1.
         21    1    1    2  503  502 -0.21469562570E+02  0.26341381015E+01 -0.13578493850E+02  0.25539308834E+02  0.00000000000E+00 0. -1.
</event>
<event>
 4    1  0.2243645E+005  0.3464437E+02  0.7546771E-02  0.1383081E+00
          2   -1    0    0  503    0  0.00000000000E+00  0.00000000000E+00  0.48733535449E+03  0.48733535449E+03  0.00000000000E+00 0.  1.
         21   -1    0    0  501  502 -0.00000000000E+00 -0.00000000000E+00 -0.37418354620E+02  0.37418354620E+02  0.00000000000E+00 0. -1.
          2    1    1    2  501    0 -0.34004597397E+02 -0.66271938251E+01  0.47855367458E+03  0.47980605643E+03  0.00000000000E+00 0.  1.
         21    1    1    2  503  502  0.34004597397E+02  0.66271938251E+01 -0.28636674710E+02  0.44947652670E+02  0.00000000000E+00 0. -1.
</event>
<event>
 4    1  0.2243645E+005  0.2089154E+02  0.7546771E-02  0.1520819E+00
          2   -1    0    0  503    0  0.00000000000E+00  0.00000000000E+00  0.33144540340E+03  0.33144540340E+03  0.00000000000E+00 0. -1.
         21   -1    0    0  501  502 -0.00000000000E+00 -0.00000000000E+00 -0.64704755472E+02  0.64704755472E+02  0.00000000000E+00 0. -1.
          2    1    1    2  501    0 -0.20530593432E+02  0.38666634128E+01  0.32941949813E+03  0.33008129620E+03  0.00000000000E+00 0. -1.
         21    1    1    2  503  502  0.20530593432E+02 -0.38666634128E+01 -0.62678850200E+02  0.66068862674E+02  0.00000000000E+00 0. -1.
</event>
<event>
 4    1  0.2243645E+005  0.3246316E+02  0.7546771E-02  0.1399332E+00
          2   -1    0    0  503    0  0.00000000000E+00  0.00000000000E+00  0.47017527931E+03  0.47017527931E+03  0.00000000000E+00 0.  1.
         21   -1    0    0  501  502 -0.00000000000E+00 -0.00000000000E+00 -0.41051779877E+01  0.41051779877E+01  0.00000000000E+00 0. -1.
          2    1    1    2  501    0  0.29281571707E+02 -0.14015938630E+02  0.39281961190E+03  0.39415873005E+03  0.00000000000E+00 0.  1.
         21    1    1    2  503  502 -0.29281571707E+02  0.14015938630E+02  0.73250489417E+02  0.80121727248E+02  0.00000000000E+00 0. -1.
</event>
<event>
 4    1  0.2243645E+005  0.2189722E+02  0.7546771E-02  0.1506830E+00
          2   -1    0    0  502    0  0.00000000000E+00  0.00000000000E+00  0.11780698294E+03  0.11780698294E+03  0.00000000000E+00 0.  1.
         21   -1    0    0  503  502 -0.00000000000E+00 -0.00000000000E+00 -0.41055718319E+01  0.41055718319E+01  0.00000000000E+00 0.  1.
          2    1    1    2  501    0  0.16207684608E+02  0.14724109847E+02  0.51186272156E+02  0.55673359054E+02  0.00000000000E+00 0.  1.
         21    1    1    2  503  501 -0.16207684608E+02 -0.14724109847E+02  0.62515138955E+02  0.66239195721E+02  0.00000000000E+00 0.  1.
</event>
<event>
 4    1  0.2243645E+005  0.2202095E+02  0.7546771E-02  0.1505172E+00
          2   -1    0    0  502    0  0.00000000000E+00  0.00000000000E+00  0.73924513650E+01  0.73924513650E+01  0.00000000000E+00 0.  1.
         21   -1    0    0  503  502 -0.00000000000E+00 -0.00000000000E+00 -0.92279741626E+03  0.92279741626E+03  0.00000000000E+00 0.  1.
          2    1    1    2  501    0  0.17797460751E+02 -0.12968144759E+02 -0.94428621405E+01  0.23960175982E+02  0.00000000000E+00 0.  1.
         21    1    1    2  503  501 -0.17797460751E+02  0.12968144759E+02 -0.90596210276E+03  0.90622969165E+03  0.00000000000E+00 0.  1.
</event>
<event>
 4    1  0.2243645E+005  0.2040511E+02  0.7546771E-02  0.1527930E+00
          2   -1    0    0  503    0  0.00000000000E+00  0.00000000000E+00  0.50527855578E+03  0.50527855578E+03  0.00000000000E+00 0. -1.
         21   -1    0    0  501  502 -0.00000000000E+00 -0.00000000000E+00 -0.48852602513E+01  0.48852602513E+01  0.00000000000E+00 0. -1.
          2    1    1    2  501    0 -0.20083377270E+02  0.36092323240E+01  0.48277227279E+03  0.48320330708E+03  0.00000000000E+00 0. -1.
         21    1    1    2  503  502  0.20083377270E+02 -0.36092323240E+01  0.17621022743E+02  0.26960508954E+02  0.00000000000E+00 0. -1.
</event>
<event>
 4    1  0.2243645E+005  0.3977975E+02  0.7546771E-02  0.1349781E+00
          2   -1    0    0  503    0  0.00000000000E+00  0.00000000000E+00  0.13959337991E+03  0.13959337991E+03  0.00000000000E+00 0. -1.
         21   -1    0    0  501  502 -0.00000000000E+00 -0.00000000000E+00 -0.26171150811E+03  0.26171150811E+03  0.00000000000E+00 0.  1.
          2    1    1    2  501    0  0.26279403931E+02 -0.29863374944E+02  0.13519966408E+03  0.14093039914E+03  0.00000000000E+00 0. -1.
         21    1    1    2  503  502 -0.26279403931E+02  0.29863374944E+02 -0.25731779228E+03  0.26037448888E+03  0.00000000000E+00 0.  1.
</event>
<event>
 4    1  0.2243645E+005  0.4878899E+02  0.7546771E-02  0.1303510E+00
          2   -1    0    0  502    0  0.00000000000E+00  0.00000000000E+00  0.39460534007E+04  0.39460534007E+04  0.00000000000E+00 0.  1.
         21   -1    0    0  503  502 -0.00000000000E+00 -0.00000000000E+00 -0.85039402729E+00  0.85039402729E+00  0.00000000000E+00 0. -1.
          2    1    1    2  501    0  0.48710078159E+02 -0.27737811941E+01  0.30365284184E+04  0.30369203482E+04  0.00000000000E+00 0.  1.
         21    1    1    2  503  501 -0.48710078159E+02  0.27737811941E+01  0.90867458828E+03  0.90998344653E+03  0.00000000000E+00 0. -1.
</event>
<event>
 4    1  0.2243645E+005  0.2768814E+02  0.7546771E-02  0.1440815E+00
          2   -1    0    0  503    0  0.00000000000E+00  0.00000000000E+00  0.15195235274E+04  0.15195235274E+04  0.00000000000E+00 0. -1.
         21   -1    0    0  501  502 -0.00000000000E+00 -0.00000000000E+00 -0.76061299326E+00  0.76061299326E+00  0.00000000000E+00 0.  1.
          2    1    1    2  501    0 -0.22991324246E+02 -0.15428283205E+02  0.12004541057E+04  0.12007733728E+04  0.00000000000E+00 0. -1.
         21    1    1    2  503  502  0.22991324246E+02  0.15428283205E+02  0.31830880875E+03  0.31951076764E+03  0.00000000000E+00 0.  1.
</event>
<event>
 4    1  0.2243645E+005  0.5141459E+02  0.7546771E-02  0.1292153E+00
          2   -1    0    0  502    0  0.00000000000E+00  0.00000000000E+00  0.10580360770E+04  0.10580360770E+04  0.00000000000E+00 0. -1.
         21   -1    0    0  503  502 -0.00000000000E+00 -0.00000000000E+00 -0.27193984785E+02  0.27193984785E+02  0.00000000000E+00 0. -1.
          2    1    1    2  501    0 -0.45980379018E+02 -0.23005759711E+02  0.10325091296E+04  0.10337884517E+04  0.00000000000E+00 0. -1.
         21    1    1    2  503  501  0.45980379018E+02  0.23005759711E+02 -0.16670373502E+01  0.51441610084E+02  0.00000000000E+00 0. -1.
</event>
<event>
 4    1  0.2243645E+005  0.2069295E+02  0.7546771E-02  0.1523694E+00
          2   -1    0    0  503    0  0.00000000000E+00  0.00000000000E+00  0.54284064738E+03  0.54284064738E+03  0.00000000000E+00 0. -1.
         21   -1    0    0  501  502 -0.00000000000E+00 -0.00000000000E+00 -0.94011397736E+02  0.94011397736E+02  0.00000000000E+00 0.  1.
          2    1    1    2  501    0 -0.13902816329E+02  0.15326765786E+02  0.54150194434E+03  0.54189718008E+03  0.00000000000E+00 0. -1.
         21    1    1    2  503  502  0.13902816329E+02 -0.15326765786E+02 -0.92672694699E+02  0.94954865037E+02  0.00000000000E+00 0.  1.
</event>
<event>
 4    1  0.2243645E+005  0.3026333E+02  0.7546771E-02  0.1417322E+00
          2   -1    0    0  502    0  0.00000000000E+00  0.00000000000E+00  0.12095592892E+03  0.12095592892E+03  0.00000000000E+00 0. -1.
         21   -1    0    0  503  502 -0.00000000000E+00 -0.00000000000E+00 -0.26994429232E+02  0.26994429232E+02  0.00000000000E+00 0.  1.
          2    1    1    2  501    0 -0.29541651704E+00  0.30261883854E+02  0.10972899636E+03  0.11382583858E+03  0.00000000000E+00 0. -1.
         21    1    1    2  503  501  0.29541651704E+00 -0.30261883854E+02 -0.15767496669E+02  0.34124519579E+02  0.00000000000E+00 0.  1.
</event>
<event>
 4    1  0.2243645E+005  0.3333367E+02  0.7546771E-02  0.1392672E+00
          2   -1    0    0  502    0  0.00000000000E+00  0.00000000000E+00  0.60951592899E+02  0.60951592899E+02  0.00000000000E+00 0.  1.
         21   -1    0    0  503  502 -0.00000000000E+00 -0.00000000000E+00 -0.24151546802E+02  0.24151546802E+02  0.00000000000E+00 0.  1.
          2    1    1    2  501    0  0.21588263130E+02  0.25398438866E+02  0.39470237663E+02  0.51662689273E+02  0.00000000000E+00 0.  1.
         21    1    1    2  503  501 -0.21588263130E+02 -0.25398438866E+02 -0.26701915656E+01  0.33440450428E+02  0.00000000000E+00 0.  1.
</event>
<event>
 4    1  0.2243645E+005  0.2324330E+02  0.7546771E-02  0.1489465E+00
          2   -1    0    0  503    0  0.00000000000E+00  0.00000000000E+00  0.16902626039E+04  0.16902626039E+04  0.00000000000E+00 0.  1.
         21   -1    0    0  501  502 -0.00000000000E+00 -0.00000000000E+00 -0.58221053261E+00  0.58221053261E+00  0.00000000000E+00 0.  1.
          2    1    1    2  501    0 -0.18204438847E+02  0.14451629238E+02  0.14126052205E+04  0.14127964327E+04  0.00000000000E+00 0.  1.
         21    1    1    2  503  502  0.18204438847E+02 -0.14451629238E+02  0.27707517292E+03  0.27804838181E+03  0.00000000000E+00 0.  1.
</event>
<event>
 4    1  0.2243645E+005  0.2410304E+02  0.7546771E-02  0.1479093E+00
          2   -1    0    0  502    0  0.00000000000E+00  0.00000000000E+00  0.80795642536E+03  0.80795642536E+03  0.00000000000E+00 0. -1.
         21   -1    0    0  503  502 -0.00000000000E+00 -0.00000000000E+00 -0.41397010691E+03  0.41397010691E+03  0.00000000000E+00 0.  1.
          2    1    1    2  501    0  0.76664811411E+01 -0.22851292936E+02  0.80742558917E+03  0.80778526761E+03  0.00000000000E+00 0. -1.
         21    1    1    2  503  501 -0.76664811411E+01  0.22851292936E+02 -0.41343927072E+03  0.41414126466E+03  0.00000000000E+00 0.  1.
</event>
<event>
 4    1  0.2243645E+005  0.3150331E+02  0.7546771E-02  0.1406967E+00
          2   -1    0    0  503    0  0.00000000000E+00  0.00000000000E+00  0.22233819689E+02  0.22233819689E+02  0.00000000000E+00 0.  1.
         21   -1    0    0  501  502 -0.00000000000E+00 -0.00000000000E+00 -0.56419057534E+02  0.56419057534E+02  0.00000000000E+00 0.  1.
          2    1    1    2  501    0  0.25498369211E+02  0.18501127424E+02  0.87853753994E+00  0.31515557691E+02  0.00000000000E+00 0.  1.
         21    1    1    2  503  502 -0.25498369211E+02 -0.18501127424E+02 -0.35063775385E+02  0.47137319532E+02  0.00000000000E+00 0.  1.
</event>
<event>
 4    1  0.2243645E+005  0.2607656E+02  0.7546771E-02  0.1457111E+00
          2   -1    0    0  503    0  0.00000000000E+00  0.00000000000E+00  0.72397279136E+01  0.72397279136E+01  0.00000000000E+00 0.  1.
         21   -1    0    0  501  502 -0.00000000000E+00 -0.00000000000E+00 -0.49362840919E+03  0.49362840919E+03  0.00000000000E+00 0.  1.
          2    1    1    2  501    0  0.86472839076E+01 -0.24601047552E+02 -0.17841731188E+02  0.31596114182E+02  0.00000000000E+00 0.  1.
         21    1    1    2  503  502 -0.86472839076E+01  0.24601047552E+02 -0.46854695009E+03  0.46927202292E+03  0.00000000000E+00 0.  1.
</event>
<event>
 4    1  0.2243645E+005  0.2424457E+02  0.7546771E-02  0.1477435E+00
          2   -1    0    0  502    0  0.00000000000E+00  0.00000000000E+00  0.14170569232E+04  0.14170569232E+04  0.00000000000E+00 0.  1.
         21   -1    0    0  503  502 -0.00000000000E+00 -0.00000000000E+00 -0.36478893897E+01  0.36478893897E+01  0.00000000000E+00 0. -1.
          2    1    1    2  501    0  0.15089800606E+01  0.24197565801E+02  0.13754512784E+04  0.13756649368E+04  0.00000000000E+00 0.  1.
         21    1    1    2  503  501 -0.15089800606E+01 -0.24197565801E+02  0.37957755423E+02  0.45039875758E+02  0.00000000000E+00 0. -1.
</event>
<event>
 4    1  0.2243645E+005  0.4152663E+02  0.7546771E-02  0.1339765E+00
          2   -1    0    0  502    0  0.00000000000E+00  0.00000000000E+00  0.35997705611E+03  0.35997705611E+03  0.00000000000E+00 0. -1.
         21   -1    0    0  503  502 -0.00000000000E+00 -0.00000000000E+00 -0.15732940604E+02  0.15732940604E+02  0.00000000000E+00 0. -1.
          2    1    1    2  501    0  0.36174840772E+02 -0.20392208870E+02  0.32878828590E+03  0.33140035943E+03  0.00000000000E+00 0. -1.
         21    1    1    2  503  501 -0.36174840772E+02  0.20392208870E+02  0.15455829612E+02  0.44309637287E+02  0.00000000000E+00 0. -1.
</event>
<event>
 4    1  0.2243645E+005  0.3813415E+02  0.7546771E-02  0.1359781E+00
          2   -1    0    0  503    0  0.00000000000E+00  0.00000000000E+00  0.19308846775E+04  0.19308846775E+04  0.00000000000E+00 0.  1.
         21   -1    0    0  501  502 -0.00000000000E+00 -0.00000000000E+00 -0.69213921715E+01  0.69213921715E+01  0.00000000000E+00 0.  1.
          2    1    1    2  501    0 -0.36767824502E+02 -0.10116347543E+02  0.18766525928E+04  0.18770400015E+04  0.00000000000E+00 0.  1.
         21    1    1    2  503  502  0.36767824502E+02  0.10116347543E+02  0.47310692545E+02  0.60766068125E+02  0.00000000000E+00 0.  1.
</event>
<event>
 4    1  0.2243645E+005  0.3474304E+02  0.7546771E-02  0.1382379E+00
          2   -1    0    0  502    0  0.00000000000E+00  0.00000000000E+00  0.27878614351E+03  0.27878614351E+03  0.00000000000E+00 0.  1.
         21   -1    0    0  503  502 -0.00000000000E+00 -0.00000000000E+00 -0.50489816251E+01  0.50489816251E+01  0.00000000000E+00 0. -1.
          2    1    1    2  501    0  0.40242142247E+01 -0.34509189953E+02  0.19043148338E+03  0.19357486499E+03  0.00000000000E+00 0.  1.
         21    1    1    2  503  501 -0.40242142247E+01  0.34509189953E+02  0.83305678501E+02  0.90260260147E+02  0.00000000000E+00 0. -1.
</event>
<event>
 4    1  0.2243645E+005  0.2180484E+02  0.7546771E-02  0.1508077E+00
          2   -1    0    0  503    0  0.00000000000E+00  0.00000000000E+00  0.65425846145E+03  0.65425846145E+03  0.00000000000E+00 0. -1.
         21   -1    0    0  501  502 -0.00000000000E+00 -0.00000000000E+00 -0.10419337883E+01  0.10419337883E+01  0.00000000000E+00 0. -1.
          2    1    1    2  501    0  0.72983338898E+01 -0.20547149864E+02  0.50682920675E+03  0.50729803455E+03  0.00000000000E+00 0. -1.
         21    1    1    2  503  502 -0.72983338898E+01  0.20547149864E+02  0.14638732091E+03  0.14800236069E+03  0.00000000000E+00 0. -1.
</event>
<event>
 4    1  0.2243645E+005  0.4973043E+02  0.7546771E-02  0.1299345E+00
          2   -1    0    0  502    0  0.00000000000E+00  0.00000000000E+00  0.16173725015E+04  0.16173725015E+04  0.00000000000E+00 0. -1.
         21   -1    0    0  503  502 -0.00000000000E+00 -0.00000000000E+00 -0.20339708598E+01  0.20339708598E+01  0.00000000000E+00 0.  1.
          2    1    1    2  501    0  0.47505574985E+02  0.14708351306E+02  0.12110787157E+04  0.12120993238E+04  0.00000000000E+00 0. -1.
         21    1    1    2  503  501 -0.47505574985E+02 -0.14708351306E+02  0.40425981494E+03  0.40730714852E+03  0.00000000000E+00 0.  1.
</event>
<event>
 4    1  0.2243645E+005  0.2006968E+02  0.7546771E-02  0.1532973E+00
          2   -1    0    0  502    0  0.00000000000E+00  0.00000000000E+00  0.10629903264E+04  0.10629903264E+04  0.00000000000E+00 0.  1.
         21   -1    0    0  503  502 -0.00000000000E+00 -0.00000000000E+00 -0.48937228865E+00  0.48937228865E+00  0.00000000000E+00 0.  1.
          2    1    1    2  501    0  0.68175024862E+01 -0.18876273287E+02  0.78386596049E+03  0.78412284500E+03  0.00000000000E+00 0.  1.
         21    1    1    2  503  501 -0.68175024862E+01  0.18876273287E+02  0.27863499360E+03  0.27935685366E+03  0.00000000000E+00 0.  1.
</event>
<event>
 4    1  0.2243645E+005  0.2816061E+02  0.7546771E-02  0.1436285E+00
          2   -1    0    0  503    0  0.00000000000E+00  0.00000000000E+00  0.88219281738E+02  0.88219281738E+02  0.00000000000E+00 0.  1.
         21   -1    0    0  501  502 -0.00000000000E+00 -0.00000000000E+00 -0.29664254515E+03  0.29664254515E+03  0.00000000000E+00 0.  1.
          2    1    1    2  501    0 -0.16742941295E+02 -0.22642738566E+02  0.85281226147E+02  0.89810395981E+02  0.00000000000E+00 0.  1.
         21    1    1    2  503  502  0.16742941295E+02  0.22642738566E+02 -0.29370448956E+03  0.29505143091E+03  0.00000000000E+00 0.  1.
</event>
<event>
 4    1  0.2243645E+005  0.6450843E+02  0.7546771E-02  0.1245239E+00
          2   -1    0    0  503    0  0.00000000000E+00  0.00000000000E+00  0.25391906708E+04  0.25391906708E+04  0.00000000000E+00 0.  1.
         21   -1    0    0  501  502 -0.00000000000E+00 -0.00000000000E+00 -0.39756350263E+01  0.39756350263E+01  0.00000000000E+00 0. -1.
          2    1    1    2  501    0  0.64501726015E+02 -0.93030514374E+00  0.22424881057E+04  0.22434157533E+04  0.00000000000E+00 0.  1.
         21    1    1    2  503  502 -0.64501726015E+02  0.93030514374E+00  0.29272693013E+03  0.29975055255E+03  0.00000000000E+00 0. -1.
</event>
<event>
 4    1  0.2243645E+005  0.2636633E+02  0.7546771E-02  0.1454079E+00
          2   -1    0    0  502    0  0.00000000000E+00  0.00000000000E+00  0.78709314447E+03  0.78709314447E+03  0.00000000000E+00 0. -1.
         21   -1    0    0  503  502 -0.00000000000E+00 -0.00000000000E+00 -0.14008505326E+03  0.14008505326E+03  0.00000000000E+00 0.  1.
          2    1    1    2  501    0  0.63978860223E+01  0.25578315901E+02  0.78562938160E+03  0.78607169420E+03  0.00000000000E+00 0. -1.
         21    1    1    2  503  501 -0.63978860223E+01 -0.25578315901E+02 -0.13862129039E+03  0.14110650354E+03  0.00000000000E+00 0.  1.
</event>
<event>
 4    1  0.2243645E+005  0.3209818E+02  0.7546771E-02  0.1402198E+00
          2   -1    0    0  503    0  0.00000000000E+00  0.00000000000E+00  0.11454896848E+01  0.11454896848E+01  0.00000000000E+00 0.  1.
         21   -1    0    0  501  502 -0.00000000000E+00 -0.00000000000E+00 -0.16759845060E+04  0.16759845060E+04  0.00000000000E+00 0.  1.
          2    1    1    2  501    0  0.32063779419E+02 -0.14857260272E+01 -0.26661637354E+03  0.26854158704E+03  0.00000000000E+00 0.  1.
         21    1    1    2  503  502 -0.32063779419E+02  0.14857260272E+01 -0.14082226427E+04  0.14085884086E+04  0.00000000000E+00 0.  1.
</event>
<event>
 4    1  0.2243645E+005  0.2137182E+02  0.7546771E-02  0.1514022E+00
          2   -1    0    0  503    0  0.00000000000E+00  0.00000000000E+00  0.23919044387E+01  0.23919044387E+01  0.00000000000E+00 0. -1.
         21   -1    0    0  501  502 -0.00000000000E+00 -0.00000000000E+00 -0.20399340546E+03  0.20399340546E+03  0.00000000000E+00 0.  1.
          2    1    1    2  501    0 -0.68631446717E+01  0.20239856779E+02 -0.74715551574E+02  0.77712085316E+02  0.00000000000E+00 0. -1.
         21    1    1    2  503  502  0.68631446717E+01 -0.20239856779E+02 -0.12688594945E+03  0.12867322458E+03  0.00000000000E+00 0.  1.
</event>
<event>
 4    1  0.2243645E+005  0.2344583E+02  0.7546771E-02  0.1486974E+00
          2   -1    0    0  503    0  0.00000000000E+00  0.00000000000E+00  0.90042017608E+03  0.90042017608E+03  0.00000000000E+00 0. -1.
         21   -1    0    0  501  502 -0.00000000000E+00 -0.00000000000E+00 -0.12549540971E+01  0.12549540971E+01  0.00000000000E+00 0. -1.
          2    1    1    2  501    0 -0.78777690660E+01 -0.22082749369E+02  0.77265657827E+03  0.77301222177E+03  0.00000000000E+00 0. -1.
         21    1    1    2  503  502  0.78777690660E+01  0.22082749369E+02  0.12650864371E+03  0.12866290840E+03  0.00000000000E+00 0. -1.
</event>
<event>
 4    1  0.2243645E+005  0.2876225E+02  0.7546771E-02  0.1430666E+00
          2   -1    0    0  503    0  0.00000000000E+00  0.00000000000E+00  0.24839682784E+04  0.24839682784E+04  0.00000000000E+00 0. -1.
         21   -1    0    0  501  502 -0.00000000000E+00 -0.00000000000E+00 -0.42033794095E+00  0.42033794095E+00  0.00000000000E+00 0.  1.
          2    1    1    2  501    0 -0.56642646714E+01 -0.28198990849E+02  0.18078647046E+04  0.18080934868E+04  0.00000000000E+00 0. -1.
         21    1    1    2  503  502  0.56642646714E+01  0.28198990849E+02  0.67568323593E+03  0.67629512958E+03  0.00000000000E+00 0.  1.
</event>
<event>
 4    1  0.2243645E+005  0.2090766E+02  0.7546771E-02  0.1520587E+00
          2   -1    0    0  502    0  0.00000000000E+00  0.00000000000E+00  0.16161577078E+03  0.16161577078E+03  0.00000000000E+00 0. -1.
         21   -1    0    0  503  502 -0.00000000000E+00 -0.00000000000E+00 -0.43133702354E+01  0.43133702354E+01  0.00000000000E+00 0. -1.
          2    1    1    2  501    0  0.18027248039E+00  0.20906881721E+02  0.12931655762E+03  0.13099581014E+03  0.00000000000E+00 0. -1.
         21    1    1    2  503  501 -0.18027248039E+00 -0.20906881721E+02  0.27985842933E+02  0.34933330876E+02  0.00000000000E+00 0. -1.
</event>
<event>
 4    1  0.2243645E+005  0.2048076E+02  0.7546771E-02  0.1526809E+00
          2   -1    0    0  503    0  0.00000000000E+00  0.00000000000E+00  0.50294442216E+02  0.50294442216E+02  0.00000000000E+00 0. -1.
         21   -1    0    0  501  502 -0.00000000000E+00 -0.00000000000E+00 -0.87592568075E+02  0.87592568075E+02  0.00000000000E+00 0. -1.
          2    1    1    2  501    0  0.19254142167E+02 -0.69813842610E+01  0.46930130541E+02  0.51204480950E+02  0.00000000000E+00 0. -1.
         21    1    1    2  503  502 -0.19254142167E+02  0.69813842610E+01 -0.84228256400E+02  0.86682529341E+02  0.00000000000E+00 0. -1.
</event>
<event>
 4    1  0.2243645E+005  0.2070570E+02  0.7546771E-02  0.1523508E+00
          2   -1    0    0  503    0  0.00000000000E+00  0.00000000000E+00  0.36448958252E+03  0.36448958252E+03  0.00000000000E+00 0.  1.
         21   -1    0    0  501  502 -0.00000000000E+00 -0.00000000000E+00 -0.15701307375E+03  0.15701307375E+03  0.00000000000E+00 0.  1.
          2    1    1    2  501    0 -0.18744354603E+01  0.20620683218E+02  0.36351105924E+03  0.36410028327E+03  0.00000000000E+00 0.  1.
         21    1    1    2  503  502  0.18744354603E+01 -0.20620683218E+02 -0.15603455047E+03  0.15740237300E+03  0.00000000000E+00 0.  1.
</event>
<event>
 4    1  0.2243645E+005  0.2211989E+02  0.7546771E-02  0.1503856E+00
          2   -1    0    0  503    0  0.00000000000E+00  0.00000000000E+00  0.20531017383E+03  0.20531017383E+03  0.00000000000E+00 0.  1.
         21   -1    0    0  501  502 -0.00000000000E+00 -0.00000000000E+00 -0.26252334082E+01  0.26252334082E+01  0.00000000000E+00 0.  1.
          2    1    1    2  501    0 -0.19177354016E+02 -0.11023554193E+02  0.13291260307E+03  0.13474067578E+03  0.00000000000E+00 0.  1.
         21    1    1    2  503  502  0.19177354016E+02  0.11023554193E+02  0.69772337355E+02  0.73194731464E+02  0.00000000000E+00 0.  1.
</event>
<event>
 4    1  0.2243645E+005  0.3630597E+02  0.7546771E-02  0.1371607E+00
          2   -1    0    0  503    0  0.00000000000E+00  0.00000000000E+00  0.14573021306E+03  0.14573021306E+03  0.00000000000E+00 0.  1.
         21   -1    0    0  501  502 -0.00000000000E+00 -0.00000000000E+00 -0.90860575462E+01  0.90860575462E+01  0.00000000000E+00 0.  1.
          2    1    1    2  501    0  0.13497269651E+02 -0.33703816898E+02  0.63115878085E+02  0.72813031993E+02  0.00000000000E+00 0.  1.
         21    1    1    2  503  502 -0.13497269651E+02  0.33703816898E+02  0.73528277433E+02  0.82003238617E+02  0.00000000000E+00 0.  1.
</event>
<event>
 4    1  0.2243645E+005  0.3206167E+02  0.7546771E-02  0.1402488E+00
          2   -1    0    0  502    0  0.00000000000E+00  0.00000000000E+00  0.20848068982E+04  0.20848068982E+04  0.00000000000E+00 0.  1.
         21   -1    0    0  503  502 -0.00000000000E+00 -0.00000000000E+00 -0.10268623178E+01  0.10268623178E+01  0.00000000000E+00 0. -1.
          2    1    1    2  501    0 -0.22443124755E+02  0.22896650168E+02  0.17938258521E+04  0.17941123538E+04  0.00000000000E+00 0.  1.
         21    1    1    2  503  501  0.22443124755E+02 -0.22896650168E+02  0.28995418375E+03  0.29172140668E+03  0.00000000000E+00 0. -1.
</event>
<event>
 4    1  0.2243645E+005  0.3426487E+02  0.7546771E-02  0.1385806E+00
          2   -1    0    0  503    0  0.00000000000E+00  0.00000000000E+00  0.22000963550E+03  0.22000963550E+03  0.00000000000E+00 0. -1.
         21   -1    0    0  501  502 -0.00000000000E+00 -0.00000000000E+00 -0.65883509377E+01  0.65883509377E+01  0.00000000000E+00 0.  1.
          2    1    1    2  501    0  0.25451253929E+02  0.22941558049E+02  0.15609779672E+03  0.15981427832E+03  0.00000000000E+00 0. -1.
         21    1    1    2  503  502 -0.25451253929E+02 -0.22941558049E+02  0.57323487842E+02  0.66783708123E+02  0.00000000000E+00 0.  1.
</event>
<event>
 4    1  0.2243645E+005  0.2284517E+02  0.7546771E-02  0.1494452E+00
          2   -1    0    0  503    0  0.00000000000E+00  0.00000000000E+00  0.77336062393E+03  0.77336062393E+03  0.00000000000E+00 0. -1.
         21   -1    0    0  501  502 -0.00000000000E+00 -0.00000000000E+00 -0.89077791048E+00  0.89077791048E+00  0.00000000000E+00 0. -1.
          2    1    1    2  501    0 -0.22680948985E+02  0.27342640696E+01  0.57683482713E+03  0.57728703384E+03  0.00000000000E+00 0. -1.
         21    1    1    2  503  502  0.22680948985E+02 -0.27342640696E+01  0.19563501888E+03  0.19696436800E+03  0.00000000000E+00 0. -1.
</event>
<event>
 4    1  0.2243645E+005  0.2488954E+02  0.7546771E-02  0.1470043E+00
          2   -1    0    0  502    0  0.00000000000E+00  0.00000000000E+00  0.62267859602E+03  0.62267859602E+03  0.00000000000E+00 0.  1.
         21   -1    0    0  503  502 -0.00000000000E+00 -0.00000000000E+00 -0.15171017597E+02  0.15171017597E+02  0.00000000000E+00 0. -1.
          2    1    1    2  501    0  0.24728377213E+02 -0.28278068107E+01  0.61204414451E+03  0.61255001751E+03  0.00000000000E+00 0.  1.
         21    1    1    2  503  501 -0.24728377213E+02  0.28278068107E+01 -0.45365660868E+01  0.25299596100E+02  0.00000000000E+00 0. -1.
</event>
<event>
 4    1  0.2243645E+005  0.2039332E+02  0.7546771E-02  0.1528106E+00
          2   -1    0    0  502    0  0.00000000000E+00  0.00000000000E+00  0.42539282849E+03  0.42539282849E+03  0.00000000000E+00 0.  1.
         21   -1    0    0  503  502 -0.00000000000E+00 -0.00000000000E+00 -0.14589449494E+01  0.14589449494E+01  0.00000000000E+00 0.  1.
          2    1    1    2  501    0 -0.17944611618E+02 -0.96890775212E+01  0.33455020033E+03  0.33517118589E+03  0.00000000000E+00 0.  1.
         21    1    1    2  503  501  0.17944611618E+02  0.96890775212E+01  0.89383683215E+02  0.91680587555E+02  0.00000000000E+00 0.  1.
</event>
<event>
 4    1  0.2243645E+005  0.2000827E+02  0.7546771E-02  0.1533909E+00
          2   -1    0    0  503    0  0.00000000000E+00  0.00000000000E+00  0.83644319533E+03  0.83644319533E+03  0.00000000000E+00 0.  1.
         21   -1    0    0  501  502 -0.00000000000E+00 -0.00000000000E+00 -0.83465664380E+01  0.83465664380E+01  0.00000000000E+00 0. -1.
          2    1    1    2  501    0  0.47147505315E+01  0.19444846871E+02  0.82415388053E+03  0.82439671866E+03  0.00000000000E+00 0.  1.
         21    1    1    2  503  502 -0.47147505315E+01 -0.19444846871E+02  0.39427483556E+01  0.20393043103E+02  0.00000000000E+00 0. -1.
</event>
<event>
 4    1  0.2243645E+005  0.3191022E+02  0.7546771E-02  0.1403692E+00
          2   -1    0    0  502    0  0.00000000000E+00  0.00000000000E+00  0.54392346879E+03  0.54392346879E+03  0.00000000000E+00 0. -1.
         21   -1    0    0  503  502 -0.00000000000E+00 -0.00000000000E+00 -0.15069927092E+02  0.15069927092E+02  0.00000000000E+00 0. -1.
          2    1    1    2  501    0 -0.16237199197E+02 -0.27470262065E+02  0.52598768279E+03  0.52695474605E+03  0.00000000000E+00 0. -1.
         21    1    1    2  503  501  0.16237199197E+02  0.27470262065E+02  0.28658589045E+01  0.32038649831E+02  0.00000000000E+00 0. -1.
</event>
<event>
 4    1  0.2243645E+005  0.3116645E+02  0.7546771E-02  0.1409724E+00
          2   -1    0    0  503    0  0.00000000000E+00  0.00000000000E+00  0.29258679867E+03  0.29258679867E+03  0.00000000000E+00 0. -1.
         21   -1    0    0  501  502 -0.00000000000E+00 -0.00000000000E+00 -0.17902234614E+02  0.17902234614E+02  0.00000000000E+00 0. -1.
          2    1    1    2  501    0  0.17744850758E+02  0.25621634341E+02  0.27745473580E+03  0.27919971041E+03  0.00000000000E+00 0. -1.
         21    1    1    2  503  502 -0.17744850758E+02 -0.25621634341E+02 -0.27701717410E+01  0.31289322879E+02  0.00000000000E+00 0. -1.
</event>
<event>
 4    1  0.2243645E+005  0.2503532E+02  0.7546771E-02  0.1468409E+00
          2   -1    0    0  502    0  0.00000000000E+00  0.00000000000E+00  0.19630960991E+02  0.19630960991E+02  0.00000000000E+00 0. -1.
         21   -1    0    0  503  502 -0.00000000000E+00 -0.00000000000E+00 -0.90579299909E+02  0.90579299909E+02  0.00000000000E+00 0. -1.
          2    1    1    2  501    0  0.89748585009E+01  0.23371333075E+02  0.88681357777E+01  0.26559576935E+02  0.00000000000E+00 0. -1.
         21    1    1    2  503  501 -0.89748585009E+01 -0.23371333075E+02 -0.79816474696E+02  0.83650683964E+02  0.00000000000E+00 0. -1.
</event>
<event>
 4    1  0.2243645E+005  0.2466368E+02  0.7546771E-02  0.1472601E+00
          2   -1    0    0  503    0  0.00000000000E+00  0.00000000000E+00  0.83197471885E+03  0.83197471885E+03  0.00000000000E+00 0. -1.
         21   -1    0    0  501  502 -0.00000000000E+00 -0.00000000000E+00 -0.73519880166E+00  0.73519880166E+00  0.00000000000E+00 0. -1.
          2    1    1    2  501    0 -0.22483445239E+02 -0.10138636093E+02  0.44652222906E+03  0.44720286034E+03  0.00000000000E+00 0. -1.
         21    1    1    2  503  502  0.22483445239E+02  0.10138636093E+02  0.38471729099E+03  0.38550705731E+03  0.00000000000E+00 0. -1.
</event>
<event>
 4    1  0.2243645E+005  0.2731424E+02  0.7546771E-02  0.1444477E+00
          2   -1    0    0  503    0  0.00000000000E+00  0.00000000000E+00  0.14126103774E+03  0.14126103774E+03  0.00000000000E+00 0. -1.
         21   -1    0    0  501  502 -0.00000000000E+00 -0.00000000000E+00 -0.55498047192E+01  0.55498047192E+01  0.00000000000E+00 0. -1.
          2    1    1    2  501    0 -0.24083695656E+02  0.12885773888E+02  0.83996167958E+02  0.88325668957E+02  0.00000000000E+00 0. -1.
         21    1    1    2  503  502  0.24083695656E+02 -0.12885773888E+02  0.51715065066E+02  0.58485173505E+02  0.00000000000E+00 0. -1.
</event>
<event>
 4    1  0.2243645E+005  0.2823995E+02  0.7546771E-02  0.1435535E+00
          2   -1    0    0  502    0  0.00000000000E+00  0.00000000000E+00  0.10298708873E+04  0.10298708873E+04  0.00000000000E+00 0.  1.
         21   -1    0    0  503  502 -0.00000000000E+00 -0.00000000000E+00 -0.18586615130E+01  0.18586615130E+01  0.00000000000E+00 0.  1.
          2    1    1    2  501    0  0.28502060655E+01  0.28095746723E+02  0.90801861813E+03  0.90845765202E+03  0.00000000000E+00 0.  1.
         21    1    1    2  503  501 -0.28502060655E+01 -0.28095746723E+02  0.11999360769E+03  0.12327189682E+03  0.00000000000E+00 0.  1.
</event>
<event>
 4    1  0.2243645E+005  0.2611298E+02  0.7546771E-02  0.1456728E+00
          2   -1    0    0  503    0  0.00000000000E+00  0.00000000000E+00  0.31637223642E+03  0.31637223642E+03  0.00000000000E+00 0. -1.
         21   -1    0    0  501  502 -0.00000000000E+00 -0.00000000000E+00 -0.76914452596E+01  0.76914452596E+01  0.00000000000E+00 0.  1.
          2    1    1    2  501    0 -0.25940409923E+02  0.29971461864E+01  0.29180750628E+03  0.29297356275E+03  0.00000000000E+00 0. -1.
         21    1    1    2  503  502  0.25940409923E+02 -0.29971461864E+01  0.16873284885E+02  0.31090118929E+02  0.00000000000E+00 0.  1.
</event>
<event>
 4    1  0.2243645E+005  0.3638630E+02  0.7546771E-02  0.1371071E+00
          2   -1    0    0  502    0  0.00000000000E+00  0.00000000000E+00  0.10272229294E+04  0.10272229294E+04  0.00000000000E+00 0.  1.
         21   -1    0    0  503  502 -0.00000000000E+00 -0.00000000000E+00 -0.24444783857E+01  0.24444783857E+01  0.00000000000E+00 0.  1.
          2    1    1    2  501    0 -0.29898982530E+02  0.20736773081E+02  0.86636871348E+03  0.86713246428E+03  0.00000000000E+00 0.  1.
         21    1    1    2  503  501  0.29898982530E+02 -0.20736773081E+02  0.15840973753E+03  0.16253494350E+03  0.00000000000E+00 0.  1.
</event>
<event>
 4    1  0.2243645E+005  0.3493976E+02  0.7546771E-02  0.1380987E+00
          2   -1    0    0  503    0  0.00000000000E+00  0.00000000000E+00  0.33454296510E+03  0.33454296510E+03  0.00000000000E+00 0.  1.
         21   -1    0    0  501  502 -0.00000000000E+00 -0.00000000000E+00 -0.53618383007E+01  0.53618383007E+01  0.00000000000E+00 0.  1.
          2    1    1    2  501    0 -0.32344086435E+02 -0.13215398469E+02  0.26064417520E+03  0.26297561246E+03  0.00000000000E+00 0.  1.
         21    1    1    2  503  502  0.32344086435E+02  0.13215398469E+02  0.68536951601E+02  0.76929190941E+02  0.00000000000E+00 0.  1.
</event>
<event>
 4    1  0.2243645E+005  0.2221415E+02  0.7546771E-02  0.1502609E+00
          2   -1    0    0  502    0  0.00000000000E+00  0.00000000000E+00  0.75359762878E+03  0.75359762878E+03  0.00000000000E+00 0.  1.
         21   -1    0    0  503  502 -0.00000000000E+00 -0.00000000000E+00 -0.97062561894E+00  0.97062561894E+00  0.00000000000E+00 0. -1.
          2    1    1    2  501    0  0.14672289025E+01  0.22165638241E+02  0.59151975411E+03  0.59193672616E+03  0.00000000000E+00 0.  1.
         21    1    1    2  503  501 -0.14672289025E+01 -0.22165638241E+02  0.16110724905E+03  0.16263152823E+03  0.00000000000E+00 0. -1.
</event>
<event>
 4    1  0.2243645E+005  0.2343316E+02  0.7546771E-02  0.1487129E+00
          2   -1    0    0  503    0  0.00000000000E+00  0.00000000000E+00  0.65543855793E+03  0.65543855793E+03  0.00000000000E+00 0. -1.
         21   -1    0    0  501  502 -0.00000000000E+00 -0.00000000000E+00 -0.83797318547E+00  0.83797318547E+00  0.00000000000E+00 0. -1.
          2    1    1    2  501    0  0.18420909170E+02  0.14483884474E+02  0.32230795918E+03  0.32315868139E+03  0.00000000000E+00 0. -1.
         21    1    1    2  503  502 -0.18420909170E+02 -0.14483884474E+02  0.33229262556E+03  0.33311784973E+03  0.00000000000E+00 0. -1.
</event>
<event>
 4    1  0.2243645E+005  0.3513021E+02  0.7546771E-02  0.1379650E+00
          2   -1    0    0  503    0  0.00000000000E+00  0.00000000000E+00  0.26855163080E+03  0.26855163080E+03  0.00000000000E+00 0. -1.
         21   -1    0    0  501  502 -0.00000000000E+00 -0.00000000000E+00 -0.26807651194E+02  0.26807651194E+02  0.00000000000E+00 0.  1.
          2    1    1    2  501    0  0.28060899888E+02 -0.21135700219E+02  0.25529897246E+03  0.25770467063E+03  0.00000000000E+00 0. -1.
         21    1    1    2  503  502 -0.28060899888E+02  0.21135700219E+02 -0.13554992848E+02  0.37654611369E+02  0.00000000000E+00 0.  1.
</event>
<event>
 4    1  0.2243645E+005  0.2699926E+02  0.7546771E-02  0.1447616E+00
          2   -1    0    0  502    0  0.00000000000E+00  0.00000000000E+00  0.30471650683E+03  0.30471650683E+03  0.00000000000E+00 0.  1.
         21   -1    0    0  503  502 -0.00000000000E+00 -0.00000000000E+00 -0.36059251638E+01  0.36059251638E+01  0.00000000000E+00 0. -1.
          2    1    1    2  501    0 -0.26390495968E+02 -0.57010414438E+01  0.23999219944E+03  0.24150614059E+03  0.00000000000E+00 0.  1.
         21    1    1    2  503  501  0.26390495968E+02  0.57010414438E+01  0.61118382233E+02  0.66816291410E+02  0.00000000000E+00 0. -1.
</event>
<event>
 4    1  0.2243645E+005  0.2055116E+02  0.7546771E-02  0.1525771E+00
          2   -1    0    0  503    0  0.00000000000E+00  0.00000000000E+00  0.34628101751E+03  0.34628101751E+03  0.00000000000E+00 0. -1.
         21   -1    0    0  501  502 -0.00000000000E+00 -0.00000000000E+00 -0.25523823148E+03  0.25523823148E+03  0.00000000000E+00 0.  1.
          2    1    1    2  501    0 -0.53161597754E+01  0.19851665563E+02  0.34556155599E+03  0.34617212360E+03  0.00000000000E+00 0. -1.
         21    1    1    2  503  502  0.53161597754E+01 -0.19851665563E+02 -0.25451876996E+03  0.25534712539E+03  0.00000000000E+00 0.  1.
</event>
<event>
 4    1  0.2243645E+005  0.2482090E+02  0.7546771E-02  0.1470817E+00
          2   -1    0    0  502    0  0.00000000000E+00  0.00000000000E+00  0.43285055845E+03  0.43285055845E+03  0.00000000000E+00 0. -1.
         21   -1    0    0  503  502 -0.00000000000E+00 -0.00000000000E+00 -0.12875458056E+02  0.12875458056E+02  0.00000000000E+00 0.  1.
          2    1    1    2  501    0 -0.71236821709E+01  0.23776678054E+02  0.42017184605E+03  0.42090433293E+03  0.00000000000E+00 0. -1.
         21    1    1    2  503  501  0.71236821709E+01 -0.23776678054E+02 -0.19674564995E+00  0.24821683581E+02  0.00000000000E+00 0.  1.
</event>
<event>
 4    1  0.2243645E+005  0.2462737E+02  0.7546771E-02  0.1473015E+00
          2   -1    0    0  503    0  0.00000000000E+00  0.00000000000E+00  0.18826991747E+04  0.18826991747E+04  0.00000000000E+00 0. -1.
         21   -1    0    0  501  502 -0.00000000000E+00 -0.00000000000E+00 -0.56037068743E+00  0.56037068743E+00  0.00000000000E+00 0. -1.
          2    1    1    2  501    0  0.24211683848E+02  0.45057278518E+01  0.15550212426E+04  0.15552162461E+04  0.00000000000E+00 0. -1.
         21    1    1    2  503  502 -0.24211683848E+02 -0.45057278518E+01  0.32711756143E+03  0.32804329930E+03  0.00000000000E+00 0. -1.
</event>
<event>
 4    1  0.2243645E+005  0.2020313E+02  0.7546771E-02  0.1530953E+00
          2   -1    0    0  503    0  0.00000000000E+00  0.00000000000E+00  0.14065066910E+04  0.14065066910E+04  0.00000000000E+00 0.  1.
         21   -1    0    0  501  502 -0.00000000000E+00 -0.00000000000E+00 -0.92755135246E+00  0.92755135246E+00  0.00000000000E+00 0. -1.
          2    1    1    2  501    0 -0.19238558143E+02 -0.61680060563E+01  0.12861259112E+04  0.12862845820E+04  0.00000000000E+00 0.  1.
         21    1    1    2  503  502  0.19238558143E+02  0.61680060563E+01  0.11945322843E+03  0.12114966034E+03  0.00000000000E+00 0. -1.
</event>
<event>
 4    1  0.2243645E+005  0.2695395E+02  0.7546771E-02  0.1448071E+00
          2   -1    0    0  503    0  0.00000000000E+00  0.00000000000E+00  0.11501301497E+04  0.11501301497E+04  0.00000000000E+00 0. -1.
         21   -1    0    0  501  502 -0.00000000000E+00 -0.00000000000E+00 -0.23676247531E+01  0.23676247531E+01  0.00000000000E+00 0. -1.
          2    1    1    2  501    0  0.26952419948E+02 -0.28722808176E+00  0.10673066377E+04  0.10676469333E+04  0.00000000000E+00 0. -1.
         21    1    1    2  503  502 -0.26952419948E+02  0.28722808176E+00  0.80455887249E+02  0.84850841092E+02  0.00000000000E+00 0. -1.
</event>
<event>
 4    1  0.2243645E+005  0.1545910E+03  0.7546771E-02  0.1093002E+00
          2   -1    0    0  503    0  0.00000000000E+00  0.00000000000E+00  0.10819354443E+04  0.10819354443E+04  0.00000000000E+00 0. -1.
         21   -1    0    0  501  502 -0.00000000000E+00 -0.00000000000E+00 -0.20323179145E+03  0.20323179145E+03  0.00000000000E+00 0.  1.
          2    1    1    2  501    0  0.15011257968E+03  0.36940515532E+02  0.10460111698E+04  0.10573730447E+04  0.00000000000E+00 0. -1.
         21    1    1    2  503  502 -0.15011257968E+03 -0.36940515532E+02 -0.16730751694E+03  0.22779419108E+03  0.00000000000E+00 0.  1.
</event>
<event>
 4    1  0.2243645E+005  0.3137820E+02  0.7546771E-02  0.1407986E+00
          2   -1    0    0  503    0  0.00000000000E+00  0.00000000000E+00  0.63267963559E+02  0.63267963559E+02  0.00000000000E+00 0.  1.
         21   -1    0    0  501  502 -0.00000000000E+00 -0.00000000000E+00 -0.16941854332E+03  0.16941854332E+03  0.00000000000E+00 0. -1.
          2    1    1    2  501    0  0.27510588890E+02  0.15091693881E+02  0.57795813197E+02  0.65764334927E+02  0.00000000000E+00 0.  1.
         21    1    1    2  503  502 -0.27510588890E+02 -0.15091693881E+02 -0.16394639295E+03  0.16692217195E+03  0.00000000000E+00 0. -1.
</event>
<event>
 4    1  0.2243645E+005  0.2130780E+02  0.7546771E-02  0.1514915E+00
          2   -1    0    0  503    0  0.00000000000E+00  0.00000000000E+00  0.11754909928E+04  0.11754909928E+04  0.00000000000E+00 0.  1.
         21   -1    0    0  501  502 -0.00000000000E+00 -0.00000000000E+00 -0.33625509654E+02  0.33625509654E+02  0.00000000000E+00 0. -1.
          2    1    1    2  501    0 -0.17027658185E+02 -0.12809424283E+02  0.11720088235E+04  0.11722025016E+04  0.00000000000E+00 0.  1.
         21    1    1    2  503  502  0.17027658185E+02  0.12809424283E+02 -0.30143340314E+02  0.36914000853E+02  0.00000000000E+00 0. -1.
</event>
<event>
 4    1  0.2243645E+005  0.3632763E+02  0.7546771E-02  0.1371462E+00
          2   -1    0    0  503    0  0.00000000000E+00  0.00000000000E+00  0.17712507267E+04  0.17712507267E+04  0.00000000000E+00 0.  1.
         21   -1    0    0  501  502 -0.00000000000E+00 -0.00000000000E+00 -0.15333058488E+01  0.15333058488E+01  0.00000000000E+00 0. -1.
          2    1    1    2  501    0  0.25824014925E+02  0.25550281397E+02  0.15203958784E+04  0.15208298142E+04  0.00000000000E+00 0.  1.
         21    1    1    2  503  502 -0.25824014925E+02 -0.25550281397E+02  0.24932154244E+03  0.25195421837E+03  0.00000000000E+00 0. -1.
</event>
<event>
 4    1  0.2243645E+005  0.2980022E+02  0.7546771E-02  0.1421341E+00
          2   -1    0    0  503    0  0.00000000000E+00  0.00000000000E+00  0.51736970472E+03  0.51736970472E+03  0.00000000000E+00 0. -1.
         21   -1    0    0  501  502 -0.00000000000E+00 -0.00000000000E+00 -0.31520170847E+01  0.31520170847E+01  0.00000000000E+00 0. -1.
          2    1    1    2  501    0  0.14763092058E+02 -0.25886367735E+02  0.43274839697E+03  0.43377324492E+03  0.00000000000E+00 0. -1.
         21    1    1    2  503  502 -0.14763092058E+02  0.25886367735E+02  0.81469290664E+02  0.86748476891E+02  0.00000000000E+00 0. -1.
</event>
<event>
 4    1  0.2243645E+005  0.2085512E+02  0.7546771E-02  0.1521343E+00
          2   -1    0    0  503    0  0.00000000000E+00  0.00000000000E+00  0.14594232855E+02  0.14594232855E+02  0.00000000000E+00 0.  1.
         21   -1    0    0  501  502 -0.00000000000E+00 -0.00000000000E+00 -0.32311129672E+02  0.32311129672E+02  0.00000000000E+00 0.  1.
          2    1    1    2  501    0 -0.51633782809E+01  0.20205830279E+02 -0.23228472063E+01  0.20984081388E+02  0.00000000000E+00 0.  1.
         21    1    1    2  503  502  0.51633782809E+01 -0.20205830279E+02 -0.15394049610E+02  0.25921281140E+02  0.00000000000E+00 0.  1.
</event>
<event>
 4    1  0.2243645E+005  0.3240525E+02  0.7546771E-02  0.1399784E+00
          2   -1    0    0  502    0  0.00000000000E+00  0.00000000000E+00  0.47799284066E+01  0.47799284066E+01  0.00000000000E+00 0. -1.
         21   -1    0    0  503  502 -0.00000000000E+00 -0.00000000000E+00 -0.78120549522E+03  0.78120549522E+03  0.00000000000E+00 0.  1.
          2    1    1    2  501    0  0.25827210937E+02  0.19571793448E+02 -0.55029709742E+02  0.63862108310E+02  0.00000000000E+00 0. -1.
         21    1    1    2  503  501 -0.25827210937E+02 -0.19571793448E+02 -0.72139585708E+03  0.72212331532E+03  0.00000000000E+00 0.  1.
</event>
<event>
 4    1  0.2243645E+005  0.2579187E+02  0.7546771E-02  0.1460137E+00
          2   -1    0    0  502    0  0.00000000000E+00  0.00000000000E+00  0.23515829744E+03  0.23515829744E+03  0.00000000000E+00 0.  1.
         21   -1    0    0  503  502 -0.00000000000E+00 -0.00000000000E+00 -0.10589807844E+02  0.10589807844E+02  0.00000000000E+00 0. -1.
          2    1    1    2  501    0 -0.25176727881E+02  0.55993730297E+01  0.21747428742E+03  0.21899837052E+03  0.00000000000E+00 0.  1.
         21    1    1    2  503  501  0.25176727881E+02 -0.55993730297E+01  0.70942021772E+01  0.26749734758E+02  0.00000000000E+00 0. -1.
</event>
<event>
 4    1  0.2243645E+005  0.2306072E+02  0.7546771E-02  0.1491737E+00
          2   -1    0    0  503    0  0.00000000000E+00  0.00000000000E+00  0.85694003822E+02  0.85694003822E+02  0.00000000000E+00 0. -1.
         21   -1    0    0  501  502 -0.00000000000E+00 -0.00000000000E+00 -0.74994014365E+01  0.74994014365E+01  0.00000000000E+00 0. -1.
          2    1    1    2  501    0  0.15995738626E+02  0.16611237594E+02  0.58450286510E+02  0.62834965279E+02  0.00000000000E+00 0. -1.
         21    1    1    2  503  502 -0.15995738626E+02 -0.16611237594E+02  0.19744315876E+02  0.30358439979E+02  0.00000000000E+00 0. -1.
</event>
<event>
 4    1  0.2243645E+005  0.2376777E+02  0.7546771E-02  0.1483076E+00
          2   -1    0    0  503    0  0.00000000000E+00  0.00000000000E+00  0.38475039823E+01  0.38475039823E+01  0.00000000000E+00 0. -1.
         21   -1    0    0  501  502 -0.00000000000E+00 -0.00000000000E+00 -0.26489625614E+03  0.26489625614E+03  0.00000000000E+00 0. -1.
          2    1    1    2  501    0 -0.14770900034E+02 -0.18620617071E+02 -0.40813734305E+02  0.47229945753E+02  0.00000000000E+00 0. -1.
         21    1    1    2  503  502  0.14770900034E+02  0.18620617071E+02 -0.22023501786E+03  0.22151381437E+03  0.00000000000E+00 0. -1.
</event>
<event>
 4    1  0.2243645E+005  0.2542361E+02  0.7546771E-02  0.1464120E+00
          2   -1    0    0  503    0  0.00000000000E+00  0.00000000000E+00  0.39124011494E+02  0.39124011494E+02  0.00000000000E+00 0. -1.
         21   -1    0    0  501  502 -0.00000000000E+00 -0.00000000000E+00 -0.20773286567E+02  0.20773286567E+02  0.00000000000E+00 0. -1.
          2    1    1    2  501    0  0.21073334852E+02  0.14222318959E+02  0.22725581896E+02  0.34100027432E+02  0.00000000000E+00 0. -1.
         21    1    1    2  503  502 -0.21073334852E+02 -0.14222318959E+02 -0.43748569697E+01  0.25797270628E+02  0.00000000000E+00 0. -1.
</event>
<event>
 4    1  0.2243645E+005  0.2654788E+02  0.7546771E-02  0.1452203E+00
          2   -1    0    0  503    0  0.00000000000E+00  0.00000000000E+00  0.77142687795E+02  0.77142687795E+02  0.00000000000E+00 0.  1.
         21   -1    0    0  501  502 -0.00000000000E+00 -0.00000000000E+00 -0.92333278027E+01  0.92333278027E+01  0.00000000000E+00 0. -1.
          2    1    1    2  501    0 -0.11642505917E+02  0.23858788673E+02  0.38384570717E+02  0.46670815400E+02  0.00000000000E+00 0.  1.
         21    1    1    2  503  502  0.11642505917E+02 -0.23858788673E+02  0.29524789275E+02  0.39705200198E+02  0.00000000000E+00 0. -1.
</event>
<event>
 4    1  0.2243645E+005  0.2271071E+02  0.7546771E-02  0.1496163E+00
          2   -1    0    0  503    0  0.00000000000E+00  0.00000000000E+00  0.44436410913E+02  0.44436410913E+02  0.00000000000E+00 0. -1.
         21   -1    0    0  501  502 -0.00000000000E+00 -0.00000000000E+00 -0.13579337585E+02  0.13579337585E+02  0.00000000000E+00 0. -1.
          2    1    1    2  501    0  0.19790892145E+02  0.11139889017E+02  0.26483556144E+02  0.34887752654E+02  0.00000000000E+00 0. -1.
         21    1    1    2  503  502 -0.19790892145E+02 -0.11139889017E+02  0.43735171843E+01  0.23127995844E+02  0.00000000000E+00 0. -1.
</event>
<event>
 4    1  0.2243645E+005  0.3028388E+02  0.7546771E-02  0.1417145E+00
          2   -1    0    0  502    0  0.00000000000E+00  0.00000000000E+00  0.12557123893E+04  0.12557123893E+04  0.00000000000E+00 0.  1.
         21   -1    0    0  503  502 -0.00000000000E+00 -0.00000000000E+00 -0.27090783344E+01  0.27090783344E+01  0.00000000000E+00 0. -1.
          2    1    1    2  501    0 -0.20076682395E+02 -0.22672449715E+02  0.11642487991E+04  0.11646425973E+04  0.00000000000E+00 0.  1.
         21    1    1    2  503  501  0.20076682395E+02  0.22672449715E+02  0.88754511895E+02  0.93778870402E+02  0.00000000000E+00 0. -1.
</event>
<event>
 4    1  0.2243645E+005  0.2197800E+02  0.7546771E-02  0.1505746E+00
          2   -1    0    0  503    0  0.00000000000E+00  0.00000000000E+00  0.32714820242E+03  0.32714820242E+03  0.00000000000E+00 0. -1.
         21   -1    0    0  501  502 -0.00000000000E+00 -0.00000000000E+00 -0.31605514164E+01  0.31605514164E+01  0.00000000000E+00 0.  1.
          2    1    1    2  501    0  0.21147112827E+02 -0.59859881658E+01  0.28254933826E+03  0.28340282459E+03  0.00000000000E+00 0. -1.
         21    1    1    2  503  502 -0.21147112827E+02  0.59859881658E+01  0.41438312738E+02  0.46905929240E+02  0.00000000000E+00 0.  1.
</event>
<event>
 4    1  0.2243645E+005  0.2673050E+02  0.7546771E-02  0.1450334E+00
          2   -1    0    0  503    0  0.00000000000E+00  0.00000000000E+00  0.95505948947E+01  0.95505948947E+01  0.00000000000E+00 0.  1.
         21   -1    0    0  501  502 -0.00000000000E+00 -0.00000000000E+00 -0.21233092237E+03  0.21233092237E+03  0.00000000000E+00 0. -1.
          2    1    1    2  501    0 -0.17267201651E+02  0.20404979523E+02 -0.12108479161E+02  0.29345096861E+02  0.00000000000E+00 0.  1.
         21    1    1    2  503  502  0.17267201651E+02 -0.20404979523E+02 -0.19067184831E+03  0.19253642040E+03  0.00000000000E+00 0. -1.
</event>
<event>
 4    1  0.2243645E+005  0.2741949E+02  0.7546771E-02  0.1443439E+00
          2   -1    0    0  502    0  0.00000000000E+00  0.00000000000E+00  0.98159058116E+02  0.98159058116E+02  0.00000000000E+00 0. -1.
         21   -1    0    0  503  502 -0.00000000000E+00 -0.00000000000E+00 -0.90826428804E+01  0.90826428804E+01  0.00000000000E+00 0. -1.
          2    1    1    2  501    0  0.11797078045E+00  0.27419234227E+02  0.65765003589E+02  0.71252115897E+02  0.00000000000E+00 0. -1.
         21    1    1    2  503  501 -0.11797078045E+00 -0.27419234227E+02  0.23311411646E+02  0.35989585099E+02  0.00000000000E+00 0. -1.
</event>
<event>
 4    1  0.2243645E+005  0.3810556E+02  0.7546771E-02  0.1359960E+00
          2   -1    0    0  502    0  0.00000000000E+00  0.00000000000E+00  0.91573397946E+02  0.91573397946E+02  0.00000000000E+00 0. -1.
         21   -1    0    0  503  502 -0.00000000000E+00 -0.00000000000E+00 -0.18688648250E+02  0.18688648250E+02  0.00000000000E+00 0. -1.
          2    1    1    2  501    0  0.23186496178E+02  0.30239378701E+02  0.57904121361E+02  0.69317536741E+02  0.00000000000E+00 0. -1.
         21    1    1    2  503  501 -0.23186496178E+02 -0.30239378701E+02  0.14980628335E+02  0.40944509456E+02  0.00000000000E+00 0. -1.
</event>
<event>
 4    1  0.2243645E+005  0.2048397E+02  0.7546771E-02  0.1526761E+00
          2   -1    0    0  503    0  0.00000000000E+00  0.00000000000E+00  0.91095301813E+03  0.91095301813E+03  0.00000000000E+00 0.  1.
         21   -1    0    0  501  502 -0.00000000000E+00 -0.00000000000E+00 -0.62071981863E+00  0.62071981863E+00  0.00000000000E+00 0.  1.
          2    1    1    2  501    0 -0.14632418837E+02  0.14334762321E+02  0.68665199526E+03  0.68695746279E+03  0.00000000000E+00 0.  1.
         21    1    1    2  503  502  0.14632418837E+02 -0.14334762321E+02  0.22368030306E+03  0.22461627516E+03  0.00000000000E+00 0.  1.
</event>
<event>
 4    1  0.2243645E+005  0.2394945E+02  0.7546771E-02  0.1480908E+00
          2   -1    0    0  503    0  0.00000000000E+00  0.00000000000E+00  0.55698123977E+03  0.55698123977E+03  0.00000000000E+00 0. -1.
         21   -1    0    0  501  502 -0.00000000000E+00 -0.00000000000E+00 -0.13183430585E+01  0.13183430585E+01  0.00000000000E+00 0. -1.
          2    1    1    2  501    0 -0.21178849414E+02 -0.11181799668E+02  0.40842821466E+03  0.40912978728E+03  0.00000000000E+00 0. -1.
         21    1    1    2  503  502  0.21178849414E+02  0.11181799668E+02  0.14723468205E+03  0.14916979555E+03  0.00000000000E+00 0. -1.
</event>
<event>
 4    1  0.2243645E+005  0.2148575E+02  0.7546771E-02  0.1512441E+00
          2   -1    0    0  502    0  0.00000000000E+00  0.00000000000E+00  0.40405082607E+03  0.40405082607E+03  0.00000000000E+00 0. -1.
         21   -1    0    0  503  502 -0.00000000000E+00 -0.00000000000E+00 -0.13776084506E+01  0.13776084506E+01  0.00000000000E+00 0. -1.
          2    1    1    2  501    0 -0.16700658425E+02 -0.13517595953E+02  0.28507683245E+03  0.28588535778E+03  0.00000000000E+00 0. -1.
         21    1    1    2  503  501  0.16700658425E+02  0.13517595953E+02  0.11759638517E+03  0.11954307674E+03  0.00000000000E+00 0. -1.
</event>
<event>
 4    1  0.2243645E+005  0.2338145E+02  0.7546771E-02  0.1487763E+00
          2   -1    0    0  503    0  0.00000000000E+00  0.00000000000E+00  0.47853464059E+03  0.47853464059E+03  0.00000000000E+00 0. -1.
         21   -1    0    0  501  502 -0.00000000000E+00 -0.00000000000E+00 -0.13330976838E+01  0.13330976838E+01  0.00000000000E+00 0. -1.
          2    1    1    2  501    0  0.89397541169E+01 -0.21604926246E+02  0.32934098576E+03  0.33016992132E+03  0.00000000000E+00 0. -1.
         21    1    1    2  503  502 -0.89397541169E+01  0.21604926246E+02  0.14786055715E+03  0.14969781696E+03  0.00000000000E+00 0. -1.
</event>
<event>
 4    1  0.2243645E+005  0.2046267E+02  0.7546771E-02  0.1527077E+00
          2   -1    0    0  503    0  0.00000000000E+00  0.00000000000E+00  0.94733161767E+01  0.94733161767E+01  0.00000000000E+00 0.  1.
         21   -1    0    0  501  502 -0.00000000000E+00 -0.00000000000E+00 -0.41927860183E+03  0.41927860183E+03  0.00000000000E+00 0. -1.
          2    1    1    2  501    0 -0.15904877792E+02  0.12874609932E+02 -0.21409696145E+01  0.20574364374E+02  0.00000000000E+00 0.  1.
         21    1    1    2  503  502  0.15904877792E+02 -0.12874609932E+02 -0.40766431604E+03  0.40817755364E+03  0.00000000000E+00 0. -1.
</event>
<event>
 4    1  0.2243645E+005  0.2869134E+02  0.7546771E-02  0.1431320E+00
          2   -1    0    0  502    0  0.00000000000E+00  0.00000000000E+00  0.21430014542E+03  0.21430014542E+03  0.00000000000E+00 0.  1.
         21   -1    0    0  503  502 -0.00000000000E+00 -0.00000000000E+00 -0.20404670455E+03  0.20404670455E+03  0.00000000000E+00 0.  1.
          2    1    1    2  501    0  0.59734948779E+01  0.28062610075E+02  0.21232188012E+03  0.21425165928E+03  0.00000000000E+00 0.  1.
         21    1    1    2  503  501 -0.59734948779E+01 -0.28062610075E+02 -0.20206843925E+03  0.20409519070E+03  0.00000000000E+00 0.  1.
</event>
<event>
 4    1  0.2243645E+005  0.4728256E+02  0.7546771E-02  0.1310405E+00
          2   -1    0    0  502    0  0.00000000000E+00  0.00000000000E+00  0.48813086180E+03  0.48813086180E+03  0.00000000000E+00 0. -1.
         21   -1    0    0  503  502 -0.00000000000E+00 -0.00000000000E+00 -0.43987139008E+02  0.43987139008E+02  0.00000000000E+00 0. -1.
          2    1    1    2  501    0  0.19063860429E+02 -0.43269034555E+02  0.47389900612E+03  0.47625193766E+03  0.00000000000E+00 0. -1.
         21    1    1    2  503  501 -0.19063860429E+02  0.43269034555E+02 -0.29755283326E+02  0.55866063147E+02  0.00000000000E+00 0. -1.
</event>
<event>
 4    1  0.2243645E+005  0.2231260E+02  0.7546771E-02  0.1501315E+00
          2   -1    0    0  503    0  0.00000000000E+00  0.00000000000E+00  0.17588510374E+04  0.17588510374E+04  0.00000000000E+00 0. -1.
         21   -1    0    0  501  502 -0.00000000000E+00 -0.00000000000E+00 -0.85660018252E+00  0.85660018252E+00  0.00000000000E+00 0. -1.
          2    1    1    2  501    0 -0.12862954031E+02  0.18231740597E+02  0.15989519336E+04  0.15991076067E+04  0.00000000000E+00 0. -1.
         21    1    1    2  503  502  0.12862954031E+02 -0.18231740597E+02  0.15904250362E+03  0.16060003085E+03  0.00000000000E+00 0. -1.
</event>
<event>
 4    1  0.2243645E+005  0.4265427E+02  0.7546771E-02  0.1333597E+00
          2   -1    0    0  503    0  0.00000000000E+00  0.00000000000E+00  0.13913138749E+03  0.13913138749E+03  0.00000000000E+00 0. -1.
         21   -1    0    0  501  502 -0.00000000000E+00 -0.00000000000E+00 -0.13509822644E+02  0.13509822644E+02  0.00000000000E+00 0.  1.
          2    1    1    2  501    0  0.28658658799E+02 -0.31592218725E+02  0.76475323853E+02  0.87566330096E+02  0.00000000000E+00 0. -1.
         21    1    1    2  503  502 -0.28658658799E+02  0.31592218725E+02  0.49146240988E+02  0.65074880034E+02  0.00000000000E+00 0.  1.
</event>
<event>
 4    1  0.2243645E+005  0.3590570E+02  0.7546771E-02  0.1374305E+00
          2   -1    0    0  502    0  0.00000000000E+00  0.00000000000E+00  0.12154679961E+04  0.12154679961E+04  0.00000000000E+00 0.  1.
         21   -1    0    0  503  502 -0.00000000000E+00 -0.00000000000E+00 -0.25894337041E+01  0.25894337041E+01  0.00000000000E+00 0.  1.
          2    1    1    2  501    0  0.31796017259E+02 -0.16680295122E+02  0.10743947825E+04  0.10749945896E+04  0.00000000000E+00 0.  1.
         21    1    1    2  503  501 -0.31796017259E+02  0.16680295122E+02  0.13848377986E+03  0.14306284019E+03  0.00000000000E+00 0.  1.
</event>
<event>
 4    1  0.2243645E+005  0.2101915E+02  0.7546771E-02  0.1518991E+00
          2   -1    0    0  503    0  0.00000000000E+00  0.00000000000E+00  0.35130932176E+02  0.35130932176E+02  0.00000000000E+00 0. -1.
         21   -1    0    0  501  502 -0.00000000000E+00 -0.00000000000E+00 -0.75648950898E+02  0.75648950898E+02  0.00000000000E+00 0. -1.
          2    1    1    2  501    0 -0.14378224963E+02  0.15332037859E+02  0.30317774544E+02  0.36891356593E+02  0.00000000000E+00 0. -1.
         21    1    1    2  503  502  0.14378224963E+02 -0.15332037859E+02 -0.70835793266E+02  0.73888526481E+02  0.00000000000E+00 0. -1.
</event>
<event>
 4    1  0.2243645E+005  0.2354042E+02  0.7546771E-02  0.1485821E+00
          2   -1    0    0  502    0  0.00000000000E+00  0.00000000000E+00  0.89939933906E+02  0.89939933906E+02  0.00000000000E+00 0. -1.
         21   -1    0    0  503  502 -0.00000000000E+00 -0.00000000000E+00 -0.17263061039E+02  0.17263061039E+02  0.00000000000E+00 0.  1.
          2    1    1    2  501    0  0.66244554761E+01 -0.22589108560E+02  0.79323049088E+02  0.82742355251E+02  0.00000000000E+00 0. -1.
         21    1    1    2  503  501 -0.66244554761E+01  0.22589108560E+02 -0.66461762213E+01  0.24460639694E+02  0.00000000000E+00 0.  1.
</event>
<event>
 4    1  0.2243645E+005  0.2250784E+02  0.7546771E-02  0.1498772E+00
          2   -1    0    0  502    0  0.00000000000E+00  0.00000000000E+00  0.10980167776E+04  0.10980167776E+04  0.00000000000E+00 0. -1.
         21   -1    0    0  503  502 -0.00000000000E+00 -0.00000000000E+00 -0.61094380783E+00  0.61094380783E+00  0.00000000000E+00 0. -1.
          2    1    1    2  501    0 -0.22461742299E+02 -0.14397883783E+01  0.82049283546E+03  0.82080149604E+03  0.00000000000E+00 0. -1.
         21    1    1    2  503  501  0.22461742299E+02  0.14397883783E+01  0.27691299830E+03  0.27782622534E+03  0.00000000000E+00 0. -1.
</event>
<event>
 4    1  0.2243645E+005  0.3441299E+02  0.7546771E-02  0.1384738E+00
          2   -1    0    0  503    0  0.00000000000E+00  0.00000000000E+00  0.11954091174E+04  0.11954091174E+04  0.00000000000E+00 0. -1.
         21   -1    0    0  501  502 -0.00000000000E+00 -0.00000000000E+00 -0.38623111301E+01  0.38623111301E+01  0.00000000000E+00 0.  1.
          2    1    1    2  501    0 -0.28574387422E+02  0.19177017074E+02  0.11128192986E+04  0.11133512675E+04  0.00000000000E+00 0. -1.
         21    1    1    2  503  502  0.28574387422E+02 -0.19177017074E+02  0.78727507676E+02  0.85920160994E+02  0.00000000000E+00 0.  1.
</event>
<event>
 4    1  0.2243645E+005  0.3640761E+02  0.7546771E-02  0.1370928E+00
          2   -1    0    0  502    0  0.00000000000E+00  0.00000000000E+00  0.90430896108E+03  0.90430896108E+03  0.00000000000E+00 0.  1.
         21   -1    0    0  503  502 -0.00000000000E+00 -0.00000000000E+00 -0.19845011773E+01  0.19845011773E+01  0.00000000000E+00 0. -1.
          2    1    1    2  501    0 -0.36378136106E+02 -0.14646591049E+01  0.68283873927E+03  0.68380864126E+03  0.00000000000E+00 0.  1.
         21    1    1    2  503  501  0.36378136106E+02  0.14646591049E+01  0.21948572063E+03  0.22248482100E+03  0.00000000000E+00 0. -1.
</event>
<event>
 4    1  0.2243645E+005  0.4939314E+02  0.7546771E-02  0.1300825E+00
          2   -1    0    0  503    0  0.00000000000E+00  0.00000000000E+00  0.85091257202E+03  0.85091257202E+03  0.00000000000E+00 0. -1.
         21   -1    0    0  501  502 -0.00000000000E+00 -0.00000000000E+00 -0.99562237492E+01  0.99562237492E+01  0.00000000000E+00 0. -1.
          2    1    1    2  501    0  0.26877064316E+01  0.49319959959E+02  0.78368568187E+03  0.78524068297E+03  0.00000000000E+00 0. -1.
         21    1    1    2  503  502 -0.26877064316E+01 -0.49319959959E+02  0.57270666402E+02  0.75628112805E+02  0.00000000000E+00 0. -1.
</event>
<event>
 4    1  0.2243645E+005  0.3541535E+02  0.7546771E-02  0.1377666E+00
          2   -1    0    0  502    0  0.00000000000E+00  0.00000000000E+00  0.78593340408E+02  0.78593340408E+02  0.00000000000E+00 0. -1.
         21   -1    0    0  503  502 -0.00000000000E+00 -0.00000000000E+00 -0.97797116718E+02  0.97797116718E+02  0.00000000000E+00 0.  1.
          2    1    1    2  501    0  0.69622090478E+01  0.34724264839E+02  0.71077146812E+02  0.79411634679E+02  0.00000000000E+00 0. -1.
         21    1    1    2  503  501 -0.69622090478E+01 -0.34724264839E+02 -0.90280923122E+02  0.96978822447E+02  0.00000000000E+00 0.  1.
</event>
<event>
 4    1  0.2243645E+005  0.5954521E+02  0.7546771E-02  0.1261386E+00
          2   -1    0    0  503    0  0.00000000000E+00  0.00000000000E+00  0.14736274805E+04  0.14736274805E+04  0.00000000000E+00 0. -1.
         21   -1    0    0  501  502 -0.00000000000E+00 -0.00000000000E+00 -0.25763048705E+01  0.25763048705E+01  0.00000000000E+00 0. -1.
          2    1    1    2  501    0 -0.13330698759E+02 -0.58033820971E+02  0.54578581748E+03  0.54902439879E+03  0.00000000000E+00 0. -1.
         21    1    1    2  503  502  0.13330698759E+02  0.58033820971E+02  0.92526535815E+03  0.92717938658E+03  0.00000000000E+00 0. -1.
</event>
<event>
 4    1  0.2243645E+005  0.2133293E+02  0.7546771E-02  0.1514564E+00
          2   -1    0    0  502    0  0.00000000000E+00  0.00000000000E+00  0.56874831068E+03  0.56874831068E+03  0.00000000000E+00 0.  1.
         21   -1    0    0  503  502 -0.00000000000E+00 -0.00000000000E+00 -0.15038271591E+02  0.15038271591E+02  0.00000000000E+00 0. -1.
          2    1    1    2  501    0 -0.20425910154E+02 -0.61543559683E+01  0.56087653047E+03  0.56128208268E+03  0.00000000000E+00 0.  1.
         21    1    1    2  503  501  0.20425910154E+02  0.61543559683E+01 -0.71664913850E+01  0.22504499589E+02  0.00000000000E+00 0. -1.
</event>
<event>
 4    1  0.2243645E+005  0.2298053E+02  0.7546771E-02  0.1492743E+00
          2   -1    0    0  503    0  0.00000000000E+00  0.00000000000E+00  0.12207813369E+03  0.12207813369E+03  0.00000000000E+00 0. -1.
         21   -1    0    0  501  502 -0.00000000000E+00 -0.00000000000E+00 -0.12866787552E+02  0.12866787552E+02  0.00000000000E+00 0. -1.
          2    1    1    2  501    0 -0.17604214776E+02  0.14771474712E+02  0.10957767060E+03  0.11196146988E+03  0.00000000000E+00 0. -1.
         21    1    1    2  503  502  0.17604214776E+02 -0.14771474712E+02 -0.36632446070E+00  0.22983451365E+02  0.00000000000E+00 0. -1.
</event>
<event>
 4    1  0.2243645E+005  0.3993757E+02  0.7546771E-02  0.1348852E+00
          2   -1    0    0  503    0  0.00000000000E+00  0.00000000000E+00  0.16987709179E+04  0.16987709179E+04  0.00000000000E+00 0. -1.
         21   -1    0    0  501  502 -0.00000000000E+00 -0.00000000000E+00 -0.12846304250E+01  0.12846304250E+01  0.00000000000E+00 0. -1.
          2    1    1    2  501    0  0.27818108611E+02  0.28655931105E+02  0.12897043803E+04  0.12903225946E+04  0.00000000000E+00 0. -1.
         21    1    1    2  503  502 -0.27818108611E+02 -0.28655931105E+02  0.40778190720E+03  0.40973295376E+03  0.00000000000E+00 0. -1.
</event>
<event>
 4    1  0.2243645E+005  0.3345684E+02  0.7546771E-02  0.1391749E+00
          2   -1    0    0  502    0  0.00000000000E+00  0.00000000000E+00  0.56034838063E+02  0.56034838063E+02  0.00000000000E+00 0. -1.
         21   -1    0    0  503  502 -0.00000000000E+00 -0.00000000000E+00 -0.21257335783E+02  0.21257335783E+02  0.00000000000E+00 0. -1.
          2    1    1    2  501    0  0.29633096917E+02 -0.15531896307E+02  0.26876374844E+02  0.42915029541E+02  0.00000000000E+00 0. -1.
         21    1    1    2  503  501 -0.29633096917E+02  0.15531896307E+02  0.79011274364E+01  0.34377144304E+02  0.00000000000E+00 0. -1.
</event>
<event>
 4    1  0.2243645E+005  0.2377459E+02  0.7546771E-02  0.1482994E+00
          2   -1    0    0  502    0  0.00000000000E+00  0.00000000000E+00  0.13404887818E+04  0.13404887818E+04  0.00000000000E+00 0. -1.
         21   -1    0    0  503  502 -0.00000000000E+00 -0.00000000000E+00 -0.46106936398E+01  0.46106936398E+01  0.00000000000E+00 0.  1.
          2    1    1    2  501    0 -0.20606185311E+02  0.11858172955E+02  0.13089982980E+04  0.13092141824E+04  0.00000000000E+00 0. -1.
         21    1    1    2  503  501  0.20606185311E+02 -0.11858172955E+02  0.26879790099E+02  0.35885293013E+02  0.00000000000E+00 0.  1.
</event>
<event>
 4    1  0.2243645E+005  0.2164999E+02  0.7546771E-02  0.1510184E+00
          2   -1    0    0  503    0  0.00000000000E+00  0.00000000000E+00  0.15196719337E+02  0.15196719337E+02  0.00000000000E+00 0. -1.
         21   -1    0    0  501  502 -0.00000000000E+00 -0.00000000000E+00 -0.47552977731E+02  0.47552977731E+02  0.00000000000E+00 0. -1.
          2    1    1    2  501    0  0.93846874071E+00 -0.21629644774E+02  0.24201301018E+01  0.21784840746E+02  0.00000000000E+00 0. -1.
         21    1    1    2  503  502 -0.93846874071E+00  0.21629644774E+02 -0.34776388496E+02  0.40964856321E+02  0.00000000000E+00 0. -1.
</event>
<event>
 4    1  0.2243645E+005  0.2256395E+02  0.7546771E-02  0.1498047E+00
          2   -1    0    0  503    0  0.00000000000E+00  0.00000000000E+00  0.54576755695E+03  0.54576755695E+03  0.00000000000E+00 0.  1.
         21   -1    0    0  501  502 -0.00000000000E+00 -0.00000000000E+00 -0.26706917757E+01  0.26706917757E+01  0.00000000000E+00 0.  1.
          2    1    1    2  501    0 -0.21666324821E+02 -0.63009783967E+01  0.49274993137E+03  0.49326628390E+03  0.00000000000E+00 0.  1.
         21    1    1    2  503  502  0.21666324821E+02  0.63009783967E+01  0.50346933799E+02  0.55171964828E+02  0.00000000000E+00 0.  1.
</event>
<event>
 4    1  0.2243645E+005  0.2206129E+02  0.7546771E-02  0.1504634E+00
          2   -1    0    0  502    0  0.00000000000E+00  0.00000000000E+00  0.42456849814E+02  0.42456849814E+02  0.00000000000E+00 0. -1.
         21   -1    0    0  503  502 -0.00000000000E+00 -0.00000000000E+00 -0.88611056328E+03  0.88611056328E+03  0.00000000000E+00 0.  1.
          2    1    1    2  501    0 -0.19184060481E+02  0.10893685846E+02  0.39443905705E+02  0.45194272482E+02  0.00000000000E+00 0. -1.
         21    1    1    2  503  501  0.19184060481E+02 -0.10893685846E+02 -0.88309761917E+03  0.88337314061E+03  0.00000000000E+00 0.  1.
</event>
<event>
 4    1  0.2243645E+005  0.2832531E+02  0.7546771E-02  0.1434731E+00
          2   -1    0    0  502    0  0.00000000000E+00  0.00000000000E+00  0.16524161345E+04  0.16524161345E+04  0.00000000000E+00 0. -1.
         21   -1    0    0  503  502 -0.00000000000E+00 -0.00000000000E+00 -0.79475796090E+00  0.79475796090E+00  0.00000000000E+00 0. -1.
          2    1    1    2  501    0  0.71767736847E+01  0.27401045909E+02  0.13414063285E+04  0.13417053557E+04  0.00000000000E+00 0. -1.
         21    1    1    2  503  501 -0.71767736847E+01 -0.27401045909E+02  0.31021504804E+03  0.31150553676E+03  0.00000000000E+00 0. -1.
</event>
<event>
 4    1  0.2243645E+005  0.3387970E+02  0.7546771E-02  0.1388615E+00
          2   -1    0    0  503    0  0.00000000000E+00  0.00000000000E+00  0.74904499365E+03  0.74904499365E+03  0.00000000000E+00 0.  1.
         21   -1    0    0  501  502 -0.00000000000E+00 -0.00000000000E+00 -0.33375477258E+01  0.33375477258E+01  0.00000000000E+00 0. -1.
          2    1    1    2  501    0 -0.32445891527E+00  0.33878150431E+02  0.64951711588E+03  0.65040012159E+03  0.00000000000E+00 0.  1.
         21    1    1    2  503  502  0.32445891527E+00 -0.33878150431E+02  0.96190330043E+02  0.10198241978E+03  0.00000000000E+00 0. -1.
</event>
<event>
 4    1  0.2243645E+005  0.3943528E+02  0.7546771E-02  0.1351827E+00
          2   -1    0    0  503    0  0.00000000000E+00  0.00000000000E+00  0.61857872760E+03  0.61857872760E+03  0.00000000000E+00 0.  1.
         21   -1    0    0  501  502 -0.00000000000E+00 -0.00000000000E+00 -0.60212454694E+01  0.60212454694E+01  0.00000000000E+00 0. -1.
          2    1    1    2  501    0 -0.22054050770E+02  0.32691902565E+02  0.54462503572E+03  0.54605088699E+03  0.00000000000E+00 0.  1.
         21    1    1    2  503  502  0.22054050770E+02 -0.32691902565E+02  0.67932446409E+02  0.78549086078E+02  0.00000000000E+00 0. -1.
</event>
<event>
 4    1  0.2243645E+005  0.5375169E+02  0.7546771E-02  0.1282677E+00
          2   -1    0    0  503    0  0.00000000000E+00  0.00000000000E+00  0.17235585135E+04  0.17235585135E+04  0.00000000000E+00 0. -1.
         21   -1    0    0  501  502 -0.00000000000E+00 -0.00000000000E+00 -0.85453399282E+01  0.85453399282E+01  0.00000000000E+00 0.  1.
          2    1    1    2  501    0  0.45965118320E+02 -0.27864884251E+02  0.16339798340E+04  0.16348637074E+04  0.00000000000E+00 0. -1.
         21    1    1    2  503  502 -0.45965118320E+02  0.27864884251E+02  0.81033339582E+02  0.97240146032E+02  0.00000000000E+00 0.  1.
</event>
<event>
 4    1  0.2243645E+005  0.2340570E+02  0.7546771E-02  0.1487466E+00
          2   -1    0    0  503    0  0.00000000000E+00  0.00000000000E+00  0.15043848326E+04  0.15043848326E+04  0.00000000000E+00 0. -1.
         21   -1    0    0  501  502 -0.00000000000E+00 -0.00000000000E+00 -0.44134945632E+00  0.44134945632E+00  0.00000000000E+00 0. -1.
          2    1    1    2  501    0 -0.19415380479E+02  0.13071722292E+02  0.10666469071E+04  0.10669036748E+04  0.00000000000E+00 0. -1.
         21    1    1    2  503  502  0.19415380479E+02 -0.13071722292E+02  0.43729657606E+03  0.43792250725E+03  0.00000000000E+00 0. -1.
</event>
<event>
 4    1  0.2243645E+005  0.3096437E+02  0.7546771E-02  0.1411397E+00
          2   -1    0    0  502    0  0.00000000000E+00  0.00000000000E+00  0.18248228906E+03  0.18248228906E+03  0.00000000000E+00 0.  1.
         21   -1    0    0  503  502 -0.00000000000E+00 -0.00000000000E+00 -0.12168330627E+03  0.12168330627E+03  0.00000000000E+00 0.  1.
          2    1    1    2  501    0  0.25891985954E+02 -0.16982265929E+02  0.17916266581E+03  0.18181873697E+03  0.00000000000E+00 0.  1.
         21    1    1    2  503  501 -0.25891985954E+02  0.16982265929E+02 -0.11836368302E+03  0.12234685836E+03  0.00000000000E+00 0.  1.
</event>
<event>
 4    1  0.2243645E+005  0.2005409E+02  0.7546771E-02  0.1533210E+00
          2   -1    0    0  502    0  0.00000000000E+00  0.00000000000E+00  0.16827061313E+04  0.16827061313E+04  0.00000000000E+00 0.  1.
         21   -1    0    0  503  502 -0.00000000000E+00 -0.00000000000E+00 -0.54051413119E+00  0.54051413119E+00  0.00000000000E+00 0.  1.
          2    1    1    2  501    0  0.13665101581E+02  0.14677587011E+02  0.14696738083E+04  0.14698106237E+04  0.00000000000E+00 0.  1.
         21    1    1    2  503  501 -0.13665101581E+02 -0.14677587011E+02  0.21249180883E+03  0.21343602175E+03  0.00000000000E+00 0.  1.
</event>
<event>
 4    1  0.2243645E+005  0.2020376E+02  0.7546771E-02  0.1530943E+00
          2   -1    0    0  503    0  0.00000000000E+00  0.00000000000E+00  0.82725341078E+03  0.82725341078E+03  0.00000000000E+00 0.  1.
         21   -1    0    0  501  502 -0.00000000000E+00 -0.00000000000E+00 -0.81563965428E+01  0.81563965428E+01  0.00000000000E+00 0. -1.
          2    1    1    2  501    0 -0.13700169689E+02 -0.14849156197E+02  0.81442154604E+03  0.81467210996E+03  0.00000000000E+00 0.  1.
         21    1    1    2  503  502  0.13700169689E+02  0.14849156197E+02  0.46754682013E+01  0.20737697369E+02  0.00000000000E+00 0. -1.
</event>
<event>
 4    1  0.2243645E+005  0.3493869E+02  0.7546771E-02  0.1380995E+00
          2   -1    0    0  502    0  0.00000000000E+00  0.00000000000E+00  0.86977688733E+03  0.86977688733E+03  0.00000000000E+00 0. -1.
         21   -1    0    0  503  502 -0.00000000000E+00 -0.00000000000E+00 -0.54679974554E+01  0.54679974554E+01  0.00000000000E+00 0.  1.
          2    1    1    2  501    0 -0.33845716801E+02 -0.86706191035E+01  0.80945728177E+03  0.81021096215E+03  0.00000000000E+00 0. -1.
         21    1    1    2  503  501  0.33845716801E+02  0.86706191035E+01  0.54851608108E+02  0.65033922637E+02  0.00000000000E+00 0.  1.
</event>
<event>
 4    1  0.2243645E+005  0.4683710E+02  0.7546771E-02  0.1312501E+00
          2   -1    0    0  503    0  0.00000000000E+00  0.00000000000E+00  0.13029060822E+04  0.13029060822E+04  0.00000000000E+00 0. -1.
         21   -1    0    0  501  502 -0.00000000000E+00 -0.00000000000E+00 -0.17804947572E+01  0.17804947572E+01  0.00000000000E+00 0. -1.
          2    1    1    2  501    0 -0.44357283209E+02 -0.15038138978E+02  0.49846867019E+03  0.50066428808E+03  0.00000000000E+00 0. -1.
         21    1    1    2  503  502  0.44357283209E+02  0.15038138978E+02  0.80265691723E+03  0.80402228885E+03  0.00000000000E+00 0. -1.
</event>
<event>
 4    1  0.2243645E+005  0.2312785E+02  0.7546771E-02  0.1490899E+00
          2   -1    0    0  502    0  0.00000000000E+00  0.00000000000E+00  0.11517430621E+04  0.11517430621E+04  0.00000000000E+00 0.  1.
         21   -1    0    0  503  502 -0.00000000000E+00 -0.00000000000E+00 -0.27261235540E+01  0.27261235540E+01  0.00000000000E+00 0. -1.
          2    1    1    2  501    0  0.73446520788E+01  0.21930653056E+02  0.11002799320E+04  0.11005229785E+04  0.00000000000E+00 0.  1.
         21    1    1    2  503  501 -0.73446520788E+01 -0.21930653056E+02  0.48737006454E+02  0.53946207056E+02  0.00000000000E+00 0. -1.
</event>
<event>
 4    1  0.2243645E+005  0.2640769E+02  0.7546771E-02  0.1453650E+00
          2   -1    0    0  502    0  0.00000000000E+00  0.00000000000E+00  0.64655676132E+03  0.64655676132E+03  0.00000000000E+00 0.  1.
         21   -1    0    0  503  502 -0.00000000000E+00 -0.00000000000E+00 -0.14355899860E+01  0.14355899860E+01  0.00000000000E+00 0.  1.
          2    1    1    2  501    0  0.11627596823E+02  0.23710020535E+02  0.48413111102E+03  0.48485080050E+03  0.00000000000E+00 0.  1.
         21    1    1    2  503  501 -0.11627596823E+02 -0.23710020535E+02  0.16099006031E+03  0.16314155081E+03  0.00000000000E+00 0.  1.
</event>
<event>
 4    1  0.2243645E+005  0.2139653E+02  0.7546771E-02  0.1513678E+00
          2   -1    0    0  502    0  0.00000000000E+00  0.00000000000E+00  0.53868746548E+03  0.53868746548E+03  0.00000000000E+00 0.  1.
         21   -1    0    0  503  502 -0.00000000000E+00 -0.00000000000E+00 -0.17046412812E+02  0.17046412812E+02  0.00000000000E+00 0. -1.
          2    1    1    2  501    0  0.12009634264E+02 -0.17708191030E+02  0.53167225514E+03  0.53210262002E+03  0.00000000000E+00 0.  1.
         21    1    1    2  503  501 -0.12009634264E+02  0.17708191030E+02 -0.10031202470E+02  0.23631258276E+02  0.00000000000E+00 0. -1.
</event>
<event>
 4    1  0.2243645E+005  0.2636729E+02  0.7546771E-02  0.1454069E+00
          2   -1    0    0  503    0  0.00000000000E+00  0.00000000000E+00  0.29178858997E+02  0.29178858997E+02  0.00000000000E+00 0. -1.
         21   -1    0    0  501  502 -0.00000000000E+00 -0.00000000000E+00 -0.24225053995E+02  0.24225053995E+02  0.00000000000E+00 0. -1.
          2    1    1    2  501    0 -0.19851320723E+02 -0.17353933982E+02 -0.94747724082E+00  0.26384307310E+02  0.00000000000E+00 0. -1.
         21    1    1    2  503  502  0.19851320723E+02  0.17353933982E+02  0.59012822430E+01  0.27019605682E+02  0.00000000000E+00 0. -1.
</event>
<event>
 4    1  0.2243645E+005  0.7649378E+02  0.7546771E-02  0.1212230E+00
          2   -1    0    0  502    0  0.00000000000E+00  0.00000000000E+00  0.28242626472E+03  0.28242626472E+03  0.00000000000E+00 0.  1.
         21   -1    0    0  503  502 -0.00000000000E+00 -0.00000000000E+00 -0.26598907461E+02  0.26598907461E+02  0.00000000000E+00 0.  1.
          2    1    1    2  501    0 -0.17476437758E+02  0.74470612977E+02  0.20056697909E+03  0.21465882506E+03  0.00000000000E+00 0.  1.
         21    1    1    2  503  501  0.17476437758E+02 -0.74470612977E+02  0.55260378168E+02  0.94366347122E+02  0.00000000000E+00 0.  1.
</event>
<event>
 4    1  0.2243645E+005  0.2087838E+02  0.7546771E-02  0.1521008E+00
          2   -1    0    0  503    0  0.00000000000E+00  0.00000000000E+00  0.59598167944E+01  0.59598167944E+01  0.00000000000E+00 0.  1.
         21   -1    0    0  501  502 -0.00000000000E+00 -0.00000000000E+00 -0.90323729952E+02  0.90323729952E+02  0.00000000000E+00 0.  1.
          2    1    1    2  501    0  0.20775130687E+02 -0.20737860498E+01 -0.21184441307E+02  0.29743691720E+02  0.00000000000E+00 0.  1.
         21    1    1    2  503  502 -0.20775130687E+02  0.20737860498E+01 -0.63179471850E+02  0.66539855026E+02  0.00000000000E+00 0.  1.
</event>
<event>
 4    1  0.2243645E+005  0.3992363E+02  0.7546771E-02  0.1348934E+00
          2   -1    0    0  503    0  0.00000000000E+00  0.00000000000E+00  0.45995280850E+03  0.45995280850E+03  0.00000000000E+00 0. -1.
         21   -1    0    0  501  502 -0.00000000000E+00 -0.00000000000E+00 -0.27329030416E+02  0.27329030416E+02  0.00000000000E+00 0.  1.
          2    1    1    2  501    0  0.39642194205E+02 -0.47320513622E+01  0.44398244153E+03  0.44577382635E+03  0.00000000000E+00 0. -1.
         21    1    1    2  503  502 -0.39642194205E+02  0.47320513622E+01 -0.11358663450E+02  0.41508012562E+02  0.00000000000E+00 0.  1.
</event>
<event>
 4    1  0.2243645E+005  0.3845350E+02  0.7546771E-02  0.1357795E+00
          2   -1    0    0  503    0  0.00000000000E+00  0.00000000000E+00  0.40543693234E+02  0.40543693234E+02  0.00000000000E+00 0. -1.
         21   -1    0    0  501  502 -0.00000000000E+00 -0.00000000000E+00 -0.42227560981E+02  0.42227560981E+02  0.00000000000E+00 0. -1.
          2    1    1    2  501    0 -0.36861118480E+02 -0.10951222311E+02 -0.16122201681E+02  0.41696483218E+02  0.00000000000E+00 0. -1.
         21    1    1    2  503  502  0.36861118480E+02  0.10951222311E+02  0.14438333934E+02  0.41074770997E+02  0.00000000000E+00 0. -1.
</event>
<event>
 4    1  0.2243645E+005  0.2620398E+02  0.7546771E-02  0.1455772E+00
          2   -1    0    0  502    0  0.00000000000E+00  0.00000000000E+00  0.24894304462E+02  0.24894304462E+02  0.00000000000E+00 0. -1.
         21   -1    0    0  503  502 -0.00000000000E+00 -0.00000000000E+00 -0.91788481582E+02  0.91788481582E+02  0.00000000000E+00 0. -1.
          2    1    1    2  501    0 -0.33630865906E+01 -0.25987271741E+02  0.15347340887E+02  0.30367573434E+02  0.00000000000E+00 0. -1.
         21    1    1    2  503  501  0.33630865906E+01  0.25987271741E+02 -0.82241518007E+02  0.86315212611E+02  0.00000000000E+00 0. -1.
</event>
<event>
 4    1  0.2243645E+005  0.3113243E+02  0.7546771E-02  0.1410004E+00
          2   -1    0    0  502    0  0.00000000000E+00  0.00000000000E+00  0.17998436586E+03  0.17998436586E+03  0.00000000000E+00 0. -1.
         21   -1    0    0  503  502 -0.00000000000E+00 -0.00000000000E+00 -0.18146618921E+02  0.18146618921E+02  0.00000000000E+00 0.  1.
          2    1    1    2  501    0 -0.29297038232E+02 -0.10531457150E+02  0.16399500643E+03  0.16692390534E+03  0.00000000000E+00 0. -1.
         21    1    1    2  503  501  0.29297038232E+02  0.10531457150E+02 -0.21572594925E+01  0.31207079444E+02  0.00000000000E+00 0.  1.
</event>
<event>
 4    1  0.2243645E+005  0.3415745E+02  0.7546771E-02  0.1386585E+00
          2   -1    0    0  503    0  0.00000000000E+00  0.00000000000E+00  0.52293173669E+03  0.52293173669E+03  0.00000000000E+00 0.  1.
         21   -1    0    0  501  502 -0.00000000000E+00 -0.00000000000E+00 -0.23019828639E+01  0.23019828639E+01  0.00000000000E+00 0.  1.
          2    1    1    2  501    0  0.30139185938E+02 -0.16073609502E+02  0.30638655761E+03  0.30828469657E+03  0.00000000000E+00 0.  1.
         21    1    1    2  503  502 -0.30139185938E+02  0.16073609502E+02  0.21424319622E+03  0.21694902299E+03  0.00000000000E+00 0.  1.
</event>
<event>
 4    1  0.2243645E+005  0.3427824E+02  0.7546771E-02  0.1385710E+00
          2   -1    0    0  503    0  0.00000000000E+00  0.00000000000E+00  0.18332674116E+04  0.18332674116E+04  0.00000000000E+00 0.  1.
         21   -1    0    0  501  502 -0.00000000000E+00 -0.00000000000E+00 -0.21173258420E+02  0.21173258420E+02  0.00000000000E+00 0.  1.
          2    1    1    2  501    0 -0.30553792217E+02 -0.15539105369E+02  0.18191257277E+04  0.18194486558E+04  0.00000000000E+00 0.  1.
         21    1    1    2  503  502  0.30553792217E+02  0.15539105369E+02 -0.70315745493E+01  0.34992014162E+02  0.00000000000E+00 0.  1.
</event>
<event>
 4    1  0.2243645E+005  0.2526375E+02  0.7546771E-02  0.1465874E+00
          2   -1    0    0  502    0  0.00000000000E+00  0.00000000000E+00  0.75857370302E+02  0.75857370302E+02  0.00000000000E+00 0. -1.
         21   -1    0    0  503  502 -0.00000000000E+00 -0.00000000000E+00 -0.52130979624E+02  0.52130979624E+02  0.00000000000E+00 0. -1.
          2    1    1    2  501    0  0.25180790246E+02  0.20456800762E+01  0.70465949667E+02  0.74857912520E+02  0.00000000000E+00 0. -1.
         21    1    1    2  503  501 -0.25180790246E+02 -0.20456800762E+01 -0.46739558989E+02  0.53130437405E+02  0.00000000000E+00 0. -1.
</event>
<event>
 4    1  0.2243645E+005  0.2990657E+02  0.7546771E-02  0.1420410E+00
          2   -1    0    0  502    0  0.00000000000E+00  0.00000000000E+00  0.32749847335E+04  0.32749847335E+04  0.00000000000E+00 0.  1.
         21   -1    0    0  503  502 -0.00000000000E+00 -0.00000000000E+00 -0.27719081405E+00  0.27719081405E+00  0.00000000000E+00 0.  1.
          2    1    1    2  501    0  0.29848530320E+02  0.18622798163E+01  0.18362645226E+04  0.18365080451E+04  0.00000000000E+00 0.  1.
         21    1    1    2  503  501 -0.29848530320E+02 -0.18622798163E+01  0.14384430200E+04  0.14387538791E+04  0.00000000000E+00 0.  1.
</event>
<event>
 4    1  0.2243645E+005  0.2623069E+02  0.7546771E-02  0.1455493E+00
          2   -1    0    0  503    0  0.00000000000E+00  0.00000000000E+00  0.32435943420E+03  0.32435943420E+03  0.00000000000E+00 0.  1.
         21   -1    0    0  501  502 -0.00000000000E+00 -0.00000000000E+00 -0.27822218366E+01  0.27822218366E+01  0.00000000000E+00 0. -1.
          2    1    1    2  501    0 -0.21098382302E+02 -0.15585479415E+02  0.24051460685E+03  0.24194074691E+03  0.00000000000E+00 0.  1.
         21    1    1    2  503  502  0.21098382302E+02  0.15585479415E+02  0.81062605507E+02  0.85200909126E+02  0.00000000000E+00 0. -1.
</event>
<event>
 4    1  0.2243645E+005  0.2775679E+02  0.7546771E-02  0.1440151E+00
          2   -1    0    0  502    0  0.00000000000E+00  0.00000000000E+00  0.11296997203E+04  0.11296997203E+04  0.00000000000E+00 0. -1.
         21   -1    0    0  503  502 -0.00000000000E+00 -0.00000000000E+00 -0.63503816957E+01  0.63503816957E+01  0.00000000000E+00 0.  1.
          2    1    1    2  501    0 -0.85727417065E+00 -0.27743548075E+02  0.10983327273E+04  0.10986834026E+04  0.00000000000E+00 0. -1.
         21    1    1    2  503  501  0.85727417065E+00  0.27743548075E+02  0.25016611273E+02  0.37366699324E+02  0.00000000000E+00 0.  1.
</event>
<event>
 4    1  0.2243645E+005  0.2723502E+02  0.7546771E-02  0.1445261E+00
          2   -1    0    0  503    0  0.00000000000E+00  0.00000000000E+00  0.69289807295E+02  0.69289807295E+02  0.00000000000E+00 0. -1.
         21   -1    0    0  501  502 -0.00000000000E+00 -0.00000000000E+00 -0.12418177697E+04  0.12418177697E+04  0.00000000000E+00 0. -1.
          2    1    1    2  501    0  0.22476828047E+02  0.15379813751E+02  0.66458118055E+02  0.71822196607E+02  0.00000000000E+00 0. -1.
         21    1    1    2  503  502 -0.22476828047E+02 -0.15379813751E+02 -0.12389860805E+04  0.12392853804E+04  0.00000000000E+00 0. -1.
</event>
<event>
 4    1  0.2243645E+005  0.6572830E+02  0.7546771E-02  0.1241521E+00
          2   -1    0    0  502    0  0.00000000000E+00  0.00000000000E+00  0.48184669654E+03  0.48184669654E+03  0.00000000000E+00 0. -1.
         21   -1    0    0  503  502 -0.00000000000E+00 -0.00000000000E+00 -0.56236267703E+02  0.56236267703E+02  0.00000000000E+00 0.  1.
          2    1    1    2  501    0 -0.44435890454E+01 -0.65577922588E+02  0.45946894779E+03  0.46414644607E+03  0.00000000000E+00 0. -1.
         21    1    1    2  503  501  0.44435890454E+01  0.65577922588E+02 -0.33858518951E+02  0.73936518177E+02  0.00000000000E+00 0.  1.
</event>
<event>
 4    1  0.2243645E+005  0.2095035E+02  0.7546771E-02  0.1519975E+00
          2   -1    0    0  502    0  0.00000000000E+00  0.00000000000E+00  0.13518585275E+04  0.13518585275E+04  0.00000000000E+00 0.  1.
         21   -1    0    0  503  502 -0.00000000000E+00 -0.00000000000E+00 -0.15062260511E+01  0.15062260511E+01  0.00000000000E+00 0.  1.
          2    1    1    2  501    0  0.32411713179E+00  0.20947839464E+02  0.12745057308E+04  0.12746779102E+04  0.00000000000E+00 0.  1.
         21    1    1    2  503  501 -0.32411713179E+00 -0.20947839464E+02  0.75846570687E+02  0.78686843342E+02  0.00000000000E+00 0.  1.
</event>
<event>
 4    1  0.2243645E+005  0.4221865E+02  0.7546771E-02  0.1335953E+00
          2   -1    0    0  503    0  0.00000000000E+00  0.00000000000E+00  0.16670053659E+04  0.16670053659E+04  0.00000000000E+00 0.  1.
         21   -1    0    0  501  502 -0.00000000000E+00 -0.00000000000E+00 -0.33542631566E+01  0.33542631566E+01  0.00000000000E+00 0.  1.
          2    1    1    2  501    0 -0.36437814004E+01 -0.42061110162E+02  0.15211561605E+04  0.15217419225E+04  0.00000000000E+00 0.  1.
         21    1    1    2  503  502  0.36437814004E+01  0.42061110162E+02  0.14249494225E+03  0.14861770654E+03  0.00000000000E+00 0.  1.
</event>
<event>
 4    1  0.2243645E+005  0.2093724E+02  0.7546771E-02  0.1520163E+00
          2   -1    0    0  503    0  0.00000000000E+00  0.00000000000E+00  0.26834652980E+02  0.26834652980E+02  0.00000000000E+00 0.  1.
         21   -1    0    0  501  502 -0.00000000000E+00 -0.00000000000E+00 -0.63495219085E+02  0.63495219085E+02  0.00000000000E+00 0. -1.
          2    1    1    2  501    0 -0.52412724863E+01 -0.20270593884E+02  0.20593469217E+02  0.29367650367E+02  0.00000000000E+00 0.  1.
         21    1    1    2  503  502  0.52412724863E+01  0.20270593884E+02 -0.57254035322E+02  0.60962221698E+02  0.00000000000E+00 0. -1.
</event>
<event>
 4    1  0.2243645E+005  0.2124845E+02  0.7546771E-02  0.1515747E+00
          2   -1    0    0  502    0  0.00000000000E+00  0.00000000000E+00  0.35264465240E+03  0.35264465240E+03  0.00000000000E+00 0. -1.
         21   -1    0    0  503  502 -0.00000000000E+00 -0.00000000000E+00 -0.19005392398E+01  0.19005392398E+01  0.00000000000E+00 0. -1.
          2    1    1    2  501    0  0.16182828764E+02 -0.13769990757E+02  0.27664121478E+03  0.27745604752E+03  0.00000000000E+00 0. -1.
         21    1    1    2  503  501 -0.16182828764E+02  0.13769990757E+02  0.74102898382E+02  0.77089144118E+02  0.00000000000E+00 0. -1.
</event>
<event>
 4    1  0.2243645E+005  0.3359930E+02  0.7546771E-02  0.1390687E+00
          2   -1    0    0  502    0  0.00000000000E+00  0.00000000000E+00  0.78687442658E+02  0.78687442658E+02  0.00000000000E+00 0.  1.
         21   -1    0    0  503  502 -0.00000000000E+00 -0.00000000000E+00 -0.43358884212E+02  0.43358884212E+02  0.00000000000E+00 0. -1.
          2    1    1    2  501    0  0.27080796681E+02 -0.19888279380E+02  0.67580892775E+02  0.75472447117E+02  0.00000000000E+00 0.  1.
         21    1    1    2  503  501 -0.27080796681E+02  0.19888279380E+02 -0.32252334329E+02  0.46573879753E+02  0.00000000000E+00 0. -1.
</event>
<event>
 4    1  0.2243645E+005  0.5431900E+02  0.7546771E-02  0.1280460E+00
          2   -1    0    0  502    0  0.00000000000E+00  0.00000000000E+00  0.61184955689E+03  0.61184955689E+03  0.00000000000E+00 0.  1.
         21   -1    0    0  503  502 -0.00000000000E+00 -0.00000000000E+00 -0.28038167432E+02  0.28038167432E+02  0.00000000000E+00 0.  1.
          2    1    1    2  501    0 -0.32395312035E+02 -0.43601581639E+02  0.58303836137E+03  0.58556322032E+03  0.00000000000E+00 0.  1.
         21    1    1    2  503  501  0.32395312035E+02  0.43601581639E+02  0.77302809428E+00  0.54324504007E+02  0.00000000000E+00 0.  1.
</event>
<event>
 4    1  0.2243645E+005  0.2231802E+02  0.7546771E-02  0.1501244E+00
          2   -1    0    0  503    0  0.00000000000E+00  0.00000000000E+00  0.72476120231E+02  0.72476120231E+02  0.00000000000E+00 0.  1.
         21   -1    0    0  501  502 -0.00000000000E+00 -0.00000000000E+00 -0.14234285399E+03  0.14234285399E+03  0.00000000000E+00 0. -1.
          2    1    1    2  501    0 -0.96417070841E+01 -0.20127873747E+02  0.69851098959E+02  0.73329870059E+02  0.00000000000E+00 0.  1.
         21    1    1    2  503  502  0.96417070841E+01  0.20127873747E+02 -0.13971783271E+03  0.14148910416E+03  0.00000000000E+00 0. -1.
</event>
<event>
 4    1  0.2243645E+005  0.2054079E+02  0.7546771E-02  0.1525923E+00
          2   -1    0    0  503    0  0.00000000000E+00  0.00000000000E+00  0.68932504206E+02  0.68932504206E+02  0.00000000000E+00 0. -1.
         21   -1    0    0  501  502 -0.00000000000E+00 -0.00000000000E+00 -0.46468401406E+02  0.46468401406E+02  0.00000000000E+00 0.  1.
          2    1    1    2  501    0  0.53064192296E+01  0.19843536449E+02  0.64998216792E+02  0.68166650277E+02  0.00000000000E+00 0. -1.
         21    1    1    2  503  502 -0.53064192296E+01 -0.19843536449E+02 -0.42534113992E+02  0.47234255334E+02  0.00000000000E+00 0.  1.
</event>
<event>
 4    1  0.2243645E+005  0.2021109E+02  0.7546771E-02  0.1530833E+00
          2   -1    0    0  503    0  0.00000000000E+00  0.00000000000E+00  0.81257710921E+01  0.81257710921E+01  0.00000000000E+00 0.  1.
         21   -1    0    0  501  502 -0.00000000000E+00 -0.00000000000E+00 -0.73401038707E+02  0.73401038707E+02  0.00000000000E+00 0.  1.
          2    1    1    2  501    0 -0.20133846268E+02  0.17652854304E+01 -0.97547592293E+01  0.22441999149E+02  0.00000000000E+00 0.  1.
         21    1    1    2  503  502  0.20133846268E+02 -0.17652854304E+01 -0.55520508386E+02  0.59084810650E+02  0.00000000000E+00 0.  1.
</event>
<event>
 4    1  0.2243645E+005  0.3819150E+02  0.7546771E-02  0.1359422E+00
          2   -1    0    0  503    0  0.00000000000E+00  0.00000000000E+00  0.11116967480E+03  0.11116967480E+03  0.00000000000E+00 0. -1.
         21   -1    0    0  501  502 -0.00000000000E+00 -0.00000000000E+00 -0.37357363894E+02  0.37357363894E+02  0.00000000000E+00 0. -1.
          2    1    1    2  501    0 -0.11280479994E+02 -0.36487556173E+02  0.96723412205E+02  0.10399042962E+03  0.00000000000E+00 0. -1.
         21    1    1    2  503  502  0.11280479994E+02  0.36487556173E+02 -0.22911101302E+02  0.44536609068E+02  0.00000000000E+00 0. -1.
</event>
<event>
 4    1  0.2243645E+005  0.2020103E+02  0.7546771E-02  0.1530984E+00
          2   -1    0    0  502    0  0.00000000000E+00  0.00000000000E+00  0.81440654831E+03  0.81440654831E+03  0.00000000000E+00 0.  1.
         21   -1    0    0  503  502 -0.00000000000E+00 -0.00000000000E+00 -0.14656804366E+02  0.14656804366E+02  0.00000000000E+00 0. -1.
          2    1    1    2  501    0 -0.17188671256E+02 -0.10612791486E+02  0.80725903897E+03  0.80751175704E+03  0.00000000000E+00 0.  1.
         21    1    1    2  503  501  0.17188671256E+02  0.10612791486E+02 -0.75092950247E+01  0.21551595636E+02  0.00000000000E+00 0. -1.
</event>
<event>
 4    1  0.2243645E+005  0.2630332E+02  0.7546771E-02  0.1454735E+00
          2   -1    0    0  503    0  0.00000000000E+00  0.00000000000E+00  0.26217512597E+03  0.26217512597E+03  0.00000000000E+00 0. -1.
         21   -1    0    0  501  502 -0.00000000000E+00 -0.00000000000E+00 -0.26573804096E+01  0.26573804096E+01  0.00000000000E+00 0.  1.
          2    1    1    2  501    0 -0.20889195431E+02  0.15984565994E+02  0.11872872456E+03  0.12160746224E+03  0.00000000000E+00 0. -1.
         21    1    1    2  503  502  0.20889195431E+02 -0.15984565994E+02  0.14078902099E+03  0.14322504414E+03  0.00000000000E+00 0.  1.
</event>
<event>
 4    1  0.2243645E+005  0.2904751E+02  0.7546771E-02  0.1428058E+00
          2   -1    0    0  502    0  0.00000000000E+00  0.00000000000E+00  0.68032385673E+02  0.68032385673E+02  0.00000000000E+00 0.  1.
         21   -1    0    0  503  502 -0.00000000000E+00 -0.00000000000E+00 -0.68864269568E+03  0.68864269568E+03  0.00000000000E+00 0. -1.
          2    1    1    2  501    0 -0.68800100936E+01 -0.28220976977E+02  0.64610019567E+02  0.70839344357E+02  0.00000000000E+00 0.  1.
         21    1    1    2  503  501  0.68800100936E+01  0.28220976977E+02 -0.68522032958E+03  0.68583573700E+03  0.00000000000E+00 0. -1.
</event>
<event>
 4    1  0.2243645E+005  0.3098267E+02  0.7546771E-02  0.1411245E+00
          2   -1    0    0  502    0  0.00000000000E+00  0.00000000000E+00  0.62696342656E+03  0.62696342656E+03  0.00000000000E+00 0. -1.
         21   -1    0    0  503  502 -0.00000000000E+00 -0.00000000000E+00 -0.44006244648E+01  0.44006244648E+01  0.00000000000E+00 0.  1.
          2    1    1    2  501    0 -0.17780037320E+02  0.25373136107E+02  0.56619900702E+03  0.56704606631E+03  0.00000000000E+00 0. -1.
         21    1    1    2  503  501  0.17780037320E+02 -0.25373136107E+02  0.56363795076E+02  0.64317984719E+02  0.00000000000E+00 0.  1.
</event>
<event>
 4    1  0.2243645E+005  0.2007946E+02  0.7546771E-02  0.1532825E+00
          2   -1    0    0  503    0  0.00000000000E+00  0.00000000000E+00  0.13151524182E+04  0.13151524182E+04  0.00000000000E+00 0. -1.
         21   -1    0    0  501  502 -0.00000000000E+00 -0.00000000000E+00 -0.93455144790E+00  0.93455144790E+00  0.00000000000E+00 0. -1.
          2    1    1    2  501    0  0.16502382095E+02 -0.11439232502E+02  0.11965286538E+04  0.11966971229E+04  0.00000000000E+00 0. -1.
         21    1    1    2  503  502 -0.16502382095E+02  0.11439232502E+02  0.11768921297E+03  0.11938984673E+03  0.00000000000E+00 0. -1.
</event>
<event>
 4    1  0.2243645E+005  0.2773396E+02  0.7546771E-02  0.1440371E+00
          2   -1    0    0  502    0  0.00000000000E+00  0.00000000000E+00  0.46804947914E+03  0.46804947914E+03  0.00000000000E+00 0.  1.
         21   -1    0    0  503  502 -0.00000000000E+00 -0.00000000000E+00 -0.69578768432E+01  0.69578768432E+01  0.00000000000E+00 0.  1.
          2    1    1    2  501    0  0.11064313352E+02  0.25431345879E+02  0.43811551554E+03  0.43899245704E+03  0.00000000000E+00 0.  1.
         21    1    1    2  503  501 -0.11064313352E+02 -0.25431345879E+02  0.22976086761E+02  0.36014898945E+02  0.00000000000E+00 0.  1.
</event>
<event>
 4    1  0.2243645E+005  0.2975622E+02  0.7546771E-02  0.1421727E+00
          2   -1    0    0  503    0  0.00000000000E+00  0.00000000000E+00  0.18256371615E+04  0.18256371615E+04  0.00000000000E+00 0.  1.
         21   -1    0    0  501  502 -0.00000000000E+00 -0.00000000000E+00 -0.66744783625E+01  0.66744783625E+01  0.00000000000E+00 0. -1.
          2    1    1    2  501    0 -0.29754349295E+02 -0.33323473350E+00  0.17917233575E+04  0.17919704301E+04  0.00000000000E+00 0.  1.
         21    1    1    2  503  502  0.29754349295E+02  0.33323473350E+00  0.27239325603E+02  0.40341209782E+02  0.00000000000E+00 0. -1.
</event>
<event>
 4    1  0.2243645E+005  0.3510958E+02  0.7546771E-02  0.1379794E+00
          2   -1    0    0  503    0  0.00000000000E+00  0.00000000000E+00  0.22527517257E+04  0.22527517257E+04  0.00000000000E+00 0.  1.
         21   -1    0    0  501  502 -0.00000000000E+00 -0.00000000000E+00 -0.98298658213E+02  0.98298658213E+02  0.00000000000E+00 0. -1.
          2    1    1    2  501    0 -0.34881837274E+02  0.39925239624E+01  0.22494753174E+04  0.22497492941E+04  0.00000000000E+00 0.  1.
         21    1    1    2  503  502  0.34881837274E+02 -0.39925239624E+01 -0.95022249900E+02  0.10130108980E+03  0.00000000000E+00 0. -1.
</event>
<event>
 4    1  0.2243645E+005  0.3216696E+02  0.7546771E-02  0.1401655E+00
          2   -1    0    0  502    0  0.00000000000E+00  0.00000000000E+00  0.21145665107E+03  0.21145665107E+03  0.00000000000E+00 0. -1.
         21   -1    0    0  503  502 -0.00000000000E+00 -0.00000000000E+00 -0.22946101100E+02  0.22946101100E+02  0.00000000000E+00 0.  1.
          2    1    1    2  501    0  0.31942441483E+02 -0.37939203213E+01  0.19821161498E+03  0.20080477512E+03  0.00000000000E+00 0. -1.
         21    1    1    2  503  501 -0.31942441483E+02  0.37939203213E+01 -0.97010650099E+01  0.33597977046E+02  0.00000000000E+00 0.  1.
</event>
<event>
 4    1  0.2243645E+005  0.2340144E+02  0.7546771E-02  0.1487518E+00
          2   -1    0    0  503    0  0.00000000000E+00  0.00000000000E+00  0.10853073029E+04  0.10853073029E+04  0.00000000000E+00 0.  1.
         21   -1    0    0  501  502 -0.00000000000E+00 -0.00000000000E+00 -0.34248387804E+02  0.34248387804E+02  0.00000000000E+00 0. -1.
          2    1    1    2  501    0 -0.47483546006E+01 -0.22914635895E+02  0.10811683874E+04  0.10814216150E+04  0.00000000000E+00 0.  1.
         21    1    1    2  503  502  0.47483546006E+01  0.22914635895E+02 -0.30109472305E+02  0.38134075734E+02  0.00000000000E+00 0. -1.
</event>
<event>
 4    1  0.2243645E+005  0.3595139E+02  0.7546771E-02  0.1373995E+00
          2   -1    0    0  503    0  0.00000000000E+00  0.00000000000E+00  0.28047028885E+03  0.28047028885E+03  0.00000000000E+00 0.  1.
         21   -1    0    0  501  502 -0.00000000000E+00 -0.00000000000E+00 -0.38232488348E+02  0.38232488348E+02  0.00000000000E+00 0.  1.
          2    1    1    2  501    0  0.20090979370E+02 -0.29813671665E+02  0.27055833493E+03  0.27293646710E+03  0.00000000000E+00 0.  1.
         21    1    1    2  503  502 -0.20090979370E+02  0.29813671665E+02 -0.28320534428E+02  0.45766310103E+02  0.00000000000E+00 0.  1.
</event>
<event>
 4    1  0.2243645E+005  0.3272814E+02  0.7546771E-02  0.1397279E+00
          2   -1    0    0  502    0  0.00000000000E+00  0.00000000000E+00  0.30424882712E+03  0.30424882712E+03  0.00000000000E+00 0.  1.
         21   -1    0    0  503  502 -0.00000000000E+00 -0.00000000000E+00 -0.60724163404E+01  0.60724163404E+01  0.00000000000E+00 0. -1.
          2    1    1    2  501    0  0.29804921238E+02 -0.13520274493E+02  0.24967187615E+03  0.25180781737E+03  0.00000000000E+00 0.  1.
         21    1    1    2  503  501 -0.29804921238E+02  0.13520274493E+02  0.48504534635E+02  0.58513426088E+02  0.00000000000E+00 0. -1.
</event>
<event>
 4    1  0.2243645E+005  0.2510983E+02  0.7546771E-02  0.1467578E+00
          2   -1    0    0  503    0  0.00000000000E+00  0.00000000000E+00  0.19087158584E+04  0.19087158584E+04  0.00000000000E+00 0. -1.
         21   -1    0    0  501  502 -0.00000000000E+00 -0.00000000000E+00 -0.61223455631E+00  0.61223455631E+00  0.00000000000E+00 0.  1.
          2    1    1    2  501    0  0.23293243351E+02  0.93770073757E+01  0.16018560235E+04  0.16020528154E+04  0.00000000000E+00 0. -1.
         21    1    1    2  503  502 -0.23293243351E+02 -0.93770073757E+01  0.30624760032E+03  0.30727527749E+03  0.00000000000E+00 0.  1.
</event>
<event>
 4    1  0.2243645E+005  0.2388442E+02  0.7546771E-02  0.1481681E+00
          2   -1    0    0  503    0  0.00000000000E+00  0.00000000000E+00  0.65177939735E+01  0.65177939735E+01  0.00000000000E+00 0.  1.
         21   -1    0    0  501  502 -0.00000000000E+00 -0.00000000000E+00 -0.26624905638E+03  0.26624905638E+03  0.00000000000E+00 0.  1.
          2    1    1    2  501    0 -0.96905707962E+00 -0.23864751671E+02 -0.18125315272E+02  0.29983203592E+02  0.00000000000E+00 0.  1.
         21    1    1    2  503  502  0.96905707962E+00  0.23864751671E+02 -0.24160594713E+03  0.24278364676E+03  0.00000000000E+00 0.  1.
</event>
<event>
 4    1  0.2243645E+005  0.2334902E+02  0.7546771E-02  0.1488161E+00
          2   -1    0    0  503    0  0.00000000000E+00  0.00000000000E+00  0.10686426458E+02  0.10686426458E+02  0.00000000000E+00 0. -1.
         21   -1    0    0  501  502 -0.00000000000E+00 -0.00000000000E+00 -0.54110435986E+02  0.54110435986E+02  0.00000000000E+00 0. -1.
          2    1    1    2  501    0 -0.65249643530E+01 -0.22418778317E+02 -0.13964050859E+02  0.27206093021E+02  0.00000000000E+00 0. -1.
         21    1    1    2  503  502  0.65249643530E+01  0.22418778317E+02 -0.29459958669E+02  0.37590769424E+02  0.00000000000E+00 0. -1.
</event>
<event>
 4    1  0.2243645E+005  0.2371792E+02  0.7546771E-02  0.1483675E+00
          2   -1    0    0  503    0  0.00000000000E+00  0.00000000000E+00  0.15498636932E+04  0.15498636932E+04  0.00000000000E+00 0. -1.
         21   -1    0    0  501  502 -0.00000000000E+00 -0.00000000000E+00 -0.35234113877E+02  0.35234113877E+02  0.00000000000E+00 0. -1.
          2    1    1    2  501    0 -0.12193967816E+01  0.23686549786E+02  0.15457709443E+04  0.15459528944E+04  0.00000000000E+00 0. -1.
         21    1    1    2  503  502  0.12193967816E+01 -0.23686549786E+02 -0.31141365004E+02  0.39144912615E+02  0.00000000000E+00 0. -1.
</event>
<event>
 4    1  0.2243645E+005  0.4347945E+02  0.7546771E-02  0.1329220E+00
          2   -1    0    0  503    0  0.00000000000E+00  0.00000000000E+00  0.25290682012E+04  0.25290682012E+04  0.00000000000E+00 0.  1.
         21   -1    0    0  501  502 -0.00000000000E+00 -0.00000000000E+00 -0.62057276235E+01  0.62057276235E+01  0.00000000000E+00 0. -1.
          2    1    1    2  501    0  0.40854567805E+02  0.14878389413E+02  0.24502745453E+04  0.24506602804E+04  0.00000000000E+00 0.  1.
         21    1    1    2  503  502 -0.40854567805E+02 -0.14878389413E+02  0.72587928282E+02  0.84613648511E+02  0.00000000000E+00 0. -1.
</event>
<event>
 4    1  0.2243645E+005  0.2140837E+02  0.7546771E-02  0.1513514E+00
          2   -1    0    0  503    0  0.00000000000E+00  0.00000000000E+00  0.88351948272E+03  0.88351948272E+03  0.00000000000E+00 0.  1.
         21   -1    0    0  501  502 -0.00000000000E+00 -0.00000000000E+00 -0.59440137426E+00  0.59440137426E+00  0.00000000000E+00 0.  1.
          2    1    1    2  501    0 -0.16817247305E+02  0.13247587524E+02  0.28374841258E+03  0.28455488052E+03  0.00000000000E+00 0.  1.
         21    1    1    2  503  502  0.16817247305E+02 -0.13247587524E+02  0.59917666876E+03  0.59955900358E+03  0.00000000000E+00 0.  1.
</event>
<event>
 4    1  0.2243645E+005  0.2024736E+02  0.7546771E-02  0.1530287E+00
          2   -1    0    0  502    0  0.00000000000E+00  0.00000000000E+00  0.60542083798E+03  0.60542083798E+03  0.00000000000E+00 0.  1.
         21   -1    0    0  503  502 -0.00000000000E+00 -0.00000000000E+00 -0.78239773730E+00  0.78239773730E+00  0.00000000000E+00 0.  1.
          2    1    1    2  501    0  0.15601979937E+02 -0.12904791209E+02  0.41349211846E+03  0.41398754503E+03  0.00000000000E+00 0.  1.
         21    1    1    2  503  501 -0.15601979937E+02  0.12904791209E+02  0.19114632178E+03  0.19221569068E+03  0.00000000000E+00 0.  1.
</event>
<event>
 4    1  0.2243645E+005  0.6975752E+02  0.7546771E-02  0.1229857E+00
          2   -1    0    0  502    0  0.00000000000E+00  0.00000000000E+00  0.25361952476E+04  0.25361952476E+04  0.00000000000E+00 0. -1.
         21   -1    0    0  503  502 -0.00000000000E+00 -0.00000000000E+00 -0.45535813434E+02  0.45535813434E+02  0.00000000000E+00 0.  1.
          2    1    1    2  501    0 -0.14916372415E+02  0.68144067250E+02  0.25087070577E+04  0.25096767149E+04  0.00000000000E+00 0. -1.
         21    1    1    2  503  501  0.14916372415E+02 -0.68144067250E+02 -0.18047623596E+02  0.72054346051E+02  0.00000000000E+00 0.  1.
</event>
<event>
 4    1  0.2243645E+005  0.4199252E+02  0.7546771E-02  0.1337189E+00
          2   -1    0    0  503    0  0.00000000000E+00  0.00000000000E+00  0.71949897270E+03  0.71949897270E+03  0.00000000000E+00 0.  1.
         21   -1    0    0  501  502 -0.00000000000E+00 -0.00000000000E+00 -0.24508601401E+01  0.24508601401E+01  0.00000000000E+00 0. -1.
          2    1    1    2  501    0 -0.39395705905E+02 -0.14537893586E+02  0.35972010135E+03  0.36216284087E+03  0.00000000000E+00 0.  1.
         21    1    1    2  503  502  0.39395705905E+02  0.14537893586E+02  0.35732801121E+03  0.35978699197E+03  0.00000000000E+00 0. -1.
</event>
<event>
 4    1  0.2243645E+005  0.2852774E+02  0.7546771E-02  0.1432837E+00
          2   -1    0    0  503    0  0.00000000000E+00  0.00000000000E+00  0.36552305088E+03  0.36552305088E+03  0.00000000000E+00 0. -1.
         21   -1    0    0  501  502 -0.00000000000E+00 -0.00000000000E+00 -0.65629545150E+01  0.65629545150E+01  0.00000000000E+00 0. -1.
          2    1    1    2  501    0  0.35975154616E+01  0.28300000900E+02  0.33070787551E+03  0.33193603464E+03  0.00000000000E+00 0. -1.
         21    1    1    2  503  502 -0.35975154616E+01 -0.28300000900E+02  0.28252220860E+02  0.40149970759E+02  0.00000000000E+00 0. -1.
</event>
<event>
 4    1  0.2243645E+005  0.2493595E+02  0.7546771E-02  0.1469521E+00
          2   -1    0    0  503    0  0.00000000000E+00  0.00000000000E+00  0.48502608476E+03  0.48502608476E+03  0.00000000000E+00 0.  1.
         21   -1    0    0  501  502 -0.00000000000E+00 -0.00000000000E+00 -0.29044354740E+02  0.29044354740E+02  0.00000000000E+00 0. -1.
          2    1    1    2  501    0 -0.14627944857E+02 -0.20194674524E+02  0.47928939494E+03  0.47993762693E+03  0.00000000000E+00 0.  1.
         21    1    1    2  503  502  0.14627944857E+02  0.20194674524E+02 -0.23307664915E+02  0.34132812566E+02  0.00000000000E+00 0. -1.
</event>
<event>
 4    1  0.2243645E+005  0.2874640E+02  0.7546771E-02  0.1430812E+00
          2   -1    0    0  502    0  0.00000000000E+00  0.00000000000E+00  0.96031072922E+03  0.96031072922E+03  0.00000000000E+00 0.  1.
         21   -1    0    0  503  502 -0.00000000000E+00 -0.00000000000E+00 -0.93348745748E+00  0.93348745748E+00  0.00000000000E+00 0.  1.
          2    1    1    2  501    0 -0.28680199724E+02 -0.19498454681E+01  0.61407265756E+03  0.61474513786E+03  0.00000000000E+00 0.  1.
         21    1    1    2  503  501  0.28680199724E+02  0.19498454681E+01  0.34530458420E+03  0.34649907882E+03  0.00000000000E+00 0.  1.
</event>
<event>
 4    1  0.2243645E+005  0.2120156E+02  0.7546771E-02  0.1516407E+00
          2   -1    0    0  503    0  0.00000000000E+00  0.00000000000E+00  0.81117556728E+03  0.81117556728E+03  0.00000000000E+00 0.  1.
         21   -1    0    0  501  502 -0.00000000000E+00 -0.00000000000E+00 -0.71037119395E+01  0.71037119395E+01  0.00000000000E+00 0.  1.
          2    1    1    2  501    0  0.12705457893E+02 -0.16972840209E+02  0.79489365426E+03  0.79517634997E+03  0.00000000000E+00 0.  1.
         21    1    1    2  503  502 -0.12705457893E+02  0.16972840209E+02  0.91782010831E+01  0.23102929254E+02  0.00000000000E+00 0.  1.
</event>
<event>
 4    1  0.2243645E+005  0.2088345E+02  0.7546771E-02  0.1520935E+00
          2   -1    0    0  502    0  0.00000000000E+00  0.00000000000E+00  0.10008239754E+03  0.10008239754E+03  0.00000000000E+00 0. -1.
         21   -1    0    0  503  502 -0.00000000000E+00 -0.00000000000E+00 -0.46106705336E+01  0.46106705336E+01  0.00000000000E+00 0. -1.
          2    1    1    2  501    0  0.22578680809E+01 -0.20761031827E+02  0.59999865263E+02  0.63530325376E+02  0.00000000000E+00 0. -1.
         21    1    1    2  503  501 -0.22578680809E+01  0.20761031827E+02  0.35471861741E+02  0.41162742695E+02  0.00000000000E+00 0. -1.
</event>
<event>
 4    1  0.2243645E+005  0.2617316E+02  0.7546771E-02  0.1456095E+00
          2   -1    0    0  502    0  0.00000000000E+00  0.00000000000E+00  0.11348164034E+04  0.11348164034E+04  0.00000000000E+00 0.  1.
         21   -1    0    0  503  502 -0.00000000000E+00 -0.00000000000E+00 -0.55038007005E+01  0.55038007005E+01  0.00000000000E+00 0. -1.
          2    1    1    2  501    0  0.85077745023E+01  0.24751804881E+02  0.11026412288E+04  0.11029518183E+04  0.00000000000E+00 0.  1.
         21    1    1    2  503  501 -0.85077745023E+01 -0.24751804881E+02  0.26671373956E+02  0.37368385843E+02  0.00000000000E+00 0. -1.
</event>
<event>
 4    1  0.2243645E+005  0.2075976E+02  0.7546771E-02  0.1522723E+00
          2   -1    0    0  503    0  0.00000000000E+00  0.00000000000E+00  0.15122001125E+03  0.15122001125E+03  0.00000000000E+00 0. -1.
         21   -1    0    0  501  502 -0.00000000000E+00 -0.00000000000E+00 -0.36027552551E+01  0.36027552551E+01  0.00000000000E+00 0. -1.
          2    1    1    2  501    0  0.10769254708E+02  0.17747977385E+02  0.10919470648E+03  0.11115058017E+03  0.00000000000E+00 0. -1.
         21    1    1    2  503  502 -0.10769254708E+02 -0.17747977385E+02  0.38422549506E+02  0.43672186329E+02  0.00000000000E+00 0. -1.
</event>
<event>
 4    1  0.2243645E+005  0.3180234E+02  0.7546771E-02  0.1404555E+00
          2   -1    0    0  503    0  0.00000000000E+00  0.00000000000E+00  0.89994647625E+02  0.89994647625E+02  0.00000000000E+00 0.  1.
         21   -1    0    0  501  502 -0.00000000000E+00 -0.00000000000E+00 -0.11306144281E+02  0.11306144281E+02  0.00000000000E+00 0.  1.
          2    1    1    2  501    0 -0.14359803930E+02  0.28375778714E+02  0.43267206117E+02  0.53697671381E+02  0.00000000000E+00 0.  1.
         21    1    1    2  503  502  0.14359803930E+02 -0.28375778714E+02  0.35421297227E+02  0.47603120525E+02  0.00000000000E+00 0.  1.
</event>
<event>
 4    1  0.2243645E+005  0.2971867E+02  0.7546771E-02  0.1422057E+00
          2   -1    0    0  502    0  0.00000000000E+00  0.00000000000E+00  0.13864578959E+04  0.13864578959E+04  0.00000000000E+00 0. -1.
         21   -1    0    0  503  502 -0.00000000000E+00 -0.00000000000E+00 -0.26372377708E+01  0.26372377708E+01  0.00000000000E+00 0.  1.
          2    1    1    2  501    0  0.42415875116E+01  0.29414421080E+02  0.12967860626E+04  0.12971265518E+04  0.00000000000E+00 0. -1.
         21    1    1    2  503  501 -0.42415875116E+01 -0.29414421080E+02  0.87034595506E+02  0.91968581847E+02  0.00000000000E+00 0.  1.
</event>
<event>
 4    1  0.2243645E+005  0.3037936E+02  0.7546771E-02  0.1416328E+00
          2   -1    0    0  502    0  0.00000000000E+00  0.00000000000E+00  0.12123476009E+04  0.12123476009E+04  0.00000000000E+00 0.  1.
         21   -1    0    0  503  502 -0.00000000000E+00 -0.00000000000E+00 -0.34065920239E+01  0.34065920239E+01  0.00000000000E+00 0.  1.
          2    1    1    2  501    0  0.29223028633E+02 -0.83018279620E+01  0.11401391393E+04  0.11405438013E+04  0.00000000000E+00 0.  1.
         21    1    1    2  503  501 -0.29223028633E+02  0.83018279620E+01  0.68801869648E+02  0.75210391683E+02  0.00000000000E+00 0.  1.
</event>
<event>
 4    1  0.2243645E+005  0.2689991E+02  0.7546771E-02  0.1448616E+00
          2   -1    0    0  502    0  0.00000000000E+00  0.00000000000E+00  0.65210375790E+03  0.65210375790E+03  0.00000000000E+00 0. -1.
         21   -1    0    0  503  502 -0.00000000000E+00 -0.00000000000E+00 -0.56181512633E+02  0.56181512633E+02  0.00000000000E+00 0.  1.
          2    1    1    2  501    0  0.24899278369E+02  0.10179938489E+02  0.64858896060E+03  0.64914655127E+03  0.00000000000E+00 0. -1.
         21    1    1    2  503  501 -0.24899278369E+02 -0.10179938489E+02 -0.52666715339E+02  0.59138719259E+02  0.00000000000E+00 0.  1.
</event>
<event>
 4    1  0.2243645E+005  0.3544333E+02  0.7546771E-02  0.1377473E+00
          2   -1    0    0  502    0  0.00000000000E+00  0.00000000000E+00  0.97012351027E+03  0.97012351027E+03  0.00000000000E+00 0. -1.
         21   -1    0    0  503  502 -0.00000000000E+00 -0.00000000000E+00 -0.22447430215E+02  0.22447430215E+02  0.00000000000E+00 0.  1.
          2    1    1    2  501    0  0.19010453919E+02 -0.29913743275E+02  0.95559637074E+03  0.95625344609E+03  0.00000000000E+00 0. -1.
         21    1    1    2  503  501 -0.19010453919E+02  0.29913743275E+02 -0.79202906783E+01  0.36317494399E+02  0.00000000000E+00 0.  1.
</event>
<event>
 4    1  0.2243645E+005  0.5770745E+02  0.7546771E-02  0.1267827E+00
          2   -1    0    0  502    0  0.00000000000E+00  0.00000000000E+00  0.41920829491E+03  0.41920829491E+03  0.00000000000E+00 0.  1.
         21   -1    0    0  503  502 -0.00000000000E+00 -0.00000000000E+00 -0.16232000709E+02  0.16232000709E+02  0.00000000000E+00 0.  1.
          2    1    1    2  501    0 -0.29370472905E+02  0.49674195307E+02  0.35706321699E+03  0.36169640762E+03  0.00000000000E+00 0.  1.
         21    1    1    2  503  501  0.29370472905E+02 -0.49674195307E+02  0.45913077207E+02  0.73743887996E+02  0.00000000000E+00 0.  1.
</event>
<event>
 4    1  0.2243645E+005  0.2300058E+02  0.7546771E-02  0.1492491E+00
          2   -1    0    0  503    0  0.00000000000E+00  0.00000000000E+00  0.26445658221E+01  0.26445658221E+01  0.00000000000E+00 0. -1.
         21   -1    0    0  501  502 -0.00000000000E+00 -0.00000000000E+00 -0.20004826606E+03  0.20004826606E+03  0.00000000000E+00 0. -1.
          2    1    1    2  501    0 -0.18296600895E+02 -0.13937752481E+02 -0.98175708340E+02  0.10083400347E+03  0.00000000000E+00 0. -1.
         21    1    1    2  503  502  0.18296600895E+02  0.13937752481E+02 -0.99227991895E+02  0.10185882840E+03  0.00000000000E+00 0. -1.
</event>
<event>
 4    1  0.2243645E+005  0.3551720E+02  0.7546771E-02  0.1376963E+00
          2   -1    0    0  502    0  0.00000000000E+00  0.00000000000E+00  0.70576884636E+03  0.70576884636E+03  0.00000000000E+00 0. -1.
         21   -1    0    0  503  502 -0.00000000000E+00 -0.00000000000E+00 -0.45011768371E+01  0.45011768371E+01  0.00000000000E+00 0. -1.
          2    1    1    2  501    0  0.20206036019E+02 -0.29209372316E+02  0.62638653619E+03  0.62739267134E+03  0.00000000000E+00 0. -1.
         21    1    1    2  503  501 -0.20206036019E+02  0.29209372316E+02  0.74881133328E+02  0.82877351859E+02  0.00000000000E+00 0. -1.
</event>
<event>
 4    1  0.2243645E+005  0.2416895E+02  0.7546771E-02  0.1478319E+00
          2   -1    0    0  503    0  0.00000000000E+00  0.00000000000E+00  0.12159841320E+03  0.12159841320E+03  0.00000000000E+00 0.  1.
         21   -1    0    0  501  502 -0.00000000000E+00 -0.00000000000E+00 -0.10491233751E+03  0.10491233751E+03  0.00000000000E+00 0.  1.
          2    1    1    2  501    0 -0.16638230762E+02 -0.17530185354E+02  0.11897510700E+03  0.12140516548E+03  0.00000000000E+00 0.  1.
         21    1    1    2  503  502  0.16638230762E+02  0.17530185354E+02 -0.10228903131E+03  0.10510558523E+03  0.00000000000E+00 0.  1.
</event>
<event>
 4    1  0.2243645E+005  0.2199279E+02  0.7546771E-02  0.1505548E+00
          2   -1    0    0  502    0  0.00000000000E+00  0.00000000000E+00  0.27662408983E+03  0.27662408983E+03  0.00000000000E+00 0. -1.
         21   -1    0    0  503  502 -0.00000000000E+00 -0.00000000000E+00 -0.20498255918E+01  0.20498255918E+01  0.00000000000E+00 0. -1.
          2    1    1    2  501    0 -0.60259279462E+01  0.21151142155E+02  0.19070810671E+03  0.19197204116E+03  0.00000000000E+00 0. -1.
         21    1    1    2  503  501  0.60259279462E+01 -0.21151142155E+02  0.83866157530E+02  0.86701874264E+02  0.00000000000E+00 0. -1.
</event>
<event>
 4    1  0.2243645E+005  0.2335935E+02  0.7546771E-02  0.1488034E+00
          2   -1    0    0  503    0  0.00000000000E+00  0.00000000000E+00  0.50230403132E+01  0.50230403132E+01  0.00000000000E+00 0. -1.
         21   -1    0    0  501  502 -0.00000000000E+00 -0.00000000000E+00 -0.15506729343E+03  0.15506729343E+03  0.00000000000E+00 0. -1.
          2    1    1    2  501    0 -0.16114836426E+02  0.16910690558E+02 -0.31219276090E+02  0.38991058049E+02  0.00000000000E+00 0. -1.
         21    1    1    2  503  502  0.16114836426E+02 -0.16910690558E+02 -0.11882497703E+03  0.12109927569E+03  0.00000000000E+00 0. -1.
</event>
<event>
 4    1  0.2243645E+005  0.2168355E+02  0.7546771E-02  0.1509725E+00
          2   -1    0    0  502    0  0.00000000000E+00  0.00000000000E+00  0.71077165244E+02  0.71077165244E+02  0.00000000000E+00 0.  1.
         21   -1    0    0  503  502 -0.00000000000E+00 -0.00000000000E+00 -0.73289169286E+01  0.73289169286E+01  0.00000000000E+00 0.  1.
          2    1    1    2  501    0  0.20035192328E+02 -0.82926113198E+01  0.44109573031E+02  0.49151101382E+02  0.00000000000E+00 0.  1.
         21    1    1    2  503  501 -0.20035192328E+02  0.82926113198E+01  0.19638675285E+02  0.29254980791E+02  0.00000000000E+00 0.  1.
</event>
<event>
 4    1  0.2243645E+005  0.4206639E+02  0.7546771E-02  0.1336784E+00
          2   -1    0    0  503    0  0.00000000000E+00  0.00000000000E+00  0.75974247823E+03  0.75974247823E+03  0.00000000000E+00 0.  1.
         21   -1    0    0  501  502 -0.00000000000E+00 -0.00000000000E+00 -0.28542740517E+02  0.28542740517E+02  0.00000000000E+00 0. -1.
          2    1    1    2  501    0 -0.28100951690E+02 -0.31303638039E+02  0.74331859242E+03  0.74450796576E+03  0.00000000000E+00 0.  1.
         21    1    1    2  503  502  0.28100951690E+02  0.31303638039E+02 -0.12118854702E+02  0.43777252993E+02  0.00000000000E+00 0. -1.
</event>
<event>
 4    1  0.2243645E+005  0.2797406E+02  0.7546771E-02  0.1438061E+00
          2   -1    0    0  503    0  0.00000000000E+00  0.00000000000E+00  0.36574663586E+03  0.36574663586E+03  0.00000000000E+00 0.  1.
         21   -1    0    0  501  502 -0.00000000000E+00 -0.00000000000E+00 -0.12265799361E+03  0.12265799361E+03  0.00000000000E+00 0.  1.
          2    1    1    2  501    0  0.26363076741E+02  0.93560799419E+01  0.36360738845E+03  0.36468189012E+03  0.00000000000E+00 0.  1.
         21    1    1    2  503  502 -0.26363076741E+02 -0.93560799419E+01 -0.12051874620E+03  0.12372273935E+03  0.00000000000E+00 0.  1.
</event>
<event>
 4    1  0.2243645E+005  0.3716487E+02  0.7546771E-02  0.1365951E+00
          2   -1    0    0  503    0  0.00000000000E+00  0.00000000000E+00  0.11925369749E+04  0.11925369749E+04  0.00000000000E+00 0.  1.
         21   -1    0    0  501  502 -0.00000000000E+00 -0.00000000000E+00 -0.14270915770E+02  0.14270915770E+02  0.00000000000E+00 0.  1.
          2    1    1    2  501    0  0.29777728674E+02  0.22237679327E+02  0.11675328038E+04  0.11681241696E+04  0.00000000000E+00 0.  1.
         21    1    1    2  503  502 -0.29777728674E+02 -0.22237679327E+02  0.10733255262E+02  0.38683721064E+02  0.00000000000E+00 0.  1.
</event>
<event>
 4    1  0.2243645E+005  0.2976823E+02  0.7546771E-02  0.1421621E+00
          2   -1    0    0  502    0  0.00000000000E+00  0.00000000000E+00  0.34936214931E+03  0.34936214931E+03  0.00000000000E+00 0. -1.
         21   -1    0    0  503  502 -0.00000000000E+00 -0.00000000000E+00 -0.20382125886E+03  0.20382125886E+03  0.00000000000E+00 0. -1.
          2    1    1    2  501    0  0.62974687901E-01 -0.29768167586E+02  0.34763572527E+03  0.34890793234E+03  0.00000000000E+00 0. -1.
         21    1    1    2  503  501 -0.62974687901E-01  0.29768167586E+02 -0.20209483482E+03  0.20427547584E+03  0.00000000000E+00 0. -1.
</event>
<event>
 4    1  0.2243645E+005  0.3221097E+02  0.7546771E-02  0.1401308E+00
          2   -1    0    0  502    0  0.00000000000E+00  0.00000000000E+00  0.41064916747E+03  0.41064916747E+03  0.00000000000E+00 0. -1.
         21   -1    0    0  503  502 -0.00000000000E+00 -0.00000000000E+00 -0.13843554522E+03  0.13843554522E+03  0.00000000000E+00 0.  1.
          2    1    1    2  501    0  0.31905586356E+02 -0.44249685152E+01  0.40813228012E+03  0.40940139821E+03  0.00000000000E+00 0. -1.
         21    1    1    2  503  501 -0.31905586356E+02  0.44249685152E+01 -0.13591865786E+03  0.13968331447E+03  0.00000000000E+00 0.  1.
</event>
<event>
 4    1  0.2243645E+005  0.2170622E+02  0.7546771E-02  0.1509416E+00
          2   -1    0    0  503    0  0.00000000000E+00  0.00000000000E+00  0.17866262577E+04  0.17866262577E+04  0.00000000000E+00 0. -1.
         21   -1    0    0  501  502 -0.00000000000E+00 -0.00000000000E+00 -0.50566879632E+00  0.50566879632E+00  0.00000000000E+00 0. -1.
          2    1    1    2  501    0  0.66482493115E+01 -0.20663030064E+02  0.15111618227E+04  0.15113177080E+04  0.00000000000E+00 0. -1.
         21    1    1    2  503  502 -0.66482493115E+01  0.20663030064E+02  0.27495876619E+03  0.27581421851E+03  0.00000000000E+00 0. -1.
</event>
<event>
 4    1  0.2243645E+005  0.2122340E+02  0.7546771E-02  0.1516099E+00
          2   -1    0    0  502    0  0.00000000000E+00  0.00000000000E+00  0.10253536974E+04  0.10253536974E+04  0.00000000000E+00 0.  1.
         21   -1    0    0  503  502 -0.00000000000E+00 -0.00000000000E+00 -0.22873013401E+01  0.22873013401E+01  0.00000000000E+00 0.  1.
          2    1    1    2  501    0  0.11978309235E+02 -0.17520067869E+02  0.97338375588E+03  0.97361510305E+03  0.00000000000E+00 0.  1.
         21    1    1    2  503  501 -0.11978309235E+02  0.17520067869E+02  0.49682640190E+02  0.54025895704E+02  0.00000000000E+00 0.  1.
</event>
<event>
 4    1  0.2243645E+005  0.2655805E+02  0.7546771E-02  0.1452099E+00
          2   -1    0    0  503    0  0.00000000000E+00  0.00000000000E+00  0.16927242475E+04  0.16927242475E+04  0.00000000000E+00 0. -1.
         21   -1    0    0  501  502 -0.00000000000E+00 -0.00000000000E+00 -0.45007860819E+01  0.45007860819E+01  0.00000000000E+00 0.  1.
          2    1    1    2  501    0 -0.19909099470E+02  0.17577191089E+02  0.16524880450E+04  0.16527014457E+04  0.00000000000E+00 0. -1.
         21    1    1    2  503  502  0.19909099470E+02 -0.17577191089E+02  0.35735416458E+02  0.44523587880E+02  0.00000000000E+00 0.  1.
</event>
<event>
 4    1  0.2243645E+005  0.2210224E+02  0.7546771E-02  0.1504090E+00
          2   -1    0    0  503    0  0.00000000000E+00  0.00000000000E+00  0.90831663233E+03  0.90831663233E+03  0.00000000000E+00 0.  1.
         21   -1    0    0  501  502 -0.00000000000E+00 -0.00000000000E+00 -0.24808526195E+01  0.24808526195E+01  0.00000000000E+00 0. -1.
          2    1    1    2  501    0 -0.48741616820E+01  0.21558098017E+02  0.85594254309E+03  0.85622785876E+03  0.00000000000E+00 0.  1.
         21    1    1    2  503  502  0.48741616820E+01 -0.21558098017E+02  0.49893236621E+02  0.54569626192E+02  0.00000000000E+00 0. -1.
</event>
<event>
 4    1  0.2243645E+005  0.2767966E+02  0.7546771E-02  0.1440898E+00
          2   -1    0    0  503    0  0.00000000000E+00  0.00000000000E+00  0.32087629298E+03  0.32087629298E+03  0.00000000000E+00 0. -1.
         21   -1    0    0  501  502 -0.00000000000E+00 -0.00000000000E+00 -0.16079428964E+03  0.16079428964E+03  0.00000000000E+00 0. -1.
          2    1    1    2  501    0 -0.25701589973E+02  0.10275799879E+02  0.31908145676E+03  0.32027978369E+03  0.00000000000E+00 0. -1.
         21    1    1    2  503  502  0.25701589973E+02 -0.10275799879E+02 -0.15899945342E+03  0.16139079893E+03  0.00000000000E+00 0. -1.
</event>
<event>
 4    1  0.2243645E+005  0.2961810E+02  0.7546771E-02  0.1422945E+00
          2   -1    0    0  502    0  0.00000000000E+00  0.00000000000E+00  0.38094971971E+03  0.38094971971E+03  0.00000000000E+00 0. -1.
         21   -1    0    0  503  502 -0.00000000000E+00 -0.00000000000E+00 -0.47500920469E+02  0.47500920469E+02  0.00000000000E+00 0.  1.
          2    1    1    2  501    0  0.26527711887E+02  0.13172412496E+02  0.37569260636E+03  0.37685828427E+03  0.00000000000E+00 0. -1.
         21    1    1    2  503  501 -0.26527711887E+02 -0.13172412496E+02 -0.42243807116E+02  0.51592355912E+02  0.00000000000E+00 0.  1.
</event>
<event>
 4    1  0.2243645E+005  0.2159158E+02  0.7546771E-02  0.1510984E+00
          2   -1    0    0  503    0  0.00000000000E+00  0.00000000000E+00  0.22884553310E+02  0.22884553310E+02  0.00000000000E+00 0.  1.
         21   -1    0    0  501  502 -0.00000000000E+00 -0.00000000000E+00 -0.33041159199E+03  0.33041159199E+03  0.00000000000E+00 0. -1.
          2    1    1    2  501    0  0.20053851315E+02 -0.80024480955E+01  0.17352271408E+02  0.27700134496E+02  0.00000000000E+00 0.  1.
         21    1    1    2  503  502 -0.20053851315E+02  0.80024480955E+01 -0.32487931009E+03  0.32559601081E+03  0.00000000000E+00 0. -1.
</event>
<event>
 4    1  0.2243645E+005  0.2424193E+02  0.7546771E-02  0.1477465E+00
          2   -1    0    0  502    0  0.00000000000E+00  0.00000000000E+00  0.68752715168E+02  0.68752715168E+02  0.00000000000E+00 0. -1.
         21   -1    0    0  503  502 -0.00000000000E+00 -0.00000000000E+00 -0.17892800786E+02  0.17892800786E+02  0.00000000000E+00 0. -1.
          2    1    1    2  501    0 -0.15751346528E+02 -0.18427325997E+02  0.56739091875E+02  0.61700857430E+02  0.00000000000E+00 0. -1.
         21    1    1    2  503  501  0.15751346528E+02  0.18427325997E+02 -0.58791774928E+01  0.24944658523E+02  0.00000000000E+00 0. -1.
</event>
<event>
 4    1  0.2243645E+005  0.3214225E+02  0.7546771E-02  0.1401850E+00
          2   -1    0    0  503    0  0.00000000000E+00  0.00000000000E+00  0.57188525442E+02  0.57188525442E+02  0.00000000000E+00 0. -1.
         21   -1    0    0  501  502 -0.00000000000E+00 -0.00000000000E+00 -0.81146756228E+02  0.81146756228E+02  0.00000000000E+00 0.  1.
          2    1    1    2  501    0  0.30851713912E+02 -0.90164433234E+01  0.49005240180E+02  0.58605785265E+02  0.00000000000E+00 0. -1.
         21    1    1    2  503  502 -0.30851713912E+02  0.90164433234E+01 -0.72963470966E+02  0.79729496404E+02  0.00000000000E+00 0.  1.
</event>
<event>
 4    1  0.2243645E+005  0.2266498E+02  0.7546771E-02  0.1496748E+00
          2   -1    0    0  503    0  0.00000000000E+00  0.00000000000E+00  0.10910426617E+02  0.10910426617E+02  0.00000000000E+00 0. -1.
         21   -1    0    0  501  502 -0.00000000000E+00 -0.00000000000E+00 -0.52789582627E+02  0.52789582627E+02  0.00000000000E+00 0. -1.
          2    1    1    2  501    0  0.89188450374E+01  0.20836402942E+02 -0.10468220816E+02  0.24965679069E+02  0.00000000000E+00 0. -1.
         21    1    1    2  503  502 -0.89188450374E+01 -0.20836402942E+02 -0.31410935193E+02  0.38734330175E+02  0.00000000000E+00 0. -1.
</event>
<event>
 4    1  0.2243645E+005  0.2519306E+02  0.7546771E-02  0.1466655E+00
          2   -1    0    0  502    0  0.00000000000E+00  0.00000000000E+00  0.61606209086E+03  0.61606209086E+03  0.00000000000E+00 0. -1.
         21   -1    0    0  503  502 -0.00000000000E+00 -0.00000000000E+00 -0.17853805602E+03  0.17853805602E+03  0.00000000000E+00 0.  1.
          2    1    1    2  501    0 -0.19691272715E+02 -0.15714448094E+02  0.61491414090E+03  0.61543000477E+03  0.00000000000E+00 0. -1.
         21    1    1    2  503  501  0.19691272715E+02  0.15714448094E+02 -0.17739010605E+03  0.17917014211E+03  0.00000000000E+00 0.  1.
</event>
<event>
 4    1  0.2243645E+005  0.2334823E+02  0.7546771E-02  0.1488171E+00
          2   -1    0    0  502    0  0.00000000000E+00  0.00000000000E+00  0.45761457242E+02  0.45761457242E+02  0.00000000000E+00 0.  1.
         21   -1    0    0  503  502 -0.00000000000E+00 -0.00000000000E+00 -0.93975773958E+02  0.93975773958E+02  0.00000000000E+00 0.  1.
          2    1    1    2  501    0 -0.19339610342E+02 -0.13081263152E+02  0.41183074834E+02  0.47341162075E+02  0.00000000000E+00 0.  1.
         21    1    1    2  503  501  0.19339610342E+02  0.13081263152E+02 -0.89397391550E+02  0.92396069125E+02  0.00000000000E+00 0.  1.
</event>
<event>
 4    1  0.2243645E+005  0.2877863E+02  0.7546771E-02  0.1430515E+00
          2   -1    0    0  502    0  0.00000000000E+00  0.00000000000E+00  0.10040219101E+04  0.10040219101E+04  0.00000000000E+00 0. -1.
         21   -1    0    0  503  502 -0.00000000000E+00 -0.00000000000E+00 -0.21269927210E+02  0.21269927210E+02  0.00000000000E+00 0.  1.
          2    1    1    2  501    0 -0.14910070156E+02  0.24615025348E+02  0.99398287644E+03  0.99439940080E+03  0.00000000000E+00 0. -1.
         21    1    1    2  503  501  0.14910070156E+02 -0.24615025348E+02 -0.11230893531E+02  0.30892436525E+02  0.00000000000E+00 0.  1.
</event>
<event>
 4    1  0.2243645E+005  0.2219358E+02  0.7546771E-02  0.1502880E+00
          2   -1    0    0  503    0  0.00000000000E+00  0.00000000000E+00  0.24267732704E+03  0.24267732704E+03  0.00000000000E+00 0.  1.
         21   -1    0    0  501  502 -0.00000000000E+00 -0.00000000000E+00 -0.43805357629E+02  0.43805357629E+02  0.00000000000E+00 0.  1.
          2    1    1    2  501    0 -0.22055728385E+01 -0.22083715324E+02  0.23931950962E+03  0.24034638071E+03  0.00000000000E+00 0.  1.
         21    1    1    2  503  502  0.22055728385E+01  0.22083715324E+02 -0.40447540211E+02  0.46136303961E+02  0.00000000000E+00 0.  1.
</event>
<event>
 4    1  0.2243645E+005  0.1250759E+03  0.7546771E-02  0.1126305E+00
          2   -1    0    0  503    0  0.00000000000E+00  0.00000000000E+00  0.41475740741E+03  0.41475740741E+03  0.00000000000E+00 0.  1.
         21   -1    0    0  501  502 -0.00000000000E+00 -0.00000000000E+00 -0.10054199483E+03  0.10054199483E+03  0.00000000000E+00 0.  1.
          2    1    1    2  501    0 -0.86684335412E+02  0.90165456845E+02  0.36077312956E+03  0.38183927853E+03  0.00000000000E+00 0.  1.
         21    1    1    2  503  502  0.86684335412E+02 -0.90165456845E+02 -0.46557716977E+02  0.13346012372E+03  0.00000000000E+00 0.  1.
</event>
<event>
 4    1  0.2243645E+005  0.2459412E+02  0.7546771E-02  0.1473395E+00
          2   -1    0    0  502    0  0.00000000000E+00  0.00000000000E+00  0.11378280742E+04  0.11378280742E+04  0.00000000000E+00 0.  1.
         21   -1    0    0  503  502 -0.00000000000E+00 -0.00000000000E+00 -0.76784717312E+00  0.76784717312E+00  0.00000000000E+00 0. -1.
          2    1    1    2  501    0 -0.33099002578E+01  0.24370375461E+02  0.88431005893E+03  0.88465199427E+03  0.00000000000E+00 0.  1.
         21    1    1    2  503  501  0.33099002578E+01 -0.24370375461E+02  0.25275016806E+03  0.25394392706E+03  0.00000000000E+00 0. -1.
</event>
<event>
 4    1  0.2243645E+005  0.2380878E+02  0.7546771E-02  0.1482585E+00
          2   -1    0    0  503    0  0.00000000000E+00  0.00000000000E+00  0.97274890214E+03  0.97274890214E+03  0.00000000000E+00 0.  1.
         21   -1    0    0  501  502 -0.00000000000E+00 -0.00000000000E+00 -0.13817337387E+01  0.13817337387E+01  0.00000000000E+00 0.  1.
          2    1    1    2  501    0 -0.22536031712E+02 -0.76801747642E+01  0.85606333907E+03  0.85639435910E+03  0.00000000000E+00 0.  1.
         21    1    1    2  503  502  0.22536031712E+02  0.76801747642E+01  0.11530382934E+03  0.11773627678E+03  0.00000000000E+00 0.  1.
</event>
<event>
 4    1  0.2243645E+005  0.2219941E+02  0.7546771E-02  0.1502804E+00
          2   -1    0    0  503    0  0.00000000000E+00  0.00000000000E+00  0.51003001175E+02  0.51003001175E+02  0.00000000000E+00 0.  1.
         21   -1    0    0  501  502 -0.00000000000E+00 -0.00000000000E+00 -0.65065217899E+02  0.65065217899E+02  0.00000000000E+00 0.  1.
          2    1    1    2  501    0  0.14730240606E+02  0.16608245780E+02  0.46520759356E+02  0.51546046087E+02  0.00000000000E+00 0.  1.
         21    1    1    2  503  502 -0.14730240606E+02 -0.16608245780E+02 -0.60582976080E+02  0.64522172986E+02  0.00000000000E+00 0.  1.
</event>
<event>
 4    1  0.2243645E+005  0.2045346E+02  0.7546771E-02  0.1527213E+00
          2   -1    0    0  503    0  0.00000000000E+00  0.00000000000E+00  0.12127325102E+03  0.12127325102E+03  0.00000000000E+00 0. -1.
         21   -1    0    0  501  502 -0.00000000000E+00 -0.00000000000E+00 -0.36799886524E+01  0.36799886524E+01  0.00000000000E+00 0. -1.
          2    1    1    2  501    0  0.39078480255E+01  0.20076673496E+02  0.74429032535E+02  0.77188243788E+02  0.00000000000E+00 0. -1.
         21    1    1    2  503  502 -0.39078480255E+01 -0.20076673496E+02  0.43164229828E+02  0.47764995881E+02  0.00000000000E+00 0. -1.
</event>
<event>
 4    1  0.2243645E+005  0.2227840E+02  0.7546771E-02  0.1501764E+00
          2   -1    0    0  502    0  0.00000000000E+00  0.00000000000E+00  0.70898035389E+03  0.70898035389E+03  0.00000000000E+00 0. -1.
         21   -1    0    0  503  502 -0.00000000000E+00 -0.00000000000E+00 -0.11611323161E+01  0.11611323161E+01  0.00000000000E+00 0.  1.
          2    1    1    2  501    0 -0.22243858914E+02  0.12400192461E+01  0.57765794196E+03  0.57808738510E+03  0.00000000000E+00 0. -1.
         21    1    1    2  503  501  0.22243858914E+02 -0.12400192461E+01  0.13016127962E+03  0.13205410111E+03  0.00000000000E+00 0.  1.
</event>
<event>
 4    1  0.2243645E+005  0.2275245E+02  0.7546771E-02  0.1495630E+00
          2   -1    0    0  502    0  0.00000000000E+00  0.00000000000E+00  0.10761707695E+04  0.10761707695E+04  0.00000000000E+00 0.  1.
         21   -1    0    0  503  502 -0.00000000000E+00 -0.00000000000E+00 -0.73254278587E+01  0.73254278587E+01  0.00000000000E+00 0. -1.
          2    1    1    2  501    0  0.19030871705E+02 -0.12469954505E+02  0.10580814882E+04  0.10583260884E+04  0.00000000000E+00 0.  1.
         21    1    1    2  503  501 -0.19030871705E+02  0.12469954505E+02  0.10763853516E+02  0.25170108973E+02  0.00000000000E+00 0. -1.
</event>
<event>
 4    1  0.2243645E+005  0.2729866E+02  0.7546771E-02  0.1444631E+00
          2   -1    0    0  503    0  0.00000000000E+00  0.00000000000E+00  0.26811104976E+03  0.26811104976E+03  0.00000000000E+00 0. -1.
         21   -1    0    0  501  502 -0.00000000000E+00 -0.00000000000E+00 -0.96376776020E+01  0.96376776020E+01  0.00000000000E+00 0. -1.
          2    1    1    2  501    0 -0.83835388041E+01  0.25979470313E+02  0.24638607292E+03  0.24789375452E+03  0.00000000000E+00 0. -1.
         21    1    1    2  503  502  0.83835388041E+01 -0.25979470313E+02  0.12087299240E+02  0.29854972845E+02  0.00000000000E+00 0. -1.
</event>
<event>
 4    1  0.2243645E+005  0.2431941E+02  0.7546771E-02  0.1476563E+00
          2   -1    0    0  503    0  0.00000000000E+00  0.00000000000E+00  0.38006701780E+02  0.38006701780E+02  0.00000000000E+00 0. -1.
         21   -1    0    0  501  502 -0.00000000000E+00 -0.00000000000E+00 -0.25153402926E+02  0.25153402926E+02  0.00000000000E+00 0. -1.
          2    1    1    2  501    0  0.10873900240E+02 -0.21752979157E+02  0.25928297517E+02  0.35548704910E+02  0.00000000000E+00 0. -1.
         21    1    1    2  503  502 -0.10873900240E+02  0.21752979157E+02 -0.13074998663E+02  0.27611399796E+02  0.00000000000E+00 0. -1.
</event>
<event>
 4    1  0.2243645E+005  0.2390834E+02  0.7546771E-02  0.1481397E+00
          2   -1    0    0  503    0  0.00000000000E+00  0.00000000000E+00  0.59908572567E+02  0.59908572567E+02  0.00000000000E+00 0. -1.
         21   -1    0    0  501  502 -0.00000000000E+00 -0.00000000000E+00 -0.11062754336E+02  0.11062754336E+02  0.00000000000E+00 0.  1.
          2    1    1    2  501    0 -0.23648481031E+02 -0.35153982164E+01  0.37582535833E+02  0.44542739917E+02  0.00000000000E+00 0. -1.
         21    1    1    2  503  502  0.23648481031E+02  0.35153982164E+01  0.11263282399E+02  0.26428586986E+02  0.00000000000E+00 0.  1.
</event>
<event>
 4    1  0.2243645E+005  0.2458680E+02  0.7546771E-02  0.1473479E+00
          2   -1    0    0  503    0  0.00000000000E+00  0.00000000000E+00  0.16848457959E+02  0.16848457959E+02  0.00000000000E+00 0. -1.
         21   -1    0    0  501  502 -0.00000000000E+00 -0.00000000000E+00 -0.13103220673E+03  0.13103220673E+03  0.00000000000E+00 0. -1.
          2    1    1    2  501    0 -0.12311624457E+02 -0.21282259010E+02  0.59172482026E+01  0.25288821081E+02  0.00000000000E+00 0. -1.
         21    1    1    2  503  502  0.12311624457E+02  0.21282259010E+02 -0.12010099697E+03  0.12259184360E+03  0.00000000000E+00 0. -1.
</event>
<event>
 4    1  0.2243645E+005  0.3558322E+02  0.7546771E-02  0.1376509E+00
          2   -1    0    0  503    0  0.00000000000E+00  0.00000000000E+00  0.90691795237E+01  0.90691795237E+01  0.00000000000E+00 0.  1.
         21   -1    0    0  501  502 -0.00000000000E+00 -0.00000000000E+00 -0.20494772543E+03  0.20494772543E+03  0.00000000000E+00 0. -1.
          2    1    1    2  501    0 -0.25713201363E+02 -0.24596679524E+02 -0.37520454311E+02  0.51710249077E+02  0.00000000000E+00 0.  1.
         21    1    1    2  503  502  0.25713201363E+02  0.24596679524E+02 -0.15835809160E+03  0.16230665588E+03  0.00000000000E+00 0. -1.
</event>
<event>
 4    1  0.2243645E+005  0.2506352E+02  0.7546771E-02  0.1468094E+00
          2   -1    0    0  503    0  0.00000000000E+00  0.00000000000E+00  0.14256040818E+04  0.14256040818E+04  0.00000000000E+00 0. -1.
         21   -1    0    0  501  502 -0.00000000000E+00 -0.00000000000E+00 -0.43450091352E+01  0.43450091352E+01  0.00000000000E+00 0.  1.
          2    1    1    2  501    0  0.18417635931E+02 -0.16999133820E+02  0.13883812171E+04  0.13886074261E+04  0.00000000000E+00 0. -1.
         21    1    1    2  503  502 -0.18417635931E+02  0.16999133820E+02  0.32877855583E+02  0.41341664839E+02  0.00000000000E+00 0.  1.
</event>
<event>
 4    1  0.2243645E+005  0.2927955E+02  0.7546771E-02  0.1425962E+00
          2   -1    0    0  502    0  0.00000000000E+00  0.00000000000E+00  0.78572788947E+03  0.78572788947E+03  0.00000000000E+00 0. -1.
         21   -1    0    0  503  502 -0.00000000000E+00 -0.00000000000E+00 -0.13931658121E+03  0.13931658121E+03  0.00000000000E+00 0. -1.
          2    1    1    2  501    0  0.19608389244E+02  0.21744040201E+02  0.78391317065E+03  0.78445978312E+03  0.00000000000E+00 0. -1.
         21    1    1    2  503  501 -0.19608389244E+02 -0.21744040201E+02 -0.13750186239E+03  0.14058468755E+03  0.00000000000E+00 0. -1.
</event>
<event>
 4    1  0.2243645E+005  0.2875915E+02  0.7546771E-02  0.1430695E+00
          2   -1    0    0  502    0  0.00000000000E+00  0.00000000000E+00  0.24737012542E+03  0.24737012542E+03  0.00000000000E+00 0. -1.
         21   -1    0    0  503  502 -0.00000000000E+00 -0.00000000000E+00 -0.18815319485E+02  0.18815319485E+02  0.00000000000E+00 0.  1.
          2    1    1    2  501    0  0.27318660370E+02  0.89877455833E+01  0.23496671774E+03  0.23672018761E+03  0.00000000000E+00 0. -1.
         21    1    1    2  503  501 -0.27318660370E+02 -0.89877455833E+01 -0.64119118000E+01  0.29465257304E+02  0.00000000000E+00 0.  1.
</event>
<event>
 4    1  0.2243645E+005  0.3391079E+02  0.7546771E-02  0.1388387E+00
          2   -1    0    0  503    0  0.00000000000E+00  0.00000000000E+00  0.14689942656E+04  0.14689942656E+04  0.00000000000E+00 0.  1.
         21   -1    0    0  501  502 -0.00000000000E+00 -0.00000000000E+00 -0.78507851101E+00  0.78507851101E+00  0.00000000000E+00 0.  1.
          2    1    1    2  501    0  0.33910516379E+02 -0.13552017405E+00  0.77361948042E+03  0.77436234540E+03  0.00000000000E+00 0.  1.
         21    1    1    2  503  502 -0.33910516379E+02  0.13552017405E+00  0.69458970666E+03  0.69541699870E+03  0.00000000000E+00 0.  1.
</event>
<event>
 4    1  0.2243645E+005  0.2263586E+02  0.7546771E-02  0.1497122E+00
          2   -1    0    0  503    0  0.00000000000E+00  0.00000000000E+00  0.18552592167E+03  0.18552592167E+03  0.00000000000E+00 0. -1.
         21   -1    0    0  501  502 -0.00000000000E+00 -0.00000000000E+00 -0.14057687752E+02  0.14057687752E+02  0.00000000000E+00 0. -1.
          2    1    1    2  501    0  0.22097675812E+02 -0.49066163455E+01  0.17518784806E+03  0.17664417417E+03  0.00000000000E+00 0. -1.
         21    1    1    2  503  502 -0.22097675812E+02  0.49066163455E+01 -0.37196141427E+01  0.22939435251E+02  0.00000000000E+00 0. -1.
</event>
<event>
 4    1  0.2243645E+005  0.3780340E+02  0.7546771E-02  0.1361862E+00
          2   -1    0    0  502    0  0.00000000000E+00  0.00000000000E+00  0.41400433854E+03  0.41400433854E+03  0.00000000000E+00 0.  1.
         21   -1    0    0  503  502 -0.00000000000E+00 -0.00000000000E+00 -0.25711155454E+02  0.25711155454E+02  0.00000000000E+00 0. -1.
          2    1    1    2  501    0 -0.31959755807E+02 -0.20190858624E+02  0.39871398254E+03  0.40050210566E+03  0.00000000000E+00 0.  1.
         21    1    1    2  503  501  0.31959755807E+02  0.20190858624E+02 -0.10420799458E+02  0.39213388333E+02  0.00000000000E+00 0. -1.
</event>
<event>
 4    1  0.2243645E+005  0.5137227E+02  0.7546771E-02  0.1292330E+00
          2   -1    0    0  502    0  0.00000000000E+00  0.00000000000E+00  0.40526157768E+02  0.40526157768E+02  0.00000000000E+00 0.  1.
         21   -1    0    0  503  502 -0.00000000000E+00 -0.00000000000E+00 -0.66358612545E+02  0.66358612545E+02  0.00000000000E+00 0.  1.
          2    1    1    2  501    0  0.19582603781E+02 -0.47493488044E+02 -0.56182220828E+01  0.51678566125E+02  0.00000000000E+00 0.  1.
         21    1    1    2  503  501 -0.19582603781E+02  0.47493488044E+02 -0.20214232694E+02  0.55206204188E+02  0.00000000000E+00 0.  1.
</event>
<event>
 4    1  0.2243645E+005  0.2739557E+02  0.7546771E-02  0.1443675E+00
          2   -1    0    0  503    0  0.00000000000E+00  0.00000000000E+00  0.89985248610E+03  0.89985248610E+03  0.00000000000E+00 0. -1.
         21   -1    0    0  501  502 -0.00000000000E+00 -0.00000000000E+00 -0.21953244112E+01  0.21953244112E+01  0.00000000000E+00 0.  1.
          2    1    1    2  501    0  0.76768756415E+01  0.26297960960E+02  0.80398845899E+03  0.80445506982E+03  0.00000000000E+00 0. -1.
         21    1    1    2  503  502 -0.76768756415E+01 -0.26297960960E+02  0.93668702695E+02  0.97592740687E+02  0.00000000000E+00 0.  1.
</event>
<event>
 4    1  0.2243645E+005  0.3522331E+02  0.7546771E-02  0.1379000E+00
          2   -1    0    0  503    0  0.00000000000E+00  0.00000000000E+00  0.84478242270E+03  0.84478242270E+03  0.00000000000E+00 0. -1.
         21   -1    0    0  501  502 -0.00000000000E+00 -0.00000000000E+00 -0.12533994831E+02  0.12533994831E+02  0.00000000000E+00 0. -1.
          2    1    1    2  501    0 -0.64635552560E+01  0.34625195254E+02  0.81888673586E+03  0.81964392749E+03  0.00000000000E+00 0. -1.
         21    1    1    2  503  502  0.64635552560E+01 -0.34625195254E+02  0.13361692008E+02  0.37672490046E+02  0.00000000000E+00 0. -1.
</event>
<event>
 4    1  0.2243645E+005  0.2663403E+02  0.7546771E-02  0.1451319E+00
          2   -1    0    0  503    0  0.00000000000E+00  0.00000000000E+00  0.10327349734E+04  0.10327349734E+04  0.00000000000E+00 0.  1.
         21   -1    0    0  501  502 -0.00000000000E+00 -0.00000000000E+00 -0.43130095516E+01  0.43130095516E+01  0.00000000000E+00 0.  1.
          2    1    1    2  501    0 -0.11519470889E+02  0.24014024187E+02  0.98965558578E+03  0.99001391406E+03  0.00000000000E+00 0.  1.
         21    1    1    2  503  502  0.11519470889E+02 -0.24014024187E+02  0.38766378023E+02  0.47034068846E+02  0.00000000000E+00 0.  1.
</event>
<event>
 4    1  0.2243645E+005  0.2069780E+02  0.7546771E-02  0.1523623E+00
          2   -1    0    0  503    0  0.00000000000E+00  0.00000000000E+00  0.63747443196E+03  0.63747443196E+03  0.00000000000E+00 0. -1.
         21   -1    0    0  501  502 -0.00000000000E+00 -0.00000000000E+00 -0.19194370738E+01  0.19194370738E+01  0.00000000000E+00 0. -1.
          2    1    1    2  501    0 -0.12544166896E+02  0.16463382255E+02  0.57550241887E+03  0.57587449431E+03  0.00000000000E+00 0. -1.
         21    1    1    2  503  502  0.12544166896E+02 -0.16463382255E+02  0.60052576019E+02  0.63519374721E+02  0.00000000000E+00 0. -1.
</event>
<event>
 4    1  0.2243645E+005  0.3569791E+02  0.7546771E-02  0.1375722E+00
          2   -1    0    0  502    0  0.00000000000E+00  0.00000000000E+00  0.38545695749E+03  0.38545695749E+03  0.00000000000E+00 0. -1.
         21   -1    0    0  503  502 -0.00000000000E+00 -0.00000000000E+00 -0.93182930741E+01  0.93182930741E+01  0.00000000000E+00 0.  1.
          2    1    1    2  501    0  0.35388626627E+02 -0.46888837395E+01  0.34662068547E+03  0.34845407176E+03  0.00000000000E+00 0. -1.
         21    1    1    2  503  501 -0.35388626627E+02  0.46888837395E+01  0.29517978940E+02  0.46321178805E+02  0.00000000000E+00 0.  1.
</event>
<event>
 4    1  0.2243645E+005  0.2476884E+02  0.7546771E-02  0.1471406E+00
          2   -1    0    0  503    0  0.00000000000E+00  0.00000000000E+00  0.15207428834E+04  0.15207428834E+04  0.00000000000E+00 0.  1.
         21   -1    0    0  501  502 -0.00000000000E+00 -0.00000000000E+00 -0.21272943120E+01  0.21272943120E+01  0.00000000000E+00 0.  1.
          2    1    1    2  501    0  0.23592523389E+02 -0.75424249732E+01  0.14447520240E+04  0.14449643269E+04  0.00000000000E+00 0.  1.
         21    1    1    2  503  502 -0.23592523389E+02  0.75424249732E+01  0.73863565137E+02  0.77905850801E+02  0.00000000000E+00 0.  1.
</event>
<event>
 4    1  0.2243645E+005  0.2416169E+02  0.7546771E-02  0.1478404E+00
          2   -1    0    0  502    0  0.00000000000E+00  0.00000000000E+00  0.63613638676E+03  0.63613638676E+03  0.00000000000E+00 0.  1.
         21   -1    0    0  503  502 -0.00000000000E+00 -0.00000000000E+00 -0.18853157877E+02  0.18853157877E+02  0.00000000000E+00 0.  1.
          2    1    1    2  501    0  0.22723311873E+02 -0.82120948895E+01  0.62806628674E+03  0.62853086475E+03  0.00000000000E+00 0.  1.
         21    1    1    2  503  501 -0.22723311873E+02  0.82120948895E+01 -0.10783057852E+02  0.26458679891E+02  0.00000000000E+00 0.  1.
</event>
<event>
 4    1  0.2243645E+005  0.6635403E+02  0.7546771E-02  0.1239649E+00
          2   -1    0    0  503    0  0.00000000000E+00  0.00000000000E+00  0.16785718052E+04  0.16785718052E+04  0.00000000000E+00 0. -1.
         21   -1    0    0  501  502 -0.00000000000E+00 -0.00000000000E+00 -0.61784883237E+01  0.61784883237E+01  0.00000000000E+00 0. -1.
          2    1    1    2  501    0  0.58726027866E+02  0.30888684745E+02  0.14752180429E+04  0.14767095623E+04  0.00000000000E+00 0. -1.
         21    1    1    2  503  502 -0.58726027866E+02 -0.30888684745E+02  0.19717527399E+03  0.20804073127E+03  0.00000000000E+00 0. -1.
</event>
<event>
 4    1  0.2243645E+005  0.2276586E+02  0.7546771E-02  0.1495459E+00
          2   -1    0    0  502    0  0.00000000000E+00  0.00000000000E+00  0.11347472701E+04  0.11347472701E+04  0.00000000000E+00 0.  1.
         21   -1    0    0  503  502 -0.00000000000E+00 -0.00000000000E+00 -0.18021067621E+02  0.18021067621E+02  0.00000000000E+00 0. -1.
          2    1    1    2  501    0 -0.18879129087E+02 -0.12722530685E+02  0.11273962308E+04  0.11276260664E+04  0.00000000000E+00 0.  1.
         21    1    1    2  503  501  0.18879129087E+02  0.12722530685E+02 -0.10670028362E+02  0.25142271325E+02  0.00000000000E+00 0. -1.
</event>
<event>
 4    1  0.2243645E+005  0.3049067E+02  0.7546771E-02  0.1415380E+00
          2   -1    0    0  502    0  0.00000000000E+00  0.00000000000E+00  0.79942855766E+03  0.79942855766E+03  0.00000000000E+00 0. -1.
         21   -1    0    0  503  502 -0.00000000000E+00 -0.00000000000E+00 -0.14136007543E+01  0.14136007543E+01  0.00000000000E+00 0. -1.
          2    1    1    2  501    0 -0.20128925271E+02  0.22902126891E+02  0.56762536908E+03  0.56844370053E+03  0.00000000000E+00 0. -1.
         21    1    1    2  503  501  0.20128925271E+02 -0.22902126891E+02  0.23038958783E+03  0.23239845789E+03  0.00000000000E+00 0. -1.
</event>
<event>
 4    1  0.2243645E+005  0.2137158E+02  0.7546771E-02  0.1514025E+00
          2   -1    0    0  502    0  0.00000000000E+00  0.00000000000E+00  0.42612814600E+00  0.42612814600E+00  0.00000000000E+00 0. -1.
         21   -1    0    0  503  502 -0.00000000000E+00 -0.00000000000E+00 -0.10732060740E+04  0.10732060740E+04  0.00000000000E+00 0. -1.
          2    1    1    2  501    0 -0.15898432005E+02 -0.14282310279E+02 -0.51729260925E+03  0.51773389700E+03  0.00000000000E+00 0. -1.
         21    1    1    2  503  501  0.15898432005E+02  0.14282310279E+02 -0.55548733656E+03  0.55589830509E+03  0.00000000000E+00 0. -1.
</event>
<event>
 4    1  0.2243645E+005  0.2044279E+02  0.7546771E-02  0.1527371E+00
          2   -1    0    0  503    0  0.00000000000E+00  0.00000000000E+00  0.11293423898E+04  0.11293423898E+04  0.00000000000E+00 0. -1.
         21   -1    0    0  501  502 -0.00000000000E+00 -0.00000000000E+00 -0.32683656588E+03  0.32683656588E+03  0.00000000000E+00 0.  1.
          2    1    1    2  501    0 -0.19313066310E+02 -0.67017334582E+01  0.11289301007E+04  0.11291151757E+04  0.00000000000E+00 0. -1.
         21    1    1    2  503  502  0.19313066310E+02  0.67017334582E+01 -0.32642427673E+03  0.32706378002E+03  0.00000000000E+00 0.  1.
</event>
<event>
 4    1  0.2243645E+005  0.2677649E+02  0.7546771E-02  0.1449866E+00
          2   -1    0    0  503    0  0.00000000000E+00  0.00000000000E+00  0.36956253699E+03  0.36956253699E+03  0.00000000000E+00 0. -1.
         21   -1    0    0  501  502 -0.00000000000E+00 -0.00000000000E+00 -0.19521159620E+02  0.19521159620E+02  0.00000000000E+00 0. -1.
          2    1    1    2  501    0 -0.22751921360E+02  0.14118449553E+02  0.35964250245E+03  0.36063792107E+03  0.00000000000E+00 0. -1.
         21    1    1    2  503  502  0.22751921360E+02 -0.14118449553E+02 -0.96011250812E+01  0.28445775542E+02  0.00000000000E+00 0. -1.
</event>
<event>
 4    1  0.2243645E+005  0.2767667E+02  0.7546771E-02  0.1440927E+00
          2   -1    0    0  503    0  0.00000000000E+00  0.00000000000E+00  0.14614518243E+03  0.14614518243E+03  0.00000000000E+00 0. -1.
         21   -1    0    0  501  502 -0.00000000000E+00 -0.00000000000E+00 -0.11917165810E+02  0.11917165810E+02  0.00000000000E+00 0.  1.
          2    1    1    2  501    0 -0.31131645149E+01 -0.27501025329E+02  0.12626527998E+03  0.12926298432E+03  0.00000000000E+00 0. -1.
         21    1    1    2  503  502  0.31131645149E+01  0.27501025329E+02  0.79627366442E+01  0.28799363922E+02  0.00000000000E+00 0.  1.
</event>
<event>
 4    1  0.2243645E+005  0.2448283E+02  0.7546771E-02  0.1474673E+00
          2   -1    0    0  502    0  0.00000000000E+00  0.00000000000E+00  0.63189782042E+03  0.63189782042E+03  0.00000000000E+00 0. -1.
         21   -1    0    0  503  502 -0.00000000000E+00 -0.00000000000E+00 -0.12877484500E+02  0.12877484500E+02  0.00000000000E+00 0. -1.
          2    1    1    2  501    0  0.22685107571E+02 -0.92084016337E+01  0.61979680511E+03  0.62028016927E+03  0.00000000000E+00 0. -1.
         21    1    1    2  503  501 -0.22685107571E+02  0.92084016337E+01 -0.77646918867E+00  0.24495135651E+02  0.00000000000E+00 0. -1.
</event>
<event>
 4    1  0.2243645E+005  0.2213562E+02  0.7546771E-02  0.1503647E+00
          2   -1    0    0  502    0  0.00000000000E+00  0.00000000000E+00  0.10640433439E+04  0.10640433439E+04  0.00000000000E+00 0.  1.
         21   -1    0    0  503  502 -0.00000000000E+00 -0.00000000000E+00 -0.44729455768E+01  0.44729455768E+01  0.00000000000E+00 0.  1.
          2    1    1    2  501    0  0.16248829510E+02 -0.15032009215E+02  0.10357953595E+04  0.10360318589E+04  0.00000000000E+00 0.  1.
         21    1    1    2  503  501 -0.16248829510E+02  0.15032009215E+02  0.23775038735E+02  0.32484430553E+02  0.00000000000E+00 0.  1.
</event>
<event>
 4    1  0.2243645E+005  0.2029128E+02  0.7546771E-02  0.1529629E+00
          2   -1    0    0  503    0  0.00000000000E+00  0.00000000000E+00  0.42084585797E+03  0.42084585797E+03  0.00000000000E+00 0. -1.
         21   -1    0    0  501  502 -0.00000000000E+00 -0.00000000000E+00 -0.18835026369E+01  0.18835026369E+01  0.00000000000E+00 0.  1.
          2    1    1    2  501    0  0.14075869103E+02  0.14615258865E+02  0.35600540801E+03  0.35658321107E+03  0.00000000000E+00 0. -1.
         21    1    1    2  503  502 -0.14075869103E+02 -0.14615258865E+02  0.62956947329E+02  0.66146149546E+02  0.00000000000E+00 0.  1.
</event>
<event>
 4    1  0.2243645E+005  0.2648277E+02  0.7546771E-02  0.1452874E+00
          2   -1    0    0  503    0  0.00000000000E+00  0.00000000000E+00  0.23277581861E+03  0.23277581861E+03  0.00000000000E+00 0.  1.
         21   -1    0    0  501  502 -0.00000000000E+00 -0.00000000000E+00 -0.60369482326E+01  0.60369482326E+01  0.00000000000E+00 0.  1.
          2    1    1    2  501    0 -0.10054834036E+02 -0.24499738781E+02  0.19788002492E+03  0.19964428654E+03  0.00000000000E+00 0.  1.
         21    1    1    2  503  502  0.10054834036E+02  0.24499738781E+02  0.28858845465E+02  0.39168480305E+02  0.00000000000E+00 0.  1.
</event>
<event>
 4    1  0.2243645E+005  0.2446115E+02  0.7546771E-02  0.1474923E+00
          2   -1    0    0  502    0  0.00000000000E+00  0.00000000000E+00  0.77376477069E+01  0.77376477069E+01  0.00000000000E+00 0.  1.
         21   -1    0    0  503  502 -0.00000000000E+00 -0.00000000000E+00 -0.13526035353E+03  0.13526035353E+03  0.00000000000E+00 0. -1.
          2    1    1    2  501    0 -0.20484496482E+02 -0.13369111508E+02 -0.16969525110E+02  0.29771001345E+02  0.00000000000E+00 0.  1.
         21    1    1    2  503  501  0.20484496482E+02  0.13369111508E+02 -0.11055318071E+03  0.11322699989E+03  0.00000000000E+00 0. -1.
</event>
<event>
 4    1  0.2243645E+005  0.2396744E+02  0.7546771E-02  0.1480695E+00
          2   -1    0    0  502    0  0.00000000000E+00  0.00000000000E+00  0.18009337534E+04  0.18009337534E+04  0.00000000000E+00 0. -1.
         21   -1    0    0  503  502 -0.00000000000E+00 -0.00000000000E+00 -0.22770649898E+01  0.22770649898E+01  0.00000000000E+00 0. -1.
          2    1    1    2  501    0  0.30896135416E+01  0.23767464384E+02  0.17354048673E+04  0.17355703649E+04  0.00000000000E+00 0. -1.
         21    1    1    2  503  501 -0.30896135416E+01 -0.23767464384E+02  0.63251821192E+02  0.67640453570E+02  0.00000000000E+00 0. -1.
</event>
<event>
 4    1  0.2243645E+005  0.2097505E+02  0.7546771E-02  0.1519621E+00
          2   -1    0    0  502    0  0.00000000000E+00  0.00000000000E+00  0.22024336385E+04  0.22024336385E+04  0.00000000000E+00 0.  1.
         21   -1    0    0  503  502 -0.00000000000E+00 -0.00000000000E+00 -0.23046470491E+00  0.23046470491E+00  0.00000000000E+00 0.  1.
          2    1    1    2  501    0 -0.13749557343E+02 -0.15839893478E+02  0.15031112416E+04  0.15032575818E+04  0.00000000000E+00 0.  1.
         21    1    1    2  503  501  0.13749557343E+02  0.15839893478E+02  0.69909193225E+03  0.69940652148E+03  0.00000000000E+00 0.  1.
</event>
<event>
 4    1  0.2243645E+005  0.2856504E+02  0.7546771E-02  0.1432490E+00
          2   -1    0    0  503    0  0.00000000000E+00  0.00000000000E+00  0.12254371577E+04  0.12254371577E+04  0.00000000000E+00 0. -1.
         21   -1    0    0  501  502 -0.00000000000E+00 -0.00000000000E+00 -0.29905665503E+02  0.29905665503E+02  0.00000000000E+00 0. -1.
          2    1    1    2  501    0  0.28565008550E+02  0.39965427018E-01  0.12184102338E+04  0.12187450345E+04  0.00000000000E+00 0. -1.
         21    1    1    2  503  502 -0.28565008550E+02 -0.39965427018E-01 -0.22878741681E+02  0.36597788617E+02  0.00000000000E+00 0. -1.
</event>
<event>
 4    1  0.2243645E+005  0.3209708E+02  0.7546771E-02  0.1402207E+00
          2   -1    0    0  503    0  0.00000000000E+00  0.00000000000E+00  0.89682844799E+03  0.89682844799E+03  0.00000000000E+00 0. -1.
         21   -1    0    0  501  502 -0.00000000000E+00 -0.00000000000E+00 -0.97997718227E+01  0.97997718227E+01  0.00000000000E+00 0.  1.
          2    1    1    2  501    0 -0.66532661061E+01  0.31399941891E+02  0.86943158011E+03  0.87002384726E+03  0.00000000000E+00 0. -1.
         21    1    1    2  503  502  0.66532661061E+01 -0.31399941891E+02  0.17597096057E+02  0.36604372557E+02  0.00000000000E+00 0.  1.
</event>
<event>
 4    1  0.2243645E+005  0.2237894E+02  0.7546771E-02  0.1500448E+00
          2   -1    0    0  503    0  0.00000000000E+00  0.00000000000E+00  0.24817959640E+03  0.24817959640E+03  0.00000000000E+00 0.  1.
         21   -1    0    0  501  502 -0.00000000000E+00 -0.00000000000E+00 -0.32901365289E+01  0.32901365289E+01  0.00000000000E+00 0.  1.
          2    1    1    2  501    0  0.14832791278E+02  0.16757244173E+02  0.20062949901E+03  0.20187375462E+03  0.00000000000E+00 0.  1.
         21    1    1    2  503  502 -0.14832791278E+02 -0.16757244173E+02  0.44259960854E+02  0.49595978307E+02  0.00000000000E+00 0.  1.
</event>
<event>
 4    1  0.2243645E+005  0.3775781E+02  0.7546771E-02  0.1362151E+00
          2   -1    0    0  503    0  0.00000000000E+00  0.00000000000E+00  0.52197597079E+01  0.52197597079E+01  0.00000000000E+00 0. -1.
         21   -1    0    0  501  502 -0.00000000000E+00 -0.00000000000E+00 -0.27327858055E+03  0.27327858055E+03  0.00000000000E+00 0. -1.
          2    1    1    2  501    0  0.31445152094E+02 -0.20901073101E+02 -0.13731900251E+03  0.14241545175E+03  0.00000000000E+00 0. -1.
         21    1    1    2  503  502 -0.31445152094E+02  0.20901073101E+02 -0.13073981833E+03  0.13608288850E+03  0.00000000000E+00 0. -1.
</event>
<event>
 4    1  0.2243645E+005  0.2911575E+02  0.7546771E-02  0.1427439E+00
          2   -1    0    0  502    0  0.00000000000E+00  0.00000000000E+00  0.53760331885E+03  0.53760331885E+03  0.00000000000E+00 0. -1.
         21   -1    0    0  503  502 -0.00000000000E+00 -0.00000000000E+00 -0.36407255154E+03  0.36407255154E+03  0.00000000000E+00 0.  1.
          2    1    1    2  501    0  0.15217790608E+02  0.24822281568E+02  0.53662592969E+03  0.53741521678E+03  0.00000000000E+00 0. -1.
         21    1    1    2  503  501 -0.15217790608E+02 -0.24822281568E+02 -0.36309516239E+03  0.36426065360E+03  0.00000000000E+00 0.  1.
</event>
<event>
 4    1  0.2243645E+005  0.2065354E+02  0.7546771E-02  0.1524269E+00
          2   -1    0    0  502    0  0.00000000000E+00  0.00000000000E+00  0.32461124420E+01  0.32461124420E+01  0.00000000000E+00 0. -1.
         21   -1    0    0  503  502 -0.00000000000E+00 -0.00000000000E+00 -0.16734151679E+03  0.16734151679E+03  0.00000000000E+00 0. -1.
          2    1    1    2  501    0 -0.19949083006E+02  0.53481547623E+01 -0.42523876015E+02  0.47274186439E+02  0.00000000000E+00 0. -1.
         21    1    1    2  503  501  0.19949083006E+02 -0.53481547623E+01 -0.12157152833E+03  0.12331344279E+03  0.00000000000E+00 0. -1.
</event>
<event>
 4    1  0.2243645E+005  0.2031401E+02  0.7546771E-02  0.1529288E+00
          2   -1    0    0  502    0  0.00000000000E+00  0.00000000000E+00  0.76589141171E+01  0.76589141171E+01  0.00000000000E+00 0.  1.
         21   -1    0    0  503  502 -0.00000000000E+00 -0.00000000000E+00 -0.15212698053E+03  0.15212698053E+03  0.00000000000E+00 0.  1.
          2    1    1    2  501    0 -0.20048727703E+02  0.32722399211E+01 -0.80294744168E+01  0.21843339855E+02  0.00000000000E+00 0.  1.
         21    1    1    2  503  501  0.20048727703E+02 -0.32722399211E+01 -0.13643859200E+03  0.13794255479E+03  0.00000000000E+00 0.  1.
</event>
<event>
 4    1  0.2243645E+005  0.3381205E+02  0.7546771E-02  0.1389113E+00
          2   -1    0    0  503    0  0.00000000000E+00  0.00000000000E+00  0.58562449877E+03  0.58562449877E+03  0.00000000000E+00 0. -1.
         21   -1    0    0  501  502 -0.00000000000E+00 -0.00000000000E+00 -0.27266939238E+02  0.27266939238E+02  0.00000000000E+00 0.  1.
          2    1    1    2  501    0 -0.26970861680E+02 -0.20391844665E+02  0.57445067639E+03  0.57544490120E+03  0.00000000000E+00 0. -1.
         21    1    1    2  503  502  0.26970861680E+02  0.20391844665E+02 -0.16093116861E+02  0.37446536808E+02  0.00000000000E+00 0.  1.
</event>
<event>
 4    1  0.2243645E+005  0.3309756E+02  0.7546771E-02  0.1394455E+00
          2   -1    0    0  503    0  0.00000000000E+00  0.00000000000E+00  0.19125825423E+03  0.19125825423E+03  0.00000000000E+00 0.  1.
         21   -1    0    0  501  502 -0.00000000000E+00 -0.00000000000E+00 -0.61330786065E+01  0.61330786065E+01  0.00000000000E+00 0.  1.
          2    1    1    2  501    0 -0.39813165679E+01 -0.32857226555E+02  0.11794015315E+03  0.12249623645E+03  0.00000000000E+00 0.  1.
         21    1    1    2  503  502  0.39813165679E+01  0.32857226555E+02  0.67185022475E+02  0.74895096392E+02  0.00000000000E+00 0.  1.
</event>
<event>
 4    1  0.2243645E+005  0.2418890E+02  0.7546771E-02  0.1478085E+00
          2   -1    0    0  503    0  0.00000000000E+00  0.00000000000E+00  0.51829974489E+03  0.51829974489E+03  0.00000000000E+00 0.  1.
         21   -1    0    0  501  502 -0.00000000000E+00 -0.00000000000E+00 -0.50438037129E+02  0.50438037129E+02  0.00000000000E+00 0.  1.
          2    1    1    2  501    0 -0.18286547793E+02  0.15833664503E+02  0.51509940739E+03  0.51566704593E+03  0.00000000000E+00 0.  1.
         21    1    1    2  503  502  0.18286547793E+02 -0.15833664503E+02 -0.47237699636E+02  0.53070736086E+02  0.00000000000E+00 0.  1.
</event>
<event>
 4    1  0.2243645E+005  0.3240904E+02  0.7546771E-02  0.1399755E+00
          2   -1    0    0  502    0  0.00000000000E+00  0.00000000000E+00  0.48452423633E+02  0.48452423633E+02  0.00000000000E+00 0. -1.
         21   -1    0    0  503  502 -0.00000000000E+00 -0.00000000000E+00 -0.40180846043E+02  0.40180846043E+02  0.00000000000E+00 0. -1.
          2    1    1    2  501    0  0.14305763406E+02 -0.29080764698E+02  0.34208870388E+02  0.47123163681E+02  0.00000000000E+00 0. -1.
         21    1    1    2  503  501 -0.14305763406E+02  0.29080764698E+02 -0.25937292798E+02  0.41510105995E+02  0.00000000000E+00 0. -1.
</event>
<event>
 4    1  0.2243645E+005  0.3848834E+02  0.7546771E-02  0.1357579E+00
          2   -1    0    0  503    0  0.00000000000E+00  0.00000000000E+00  0.78211349051E+02  0.78211349051E+02  0.00000000000E+00 0. -1.
         21   -1    0    0  501  502 -0.00000000000E+00 -0.00000000000E+00 -0.18992645162E+02  0.18992645162E+02  0.00000000000E+00 0. -1.
          2    1    1    2  501    0  0.31290302345E+02 -0.22411367749E+02  0.32159002212E+02  0.50155297312E+02  0.00000000000E+00 0. -1.
         21    1    1    2  503  502 -0.31290302345E+02  0.22411367749E+02  0.27059701678E+02  0.47048696901E+02  0.00000000000E+00 0. -1.
</event>
<event>
 4    1  0.2243645E+005  0.2633552E+02  0.7546771E-02  0.1454400E+00
          2   -1    0    0  503    0  0.00000000000E+00  0.00000000000E+00  0.11867987045E+04  0.11867987045E+04  0.00000000000E+00 0. -1.
         21   -1    0    0  501  502 -0.00000000000E+00 -0.00000000000E+00 -0.13378716441E+01  0.13378716441E+01  0.00000000000E+00 0. -1.
          2    1    1    2  501    0 -0.25603315897E+02 -0.61668345403E+01  0.10385549303E+04  0.10388887827E+04  0.00000000000E+00 0. -1.
         21    1    1    2  503  502  0.25603315897E+02  0.61668345403E+01  0.14690590258E+03  0.14924779344E+03  0.00000000000E+00 0. -1.
</event>
<event>
 4    1  0.2243645E+005  0.2917455E+02  0.7546771E-02  0.1426908E+00
          2   -1    0    0  503    0  0.00000000000E+00  0.00000000000E+00  0.20710608545E+02  0.20710608545E+02  0.00000000000E+00 0. -1.
         21   -1    0    0  501  502 -0.00000000000E+00 -0.00000000000E+00 -0.48601987354E+02  0.48601987354E+02  0.00000000000E+00 0.  1.
          2    1    1    2  501    0  0.28683801672E+02  0.53285725714E+01 -0.32761293761E+00  0.29176385901E+02  0.00000000000E+00 0. -1.
         21    1    1    2  503  502 -0.28683801672E+02 -0.53285725714E+01 -0.27563765871E+02  0.40136209998E+02  0.00000000000E+00 0.  1.
</event>
<event>
 4    1  0.2243645E+005  0.2335197E+02  0.7546771E-02  0.1488125E+00
          2   -1    0    0  503    0  0.00000000000E+00  0.00000000000E+00  0.10703087360E+04  0.10703087360E+04  0.00000000000E+00 0.  1.
         21   -1    0    0  501  502 -0.00000000000E+00 -0.00000000000E+00 -0.44333329707E+01  0.44333329707E+01  0.00000000000E+00 0.  1.
          2    1    1    2  501    0 -0.82682181277E+01 -0.21839207844E+02  0.10384884305E+04  0.10387509493E+04  0.00000000000E+00 0.  1.
         21    1    1    2  503  502  0.82682181277E+01  0.21839207844E+02  0.27386972578E+02  0.35991119700E+02  0.00000000000E+00 0.  1.
</event>
<event>
 4    1  0.2243645E+005  0.2272019E+02  0.7546771E-02  0.1496042E+00
          2   -1    0    0  503    0  0.00000000000E+00  0.00000000000E+00  0.38439444086E+02  0.38439444086E+02  0.00000000000E+00 0.  1.
         21   -1    0    0  501  502 -0.00000000000E+00 -0.00000000000E+00 -0.13582063293E+02  0.13582063293E+02  0.00000000000E+00 0.  1.
          2    1    1    2  501    0  0.17860950471E+02 -0.14042552841E+02  0.15189106973E+02  0.27329760567E+02  0.00000000000E+00 0.  1.
         21    1    1    2  503  502 -0.17860950471E+02  0.14042552841E+02  0.96682738198E+01  0.24691746813E+02  0.00000000000E+00 0.  1.
</event>
<event>
 4    1  0.2243645E+005  0.2454210E+02  0.7546771E-02  0.1473992E+00
          2   -1    0    0  503    0  0.00000000000E+00  0.00000000000E+00  0.12434196548E+04  0.12434196548E+04  0.00000000000E+00 0.  1.
         21   -1    0    0  501  502 -0.00000000000E+00 -0.00000000000E+00 -0.19278544338E+01  0.19278544338E+01  0.00000000000E+00 0. -1.
          2    1    1    2  501    0  0.24527391421E+02  0.84958235906E+00  0.11595423308E+04  0.11598020226E+04  0.00000000000E+00 0.  1.
         21    1    1    2  503  502 -0.24527391421E+02 -0.84958235906E+00  0.81949469509E+02  0.85545486572E+02  0.00000000000E+00 0. -1.
</event>
<event>
 4    1  0.2243645E+005  0.5138263E+02  0.7546771E-02  0.1292287E+00
          2   -1    0    0  502    0  0.00000000000E+00  0.00000000000E+00  0.23725481624E+03  0.23725481624E+03  0.00000000000E+00 0. -1.
         21   -1    0    0  503  502 -0.00000000000E+00 -0.00000000000E+00 -0.96636568993E+02  0.96636568993E+02  0.00000000000E+00 0.  1.
          2    1    1    2  501    0  0.25566227728E+02 -0.44570642496E+02  0.22734875197E+03  0.23308288053E+03  0.00000000000E+00 0. -1.
         21    1    1    2  503  501 -0.25566227728E+02  0.44570642496E+02 -0.86730504720E+02  0.10080850471E+03  0.00000000000E+00 0.  1.
</event>
<event>
 4    1  0.2243645E+005  0.2024990E+02  0.7546771E-02  0.1530249E+00
          2   -1    0    0  502    0  0.00000000000E+00  0.00000000000E+00  0.65420120335E+03  0.65420120335E+03  0.00000000000E+00 0.  1.
         21   -1    0    0  503  502 -0.00000000000E+00 -0.00000000000E+00 -0.24433912899E+01  0.24433912899E+01  0.00000000000E+00 0.  1.
          2    1    1    2  501    0 -0.65492113346E+01  0.19161578974E+02  0.60897349868E+03  0.60931008556E+03  0.00000000000E+00 0.  1.
         21    1    1    2  503  501  0.65492113346E+01 -0.19161578974E+02  0.42784313383E+02  0.47334509077E+02  0.00000000000E+00 0.  1.
</event>
<event>
 4    1  0.2243645E+005  0.3664779E+02  0.7546771E-02  0.1369335E+00
          2   -1    0    0  503    0  0.00000000000E+00  0.00000000000E+00  0.17457684158E+03  0.17457684158E+03  0.00000000000E+00 0. -1.
         21   -1    0    0  501  502 -0.00000000000E+00 -0.00000000000E+00 -0.17914352031E+02  0.17914352031E+02  0.00000000000E+00 0. -1.
          2    1    1    2  501    0  0.36031268242E+02  0.66938954831E+01  0.15103042526E+03  0.15541315865E+03  0.00000000000E+00 0. -1.
         21    1    1    2  503  502 -0.36031268242E+02 -0.66938954831E+01  0.56320642812E+01  0.37078034952E+02  0.00000000000E+00 0. -1.
</event>
<event>
 4    1  0.2243645E+005  0.2450055E+02  0.7546771E-02  0.1474469E+00
          2   -1    0    0  503    0  0.00000000000E+00  0.00000000000E+00  0.14279619911E+04  0.14279619911E+04  0.00000000000E+00 0.  1.
         21   -1    0    0  501  502 -0.00000000000E+00 -0.00000000000E+00 -0.88812492772E+01  0.88812492772E+01  0.00000000000E+00 0.  1.
          2    1    1    2  501    0  0.20163715473E+02 -0.13917667620E+02  0.14107534882E+04  0.14109662226E+04  0.00000000000E+00 0.  1.
         21    1    1    2  503  502 -0.20163715473E+02  0.13917667620E+02  0.83272535755E+01  0.25877017714E+02  0.00000000000E+00 0.  1.
</event>
<event>
 4    1  0.2243645E+005  0.2309229E+02  0.7546771E-02  0.1491342E+00
          2   -1    0    0  503    0  0.00000000000E+00  0.00000000000E+00  0.17873244072E+04  0.17873244072E+04  0.00000000000E+00 0. -1.
         21   -1    0    0  501  502 -0.00000000000E+00 -0.00000000000E+00 -0.55715839843E+00  0.55715839843E+00  0.00000000000E+00 0. -1.
          2    1    1    2  501    0 -0.36417122175E+01 -0.22803329470E+02  0.15026482075E+04  0.15028256350E+04  0.00000000000E+00 0. -1.
         21    1    1    2  503  502  0.36417122175E+01  0.22803329470E+02  0.28411904137E+03  0.28505593061E+03  0.00000000000E+00 0. -1.
</event>
<event>
 4    1  0.2243645E+005  0.3841924E+02  0.7546771E-02  0.1358006E+00
          2   -1    0    0  502    0  0.00000000000E+00  0.00000000000E+00  0.12224507255E+03  0.12224507255E+03  0.00000000000E+00 0.  1.
         21   -1    0    0  503  502 -0.00000000000E+00 -0.00000000000E+00 -0.93838487295E+02  0.93838487295E+02  0.00000000000E+00 0.  1.
          2    1    1    2  501    0  0.25041898841E+02  0.29136602429E+02  0.11505481905E+03  0.12129983382E+03  0.00000000000E+00 0.  1.
         21    1    1    2  503  501 -0.25041898841E+02 -0.29136602429E+02 -0.86648233796E+02  0.94783726022E+02  0.00000000000E+00 0.  1.
</event>
<event>
 4    1  0.2243645E+005  0.9178418E+02  0.7546771E-02  0.1178860E+00
          2   -1    0    0  503    0  0.00000000000E+00  0.00000000000E+00  0.19647375573E+04  0.19647375573E+04  0.00000000000E+00 0.  1.
         21   -1    0    0  501  502 -0.00000000000E+00 -0.00000000000E+00 -0.59480368198E+01  0.59480368198E+01  0.00000000000E+00 0.  1.
          2    1    1    2  501    0  0.90163224298E+02 -0.17173471895E+02  0.14999777492E+04  0.15027832789E+04  0.00000000000E+00 0.  1.
         21    1    1    2  503  502 -0.90163224298E+02  0.17173471895E+02  0.45881177132E+03  0.46790231529E+03  0.00000000000E+00 0.  1.
</event>
<event>
 4    1  0.2243645E+005  0.2129636E+02  0.7546771E-02  0.1515075E+00
          2   -1    0    0  503    0  0.00000000000E+00  0.00000000000E+00  0.18377830039E+04  0.18377830039E+04  0.00000000000E+00 0.  1.
         21   -1    0    0  501  502 -0.00000000000E+00 -0.00000000000E+00 -0.50074718866E+00  0.50074718866E+00  0.00000000000E+00 0.  1.
          2    1    1    2  501    0 -0.17639267553E+02  0.11932775188E+02  0.15732154101E+04  0.15733595461E+04  0.00000000000E+00 0.  1.
         21    1    1    2  503  502  0.17639267553E+02 -0.11932775188E+02  0.26406684666E+03  0.26492420499E+03  0.00000000000E+00 0.  1.
</event>
<event>
 4    1  0.2243645E+005  0.2193090E+02  0.7546771E-02  0.1506378E+00
          2   -1    0    0  502    0  0.00000000000E+00  0.00000000000E+00  0.14347942276E+02  0.14347942276E+02  0.00000000000E+00 0. -1.
         21   -1    0    0  503  502 -0.00000000000E+00 -0.00000000000E+00 -0.72194688074E+02  0.72194688074E+02  0.00000000000E+00 0. -1.
          2    1    1    2  501    0 -0.12323173376E+02  0.18141222799E+02  0.27469472027E+01  0.22102268789E+02  0.00000000000E+00 0. -1.
         21    1    1    2  503  501  0.12323173376E+02 -0.18141222799E+02 -0.60593693001E+02  0.64440361562E+02  0.00000000000E+00 0. -1.
</event>
<event>
 4    1  0.2243645E+005  0.2282497E+02  0.7546771E-02  0.1494708E+00
          2   -1    0    0  502    0  0.00000000000E+00  0.00000000000E+00  0.11797784304E+04  0.11797784304E+04  0.00000000000E+00 0. -1.
         21   -1    0    0  503  502 -0.00000000000E+00 -0.00000000000E+00 -0.12083824356E+02  0.12083824356E+02  0.00000000000E+00 0. -1.
          2    1    1    2  501    0 -0.36749998855E+01  0.22527176351E+02  0.11687882480E+04  0.11690110983E+04  0.00000000000E+00 0. -1.
         21    1    1    2  503  501  0.36749998855E+01 -0.22527176351E+02 -0.10936419547E+01  0.22851156452E+02  0.00000000000E+00 0. -1.
</event>
<event>
 4    1  0.2243645E+005  0.2124144E+02  0.7546771E-02  0.1515846E+00
          2   -1    0    0  503    0  0.00000000000E+00  0.00000000000E+00  0.12163822299E+04  0.12163822299E+04  0.00000000000E+00 0.  1.
         21   -1    0    0  501  502 -0.00000000000E+00 -0.00000000000E+00 -0.44254940455E+00  0.44254940455E+00  0.00000000000E+00 0. -1.
          2    1    1    2  501    0 -0.34496138329E+01  0.20959455468E+02  0.85271701883E+03  0.85298154307E+03  0.00000000000E+00 0.  1.
         21    1    1    2  503  502  0.34496138329E+01 -0.20959455468E+02  0.36322266164E+03  0.36384323621E+03  0.00000000000E+00 0. -1.
</event>
<event>
 4    1  0.2243645E+005  0.2610210E+02  0.7546771E-02  0.1456842E+00
          2   -1    0    0  503    0  0.00000000000E+00  0.00000000000E+00  0.19677723460E+04  0.19677723460E+04  0.00000000000E+00 0.  1.
         21   -1    0    0  501  502 -0.00000000000E+00 -0.00000000000E+00 -0.37329357539E+00  0.37329357539E+00  0.00000000000E+00 0. -1.
          2    1    1    2  501    0 -0.64456545623E+01  0.25293738035E+02  0.12486238669E+04  0.12488966653E+04  0.00000000000E+00 0.  1.
         21    1    1    2  503  502  0.64456545623E+01 -0.25293738035E+02  0.71877518557E+03  0.71924897431E+03  0.00000000000E+00 0. -1.
</event>
<event>
 4    1  0.2243645E+005  0.3043533E+02  0.7546771E-02  0.1415850E+00
          2   -1    0    0  503    0  0.00000000000E+00  0.00000000000E+00  0.14467428301E+04  0.14467428301E+04  0.00000000000E+00 0.  1.
         21   -1    0    0  501  502 -0.00000000000E+00 -0.00000000000E+00 -0.15940773148E+02  0.15940773148E+02  0.00000000000E+00 0.  1.
          2    1    1    2  501    0 -0.26753832182E+02  0.14510065426E+02  0.14319048787E+04  0.14322282958E+04  0.00000000000E+00 0.  1.
         21    1    1    2  503  502  0.26753832182E+02 -0.14510065426E+02 -0.11028217984E+01  0.30455307436E+02  0.00000000000E+00 0.  1.
</event>
<event>
 4    1  0.2243645E+005  0.2378372E+02  0.7546771E-02  0.1482885E+00
          2   -1    0    0  503    0  0.00000000000E+00  0.00000000000E+00  0.76889909758E+03  0.76889909758E+03  0.00000000000E+00 0. -1.
         21   -1    0    0  501  502 -0.00000000000E+00 -0.00000000000E+00 -0.16555224075E+01  0.16555224075E+01  0.00000000000E+00 0.  1.
          2    1    1    2  501    0  0.14269140901E+02 -0.19027790234E+02  0.67080705464E+03  0.67122855253E+03  0.00000000000E+00 0. -1.
         21    1    1    2  503  502 -0.14269140901E+02  0.19027790234E+02  0.96436520535E+02  0.99326067455E+02  0.00000000000E+00 0.  1.
</event>
<event>
 4    1  0.2243645E+005  0.5441688E+02  0.7546771E-02  0.1280080E+00
          2   -1    0    0  503    0  0.00000000000E+00  0.00000000000E+00  0.52799196623E+03  0.52799196623E+03  0.00000000000E+00 0.  1.
         21   -1    0    0  501  502 -0.00000000000E+00 -0.00000000000E+00 -0.56183729224E+01  0.56183729224E+01  0.00000000000E+00 0.  1.
          2    1    1    2  501    0 -0.17595520250E+02 -0.51493633574E+02  0.27242074577E+03  0.27780255463E+03  0.00000000000E+00 0.  1.
         21    1    1    2  503  502  0.17595520250E+02  0.51493633574E+02  0.24995284753E+03  0.25580778452E+03  0.00000000000E+00 0.  1.
</event>
<event>
 4    1  0.2243645E+005  0.2569735E+02  0.7546771E-02  0.1461151E+00
          2   -1    0    0  502    0  0.00000000000E+00  0.00000000000E+00  0.80158814764E+03  0.80158814764E+03  0.00000000000E+00 0. -1.
         21   -1    0    0  503  502 -0.00000000000E+00 -0.00000000000E+00 -0.88390175087E+01  0.88390175087E+01  0.00000000000E+00 0.  1.
          2    1    1    2  501    0  0.16529794948E+02  0.19675350703E+02  0.78224319813E+03  0.78266517398E+03  0.00000000000E+00 0. -1.
         21    1    1    2  503  501 -0.16529794948E+02 -0.19675350703E+02  0.10505932003E+02  0.27761991166E+02  0.00000000000E+00 0.  1.
</event>
<event>
 4    1  0.2243645E+005  0.2080678E+02  0.7546771E-02  0.1522042E+00
          2   -1    0    0  502    0  0.00000000000E+00  0.00000000000E+00  0.14192384857E+04  0.14192384857E+04  0.00000000000E+00 0.  1.
         21   -1    0    0  503  502 -0.00000000000E+00 -0.00000000000E+00 -0.55238495888E+01  0.55238495888E+01  0.00000000000E+00 0.  1.
          2    1    1    2  501    0 -0.18618485588E+02  0.92883867050E+01  0.13992895940E+04  0.13994442790E+04  0.00000000000E+00 0.  1.
         21    1    1    2  503  501  0.18618485588E+02 -0.92883867050E+01  0.14425042045E+02  0.25318056228E+02  0.00000000000E+00 0.  1.
</event>
<event>
 4    1  0.2243645E+005  0.2090467E+02  0.7546771E-02  0.1520630E+00
          2   -1    0    0  502    0  0.00000000000E+00  0.00000000000E+00  0.43141529897E+02  0.43141529897E+02  0.00000000000E+00 0. -1.
         21   -1    0    0  503  502 -0.00000000000E+00 -0.00000000000E+00 -0.11266442161E+02  0.11266442161E+02  0.00000000000E+00 0.  1.
          2    1    1    2  501    0 -0.40266281195E+01  0.20513207228E+02  0.24579137141E+02  0.32266691610E+02  0.00000000000E+00 0. -1.
         21    1    1    2  503  501  0.40266281195E+01 -0.20513207228E+02  0.72959505952E+01  0.22141280448E+02  0.00000000000E+00 0.  1.
</event>
<event>
 4    1  0.2243645E+005  0.2224582E+02  0.7546771E-02  0.1502192E+00
          2   -1    0    0  502    0  0.00000000000E+00  0.00000000000E+00  0.12864580595E+03  0.12864580595E+03  0.00000000000E+00 0.  1.
         21   -1    0    0  503  502 -0.00000000000E+00 -0.00000000000E+00 -0.51397025249E+01  0.51397025249E+01  0.00000000000E+00 0.  1.
          2    1    1    2  501    0  0.22036850533E+02  0.30419960624E+01  0.95302901648E+02  0.97864802580E+02  0.00000000000E+00 0.  1.
         21    1    1    2  503  501 -0.22036850533E+02 -0.30419960624E+01  0.28203201774E+02  0.35920705892E+02  0.00000000000E+00 0.  1.
</event>
<event>
 4    1  0.2243645E+005  0.3528710E+02  0.7546771E-02  0.1378556E+00
          2   -1    0    0  503    0  0.00000000000E+00  0.00000000000E+00  0.56293666465E+02  0.56293666465E+02  0.00000000000E+00 0. -1.
         21   -1    0    0  501  502 -0.00000000000E+00 -0.00000000000E+00 -0.69919304076E+03  0.69919304076E+03  0.00000000000E+00 0. -1.
          2    1    1    2  501    0  0.22807534023E+02 -0.26925749859E+02  0.50270588700E+02  0.61419147681E+02  0.00000000000E+00 0. -1.
         21    1    1    2  503  502 -0.22807534023E+02  0.26925749859E+02 -0.69316996300E+03  0.69406755954E+03  0.00000000000E+00 0. -1.
</event>
<event>
 4    1  0.2243645E+005  0.2567799E+02  0.7546771E-02  0.1461360E+00
          2   -1    0    0  502    0  0.00000000000E+00  0.00000000000E+00  0.11728924353E+04  0.11728924353E+04  0.00000000000E+00 0.  1.
         21   -1    0    0  503  502 -0.00000000000E+00 -0.00000000000E+00 -0.61681645728E+00  0.61681645728E+00  0.00000000000E+00 0.  1.
          2    1    1    2  501    0 -0.24258682689E+02  0.84187496577E+01  0.76079222470E+03  0.76122543849E+03  0.00000000000E+00 0.  1.
         21    1    1    2  503  501  0.24258682689E+02 -0.84187496577E+01  0.41148339409E+03  0.41228381322E+03  0.00000000000E+00 0.  1.
</event>
<event>
 4    1  0.2243645E+005  0.2976452E+02  0.7546771E-02  0.1421654E+00
          2   -1    0    0  502    0  0.00000000000E+00  0.00000000000E+00  0.90817911452E+01  0.90817911452E+01  0.00000000000E+00 0. -1.
         21   -1    0    0  503  502 -0.00000000000E+00 -0.00000000000E+00 -0.24636761170E+03  0.24636761170E+03  0.00000000000E+00 0.  1.
          2    1    1    2  501    0 -0.29700483190E+02  0.19514568856E+01 -0.19374618088E+02  0.35514823831E+02  0.00000000000E+00 0. -1.
         21    1    1    2  503  501  0.29700483190E+02 -0.19514568856E+01 -0.21791120247E+03  0.21993457902E+03  0.00000000000E+00 0.  1.
</event>
<event>
 4    1  0.2243645E+005  0.2372929E+02  0.7546771E-02  0.1483538E+00
          2   -1    0    0  503    0  0.00000000000E+00  0.00000000000E+00  0.91088140991E+03  0.91088140991E+03  0.00000000000E+00 0.  1.
         21   -1    0    0  501  502 -0.00000000000E+00 -0.00000000000E+00 -0.99779374505E+00  0.99779374505E+00  0.00000000000E+00 0.  1.
          2    1    1    2  501    0  0.18817341903E+02 -0.14456384105E+02  0.73617314690E+03  0.73655548441E+03  0.00000000000E+00 0.  1.
         21    1    1    2  503  502 -0.18817341903E+02  0.14456384105E+02  0.17371046926E+03  0.17532371924E+03  0.00000000000E+00 0.  1.
</event>
<event>
 4    1  0.2243645E+005  0.2165590E+02  0.7546771E-02  0.1510103E+00
          2   -1    0    0  503    0  0.00000000000E+00  0.00000000000E+00  0.87748388027E+03  0.87748388027E+03  0.00000000000E+00 0.  1.
         21   -1    0    0  501  502 -0.00000000000E+00 -0.00000000000E+00 -0.82055776275E+01  0.82055776275E+01  0.00000000000E+00 0.  1.
          2    1    1    2  501    0  0.21051918008E+02  0.50788480272E+01  0.86281906368E+03  0.86309079163E+03  0.00000000000E+00 0.  1.
         21    1    1    2  503  502 -0.21051918008E+02 -0.50788480272E+01  0.64592389641E+01  0.22598666268E+02  0.00000000000E+00 0.  1.
</event>
<event>
 4    1  0.2243645E+005  0.3966191E+02  0.7546771E-02  0.1350478E+00
          2   -1    0    0  503    0  0.00000000000E+00  0.00000000000E+00  0.95696051724E+03  0.95696051724E+03  0.00000000000E+00 0. -1.
         21   -1    0    0  501  502 -0.00000000000E+00 -0.00000000000E+00 -0.19687152117E+01  0.19687152117E+01  0.00000000000E+00 0.  1.
          2    1    1    2  501    0 -0.21885423947E+02  0.33077107592E+02  0.67227375185E+03  0.67344269560E+03  0.00000000000E+00 0. -1.
         21    1    1    2  503  502  0.21885423947E+02 -0.33077107592E+02  0.28271805018E+03  0.28548653685E+03  0.00000000000E+00 0.  1.
</event>
<event>
 4    1  0.2243645E+005  0.2205503E+02  0.7546771E-02  0.1504718E+00
          2   -1    0    0  503    0  0.00000000000E+00  0.00000000000E+00  0.11194537094E+04  0.11194537094E+04  0.00000000000E+00 0.  1.
         21   -1    0    0  501  502 -0.00000000000E+00 -0.00000000000E+00 -0.11244247665E+01  0.11244247665E+01  0.00000000000E+00 0. -1.
          2    1    1    2  501    0  0.50778307258E+01  0.21462527642E+02  0.99804048794E+03  0.99828414794E+03  0.00000000000E+00 0.  1.
         21    1    1    2  503  502 -0.50778307258E+01 -0.21462527642E+02  0.12028879672E+03  0.12229398625E+03  0.00000000000E+00 0. -1.
</event>
<event>
 4    1  0.2243645E+005  0.2915777E+02  0.7546771E-02  0.1427059E+00
          2   -1    0    0  503    0  0.00000000000E+00  0.00000000000E+00  0.15173265740E+03  0.15173265740E+03  0.00000000000E+00 0. -1.
         21   -1    0    0  501  502 -0.00000000000E+00 -0.00000000000E+00 -0.17299727724E+02  0.17299727724E+02  0.00000000000E+00 0.  1.
          2    1    1    2  501    0  0.18170709846E+01 -0.29101094942E+02  0.13671095162E+03  0.13978576382E+03  0.00000000000E+00 0. -1.
         21    1    1    2  503  502 -0.18170709846E+01  0.29101094942E+02 -0.22780219439E+01  0.29246621305E+02  0.00000000000E+00 0.  1.
</event>
<event>
 4    1  0.2243645E+005  0.2436337E+02  0.7546771E-02  0.1476053E+00
          2   -1    0    0  503    0  0.00000000000E+00  0.00000000000E+00  0.15386113133E+04  0.15386113133E+04  0.00000000000E+00 0. -1.
         21   -1    0    0  501  502 -0.00000000000E+00 -0.00000000000E+00 -0.38628688314E+00  0.38628688314E+00  0.00000000000E+00 0. -1.
          2    1    1    2  501    0 -0.23180917242E+01 -0.24252839723E+02  0.74138695445E+03  0.74178715951E+03  0.00000000000E+00 0. -1.
         21    1    1    2  503  502  0.23180917242E+01  0.24252839723E+02  0.79683807194E+03  0.79721044065E+03  0.00000000000E+00 0. -1.
</event>
<event>
 4    1  0.2243645E+005  0.2685752E+02  0.7546771E-02  0.1449045E+00
          2   -1    0    0  503    0  0.00000000000E+00  0.00000000000E+00  0.10710026581E+03  0.10710026581E+03  0.00000000000E+00 0.  1.
         21   -1    0    0  501  502 -0.00000000000E+00 -0.00000000000E+00 -0.13756422171E+02  0.13756422171E+02  0.00000000000E+00 0. -1.
          2    1    1    2  501    0 -0.21578784902E+01  0.26770687275E+02  0.89843586970E+02  0.93772044109E+02  0.00000000000E+00 0.  1.
         21    1    1    2  503  502  0.21578784902E+01 -0.26770687275E+02  0.35002566653E+01  0.27084643869E+02  0.00000000000E+00 0. -1.
</event>
<event>
 4    1  0.2243645E+005  0.3133198E+02  0.7546771E-02  0.1408364E+00
          2   -1    0    0  503    0  0.00000000000E+00  0.00000000000E+00  0.48916533799E+03  0.48916533799E+03  0.00000000000E+00 0. -1.
         21   -1    0    0  501  502 -0.00000000000E+00 -0.00000000000E+00 -0.54279695134E+02  0.54279695134E+02  0.00000000000E+00 0. -1.
          2    1    1    2  501    0 -0.18169674272E+02 -0.25525592109E+02  0.48409485516E+03  0.48510774237E+03  0.00000000000E+00 0. -1.
         21    1    1    2  503  502  0.18169674272E+02  0.25525592109E+02 -0.49209212310E+02  0.58337290748E+02  0.00000000000E+00 0. -1.
</event>
<event>
 4    1  0.2243645E+005  0.2770086E+02  0.7546771E-02  0.1440692E+00
          2   -1    0    0  503    0  0.00000000000E+00  0.00000000000E+00  0.43937289592E+03  0.43937289592E+03  0.00000000000E+00 0. -1.
         21   -1    0    0  501  502 -0.00000000000E+00 -0.00000000000E+00 -0.21246537183E+02  0.21246537183E+02  0.00000000000E+00 0. -1.
          2    1    1    2  501    0 -0.19219386391E+02  0.19948758512E+02  0.42970436655E+03  0.43059630794E+03  0.00000000000E+00 0. -1.
         21    1    1    2  503  502  0.19219386391E+02 -0.19948758512E+02 -0.11578007815E+02  0.30023125160E+02  0.00000000000E+00 0. -1.
</event>
<event>
 4    1  0.2243645E+005  0.2271742E+02  0.7546771E-02  0.1496077E+00
          2   -1    0    0  502    0  0.00000000000E+00  0.00000000000E+00  0.53667753375E+03  0.53667753375E+03  0.00000000000E+00 0. -1.
         21   -1    0    0  503  502 -0.00000000000E+00 -0.00000000000E+00 -0.29529552214E+01  0.29529552214E+01  0.00000000000E+00 0. -1.
          2    1    1    2  501    0  0.22670546890E+02  0.14585425696E+01  0.48843179973E+03  0.48895981842E+03  0.00000000000E+00 0. -1.
         21    1    1    2  503  501 -0.22670546890E+02 -0.14585425696E+01  0.45292778796E+02  0.50670670548E+02  0.00000000000E+00 0. -1.
</event>
<event>
 4    1  0.2243645E+005  0.2378541E+02  0.7546771E-02  0.1482864E+00
          2   -1    0    0  502    0  0.00000000000E+00  0.00000000000E+00  0.51598524942E+02  0.51598524942E+02  0.00000000000E+00 0. -1.
         21   -1    0    0  503  502 -0.00000000000E+00 -0.00000000000E+00 -0.26976236252E+02  0.26976236252E+02  0.00000000000E+00 0.  1.
          2    1    1    2  501    0 -0.23322116964E+02  0.46716871562E+01  0.42579110954E+02  0.48772189721E+02  0.00000000000E+00 0. -1.
         21    1    1    2  503  501  0.23322116964E+02 -0.46716871562E+01 -0.17956822264E+02  0.29802571473E+02  0.00000000000E+00 0.  1.
</event>
<event>
 4    1  0.2243645E+005  0.4052306E+02  0.7546771E-02  0.1345448E+00
          2   -1    0    0  503    0  0.00000000000E+00  0.00000000000E+00  0.82681771595E+03  0.82681771595E+03  0.00000000000E+00 0.  1.
         21   -1    0    0  501  502 -0.00000000000E+00 -0.00000000000E+00 -0.57570418211E+03  0.57570418211E+03  0.00000000000E+00 0. -1.
          2    1    1    2  501    0  0.40320777645E+02  0.40439394173E+01  0.82560706191E+03  0.82660095526E+03  0.00000000000E+00 0.  1.
         21    1    1    2  503  502 -0.40320777645E+02 -0.40439394173E+01 -0.57449352807E+03  0.57592094280E+03  0.00000000000E+00 0. -1.
</event>
<event>
 4    1  0.2243645E+005  0.2025947E+02  0.7546771E-02  0.1530106E+00
          2   -1    0    0  502    0  0.00000000000E+00  0.00000000000E+00  0.24454095800E+03  0.24454095800E+03  0.00000000000E+00 0. -1.
         21   -1    0    0  503  502 -0.00000000000E+00 -0.00000000000E+00 -0.27476116797E+01  0.27476116797E+01  0.00000000000E+00 0. -1.
          2    1    1    2  501    0 -0.13751365667E+02  0.14877704772E+02  0.19802627046E+03  0.19905991547E+03  0.00000000000E+00 0. -1.
         21    1    1    2  503  501  0.13751365667E+02 -0.14877704772E+02  0.43767075865E+02  0.48228654208E+02  0.00000000000E+00 0. -1.
</event>
<event>
 4    1  0.2243645E+005  0.2755075E+02  0.7546771E-02  0.1442153E+00
          2   -1    0    0  502    0  0.00000000000E+00  0.00000000000E+00  0.36700920835E+01  0.36700920835E+01  0.00000000000E+00 0. -1.
         21   -1    0    0  503  502 -0.00000000000E+00 -0.00000000000E+00 -0.85302012264E+03  0.85302012264E+03  0.00000000000E+00 0. -1.
          2    1    1    2  501    0 -0.29709363389E+01  0.27390093983E+02 -0.51855940773E+02  0.58720373845E+02  0.00000000000E+00 0. -1.
         21    1    1    2  503  501  0.29709363389E+01 -0.27390093983E+02 -0.79749408979E+03  0.79796984088E+03  0.00000000000E+00 0. -1.
</event>
<event>
 4    1  0.2243645E+005  0.2723864E+02  0.7546771E-02  0.1445226E+00
          2   -1    0    0  502    0  0.00000000000E+00  0.00000000000E+00  0.23085144926E+04  0.23085144926E+04  0.00000000000E+00 0.  1.
         21   -1    0    0  503  502 -0.00000000000E+00 -0.00000000000E+00 -0.71431754284E+00  0.71431754284E+00  0.00000000000E+00 0.  1.
          2    1    1    2  501    0  0.23139601597E+02 -0.14370181980E+02  0.20102380534E+04  0.20104225861E+04  0.00000000000E+00 0.  1.
         21    1    1    2  503  501 -0.23139601597E+02  0.14370181980E+02  0.29756212165E+03  0.29880622406E+03  0.00000000000E+00 0.  1.
</event>
<event>
 4    1  0.2243645E+005  0.3251596E+02  0.7546771E-02  0.1398922E+00
          2   -1    0    0  502    0  0.00000000000E+00  0.00000000000E+00  0.62341938442E+01  0.62341938442E+01  0.00000000000E+00 0. -1.
         21   -1    0    0  503  502 -0.00000000000E+00 -0.00000000000E+00 -0.17103789877E+03  0.17103789877E+03  0.00000000000E+00 0. -1.
          2    1    1    2  501    0  0.96667301428E+01  0.31045801541E+02 -0.90543224122E+02  0.96204796655E+02  0.00000000000E+00 0. -1.
         21    1    1    2  503  501 -0.96667301428E+01 -0.31045801541E+02 -0.74260480808E+02  0.81067295963E+02  0.00000000000E+00 0. -1.
</event>
<event>
 4    1  0.2243645E+005  0.2593526E+02  0.7546771E-02  0.1458607E+00
          2   -1    0    0  503    0  0.00000000000E+00  0.00000000000E+00  0.14799725112E+03  0.14799725112E+03  0.00000000000E+00 0. -1.
         21   -1    0    0  501  502 -0.00000000000E+00 -0.00000000000E+00 -0.56422561423E+02  0.56422561423E+02  0.00000000000E+00 0. -1.
          2    1    1    2  501    0  0.21640098644E+02 -0.14294883957E+02  0.14379424395E+03  0.14611441465E+03  0.00000000000E+00 0. -1.
         21    1    1    2  503  502 -0.21640098644E+02  0.14294883957E+02 -0.52219554253E+02  0.58305397889E+02  0.00000000000E+00 0. -1.
</event>
<event>
 4    1  0.2243645E+005  0.3561736E+02  0.7546771E-02  0.1376274E+00
          2   -1    0    0  503    0  0.00000000000E+00  0.00000000000E+00  0.58742590791E+03  0.58742590791E+03  0.00000000000E+00 0.  1.
         21   -1    0    0  501  502 -0.00000000000E+00 -0.00000000000E+00 -0.68488626793E+01  0.68488626793E+01  0.00000000000E+00 0. -1.
          2    1    1    2  501    0 -0.12518144299E+02  0.33345051451E+02  0.53615596670E+03  0.53733771226E+03  0.00000000000E+00 0.  1.
         21    1    1    2  503  502  0.12518144299E+02 -0.33345051451E+02  0.44421078533E+02  0.56937058328E+02  0.00000000000E+00 0. -1.
</event>
<event>
 4    1  0.2243645E+005  0.2259320E+02  0.7546771E-02  0.1497670E+00
          2   -1    0    0  503    0  0.00000000000E+00  0.00000000000E+00  0.47096202028E+03  0.47096202028E+03  0.00000000000E+00 0. -1.
         21   -1    0    0  501  502 -0.00000000000E+00 -0.00000000000E+00 -0.94774263165E+01  0.94774263165E+01  0.00000000000E+00 0. -1.
          2    1    1    2  501    0 -0.20844631978E+02  0.87151655246E+01  0.45680917798E+03  0.45736755228E+03  0.00000000000E+00 0. -1.
         21    1    1    2  503  502  0.20844631978E+02 -0.87151655246E+01  0.46754159764E+01  0.23071894309E+02  0.00000000000E+00 0. -1.
</event>
<event>
 4    1  0.2243645E+005  0.2698941E+02  0.7546771E-02  0.1447715E+00
          2   -1    0    0  502    0  0.00000000000E+00  0.00000000000E+00  0.11779544326E+04  0.11779544326E+04  0.00000000000E+00 0. -1.
         21   -1    0    0  503  502 -0.00000000000E+00 -0.00000000000E+00 -0.13933310427E+01  0.13933310427E+01  0.00000000000E+00 0.  1.
          2    1    1    2  501    0 -0.23845100167E+02 -0.12642756726E+02  0.10280456563E+04  0.10283998733E+04  0.00000000000E+00 0. -1.
         21    1    1    2  503  501  0.23845100167E+02  0.12642756726E+02  0.14851544530E+03  0.15094789032E+03  0.00000000000E+00 0.  1.
</event>
<event>
 4    1  0.2243645E+005  0.5394894E+02  0.7546771E-02  0.1281903E+00
          2   -1    0    0  503    0  0.00000000000E+00  0.00000000000E+00  0.26193320416E+02  0.26193320416E+02  0.00000000000E+00 0.  1.
         21   -1    0    0  501  502 -0.00000000000E+00 -0.00000000000E+00 -0.11351960311E+03  0.11351960311E+03  0.00000000000E+00 0.  1.
          2    1    1    2  501    0  0.29696075697E+02  0.45040326948E+02 -0.53828756571E+02  0.76210386414E+02  0.00000000000E+00 0.  1.
         21    1    1    2  503  502 -0.29696075697E+02 -0.45040326948E+02 -0.33497526125E+02  0.63502537113E+02  0.00000000000E+00 0.  1.
</event>
<event>
 4    1  0.2243645E+005  0.2338432E+02  0.7546771E-02  0.1487728E+00
          2   -1    0    0  503    0  0.00000000000E+00  0.00000000000E+00  0.14929790586E+04  0.14929790586E+04  0.00000000000E+00 0.  1.
         21   -1    0    0  501  502 -0.00000000000E+00 -0.00000000000E+00 -0.80577538896E+01  0.80577538896E+01  0.00000000000E+00 0.  1.
          2    1    1    2  501    0 -0.23296963931E+02 -0.20193379276E+01  0.14757232815E+04  0.14759085438E+04  0.00000000000E+00 0.  1.
         21    1    1    2  503  502  0.23296963931E+02  0.20193379276E+01  0.91980232201E+01  0.25128268647E+02  0.00000000000E+00 0.  1.
</event>
<event>
 4    1  0.2243645E+005  0.2004453E+02  0.7546771E-02  0.1533356E+00
          2   -1    0    0  502    0  0.00000000000E+00  0.00000000000E+00  0.10370157161E+04  0.10370157161E+04  0.00000000000E+00 0.  1.
         21   -1    0    0  503  502 -0.00000000000E+00 -0.00000000000E+00 -0.11422060646E+02  0.11422060646E+02  0.00000000000E+00 0.  1.
          2    1    1    2  501    0  0.15091091488E+02 -0.13192510363E+02  0.10280481322E+04  0.10282435244E+04  0.00000000000E+00 0.  1.
         21    1    1    2  503  501 -0.15091091488E+02  0.13192510363E+02 -0.24544767312E+01  0.20194252351E+02  0.00000000000E+00 0.  1.
</event>
<event>
 4    1  0.2243645E+005  0.3312635E+02  0.7546771E-02  0.1394237E+00
          2   -1    0    0  503    0  0.00000000000E+00  0.00000000000E+00  0.94854112401E+03  0.94854112401E+03  0.00000000000E+00 0.  1.
         21   -1    0    0  501  502 -0.00000000000E+00 -0.00000000000E+00 -0.29055847431E+01  0.29055847431E+01  0.00000000000E+00 0. -1.
          2    1    1    2  501    0 -0.71046199094E+01  0.32355514292E+02  0.84187614841E+03  0.84252762815E+03  0.00000000000E+00 0.  1.
         21    1    1    2  503  502  0.71046199094E+01 -0.32355514292E+02  0.10375939086E+03  0.10891908061E+03  0.00000000000E+00 0. -1.
</event>
<event>
 4    1  0.2243645E+005  0.2090138E+02  0.7546771E-02  0.1520678E+00
          2   -1    0    0  503    0  0.00000000000E+00  0.00000000000E+00  0.88595700299E+03  0.88595700299E+03  0.00000000000E+00 0. -1.
         21   -1    0    0  501  502 -0.00000000000E+00 -0.00000000000E+00 -0.23367774645E+01  0.23367774645E+01  0.00000000000E+00 0. -1.
          2    1    1    2  501    0 -0.11173648177E+02 -0.17664007865E+02  0.83632203336E+03  0.83658317642E+03  0.00000000000E+00 0. -1.
         21    1    1    2  503  502  0.11173648177E+02  0.17664007865E+02  0.47298192173E+02  0.51710604041E+02  0.00000000000E+00 0. -1.
</event>
<event>
 4    1  0.2243645E+005  0.2336352E+02  0.7546771E-02  0.1487983E+00
          2   -1    0    0  502    0  0.00000000000E+00  0.00000000000E+00  0.96414687804E+03  0.96414687804E+03  0.00000000000E+00 0.  1.
         21   -1    0    0  503  502 -0.00000000000E+00 -0.00000000000E+00 -0.85150672528E+01  0.85150672528E+01  0.00000000000E+00 0. -1.
          2    1    1    2  501    0 -0.55994197737E+01 -0.22682608021E+02  0.94770114884E+03  0.94798909367E+03  0.00000000000E+00 0.  1.
         21    1    1    2  503  501  0.55994197737E+01  0.22682608021E+02  0.79306619554E+01  0.24672851629E+02  0.00000000000E+00 0. -1.
</event>
<event>
 4    1  0.2243645E+005  0.2122847E+02  0.7546771E-02  0.1516028E+00
          2   -1    0    0  503    0  0.00000000000E+00  0.00000000000E+00  0.61130325608E+03  0.61130325608E+03  0.00000000000E+00 0. -1.
         21   -1    0    0  501  502 -0.00000000000E+00 -0.00000000000E+00 -0.84769248392E+00  0.84769248392E+00  0.00000000000E+00 0. -1.
          2    1    1    2  501    0  0.12105674009E+02  0.17438484908E+02  0.41573501824E+03  0.41627665499E+03  0.00000000000E+00 0. -1.
         21    1    1    2  503  502 -0.12105674009E+02 -0.17438484908E+02  0.19472054536E+03  0.19587429358E+03  0.00000000000E+00 0. -1.
</event>
<event>
 4    1  0.2243645E+005  0.2269988E+02  0.7546771E-02  0.1496302E+00
          2   -1    0    0  502    0  0.00000000000E+00  0.00000000000E+00  0.18281963655E+02  0.18281963655E+02  0.00000000000E+00 0. -1.
         21   -1    0    0  503  502 -0.00000000000E+00 -0.00000000000E+00 -0.38150690547E+02  0.38150690547E+02  0.00000000000E+00 0.  1.
          2    1    1    2  501    0  0.14626587238E+02  0.17359359339E+02  0.44866014271E+01  0.23139014743E+02  0.00000000000E+00 0. -1.
         21    1    1    2  503  501 -0.14626587238E+02 -0.17359359339E+02 -0.24355328319E+02  0.33293639459E+02  0.00000000000E+00 0.  1.
</event>
<event>
 4    1  0.2243645E+005  0.2230028E+02  0.7546771E-02  0.1501477E+00
          2   -1    0    0  502    0  0.00000000000E+00  0.00000000000E+00  0.10343046498E+02  0.10343046498E+02  0.00000000000E+00 0. -1.
         21   -1    0    0  503  502 -0.00000000000E+00 -0.00000000000E+00 -0.13681416241E+03  0.13681416241E+03  0.00000000000E+00 0.  1.
          2    1    1    2  501    0 -0.22299639414E+02 -0.16920883629E+00 -0.39799653301E+01  0.22652652685E+02  0.00000000000E+00 0. -1.
         21    1    1    2  503  501  0.22299639414E+02  0.16920883629E+00 -0.12249115058E+03  0.12450455622E+03  0.00000000000E+00 0.  1.
</event>
<event>
 4    1  0.2243645E+005  0.2204519E+02  0.7546771E-02  0.1504849E+00
          2   -1    0    0  502    0  0.00000000000E+00  0.00000000000E+00  0.84947167232E+02  0.84947167232E+02  0.00000000000E+00 0.  1.
         21   -1    0    0  503  502 -0.00000000000E+00 -0.00000000000E+00 -0.87452180119E+02  0.87452180119E+02  0.00000000000E+00 0. -1.
          2    1    1    2  501    0 -0.10997868570E+02  0.19105949017E+02  0.82079904492E+02  0.84988829397E+02  0.00000000000E+00 0.  1.
         21    1    1    2  503  501  0.10997868570E+02 -0.19105949017E+02 -0.84584917379E+02  0.87410517954E+02  0.00000000000E+00 0. -1.
</event>
<event>
 4    1  0.2243645E+005  0.2125045E+02  0.7546771E-02  0.1515719E+00
          2   -1    0    0  503    0  0.00000000000E+00  0.00000000000E+00  0.41984332105E+03  0.41984332105E+03  0.00000000000E+00 0.  1.
         21   -1    0    0  501  502 -0.00000000000E+00 -0.00000000000E+00 -0.25976175869E+01  0.25976175869E+01  0.00000000000E+00 0. -1.
          2    1    1    2  501    0  0.19688310416E+02  0.79970071532E+01  0.37030379619E+03  0.37091303990E+03  0.00000000000E+00 0.  1.
         21    1    1    2  503  502 -0.19688310416E+02 -0.79970071532E+01  0.46941907272E+02  0.51527898742E+02  0.00000000000E+00 0. -1.
</event>
<event>
 4    1  0.2243645E+005  0.2089080E+02  0.7546771E-02  0.1520830E+00
          2   -1    0    0  502    0  0.00000000000E+00  0.00000000000E+00  0.74777017593E+01  0.74777017593E+01  0.00000000000E+00 0.  1.
         21   -1    0    0  503  502 -0.00000000000E+00 -0.00000000000E+00 -0.81249139417E+03  0.81249139417E+03  0.00000000000E+00 0.  1.
          2    1    1    2  501    0  0.20890793128E+02  0.18013302861E-01 -0.75218682206E+01  0.22203694817E+02  0.00000000000E+00 0.  1.
         21    1    1    2  503  501 -0.20890793128E+02 -0.18013302861E-01 -0.79749182419E+03  0.79776540111E+03  0.00000000000E+00 0.  1.
</event>
<event>
 4    1  0.2243645E+005  0.2382459E+02  0.7546771E-02  0.1482395E+00
          2   -1    0    0  503    0  0.00000000000E+00  0.00000000000E+00  0.31944663556E+03  0.31944663556E+03  0.00000000000E+00 0.  1.
         21   -1    0    0  501  502 -0.00000000000E+00 -0.00000000000E+00 -0.21088472135E+01  0.21088472135E+01  0.00000000000E+00 0. -1.
          2    1    1    2  501    0  0.23464695603E+02  0.41254147832E+01  0.22246086411E+03  0.22373298158E+03  0.00000000000E+00 0.  1.
         21    1    1    2  503  502 -0.23464695603E+02 -0.41254147832E+01  0.94876924236E+02  0.97822501191E+02  0.00000000000E+00 0. -1.
</event>
<event>
 4    1  0.2243645E+005  0.2080962E+02  0.7546771E-02  0.1522000E+00
          2   -1    0    0  503    0  0.00000000000E+00  0.00000000000E+00  0.43473642646E+03  0.43473642646E+03  0.00000000000E+00 0.  1.
         21   -1    0    0  501  502 -0.00000000000E+00 -0.00000000000E+00 -0.13518882037E+01  0.13518882037E+01  0.00000000000E+00 0. -1.
          2    1    1    2  501    0 -0.12189975755E+02 -0.16865493122E+02  0.32855119931E+03  0.32920955475E+03  0.00000000000E+00 0.  1.
         21    1    1    2  503  502  0.12189975755E+02  0.16865493122E+02  0.10483333894E+03  0.10687875991E+03  0.00000000000E+00 0. -1.
</event>
<event>
 4    1  0.2243645E+005  0.2449437E+02  0.7546771E-02  0.1474540E+00
          2   -1    0    0  502    0  0.00000000000E+00  0.00000000000E+00  0.43537709000E+03  0.43537709000E+03  0.00000000000E+00 0.  1.
         21   -1    0    0  503  502 -0.00000000000E+00 -0.00000000000E+00 -0.13780574034E+01  0.13780574034E+01  0.00000000000E+00 0. -1.
          2    1    1    2  501    0  0.61294838363E+01 -0.23715050492E+02  0.21681459790E+03  0.21819382221E+03  0.00000000000E+00 0.  1.
         21    1    1    2  503  501 -0.61294838363E+01  0.23715050492E+02  0.21718443470E+03  0.21856132518E+03  0.00000000000E+00 0. -1.
</event>
<event>
 4    1  0.2243645E+005  0.2707648E+02  0.7546771E-02  0.1446841E+00
          2   -1    0    0  502    0  0.00000000000E+00  0.00000000000E+00  0.89697477139E+02  0.89697477139E+02  0.00000000000E+00 0. -1.
         21   -1    0    0  503  502 -0.00000000000E+00 -0.00000000000E+00 -0.18821663447E+02  0.18821663447E+02  0.00000000000E+00 0. -1.
          2    1    1    2  501    0  0.25046184160E+02 -0.10287111233E+02  0.76249743719E+02  0.80914519189E+02  0.00000000000E+00 0. -1.
         21    1    1    2  503  501 -0.25046184160E+02  0.10287111233E+02 -0.53739300267E+01  0.27604621396E+02  0.00000000000E+00 0. -1.
</event>
<event>
 4    1  0.2243645E+005  0.3360885E+02  0.7546771E-02  0.1390616E+00
          2   -1    0    0  502    0  0.00000000000E+00  0.00000000000E+00  0.15558078227E+04  0.15558078227E+04  0.00000000000E+00 0. -1.
         21   -1    0    0  503  502 -0.00000000000E+00 -0.00000000000E+00 -0.63001735783E+01  0.63001735783E+01  0.00000000000E+00 0. -1.
          2    1    1    2  501    0  0.23824848260E+02  0.23705098187E+02  0.15094268258E+04  0.15098009464E+04  0.00000000000E+00 0. -1.
         21    1    1    2  503  501 -0.23824848260E+02 -0.23705098187E+02  0.40080823234E+02  0.52307049867E+02  0.00000000000E+00 0. -1.
</event>
<event>
 4    1  0.2243645E+005  0.2834562E+02  0.7546771E-02  0.1434540E+00
          2   -1    0    0  502    0  0.00000000000E+00  0.00000000000E+00  0.55677325474E+03  0.55677325474E+03  0.00000000000E+00 0. -1.
         21   -1    0    0  503  502 -0.00000000000E+00 -0.00000000000E+00 -0.71335048461E+01  0.71335048461E+01  0.00000000000E+00 0.  1.
          2    1    1    2  501    0  0.26596323871E+02  0.98035492520E+01  0.52664425979E+03  0.52740653237E+03  0.00000000000E+00 0. -1.
         21    1    1    2  503  501 -0.26596323871E+02 -0.98035492520E+01  0.22995490103E+02  0.36500227211E+02  0.00000000000E+00 0.  1.
</event>
<event>
 4    1  0.2243645E+005  0.5153504E+02  0.7546771E-02  0.1291651E+00
          2   -1    0    0  503    0  0.00000000000E+00  0.00000000000E+00  0.42531769482E+03  0.42531769482E+03  0.00000000000E+00 0.  1.
         21   -1    0    0  501  502 -0.00000000000E+00 -0.00000000000E+00 -0.19254498047E+02  0.19254498047E+02  0.00000000000E+00 0. -1.
          2    1    1    2  501    0 -0.49230872473E+02 -0.15237501354E+02  0.38575165903E+03  0.38917888264E+03  0.00000000000E+00 0.  1.
         21    1    1    2  503  502  0.49230872473E+02  0.15237501354E+02  0.20311537744E+02  0.55393310223E+02  0.00000000000E+00 0. -1.
</event>
<event>
 4    1  0.2243645E+005  0.2276230E+02  0.7546771E-02  0.1495505E+00
          2   -1    0    0  502    0  0.00000000000E+00  0.00000000000E+00  0.49207076985E+02  0.49207076985E+02  0.00000000000E+00 0. -1.
         21   -1    0    0  503  502 -0.00000000000E+00 -0.00000000000E+00 -0.18741053755E+02  0.18741053755E+02  0.00000000000E+00 0.  1.
          2    1    1    2  501    0  0.16893095145E+02 -0.15256009213E+02  0.37721746868E+02  0.44057379262E+02  0.00000000000E+00 0. -1.
         21    1    1    2  503  501 -0.16893095145E+02  0.15256009213E+02 -0.72557236376E+01  0.23890751478E+02  0.00000000000E+00 0.  1.
</event>
<event>
 4    1  0.2243645E+005  0.3307052E+02  0.7546771E-02  0.1394660E+00
          2   -1    0    0  503    0  0.00000000000E+00  0.00000000000E+00  0.18614447492E+04  0.18614447492E+04  0.00000000000E+00 0. -1.
         21   -1    0    0  501  502 -0.00000000000E+00 -0.00000000000E+00 -0.15978706246E+01  0.15978706246E+01  0.00000000000E+00 0. -1.
          2    1    1    2  501    0 -0.18646863080E+02  0.27312149930E+02  0.16706456847E+04  0.16709729689E+04  0.00000000000E+00 0. -1.
         21    1    1    2  503  502  0.18646863080E+02 -0.27312149930E+02  0.18920119382E+03  0.19206965085E+03  0.00000000000E+00 0. -1.
</event>
<event>
 4    1  0.2243645E+005  0.3422090E+02  0.7546771E-02  0.1386125E+00
          2   -1    0    0  503    0  0.00000000000E+00  0.00000000000E+00  0.59314849532E+03  0.59314849532E+03  0.00000000000E+00 0.  1.
         21   -1    0    0  501  502 -0.00000000000E+00 -0.00000000000E+00 -0.67298056940E+01  0.67298056940E+01  0.00000000000E+00 0. -1.
          2    1    1    2  501    0  0.31657142647E+02  0.12995966594E+02  0.54534191893E+03  0.54641456640E+03  0.00000000000E+00 0.  1.
         21    1    1    2  503  502 -0.31657142647E+02 -0.12995966594E+02  0.41076770690E+02  0.53463734612E+02  0.00000000000E+00 0. -1.
</event>
<event>
 4    1  0.2243645E+005  0.2116360E+02  0.7546771E-02  0.1516942E+00
          2   -1    0    0  503    0  0.00000000000E+00  0.00000000000E+00  0.16518855450E+04  0.16518855450E+04  0.00000000000E+00 0. -1.
         21   -1    0    0  501  502 -0.00000000000E+00 -0.00000000000E+00 -0.28766466759E+00  0.28766466759E+00  0.00000000000E+00 0.  1.
          2    1    1    2  501    0  0.16429199703E+02  0.13340896590E+02  0.10237700965E+04  0.10239888225E+04  0.00000000000E+00 0. -1.
         21    1    1    2  503  502 -0.16429199703E+02 -0.13340896590E+02  0.62782778387E+03  0.62818438720E+03  0.00000000000E+00 0.  1.
</event>
<event>
 4    1  0.2243645E+005  0.2100283E+02  0.7546771E-02  0.1519224E+00
          2   -1    0    0  503    0  0.00000000000E+00  0.00000000000E+00  0.71554259605E+01  0.71554259605E+01  0.00000000000E+00 0.  1.
         21   -1    0    0  501  502 -0.00000000000E+00 -0.00000000000E+00 -0.12151638424E+03  0.12151638424E+03  0.00000000000E+00 0. -1.
          2    1    1    2  501    0  0.17453309502E+02  0.11683366299E+02 -0.12022544081E+02  0.24200426170E+02  0.00000000000E+00 0.  1.
         21    1    1    2  503  502 -0.17453309502E+02 -0.11683366299E+02 -0.10233841420E+03  0.10447138403E+03  0.00000000000E+00 0. -1.
</event>
<event>
 4    1  0.2243645E+005  0.2031032E+02  0.7546771E-02  0.1529344E+00
          2   -1    0    0  502    0  0.00000000000E+00  0.00000000000E+00  0.48128786298E+01  0.48128786298E+01  0.00000000000E+00 0.  1.
         21   -1    0    0  503  502 -0.00000000000E+00 -0.00000000000E+00 -0.19507079289E+03  0.19507079289E+03  0.00000000000E+00 0.  1.
          2    1    1    2  501    0  0.15847994599E+02  0.12702362078E+02 -0.20297669858E+02  0.28714183548E+02  0.00000000000E+00 0.  1.
         21    1    1    2  503  501 -0.15847994599E+02 -0.12702362078E+02 -0.16996024441E+03  0.17116948798E+03  0.00000000000E+00 0.  1.
</event>
<event>
 4    1  0.2243645E+005  0.2460322E+02  0.7546771E-02  0.1473291E+00
          2   -1    0    0  502    0  0.00000000000E+00  0.00000000000E+00  0.68153439441E+03  0.68153439441E+03  0.00000000000E+00 0.  1.
         21   -1    0    0  503  502 -0.00000000000E+00 -0.00000000000E+00 -0.12457800255E+02  0.12457800255E+02  0.00000000000E+00 0.  1.
          2    1    1    2  501    0 -0.67034538261E+01 -0.23672389802E+02  0.66893628113E+03  0.66938857664E+03  0.00000000000E+00 0.  1.
         21    1    1    2  503  501  0.67034538261E+01  0.23672389802E+02  0.14031303093E+00  0.24603618024E+02  0.00000000000E+00 0.  1.
</event>
<event>
 4    1  0.2243645E+005  0.2767005E+02  0.7546771E-02  0.1440991E+00
          2   -1    0    0  503    0  0.00000000000E+00  0.00000000000E+00  0.91962121164E+01  0.91962121164E+01  0.00000000000E+00 0.  1.
         21   -1    0    0  501  502 -0.00000000000E+00 -0.00000000000E+00 -0.49882896645E+03  0.49882896645E+03  0.00000000000E+00 0.  1.
          2    1    1    2  501    0 -0.25394240395E+01  0.27553278767E+02 -0.12968295176E+02  0.30558280793E+02  0.00000000000E+00 0.  1.
         21    1    1    2  503  502  0.25394240395E+01 -0.27553278767E+02 -0.47666445916E+03  0.47746689778E+03  0.00000000000E+00 0.  1.
</event>
<event>
 4    1  0.2243645E+005  0.3340930E+02  0.7546771E-02  0.1392105E+00
          2   -1    0    0  502    0  0.00000000000E+00  0.00000000000E+00  0.12889022916E+03  0.12889022916E+03  0.00000000000E+00 0. -1.
         21   -1    0    0  503  502 -0.00000000000E+00 -0.00000000000E+00 -0.98679603426E+02  0.98679603426E+02  0.00000000000E+00 0. -1.
          2    1    1    2  501    0 -0.17077436294E+02 -0.28714850927E+02  0.12378282602E+03  0.12821220500E+03  0.00000000000E+00 0. -1.
         21    1    1    2  503  501  0.17077436294E+02  0.28714850927E+02 -0.93572200282E+02  0.99357627587E+02  0.00000000000E+00 0. -1.
</event>
<event>
 4    1  0.2243645E+005  0.2232613E+02  0.7546771E-02  0.1501138E+00
          2   -1    0    0  503    0  0.00000000000E+00  0.00000000000E+00  0.30536789268E+02  0.30536789268E+02  0.00000000000E+00 0. -1.
         21   -1    0    0  501  502 -0.00000000000E+00 -0.00000000000E+00 -0.17363168222E+02  0.17363168222E+02  0.00000000000E+00 0.  1.
          2    1    1    2  501    0 -0.18419346869E+02  0.12616798092E+02  0.12448403026E+02  0.25562055298E+02  0.00000000000E+00 0. -1.
         21    1    1    2  503  502  0.18419346869E+02 -0.12616798092E+02  0.72521802030E+00  0.22337902192E+02  0.00000000000E+00 0.  1.
</event>
<event>
 4    1  0.2243645E+005  0.2442552E+02  0.7546771E-02  0.1475334E+00
          2   -1    0    0  503    0  0.00000000000E+00  0.00000000000E+00  0.20164942301E+02  0.20164942301E+02  0.00000000000E+00 0. -1.
         21   -1    0    0  501  502 -0.00000000000E+00 -0.00000000000E+00 -0.65685627707E+02  0.65685627707E+02  0.00000000000E+00 0.  1.
          2    1    1    2  501    0 -0.19907742285E+02  0.14152306461E+02  0.90616654295E+01  0.26052250602E+02  0.00000000000E+00 0. -1.
         21    1    1    2  503  502  0.19907742285E+02 -0.14152306461E+02 -0.54582350836E+02  0.59798319406E+02  0.00000000000E+00 0.  1.
</event>
<event>
 4    1  0.2243645E+005  0.2189733E+02  0.7546771E-02  0.1506829E+00
          2   -1    0    0  502    0  0.00000000000E+00  0.00000000000E+00  0.11244927300E+04  0.11244927300E+04  0.00000000000E+00 0. -1.
         21   -1    0    0  503  502 -0.00000000000E+00 -0.00000000000E+00 -0.24090627555E+01  0.24090627555E+01  0.00000000000E+00 0.  1.
          2    1    1    2  501    0  0.20495697652E+02  0.77084032217E+01  0.10722002617E+04  0.10724238407E+04  0.00000000000E+00 0. -1.
         21    1    1    2  503  501 -0.20495697652E+02 -0.77084032217E+01  0.49883405620E+02  0.54477952042E+02  0.00000000000E+00 0.  1.
</event>
<event>
 4    1  0.2243645E+005  0.2104561E+02  0.7546771E-02  0.1518615E+00
          2   -1    0    0  503    0  0.00000000000E+00  0.00000000000E+00  0.65359076344E+02  0.65359076344E+02  0.00000000000E+00 0. -1.
         21   -1    0    0  501  502 -0.00000000000E+00 -0.00000000000E+00 -0.14942629988E+02  0.14942629988E+02  0.00000000000E+00 0.  1.
          2    1    1    2  501    0 -0.16123259606E+02 -0.13526198676E+02  0.54889638948E+02  0.58785967839E+02  0.00000000000E+00 0. -1.
         21    1    1    2  503  502  0.16123259606E+02  0.13526198676E+02 -0.44731925925E+01  0.21515738493E+02  0.00000000000E+00 0.  1.
</event>
<event>
 4    1  0.2243645E+005  0.3391934E+02  0.7546771E-02  0.1388324E+00
          2   -1    0    0  502    0  0.00000000000E+00  0.00000000000E+00  0.17306516253E+03  0.17306516253E+03  0.00000000000E+00 0.  1.
         21   -1    0    0  503  502 -0.00000000000E+00 -0.00000000000E+00 -0.20557337494E+02  0.20557337494E+02  0.00000000000E+00 0. -1.
          2    1    1    2  501    0 -0.30184612100E+02 -0.15472914131E+02  0.15588763169E+03  0.15953518607E+03  0.00000000000E+00 0.  1.
         21    1    1    2  503  501  0.30184612100E+02  0.15472914131E+02 -0.33798066608E+01  0.34087313951E+02  0.00000000000E+00 0. -1.
</event>
<event>
 4    1  0.2243645E+005  0.2258718E+02  0.7546771E-02  0.1497748E+00
          2   -1    0    0  502    0  0.00000000000E+00  0.00000000000E+00  0.17758328836E+04  0.17758328836E+04  0.00000000000E+00 0. -1.
         21   -1    0    0  503  502 -0.00000000000E+00 -0.00000000000E+00 -0.41099253416E+00  0.41099253416E+00  0.00000000000E+00 0. -1.
          2    1    1    2  501    0  0.22128150047E+02 -0.45305209279E+01  0.13749513929E+04  0.13751369071E+04  0.00000000000E+00 0. -1.
         21    1    1    2  503  501 -0.22128150047E+02  0.45305209279E+01  0.40047049820E+03  0.40110696899E+03  0.00000000000E+00 0. -1.
</event>
<event>
 4    1  0.2243645E+005  0.4973574E+02  0.7546771E-02  0.1299322E+00
          2   -1    0    0  503    0  0.00000000000E+00  0.00000000000E+00  0.12802549726E+04  0.12802549726E+04  0.00000000000E+00 0. -1.
         21   -1    0    0  501  502 -0.00000000000E+00 -0.00000000000E+00 -0.38495740558E+01  0.38495740558E+01  0.00000000000E+00 0. -1.
          2    1    1    2  501    0 -0.82616943479E+01  0.49044761366E+02  0.10913330715E+04  0.10924657968E+04  0.00000000000E+00 0. -1.
         21    1    1    2  503  502  0.82616943479E+01 -0.49044761366E+02  0.18507232699E+03  0.19163874981E+03  0.00000000000E+00 0. -1.
</event>
<event>
 4    1  0.2243645E+005  0.3465137E+02  0.7546771E-02  0.1383031E+00
          2   -1    0    0  503    0  0.00000000000E+00  0.00000000000E+00  0.18634182073E+03  0.18634182073E+03  0.00000000000E+00 0.  1.
         21   -1    0    0  501  502 -0.00000000000E+00 -0.00000000000E+00 -0.87627838009E+01  0.87627838009E+01  0.00000000000E+00 0.  1.
          2    1    1    2  501    0  0.34212927215E+02  0.54948456799E+01  0.13897536623E+03  0.14323012999E+03  0.00000000000E+00 0.  1.
         21    1    1    2  503  502 -0.34212927215E+02 -0.54948456799E+01  0.38603670701E+02  0.51874474544E+02  0.00000000000E+00 0.  1.
</event>
<event>
 4    1  0.2243645E+005  0.2051086E+02  0.7546771E-02  0.1526364E+00
          2   -1    0    0  502    0  0.00000000000E+00  0.00000000000E+00  0.14865156521E+04  0.14865156521E+04  0.00000000000E+00 0.  1.
         21   -1    0    0  503  502 -0.00000000000E+00 -0.00000000000E+00 -0.11491600540E+01  0.11491600540E+01  0.00000000000E+00 0.  1.
          2    1    1    2  501    0 -0.18853856189E+02 -0.80763526625E+01  0.13884593660E+04  0.13886108549E+04  0.00000000000E+00 0.  1.
         21    1    1    2  503  501  0.18853856189E+02  0.80763526625E+01  0.96907126060E+02  0.99053957250E+02  0.00000000000E+00 0.  1.
</event>
<event>
 4    1  0.2243645E+005  0.2858375E+02  0.7546771E-02  0.1432316E+00
          2   -1    0    0  503    0  0.00000000000E+00  0.00000000000E+00  0.25861875859E+02  0.25861875859E+02  0.00000000000E+00 0. -1.
         21   -1    0    0  501  502 -0.00000000000E+00 -0.00000000000E+00 -0.12671619928E+03  0.12671619928E+03  0.00000000000E+00 0. -1.
          2    1    1    2  501    0  0.14358909822E+02  0.24715424826E+02  0.15671305060E+02  0.32597857566E+02  0.00000000000E+00 0. -1.
         21    1    1    2  503  502 -0.14358909822E+02 -0.24715424826E+02 -0.11652562848E+03  0.11998021757E+03  0.00000000000E+00 0. -1.
</event>
<event>
 4    1  0.2243645E+005  0.3381559E+02  0.7546771E-02  0.1389087E+00
          2   -1    0    0  502    0  0.00000000000E+00  0.00000000000E+00  0.42943198409E+02  0.42943198409E+02  0.00000000000E+00 0. -1.
         21   -1    0    0  503  502 -0.00000000000E+00 -0.00000000000E+00 -0.12882196163E+03  0.12882196163E+03  0.00000000000E+00 0.  1.
          2    1    1    2  501    0  0.25899558131E+02 -0.21741827969E+02  0.33553780141E+02  0.47637698901E+02  0.00000000000E+00 0. -1.
         21    1    1    2  503  501 -0.25899558131E+02  0.21741827969E+02 -0.11943254336E+03  0.12412746114E+03  0.00000000000E+00 0.  1.
</event>
<event>
 4    1  0.2243645E+005  0.2091100E+02  0.7546771E-02  0.1520539E+00
          2   -1    0    0  502    0  0.00000000000E+00  0.00000000000E+00  0.11760186451E+02  0.11760186451E+02  0.00000000000E+00 0. -1.
         21   -1    0    0  503  502 -0.00000000000E+00 -0.00000000000E+00 -0.44069574670E+03  0.44069574670E+03  0.00000000000E+00 0.  1.
          2    1    1    2  501    0 -0.12867988383E+02 -0.16482859831E+02  0.20063052958E+01  0.21007023925E+02  0.00000000000E+00 0. -1.
         21    1    1    2  503  501  0.12867988383E+02  0.16482859831E+02 -0.43094186554E+03  0.43144890922E+03  0.00000000000E+00 0.  1.
</event>
<event>
 4    1  0.2243645E+005  0.3834970E+02  0.7546771E-02  0.1358438E+00
          2   -1    0    0  502    0  0.00000000000E+00  0.00000000000E+00  0.83999961744E+03  0.83999961744E+03  0.00000000000E+00 0. -1.
         21   -1    0    0  503  502 -0.00000000000E+00 -0.00000000000E+00 -0.14780909900E+02  0.14780909900E+02  0.00000000000E+00 0. -1.
          2    1    1    2  501    0 -0.26843393883E+02  0.27388538337E+02  0.81388935254E+03  0.81479235269E+03  0.00000000000E+00 0. -1.
         21    1    1    2  503  501  0.26843393883E+02 -0.27388538337E+02  0.11329355008E+02  0.39988174655E+02  0.00000000000E+00 0. -1.
</event>
<event>
 4    1  0.2243645E+005  0.6523802E+02  0.7546771E-02  0.1243004E+00
          2   -1    0    0  502    0  0.00000000000E+00  0.00000000000E+00  0.74732780694E+03  0.74732780694E+03  0.00000000000E+00 0. -1.
         21   -1    0    0  503  502 -0.00000000000E+00 -0.00000000000E+00 -0.19730410678E+03  0.19730410678E+03  0.00000000000E+00 0.  1.
          2    1    1    2  501    0 -0.12148624046E+02  0.64096876709E+02  0.74046146912E+03  0.74332979620E+03  0.00000000000E+00 0. -1.
         21    1    1    2  503  501  0.12148624046E+02 -0.64096876709E+02 -0.19043776896E+03  0.20130211752E+03  0.00000000000E+00 0.  1.
</event>
<event>
 4    1  0.2243645E+005  0.2092217E+02  0.7546771E-02  0.1520379E+00
          2   -1    0    0  503    0  0.00000000000E+00  0.00000000000E+00  0.52062612910E+03  0.52062612910E+03  0.00000000000E+00 0. -1.
         21   -1    0    0  501  502 -0.00000000000E+00 -0.00000000000E+00 -0.27743116578E+01  0.27743116578E+01  0.00000000000E+00 0.  1.
          2    1    1    2  501    0 -0.15269751775E+02  0.14302858540E+02  0.47740054264E+03  0.47785878165E+03  0.00000000000E+00 0. -1.
         21    1    1    2  503  502  0.15269751775E+02 -0.14302858540E+02  0.40451274804E+02  0.45541659116E+02  0.00000000000E+00 0.  1.
</event>
<event>
 4    1  0.2243645E+005  0.2142600E+02  0.7546771E-02  0.1513269E+00
          2   -1    0    0  502    0  0.00000000000E+00  0.00000000000E+00  0.81982554628E+03  0.81982554628E+03  0.00000000000E+00 0.  1.
         21   -1    0    0  503  502 -0.00000000000E+00 -0.00000000000E+00 -0.17499610232E+03  0.17499610232E+03  0.00000000000E+00 0.  1.
          2    1    1    2  501    0  0.21090199674E+02 -0.37784813411E+01  0.81902908361E+03  0.81930929034E+03  0.00000000000E+00 0.  1.
         21    1    1    2  503  501 -0.21090199674E+02  0.37784813411E+01 -0.17419963965E+03  0.17551235825E+03  0.00000000000E+00 0.  1.
</event>
<event>
 4    1  0.2243645E+005  0.2301106E+02  0.7546771E-02  0.1492359E+00
          2   -1    0    0  502    0  0.00000000000E+00  0.00000000000E+00  0.27200475674E+02  0.27200475674E+02  0.00000000000E+00 0. -1.
         21   -1    0    0  503  502 -0.00000000000E+00 -0.00000000000E+00 -0.24578368249E+02  0.24578368249E+02  0.00000000000E+00 0. -1.
          2    1    1    2  501    0  0.43440298928E+01  0.22597307964E+02  0.13117486273E+02  0.26487305810E+02  0.00000000000E+00 0. -1.
         21    1    1    2  503  501 -0.43440298928E+01 -0.22597307964E+02 -0.10495378848E+02  0.25291538113E+02  0.00000000000E+00 0. -1.
</event>
<event>
 4    1  0.2243645E+005  0.2072620E+02  0.7546771E-02  0.1523210E+00
          2   -1    0    0  503    0  0.00000000000E+00  0.00000000000E+00  0.77843636723E+02  0.77843636723E+02  0.00000000000E+00 0. -1.
         21   -1    0    0  501  502 -0.00000000000E+00 -0.00000000000E+00 -0.44609250596E+02  0.44609250596E+02  0.00000000000E+00 0. -1.
          2    1    1    2  501    0  0.19947603610E+02 -0.56274704937E+01  0.73931615113E+02  0.76781892573E+02  0.00000000000E+00 0. -1.
         21    1    1    2  503  502 -0.19947603610E+02  0.56274704937E+01 -0.40697228986E+02  0.45670994746E+02  0.00000000000E+00 0. -1.
</event>
<event>
 4    1  0.2243645E+005  0.3262317E+02  0.7546771E-02  0.1398090E+00
          2   -1    0    0  503    0  0.00000000000E+00  0.00000000000E+00  0.11838144953E+04  0.11838144953E+04  0.00000000000E+00 0. -1.
         21   -1    0    0  501  502 -0.00000000000E+00 -0.00000000000E+00 -0.93973801688E+00  0.93973801688E+00  0.00000000000E+00 0. -1.
          2    1    1    2  501    0  0.30742930487E+02  0.10915297530E+02  0.71474631376E+03  0.71549043637E+03  0.00000000000E+00 0. -1.
         21    1    1    2  503  502 -0.30742930487E+02 -0.10915297530E+02  0.46812844353E+03  0.46926379696E+03  0.00000000000E+00 0. -1.
</event>
<event>
 4    1  0.2243645E+005  0.2037208E+02  0.7546771E-02  0.1528422E+00
          2   -1    0    0  502    0  0.00000000000E+00  0.00000000000E+00  0.46455192694E+02  0.46455192694E+02  0.00000000000E+00 0. -1.
         21   -1    0    0  503  502 -0.00000000000E+00 -0.00000000000E+00 -0.10071644624E+02  0.10071644624E+02  0.00000000000E+00 0. -1.
          2    1    1    2  501    0  0.12302329813E+02 -0.16238055926E+02  0.27691573125E+02  0.34377972616E+02  0.00000000000E+00 0. -1.
         21    1    1    2  503  501 -0.12302329813E+02  0.16238055926E+02  0.86919749450E+01  0.22148864701E+02  0.00000000000E+00 0. -1.
</event>
<event>
 4    1  0.2243645E+005  0.4426362E+02  0.7546771E-02  0.1325163E+00
          2   -1    0    0  502    0  0.00000000000E+00  0.00000000000E+00  0.44247244935E+03  0.44247244935E+03  0.00000000000E+00 0. -1.
         21   -1    0    0  503  502 -0.00000000000E+00 -0.00000000000E+00 -0.46753133464E+02  0.46753133464E+02  0.00000000000E+00 0.  1.
          2    1    1    2  501    0  0.20271901490E+02 -0.39348675179E+02  0.43060069629E+03  0.43286975856E+03  0.00000000000E+00 0. -1.
         21    1    1    2  503  501 -0.20271901490E+02  0.39348675179E+02 -0.34881380405E+02  0.56355824254E+02  0.00000000000E+00 0.  1.
</event>
<event>
 4    1  0.2243645E+005  0.2168269E+02  0.7546771E-02  0.1509737E+00
          2   -1    0    0  502    0  0.00000000000E+00  0.00000000000E+00  0.20424525229E+03  0.20424525229E+03  0.00000000000E+00 0. -1.
         21   -1    0    0  503  502 -0.00000000000E+00 -0.00000000000E+00 -0.30375090048E+02  0.30375090048E+02  0.00000000000E+00 0. -1.
          2    1    1    2  501    0 -0.21673164538E+02  0.64249250783E+00  0.19971279002E+03  0.20088637921E+03  0.00000000000E+00 0. -1.
         21    1    1    2  503  501  0.21673164538E+02 -0.64249250783E+00 -0.25842627775E+02  0.33733963124E+02  0.00000000000E+00 0. -1.
</event>
<event>
 4    1  0.2243645E+005  0.2293284E+02  0.7546771E-02  0.1493343E+00
          2   -1    0    0  503    0  0.00000000000E+00  0.00000000000E+00  0.67158006748E+03  0.67158006748E+03  0.00000000000E+00 0.  1.
         21   -1    0    0  501  502 -0.00000000000E+00 -0.00000000000E+00 -0.16357762655E+01  0.16357762655E+01  0.00000000000E+00 0.  1.
          2    1    1    2  501    0  0.74169726548E+01  0.21700309851E+02  0.57799899047E+03  0.57845375607E+03  0.00000000000E+00 0.  1.
         21    1    1    2  503  502 -0.74169726548E+01 -0.21700309851E+02  0.91945300746E+02  0.94762087674E+02  0.00000000000E+00 0.  1.
</event>
<event>
 4    1  0.2243645E+005  0.2372380E+02  0.7546771E-02  0.1483604E+00
          2   -1    0    0  502    0  0.00000000000E+00  0.00000000000E+00  0.12251191752E+04  0.12251191752E+04  0.00000000000E+00 0. -1.
         21   -1    0    0  503  502 -0.00000000000E+00 -0.00000000000E+00 -0.11955363738E+01  0.11955363738E+01  0.00000000000E+00 0.  1.
          2    1    1    2  501    0  0.23575521157E+02  0.26483184030E+01  0.10931001044E+04  0.10933575157E+04  0.00000000000E+00 0. -1.
         21    1    1    2  503  501 -0.23575521157E+02 -0.26483184030E+01  0.13082353442E+03  0.13295719592E+03  0.00000000000E+00 0.  1.
</event>
<event>
 4    1  0.2243645E+005  0.2324547E+02  0.7546771E-02  0.1489439E+00
          2   -1    0    0  502    0  0.00000000000E+00  0.00000000000E+00  0.79486750271E+02  0.79486750271E+02  0.00000000000E+00 0.  1.
         21   -1    0    0  503  502 -0.00000000000E+00 -0.00000000000E+00 -0.41090524043E+02  0.41090524043E+02  0.00000000000E+00 0.  1.
          2    1    1    2  501    0  0.22913399511E+02  0.39151045529E+01  0.74274351808E+02  0.77826931440E+02  0.00000000000E+00 0.  1.
         21    1    1    2  503  501 -0.22913399511E+02 -0.39151045529E+01 -0.35878125579E+02  0.42750342875E+02  0.00000000000E+00 0.  1.
</event>
<event>
 4    1  0.2243645E+005  0.2445498E+02  0.7546771E-02  0.1474994E+00
          2   -1    0    0  503    0  0.00000000000E+00  0.00000000000E+00  0.26408184253E+03  0.26408184253E+03  0.00000000000E+00 0.  1.
         21   -1    0    0  501  502 -0.00000000000E+00 -0.00000000000E+00 -0.32375869670E+01  0.32375869670E+01  0.00000000000E+00 0. -1.
          2    1    1    2  501    0  0.19127985900E+02  0.15236997229E+02  0.20369413517E+03  0.20515688298E+03  0.00000000000E+00 0.  1.
         21    1    1    2  503  502 -0.19127985900E+02 -0.15236997229E+02  0.57150120386E+02  0.62162546515E+02  0.00000000000E+00 0. -1.
</event>
<event>
 4    1  0.2243645E+005  0.2203912E+02  0.7546771E-02  0.1504930E+00
          2   -1    0    0  503    0  0.00000000000E+00  0.00000000000E+00  0.62346969001E+02  0.62346969001E+02  0.00000000000E+00 0. -1.
         21   -1    0    0  501  502 -0.00000000000E+00 -0.00000000000E+00 -0.48767263756E+02  0.48767263756E+02  0.00000000000E+00 0.  1.
          2    1    1    2  501    0 -0.10294628535E+02 -0.19487010444E+02  0.57716322646E+02  0.61781039588E+02  0.00000000000E+00 0. -1.
         21    1    1    2  503  502  0.10294628535E+02  0.19487010444E+02 -0.44136617401E+02  0.49333193170E+02  0.00000000000E+00 0.  1.
</event>
<event>
 4    1  0.2243645E+005  0.2116585E+02  0.7546771E-02  0.1516910E+00
          2   -1    0    0  503    0  0.00000000000E+00  0.00000000000E+00  0.16280180322E+03  0.16280180322E+03  0.00000000000E+00 0.  1.
         21   -1    0    0  501  502 -0.00000000000E+00 -0.00000000000E+00 -0.35474232451E+01  0.35474232451E+01  0.00000000000E+00 0. -1.
          2    1    1    2  501    0 -0.14409928233E+02  0.15503131032E+02  0.11901811958E+03  0.12088550737E+03  0.00000000000E+00 0.  1.
         21    1    1    2  503  502  0.14409928233E+02 -0.15503131032E+02  0.40236260397E+02  0.45463719098E+02  0.00000000000E+00 0. -1.
</event>
<event>
 4    1  0.2243645E+005  0.2026026E+02  0.7546771E-02  0.1530094E+00
          2   -1    0    0  502    0  0.00000000000E+00  0.00000000000E+00  0.19347422204E+03  0.19347422204E+03  0.00000000000E+00 0.  1.
         21   -1    0    0  503  502 -0.00000000000E+00 -0.00000000000E+00 -0.40756567674E+03  0.40756567674E+03  0.00000000000E+00 0.  1.
          2    1    1    2  501    0  0.12284168247E+02 -0.16111399375E+02  0.19269101108E+03  0.19375320315E+03  0.00000000000E+00 0.  1.
         21    1    1    2  503  501 -0.12284168247E+02  0.16111399375E+02 -0.40678246578E+03  0.40728669564E+03  0.00000000000E+00 0.  1.
</event>
<event>
 4    1  0.2243645E+005  0.2362159E+02  0.7546771E-02  0.1484837E+00
          2   -1    0    0  502    0  0.00000000000E+00  0.00000000000E+00  0.11543596474E+04  0.11543596474E+04  0.00000000000E+00 0. -1.
         21   -1    0    0  503  502 -0.00000000000E+00 -0.00000000000E+00 -0.32452265372E+01  0.32452265372E+01  0.00000000000E+00 0.  1.
          2    1    1    2  501    0 -0.49257739694E+01 -0.23102295428E+02  0.11095171057E+04  0.11097685286E+04  0.00000000000E+00 0. -1.
         21    1    1    2  503  501  0.49257739694E+01  0.23102295428E+02  0.41597315156E+02  0.47836345297E+02  0.00000000000E+00 0.  1.
</event>
<event>
 4    1  0.2243645E+005  0.2063841E+02  0.7546771E-02  0.1524491E+00
          2   -1    0    0  502    0  0.00000000000E+00  0.00000000000E+00  0.35233714340E+02  0.35233714340E+02  0.00000000000E+00 0. -1.
         21   -1    0    0  503  502 -0.00000000000E+00 -0.00000000000E+00 -0.34944535650E+03  0.34944535650E+03  0.00000000000E+00 0.  1.
          2    1    1    2  501    0 -0.19633290658E+02  0.63622242417E+01  0.31877426707E+02  0.37975180484E+02  0.00000000000E+00 0. -1.
         21    1    1    2  503  501  0.19633290658E+02 -0.63622242417E+01 -0.34608906887E+03  0.34670389036E+03  0.00000000000E+00 0.  1.
</event>
<event>
 4    1  0.2243645E+005  0.2825137E+02  0.7546771E-02  0.1435427E+00
          2   -1    0    0  502    0  0.00000000000E+00  0.00000000000E+00  0.25397304361E+03  0.25397304361E+03  0.00000000000E+00 0.  1.
         21   -1    0    0  503  502 -0.00000000000E+00 -0.00000000000E+00 -0.89021055931E+01  0.89021055931E+01  0.00000000000E+00 0.  1.
          2    1    1    2  501    0  0.28186738995E+02 -0.19099557472E+01  0.22825740322E+03  0.22999909198E+03  0.00000000000E+00 0.  1.
         21    1    1    2  503  501 -0.28186738995E+02  0.19099557472E+01  0.16813534793E+02  0.32876057221E+02  0.00000000000E+00 0.  1.
</event>
<event>
 4    1  0.2243645E+005  0.5301217E+02  0.7546771E-02  0.1285616E+00
          2   -1    0    0  503    0  0.00000000000E+00  0.00000000000E+00  0.60418439391E+03  0.60418439391E+03  0.00000000000E+00 0.  1.
         21   -1    0    0  501  502 -0.00000000000E+00 -0.00000000000E+00 -0.11781814982E+02  0.11781814982E+02  0.00000000000E+00 0. -1.
          2    1    1    2  501    0  0.18907953322E+02  0.49525541859E+02  0.53579690488E+03  0.53841305081E+03  0.00000000000E+00 0.  1.
         21    1    1    2  503  502 -0.18907953322E+02 -0.49525541859E+02  0.56605674045E+02  0.77553158087E+02  0.00000000000E+00 0. -1.
</event>
<event>
 4    1  0.2243645E+005  0.2203330E+02  0.7546771E-02  0.1505007E+00
          2   -1    0    0  502    0  0.00000000000E+00  0.00000000000E+00  0.10556453726E+04  0.10556453726E+04  0.00000000000E+00 0.  1.
         21   -1    0    0  503  502 -0.00000000000E+00 -0.00000000000E+00 -0.66248676836E+02  0.66248676836E+02  0.00000000000E+00 0.  1.
          2    1    1    2  501    0  0.17528177174E+02 -0.13350263017E+02  0.10536950272E+04  0.10539253659E+04  0.00000000000E+00 0.  1.
         21    1    1    2  503  501 -0.17528177174E+02  0.13350263017E+02 -0.64298331436E+02  0.67968683547E+02  0.00000000000E+00 0.  1.
</event>
<event>
 4    1  0.2243645E+005  0.2129008E+02  0.7546771E-02  0.1515163E+00
          2   -1    0    0  503    0  0.00000000000E+00  0.00000000000E+00  0.14985526338E+04  0.14985526338E+04  0.00000000000E+00 0. -1.
         21   -1    0    0  501  502 -0.00000000000E+00 -0.00000000000E+00 -0.33452333340E+00  0.33452333340E+00  0.00000000000E+00 0. -1.
          2    1    1    2  501    0  0.16677082055E+02 -0.13234143493E+02  0.98109437633E+03  0.98132535017E+03  0.00000000000E+00 0. -1.
         21    1    1    2  503  502 -0.16677082055E+02  0.13234143493E+02  0.51712373414E+03  0.51756180696E+03  0.00000000000E+00 0. -1.
</event>
<event>
 4    1  0.2243645E+005  0.3003065E+02  0.7546771E-02  0.1419330E+00
          2   -1    0    0  503    0  0.00000000000E+00  0.00000000000E+00  0.20063738298E+03  0.20063738298E+03  0.00000000000E+00 0.  1.
         21   -1    0    0  501  502 -0.00000000000E+00 -0.00000000000E+00 -0.76205501977E+01  0.76205501977E+01  0.00000000000E+00 0.  1.
          2    1    1    2  501    0 -0.28765010884E+02 -0.86263429254E+01  0.16319683607E+03  0.16593687639E+03  0.00000000000E+00 0.  1.
         21    1    1    2  503  502  0.28765010884E+02  0.86263429254E+01  0.29819996708E+02  0.42321056782E+02  0.00000000000E+00 0.  1.
</event>
<event>
 4    1  0.2243645E+005  0.3669984E+02  0.7546771E-02  0.1368991E+00
          2   -1    0    0  503    0  0.00000000000E+00  0.00000000000E+00  0.13214816750E+04  0.13214816750E+04  0.00000000000E+00 0.  1.
         21   -1    0    0  501  502 -0.00000000000E+00 -0.00000000000E+00 -0.37432866436E+01  0.37432866436E+01  0.00000000000E+00 0. -1.
          2    1    1    2  501    0 -0.35145120003E+02 -0.10568750009E+02  0.12241211732E+04  0.12246711904E+04  0.00000000000E+00 0.  1.
         21    1    1    2  503  502  0.35145120003E+02  0.10568750009E+02  0.93617215197E+02  0.10055377128E+03  0.00000000000E+00 0. -1.
</event>
<event>
 4    1  0.2243645E+005  0.2505216E+02  0.7546771E-02  0.1468221E+00
          2   -1    0    0  503    0  0.00000000000E+00  0.00000000000E+00  0.19560214448E+03  0.19560214448E+03  0.00000000000E+00 0. -1.
         21   -1    0    0  501  502 -0.00000000000E+00 -0.00000000000E+00 -0.13293247532E+02  0.13293247532E+02  0.00000000000E+00 0.  1.
          2    1    1    2  501    0  0.24810178127E+02  0.34736086919E+01  0.18212764948E+03  0.18384257287E+03  0.00000000000E+00 0. -1.
         21    1    1    2  503  502 -0.24810178127E+02 -0.34736086919E+01  0.18124746604E+00  0.25052819136E+02  0.00000000000E+00 0.  1.
</event>
<event>
 4    1  0.2243645E+005  0.2549488E+02  0.7546771E-02  0.1463343E+00
          2   -1    0    0  503    0  0.00000000000E+00  0.00000000000E+00  0.60615379649E+03  0.60615379649E+03  0.00000000000E+00 0. -1.
         21   -1    0    0  501  502 -0.00000000000E+00 -0.00000000000E+00 -0.13658880841E+01  0.13658880841E+01  0.00000000000E+00 0. -1.
          2    1    1    2  501    0  0.23563969456E+02  0.97328409516E+01  0.44321891776E+03  0.44395157158E+03  0.00000000000E+00 0. -1.
         21    1    1    2  503  502 -0.23563969456E+02 -0.97328409516E+01  0.16156899064E+03  0.16356811299E+03  0.00000000000E+00 0. -1.
</event>
<event>
 4    1  0.2243645E+005  0.3557684E+02  0.7546771E-02  0.1376553E+00
          2   -1    0    0  503    0  0.00000000000E+00  0.00000000000E+00  0.19091550017E+03  0.19091550017E+03  0.00000000000E+00 0.  1.
         21   -1    0    0  501  502 -0.00000000000E+00 -0.00000000000E+00 -0.15577176245E+02  0.15577176245E+02  0.00000000000E+00 0. -1.
          2    1    1    2  501    0  0.29895781958E+02  0.19286100401E+02  0.16591850510E+03  0.16968989888E+03  0.00000000000E+00 0.  1.
         21    1    1    2  503  502 -0.29895781958E+02 -0.19286100401E+02  0.94198188249E+01  0.36802777535E+02  0.00000000000E+00 0. -1.
</event>
<event>
 4    1  0.2243645E+005  0.2571126E+02  0.7546771E-02  0.1461002E+00
          2   -1    0    0  503    0  0.00000000000E+00  0.00000000000E+00  0.28070705886E+01  0.28070705886E+01  0.00000000000E+00 0.  1.
         21   -1    0    0  501  502 -0.00000000000E+00 -0.00000000000E+00 -0.70533696005E+03  0.70533696005E+03  0.00000000000E+00 0.  1.
          2    1    1    2  501    0 -0.21546003059E+02  0.14029920232E+02 -0.62285968838E+02  0.67384054669E+02  0.00000000000E+00 0.  1.
         21    1    1    2  503  502  0.21546003059E+02 -0.14029920232E+02 -0.64024392062E+03  0.64075997597E+03  0.00000000000E+00 0.  1.
</event>
<event>
 4    1  0.2243645E+005  0.2730623E+02  0.7546771E-02  0.1444556E+00
          2   -1    0    0  502    0  0.00000000000E+00  0.00000000000E+00  0.11302405874E+03  0.11302405874E+03  0.00000000000E+00 0.  1.
         21   -1    0    0  503  502 -0.00000000000E+00 -0.00000000000E+00 -0.23845046229E+02  0.23845046229E+02  0.00000000000E+00 0. -1.
          2    1    1    2  501    0 -0.26824832354E+02 -0.51047695880E+01  0.10279247292E+03  0.10635752344E+03  0.00000000000E+00 0.  1.
         21    1    1    2  503  501  0.26824832354E+02  0.51047695880E+01 -0.13613460406E+02  0.30511581532E+02  0.00000000000E+00 0. -1.
</event>
<event>
 4    1  0.2243645E+005  0.2011869E+02  0.7546771E-02  0.1532229E+00
          2   -1    0    0  503    0  0.00000000000E+00  0.00000000000E+00  0.25611023881E+01  0.25611023881E+01  0.00000000000E+00 0.  1.
         21   -1    0    0  501  502 -0.00000000000E+00 -0.00000000000E+00 -0.30239810149E+03  0.30239810149E+03  0.00000000000E+00 0.  1.
          2    1    1    2  501    0  0.79734433620E+01  0.18471220588E+02 -0.44567232022E+02  0.48897852296E+02  0.00000000000E+00 0.  1.
         21    1    1    2  503  502 -0.79734433620E+01 -0.18471220588E+02 -0.25526976708E+03  0.25606135159E+03  0.00000000000E+00 0.  1.
</event>
<event>
 4    1  0.2243645E+005  0.3373912E+02  0.7546771E-02  0.1389651E+00
          2   -1    0    0  503    0  0.00000000000E+00  0.00000000000E+00  0.14365141805E+03  0.14365141805E+03  0.00000000000E+00 0. -1.
         21   -1    0    0  501  502 -0.00000000000E+00 -0.00000000000E+00 -0.32028404326E+02  0.32028404326E+02  0.00000000000E+00 0. -1.
          2    1    1    2  501    0  0.75083209490E+01 -0.32893061029E+02  0.13201419193E+03  0.13625738592E+03  0.00000000000E+00 0. -1.
         21    1    1    2  503  502 -0.75083209490E+01  0.32893061029E+02 -0.20391178206E+02  0.39422436454E+02  0.00000000000E+00 0. -1.
</event>
<event>
 4    1  0.2243645E+005  0.2631345E+02  0.7546771E-02  0.1454629E+00
          2   -1    0    0  503    0  0.00000000000E+00  0.00000000000E+00  0.11879332452E+03  0.11879332452E+03  0.00000000000E+00 0.  1.
         21   -1    0    0  501  502 -0.00000000000E+00 -0.00000000000E+00 -0.95819172076E+01  0.95819172076E+01  0.00000000000E+00 0.  1.
          2    1    1    2  501    0 -0.12652496092E+02  0.23071887214E+02  0.94778610634E+02  0.98363523070E+02  0.00000000000E+00 0.  1.
         21    1    1    2  503  502  0.12652496092E+02 -0.23071887214E+02  0.14432796683E+02  0.30011718663E+02  0.00000000000E+00 0.  1.
</event>
<event>
 4    1  0.2243645E+005  0.2127290E+02  0.7546771E-02  0.1515404E+00
          2   -1    0    0  502    0  0.00000000000E+00  0.00000000000E+00  0.85818110055E+03  0.85818110055E+03  0.00000000000E+00 0. -1.
         21   -1    0    0  503  502 -0.00000000000E+00 -0.00000000000E+00 -0.15910995644E+03  0.15910995644E+03  0.00000000000E+00 0.  1.
          2    1    1    2  501    0 -0.13782393172E+02  0.16204375607E+02  0.85733752790E+03  0.85760140677E+03  0.00000000000E+00 0. -1.
         21    1    1    2  503  501  0.13782393172E+02 -0.16204375607E+02 -0.15826638379E+03  0.15968965022E+03  0.00000000000E+00 0.  1.
</event>
<event>
 4    1  0.2243645E+005  0.2674310E+02  0.7546771E-02  0.1450206E+00
          2   -1    0    0  502    0  0.00000000000E+00  0.00000000000E+00  0.17760702119E+01  0.17760702119E+01  0.00000000000E+00 0.  1.
         21   -1    0    0  503  502 -0.00000000000E+00 -0.00000000000E+00 -0.42652121486E+03  0.42652121486E+03  0.00000000000E+00 0.  1.
          2    1    1    2  501    0 -0.21283688610E+02  0.16192525878E+02 -0.16174561814E+03  0.16394156972E+03  0.00000000000E+00 0.  1.
         21    1    1    2  503  501  0.21283688610E+02 -0.16192525878E+02 -0.26299952651E+03  0.26435571536E+03  0.00000000000E+00 0.  1.
</event>
<event>
 4    1  0.2243645E+005  0.4160084E+02  0.7546771E-02  0.1339352E+00
          2   -1    0    0  503    0  0.00000000000E+00  0.00000000000E+00  0.10175086303E+03  0.10175086303E+03  0.00000000000E+00 0. -1.
         21   -1    0    0  501  502 -0.00000000000E+00 -0.00000000000E+00 -0.85671591958E+02  0.85671591958E+02  0.00000000000E+00 0.  1.
          2    1    1    2  501    0  0.41111738203E+02 -0.63604075131E+01  0.91934403743E+02  0.10090869335E+03  0.00000000000E+00 0. -1.
         21    1    1    2  503  502 -0.41111738203E+02  0.63604075131E+01 -0.75855132667E+02  0.86513761643E+02  0.00000000000E+00 0.  1.
</event>
<event>
 4    1  0.2243645E+005  0.2562149E+02  0.7546771E-02  0.1461969E+00
          2   -1    0    0  503    0  0.00000000000E+00  0.00000000000E+00  0.19733252929E+02  0.19733252929E+02  0.00000000000E+00 0. -1.
         21   -1    0    0  501  502 -0.00000000000E+00 -0.00000000000E+00 -0.96210034082E+02  0.96210034082E+02  0.00000000000E+00 0. -1.
          2    1    1    2  501    0 -0.13952572603E+02 -0.21489218712E+02  0.86516054438E+01  0.27042763909E+02  0.00000000000E+00 0. -1.
         21    1    1    2  503  502  0.13952572603E+02  0.21489218712E+02 -0.85128386598E+02  0.88900523102E+02  0.00000000000E+00 0. -1.
</event>
<event>
 4    1  0.2243645E+005  0.2772954E+02  0.7546771E-02  0.1440414E+00
          2   -1    0    0  503    0  0.00000000000E+00  0.00000000000E+00  0.76431702171E+03  0.76431702171E+03  0.00000000000E+00 0. -1.
         21   -1    0    0  501  502 -0.00000000000E+00 -0.00000000000E+00 -0.22628946461E+01  0.22628946461E+01  0.00000000000E+00 0.  1.
          2    1    1    2  501    0  0.15097483337E+02 -0.23259264114E+02  0.66668032441E+03  0.66725675893E+03  0.00000000000E+00 0. -1.
         21    1    1    2  503  502 -0.15097483337E+02  0.23259264114E+02  0.95373802650E+02  0.99323157431E+02  0.00000000000E+00 0.  1.
</event>
<event>
 4    1  0.2243645E+005  0.3175135E+02  0.7546771E-02  0.1404964E+00
          2   -1    0    0  502    0  0.00000000000E+00  0.00000000000E+00  0.58923380189E+03  0.58923380189E+03  0.00000000000E+00 0.  1.
         21   -1    0    0  503  502 -0.00000000000E+00 -0.00000000000E+00 -0.12410514781E+03  0.12410514781E+03  0.00000000000E+00 0. -1.
          2    1    1    2  501    0  0.31214331042E+02 -0.58149717737E+01  0.58676669725E+03  0.58762514017E+03  0.00000000000E+00 0.  1.
         21    1    1    2  503  501 -0.31214331042E+02  0.58149717737E+01 -0.12163804317E+03  0.12571380953E+03  0.00000000000E+00 0. -1.
</event>
<event>
 4    1  0.2243645E+005  0.2522709E+02  0.7546771E-02  0.1466279E+00
          2   -1    0    0  502    0  0.00000000000E+00  0.00000000000E+00  0.69724850772E+02  0.69724850772E+02  0.00000000000E+00 0. -1.
         21   -1    0    0  503  502 -0.00000000000E+00 -0.00000000000E+00 -0.12053181339E+03  0.12053181339E+03  0.00000000000E+00 0. -1.
          2    1    1    2  501    0  0.25050361380E+02 -0.29808140870E+01  0.66052108691E+02  0.70705635705E+02  0.00000000000E+00 0. -1.
         21    1    1    2  503  501 -0.25050361380E+02  0.29808140870E+01 -0.11685907131E+03  0.11955102846E+03  0.00000000000E+00 0. -1.
</event>
<event>
 4    1  0.2243645E+005  0.2845189E+02  0.7546771E-02  0.1433545E+00
          2   -1    0    0  503    0  0.00000000000E+00  0.00000000000E+00  0.63342507480E+01  0.63342507480E+01  0.00000000000E+00 0.  1.
         21   -1    0    0  501  502 -0.00000000000E+00 -0.00000000000E+00 -0.19221834099E+03  0.19221834099E+03  0.00000000000E+00 0.  1.
          2    1    1    2  501    0  0.27226251534E+02  0.82608113970E+01 -0.35469967846E+02  0.45471182045E+02  0.00000000000E+00 0.  1.
         21    1    1    2  503  502 -0.27226251534E+02 -0.82608113970E+01 -0.15041412240E+03  0.15308140970E+03  0.00000000000E+00 0.  1.
</event>
<event>
 4    1  0.2243645E+005  0.2102986E+02  0.7546771E-02  0.1518839E+00
          2   -1    0    0  503    0  0.00000000000E+00  0.00000000000E+00  0.16084219880E+04  0.16084219880E+04  0.00000000000E+00 0.  1.
         21   -1    0    0  501  502 -0.00000000000E+00 -0.00000000000E+00 -0.39898651088E+00  0.39898651088E+00  0.00000000000E+00 0.  1.
          2    1    1    2  501    0  0.97046699861E+01 -0.18656753524E+02  0.12525009401E+04  0.12526774764E+04  0.00000000000E+00 0.  1.
         21    1    1    2  503  502 -0.97046699861E+01  0.18656753524E+02  0.35552206140E+03  0.35614349806E+03  0.00000000000E+00 0.  1.
</event>
<event>
 4    1  0.2243645E+005  0.2327630E+02  0.7546771E-02  0.1489057E+00
          2   -1    0    0  503    0  0.00000000000E+00  0.00000000000E+00  0.14046162833E+04  0.14046162833E+04  0.00000000000E+00 0. -1.
         21   -1    0    0  501  502 -0.00000000000E+00 -0.00000000000E+00 -0.15414013782E+01  0.15414013782E+01  0.00000000000E+00 0. -1.
          2    1    1    2  501    0 -0.15013738656E+02  0.17786898001E+02  0.13103246935E+04  0.13105314146E+04  0.00000000000E+00 0. -1.
         21    1    1    2  503  502  0.15013738656E+02 -0.17786898001E+02  0.92750188393E+02  0.95626270114E+02  0.00000000000E+00 0. -1.
</event>
<event>
 4    1  0.2243645E+005  0.2479084E+02  0.7546771E-02  0.1471157E+00
          2   -1    0    0  502    0  0.00000000000E+00  0.00000000000E+00  0.12250913402E+04  0.12250913402E+04  0.00000000000E+00 0. -1.
         21   -1    0    0  503  502 -0.00000000000E+00 -0.00000000000E+00 -0.15048723193E+01  0.15048723193E+01  0.00000000000E+00 0. -1.
          2    1    1    2  501    0  0.62180590425E+01 -0.23998369292E+02  0.11125387250E+04  0.11128148996E+04  0.00000000000E+00 0. -1.
         21    1    1    2  503  501 -0.62180590425E+01  0.23998369292E+02  0.11104774285E+03  0.11378131296E+03  0.00000000000E+00 0. -1.
</event>
<event>
 4    1  0.2243645E+005  0.2192744E+02  0.7546771E-02  0.1506424E+00
          2   -1    0    0  503    0  0.00000000000E+00  0.00000000000E+00  0.60506266807E+02  0.60506266807E+02  0.00000000000E+00 0. -1.
         21   -1    0    0  501  502 -0.00000000000E+00 -0.00000000000E+00 -0.43028680001E+02  0.43028680001E+02  0.00000000000E+00 0.  1.
          2    1    1    2  501    0 -0.18258499102E+02  0.12142488159E+02  0.55482297759E+02  0.59658177753E+02  0.00000000000E+00 0. -1.
         21    1    1    2  503  502  0.18258499102E+02 -0.12142488159E+02 -0.38004710953E+02  0.43876769055E+02  0.00000000000E+00 0.  1.
</event>
<event>
 4    1  0.2243645E+005  0.2608831E+02  0.7546771E-02  0.1456988E+00
          2   -1    0    0  503    0  0.00000000000E+00  0.00000000000E+00  0.72937675952E+03  0.72937675952E+03  0.00000000000E+00 0. -1.
         21   -1    0    0  501  502 -0.00000000000E+00 -0.00000000000E+00 -0.75867073321E+01  0.75867073321E+01  0.00000000000E+00 0. -1.
          2    1    1    2  501    0  0.59222341104E+01 -0.25407222842E+02  0.70597285705E+03  0.70645472234E+03  0.00000000000E+00 0. -1.
         21    1    1    2  503  502 -0.59222341104E+01  0.25407222842E+02  0.15817195134E+02  0.30508744505E+02  0.00000000000E+00 0. -1.
</event>
